<event>
 6    1  0.1528034E-005  0.1543927E+04  0.7818608E-02  0.8855756E-01
         -2   -1    0    0    0  501 -0.00000000000E+00  0.00000000000E+00  0.16853543256E+03  0.16853543256E+03  0.00000000000E+00 0. -1.
          2   -1    0    0  501    0  0.00000000000E+00 -0.00000000000E+00 -0.35359209648E+04  0.35359209648E+04  0.00000000000E+00 0.  1.
         23    2    1    2    0    0  0.55556822642E+03 -0.45628553006E+03 -0.10334475710E+04  0.12623018269E+04  0.92409312402E+02 0.  0.
         13    1    3    3    0    0  0.20375140653E+03 -0.13013981538E+03 -0.29071783874E+03  0.37811092152E+03  0.00000000000E+00 0.  1.
        -13    1    3    3    0    0  0.35181681990E+03 -0.32614571468E+03 -0.74272973227E+03  0.88419090538E+03  0.00000000000E+00 0. -1.
         22    1    1    2    0    0 -0.55556822642E+03  0.45628553006E+03 -0.23339379612E+04  0.24421545705E+04  0.00000000000E+00 0.  1.
<mgrwt>
<rscale>  0 0.15439274E+04</rscale>
<asrwt>0</asrwt>
<pdfrwt beam="1">  1        2 0.54398780E+00 0.15439274E+04</pdfrwt>
<pdfrwt beam="2">  1       -2 0.25928530E-01 0.15439274E+04</pdfrwt>
<totfact> 0.10052101E+01</totfact>
</mgrwt>
</event>
<event>
 6    1  0.1528034E-005  0.2198460E+04  0.7818608E-02  0.8519069E-01
         -2   -1    0    0    0  501 -0.00000000000E+00  0.00000000000E+00  0.13854931040E+04  0.13854931040E+04  0.00000000000E+00 0.  1.
          2   -1    0    0  501    0  0.00000000000E+00 -0.00000000000E+00 -0.87211324957E+03  0.87211324957E+03  0.00000000000E+00 0. -1.
         23    2    1    2    0    0  0.98172409188E+01  0.21338838316E+03  0.13626187048E+04  0.13819137103E+04  0.85584973830E+02 0.  0.
         11    1    3    3    0    0  0.28758941764E+02  0.28694455492E+02  0.35655700013E+03  0.35886396148E+03  0.00000000000E+00 0. -1.
        -11    1    3    3    0    0 -0.18941700845E+02  0.18469392767E+03  0.10060617047E+04  0.10230497488E+04  0.00000000000E+00 0.  1.
         22    1    1    2    0    0 -0.98172409188E+01 -0.21338838316E+03 -0.84923885043E+03  0.87569264321E+03  0.00000000000E+00 0. -1.
<mgrwt>
<rscale>  0 0.21984603E+04</rscale>
<asrwt>0</asrwt>
<pdfrwt beam="1">  1        2 0.13417127E+00 0.21984603E+04</pdfrwt>
<pdfrwt beam="2">  1       -2 0.21315279E+00 0.21984603E+04</pdfrwt>
<totfact> 0.30596816E+00</totfact>
</mgrwt>
</event>
<event>
 6    1  0.1528034E-005  0.7208105E+03  0.7818608E-02  0.9682291E-01
          1   -1    0    0  501    0  0.00000000000E+00  0.00000000000E+00  0.15204673327E+04  0.15204673327E+04  0.00000000000E+00 0. -1.
         -1   -1    0    0    0  501 -0.00000000000E+00 -0.00000000000E+00 -0.85428964302E+02  0.85428964302E+02  0.00000000000E+00 0.  1.
         23    2    1    2    0    0 -0.34178790809E+03 -0.89019242086E+02  0.79653263292E+03  0.87621624806E+03  0.92451492578E+02 0.  0.
         11    1    3    3    0    0 -0.55717774910E+02 -0.49417577538E+02  0.13029487799E+03  0.15007772200E+03  0.00000000000E+00 0. -1.
        -11    1    3    3    0    0 -0.28607013318E+03 -0.39601664548E+02  0.66623775493E+03  0.72613852606E+03  0.00000000000E+00 0.  1.
         22    1    1    2    0    0  0.34178790809E+03  0.89019242086E+02  0.63850573543E+03  0.72968004889E+03  0.00000000000E+00 0. -1.
<mgrwt>
<rscale>  0 0.72081051E+03</rscale>
<asrwt>0</asrwt>
<pdfrwt beam="1">  1        1 0.23391803E+00 0.72081051E+03</pdfrwt>
<pdfrwt beam="2">  1       -1 0.13142919E-01 0.72081051E+03</pdfrwt>
<totfact> 0.26339369E+02</totfact>
</mgrwt>
</event>
<event>
 6    1  0.1528034E-005  0.6740627E+03  0.7818608E-02  0.9762646E-01
         -1   -1    0    0    0  501 -0.00000000000E+00  0.00000000000E+00  0.36823083716E+03  0.36823083716E+03  0.00000000000E+00 0.  1.
          1   -1    0    0  501    0  0.00000000000E+00 -0.00000000000E+00 -0.30847530342E+03  0.30847530342E+03  0.00000000000E+00 0. -1.
         23    2    1    2    0    0 -0.22428047211E+03  0.35686418702E+02 -0.20865361381E+03  0.32511159975E+03  0.10288814842E+03 0.  0.
         13    1    3    3    0    0 -0.43781757635E+02  0.34658562455E+02 -0.99709979236E+02  0.11428096172E+03  0.00000000000E+00 0.  1.
        -13    1    3    3    0    0 -0.18049871448E+03  0.10278562470E+01 -0.10894363457E+03  0.21083063803E+03  0.00000000000E+00 0. -1.
         22    1    1    2    0    0  0.22428047211E+03 -0.35686418702E+02  0.26840914755E+03  0.35159454083E+03  0.00000000000E+00 0.  1.
<mgrwt>
<rscale>  0 0.67406267E+03</rscale>
<asrwt>0</asrwt>
<pdfrwt beam="1">  1        1 0.47457739E-01 0.67406267E+03</pdfrwt>
<pdfrwt beam="2">  1       -1 0.56650898E-01 0.67406267E+03</pdfrwt>
<totfact> 0.27041813E+02</totfact>
</mgrwt>
</event>
<event>
 6    1  0.1528034E-005  0.2740666E+04  0.7818608E-02  0.8321930E-01
         -1   -1    0    0    0  501 -0.00000000000E+00  0.00000000000E+00  0.62586529789E+03  0.62586529789E+03  0.00000000000E+00 0.  1.
          1   -1    0    0  501    0  0.00000000000E+00 -0.00000000000E+00 -0.30003460306E+04  0.30003460306E+04  0.00000000000E+00 0. -1.
         23    2    1    2    0    0  0.52869027110E+03  0.61453924071E+03 -0.26478829943E+04  0.27706877007E+04  0.90852089034E+02 0.  0.
         13    1    3    3    0    0  0.38163270168E+03  0.42200905506E+03 -0.17182533891E+04  0.18100082515E+04  0.00000000000E+00 0.  1.
        -13    1    3    3    0    0  0.14705756942E+03  0.19253018565E+03 -0.92962960525E+03  0.96067944918E+03  0.00000000000E+00 0. -1.
         22    1    1    2    0    0 -0.52869027110E+03 -0.61453924071E+03  0.27340226158E+03  0.85552362783E+03  0.00000000000E+00 0.  1.
<mgrwt>
<rscale>  0 0.27406659E+04</rscale>
<asrwt>0</asrwt>
<pdfrwt beam="1">  1        1 0.46159170E+00 0.27406659E+04</pdfrwt>
<pdfrwt beam="2">  1       -1 0.96286967E-01 0.27406659E+04</pdfrwt>
<totfact> 0.53968211E-01</totfact>
</mgrwt>
</event>
<event>
 6    1  0.1528034E-005  0.3138652E+04  0.7818608E-02  0.8205210E-01
          2   -1    0    0  501    0  0.00000000000E+00  0.00000000000E+00  0.96684458120E+03  0.96684458120E+03  0.00000000000E+00 0. -1.
         -2   -1    0    0    0  501 -0.00000000000E+00 -0.00000000000E+00 -0.25472385647E+04  0.25472385647E+04  0.00000000000E+00 0.  1.
         23    2    1    2    0    0  0.15605359239E+04  0.10625369636E+03 -0.66779051144E+03  0.17031697535E+04  0.90999034578E+02 0.  0.
         11    1    3    3    0    0  0.10132397484E+04  0.37685419820E+02 -0.39948105580E+03  0.10897981889E+04  0.00000000000E+00 0. -1.
        -11    1    3    3    0    0  0.54729617551E+03  0.68568276536E+02 -0.26830945564E+03  0.61337156460E+03  0.00000000000E+00 0.  1.
         22    1    1    2    0    0 -0.15605359239E+04 -0.10625369636E+03 -0.91260347209E+03  0.18109133924E+04  0.00000000000E+00 0.  1.
<mgrwt>
<rscale>  0 0.31386518E+04</rscale>
<asrwt>0</asrwt>
<pdfrwt beam="1">  1        2 0.14874532E+00 0.31386518E+04</pdfrwt>
<pdfrwt beam="2">  1       -2 0.39188285E+00 0.31386518E+04</pdfrwt>
<totfact> 0.18768573E-01</totfact>
</mgrwt>
</event>
<event>
 6    1  0.1528034E-005  0.3753332E+04  0.7818608E-02  0.8056245E-01
         -2   -1    0    0    0  501 -0.00000000000E+00  0.00000000000E+00  0.21296912992E+04  0.21296912992E+04  0.00000000000E+00 0. -1.
          2   -1    0    0  501    0  0.00000000000E+00 -0.00000000000E+00 -0.16537021676E+04  0.16537021676E+04  0.00000000000E+00 0.  1.
         23    2    1    2    0    0 -0.11730479305E+04 -0.98402843235E+03 -0.85366808832E+03  0.17555025118E+04  0.93201184229E+02 0.  0.
         11    1    3    3    0    0 -0.44980405966E+03 -0.33778933236E+03 -0.35156047392E+03  0.66334010279E+03  0.00000000000E+00 0. -1.
        -11    1    3    3    0    0 -0.72324387087E+03 -0.64623910000E+03 -0.50210761440E+03  0.10921624090E+04  0.00000000000E+00 0.  1.
         22    1    1    2    0    0  0.11730479305E+04  0.98402843235E+03  0.13296572199E+04  0.20278909550E+04  0.00000000000E+00 0. -1.
<mgrwt>
<rscale>  0 0.37533319E+04</rscale>
<asrwt>0</asrwt>
<pdfrwt beam="1">  1        2 0.25441572E+00 0.37533319E+04</pdfrwt>
<pdfrwt beam="2">  1       -2 0.32764482E+00 0.37533319E+04</pdfrwt>
<totfact> 0.17981005E-01</totfact>
</mgrwt>
</event>
<event>
 6    1  0.2515659E-005  0.3114466E+04  0.7818608E-02  0.8211779E-01
          2   -1    0    0  501    0  0.00000000000E+00  0.00000000000E+00  0.17956981641E+04  0.17956981641E+04  0.00000000000E+00 0. -1.
         -2   -1    0    0    0  501 -0.00000000000E+00 -0.00000000000E+00 -0.13504358334E+04  0.13504358334E+04  0.00000000000E+00 0.  1.
         23    2    1    2    0    0  0.60827650324E+03  0.13386723414E+04 -0.29281626570E+03  0.15008972496E+04  0.70051740356E+02 0.  0.
         13    1    3    3    0    0  0.12062422758E+03  0.23396291249E+03 -0.76520035859E+02  0.27412435971E+03  0.00000000000E+00 0. -1.
        -13    1    3    3    0    0  0.48765227566E+03  0.11047094289E+04 -0.21629622984E+03  0.12267728899E+04  0.00000000000E+00 0.  1.
         22    1    1    2    0    0 -0.60827650324E+03 -0.13386723414E+04  0.73807859633E+03  0.16452367479E+04  0.00000000000E+00 0. -1.
<mgrwt>
<rscale>  0 0.31144663E+04</rscale>
<asrwt>0</asrwt>
<pdfrwt beam="1">  1        2 0.27626126E+00 0.31144663E+04</pdfrwt>
<pdfrwt beam="2">  1       -2 0.20775936E+00 0.31144663E+04</pdfrwt>
<totfact> 0.87110917E-01</totfact>
</mgrwt>
</event>
<event>
 6    1  0.1528034E-005  0.1584334E+04  0.7818608E-02  0.8830230E-01
         -2   -1    0    0    0  501 -0.00000000000E+00  0.00000000000E+00  0.87276908159E+03  0.87276908159E+03  0.00000000000E+00 0.  1.
          2   -1    0    0  501    0  0.00000000000E+00 -0.00000000000E+00 -0.71900906332E+03  0.71900906332E+03  0.00000000000E+00 0. -1.
         23    2    1    2    0    0  0.34515008090E+03 -0.57994630080E+03 -0.33462665193E+03  0.75871882541E+03  0.90625436282E+02 0.  0.
         11    1    3    3    0    0  0.32118362313E+03 -0.56780554799E+03 -0.30995243322E+03  0.72224135229E+03  0.00000000000E+00 0.  1.
        -11    1    3    3    0    0  0.23966457771E+02 -0.12140752807E+02 -0.24674218704E+02  0.36477473123E+02  0.00000000000E+00 0. -1.
         22    1    1    2    0    0 -0.34515008090E+03  0.57994630080E+03  0.48838667020E+03  0.83305931949E+03  0.00000000000E+00 0.  1.
<mgrwt>
<rscale>  0 0.15843344E+04</rscale>
<asrwt>0</asrwt>
<pdfrwt beam="1">  1        2 0.11061678E+00 0.15843344E+04</pdfrwt>
<pdfrwt beam="2">  1       -2 0.13427217E+00 0.15843344E+04</pdfrwt>
<totfact> 0.15201673E+01</totfact>
</mgrwt>
</event>
<event>
 6    1  0.1528034E-005  0.2272582E+04  0.7818608E-02  0.8488811E-01
          2   -1    0    0  501    0  0.00000000000E+00  0.00000000000E+00  0.19102752956E+04  0.19102752956E+04  0.00000000000E+00 0. -1.
         -2   -1    0    0    0  501 -0.00000000000E+00 -0.00000000000E+00 -0.67590137356E+03  0.67590137356E+03  0.00000000000E+00 0.  1.
         23    2    1    2    0    0  0.81195330859E+01 -0.55990372013E+03  0.17411268087E+04  0.18309571046E+04  0.85576003192E+02 0.  0.
         13    1    3    3    0    0 -0.86765831906E+01 -0.41571480279E+02  0.21405254438E+03  0.21822456971E+03  0.00000000000E+00 0. -1.
        -13    1    3    3    0    0  0.16796116276E+02 -0.51833223985E+03  0.15270742643E+04  0.16127325349E+04  0.00000000000E+00 0.  1.
         22    1    1    2    0    0 -0.81195330859E+01  0.55990372013E+03 -0.50675288662E+03  0.75521956459E+03  0.00000000000E+00 0.  1.
<mgrwt>
<rscale>  0 0.22725824E+04</rscale>
<asrwt>0</asrwt>
<pdfrwt beam="1">  1        2 0.29388850E+00 0.22725824E+04</pdfrwt>
<pdfrwt beam="2">  1       -2 0.10398483E+00 0.22725824E+04</pdfrwt>
<totfact> 0.51236724E+00</totfact>
</mgrwt>
</event>
<event>
 6    1  0.1528034E-005  0.2436504E+04  0.7818608E-02  0.8425962E-01
          2   -1    0    0  501    0  0.00000000000E+00  0.00000000000E+00  0.12873671425E+04  0.12873671425E+04  0.00000000000E+00 0. -1.
         -2   -1    0    0    0  501 -0.00000000000E+00 -0.00000000000E+00 -0.11528474384E+04  0.11528474384E+04  0.00000000000E+00 0.  1.
         23    2    1    2    0    0 -0.78622504296E+03 -0.89064779537E+03 -0.19484236542E+03  0.12073793582E+04  0.91640895525E+02 0.  0.
         11    1    3    3    0    0 -0.36227022728E+03 -0.34771843011E+03 -0.63819259729E+02  0.50618249883E+03  0.00000000000E+00 0.  1.
        -11    1    3    3    0    0 -0.42395481568E+03 -0.54292936525E+03 -0.13102310569E+03  0.70119685939E+03  0.00000000000E+00 0. -1.
         22    1    1    2    0    0  0.78622504296E+03  0.89064779537E+03  0.32936206947E+03  0.12328352227E+04  0.00000000000E+00 0.  1.
<mgrwt>
<rscale>  0 0.24365040E+04</rscale>
<asrwt>0</asrwt>
<pdfrwt beam="1">  1        2 0.19805648E+00 0.24365040E+04</pdfrwt>
<pdfrwt beam="2">  1       -2 0.17736115E+00 0.24365040E+04</pdfrwt>
<totfact> 0.28515759E+00</totfact>
</mgrwt>
</event>
<event>
 6    1  0.1528034E-005  0.2781359E+04  0.7818608E-02  0.8309079E-01
         -1   -1    0    0    0  501 -0.00000000000E+00  0.00000000000E+00  0.68171809427E+03  0.68171809427E+03  0.00000000000E+00 0.  1.
          1   -1    0    0  501    0  0.00000000000E+00 -0.00000000000E+00 -0.28369338135E+04  0.28369338135E+04  0.00000000000E+00 0. -1.
         23    2    1    2    0    0 -0.11032280912E+04  0.60416052602E+03 -0.33351543698E+03  0.13048962571E+04  0.96951186709E+02 0.  0.
         11    1    3    3    0    0 -0.42000501089E+03  0.23170217982E+03 -0.78727581893E+02  0.48609478650E+03  0.00000000000E+00 0. -1.
        -11    1    3    3    0    0 -0.68322308034E+03  0.37245834620E+03 -0.25478785508E+03  0.81880147060E+03  0.00000000000E+00 0.  1.
         22    1    1    2    0    0  0.11032280912E+04 -0.60416052602E+03 -0.18217002823E+04  0.22137556507E+04  0.00000000000E+00 0. -1.
<mgrwt>
<rscale>  0 0.27813587E+04</rscale>
<asrwt>0</asrwt>
<pdfrwt beam="1">  1        1 0.43645136E+00 0.27813587E+04</pdfrwt>
<pdfrwt beam="2">  1       -1 0.10487971E+00 0.27813587E+04</pdfrwt>
<totfact> 0.58015422E-01</totfact>
</mgrwt>
</event>
<event>
 6    1  0.1528034E-005  0.1218825E+04  0.7818608E-02  0.9096537E-01
          2   -1    0    0  501    0  0.00000000000E+00  0.00000000000E+00  0.14903610798E+04  0.14903610798E+04  0.00000000000E+00 0. -1.
         -2   -1    0    0    0  501 -0.00000000000E+00 -0.00000000000E+00 -0.24919032549E+03  0.24919032549E+03  0.00000000000E+00 0.  1.
         23    2    1    2    0    0 -0.13801812208E+02  0.54482785958E+03  0.10023237855E+04  0.11445087505E+04  0.90661029331E+02 0.  0.
         11    1    3    3    0    0  0.28262980971E+02  0.29995805452E+03  0.49209470856E+03  0.57700158818E+03  0.00000000000E+00 0. -1.
        -11    1    3    3    0    0 -0.42064793179E+02  0.24486980506E+03  0.51022907696E+03  0.56750716227E+03  0.00000000000E+00 0.  1.
         22    1    1    2    0    0  0.13801812208E+02 -0.54482785958E+03  0.23884696882E+03  0.59504265487E+03  0.00000000000E+00 0. -1.
<mgrwt>
<rscale>  0 0.12188249E+04</rscale>
<asrwt>0</asrwt>
<pdfrwt beam="1">  1        2 0.22928632E+00 0.12188249E+04</pdfrwt>
<pdfrwt beam="2">  1       -2 0.38336974E-01 0.12188249E+04</pdfrwt>
<totfact> 0.81358377E+01</totfact>
</mgrwt>
</event>
<event>
 6    1  0.1528034E-005  0.1884997E+03  0.7818608E-02  0.1159821E+00
          1   -1    0    0  501    0  0.00000000000E+00  0.00000000000E+00  0.16833090761E+03  0.16833090761E+03  0.00000000000E+00 0. -1.
         -1   -1    0    0    0  501 -0.00000000000E+00 -0.00000000000E+00 -0.52771271719E+02  0.52771271719E+02  0.00000000000E+00 0.  1.
         23    2    1    2    0    0  0.29669012893E+02 -0.23042296590E+02  0.14350294746E+03  0.17428309754E+03  0.91489367690E+02 0.  0.
         11    1    3    3    0    0 -0.17676364424E+02 -0.30454375695E+02  0.11081296612E+03  0.11627311090E+03  0.00000000000E+00 0.  1.
        -11    1    3    3    0    0  0.47345377317E+02  0.74120791050E+01  0.32689981341E+02  0.58009986640E+02  0.00000000000E+00 0. -1.
         22    1    1    2    0    0 -0.29669012893E+02  0.23042296590E+02 -0.27943311568E+02  0.46819081789E+02  0.00000000000E+00 0.  1.
<mgrwt>
<rscale>  0 0.18849972E+03</rscale>
<asrwt>0</asrwt>
<pdfrwt beam="1">  1        1 0.25897062E-01 0.18849972E+03</pdfrwt>
<pdfrwt beam="2">  1       -1 0.81186573E-02 0.18849972E+03</pdfrwt>
<totfact> 0.14787077E+04</totfact>
</mgrwt>
</event>
<event>
 6    1  0.1528034E-005  0.7634753E+03  0.7818608E-02  0.9614444E-01
          2   -1    0    0  501    0  0.00000000000E+00  0.00000000000E+00  0.11437385014E+04  0.11437385014E+04  0.00000000000E+00 0. -1.
         -2   -1    0    0    0  501 -0.00000000000E+00 -0.00000000000E+00 -0.12740993572E+03  0.12740993572E+03  0.00000000000E+00 0.  1.
         23    2    1    2    0    0  0.32097974179E+03 -0.19298812640E+03  0.45816450623E+03  0.59897321529E+03  0.92637931232E+02 0.  0.
         11    1    3    3    0    0  0.15312272775E+03 -0.14237918064E+03  0.27451020115E+03  0.34507137142E+03  0.00000000000E+00 0. -1.
        -11    1    3    3    0    0  0.16785701403E+03 -0.50608945755E+02  0.18365430508E+03  0.25390184388E+03  0.00000000000E+00 0.  1.
         22    1    1    2    0    0 -0.32097974179E+03  0.19298812640E+03  0.55816405945E+03  0.67217522182E+03  0.00000000000E+00 0.  1.
<mgrwt>
<rscale>  0 0.76347534E+03</rscale>
<asrwt>0</asrwt>
<pdfrwt beam="1">  1        2 0.17595976E+00 0.76347534E+03</pdfrwt>
<pdfrwt beam="2">  1       -2 0.19601529E-01 0.76347534E+03</pdfrwt>
<totfact> 0.45582345E+02</totfact>
</mgrwt>
</event>
<event>
 6    1  0.1528034E-005  0.5088916E+03  0.7818608E-02  0.1011484E+00
          2   -1    0    0  501    0  0.00000000000E+00  0.00000000000E+00  0.17429250177E+04  0.17429250177E+04  0.00000000000E+00 0. -1.
         -2   -1    0    0    0  501 -0.00000000000E+00 -0.00000000000E+00 -0.37145979640E+02  0.37145979640E+02  0.00000000000E+00 0.  1.
         23    2    1    2    0    0  0.13171431902E+03  0.19547408703E+03  0.11363419041E+04  0.11637776986E+04  0.86872482567E+02 0.  0.
         13    1    3    3    0    0  0.35692524528E+02  0.11790582135E+03  0.67822747735E+03  0.68932448821E+03  0.00000000000E+00 0.  1.
        -13    1    3    3    0    0  0.96021794493E+02  0.77568265677E+02  0.45811442671E+03  0.47445321036E+03  0.00000000000E+00 0. -1.
         22    1    1    2    0    0 -0.13171431902E+03 -0.19547408703E+03  0.56943713405E+03  0.61629329882E+03  0.00000000000E+00 0.  1.
<mgrwt>
<rscale>  0 0.50889157E+03</rscale>
<asrwt>0</asrwt>
<pdfrwt beam="1">  1        2 0.26814225E+00 0.50889157E+03</pdfrwt>
<pdfrwt beam="2">  1       -2 0.57147675E-02 0.50889157E+03</pdfrwt>
<totfact> 0.15981816E+03</totfact>
</mgrwt>
</event>
<event>
 6    1  0.1528034E-005  0.4119991E+04  0.7818608E-02  0.7980769E-01
          2   -1    0    0  501    0  0.00000000000E+00  0.00000000000E+00  0.22660326781E+04  0.22660326781E+04  0.00000000000E+00 0. -1.
         -2   -1    0    0    0  501 -0.00000000000E+00 -0.00000000000E+00 -0.18726920027E+04  0.18726920027E+04  0.00000000000E+00 0.  1.
         23    2    1    2    0    0 -0.18860760407E+04  0.65153787218E+03 -0.31314641971E+03  0.20219090427E+04  0.90945403436E+02 0.  0.
         13    1    3    3    0    0 -0.78718227001E+03  0.31507497802E+03 -0.11381697938E+03  0.85550129912E+03  0.00000000000E+00 0.  1.
        -13    1    3    3    0    0 -0.10988937707E+04  0.33646289416E+03 -0.19932944033E+03  0.11664077436E+04  0.00000000000E+00 0. -1.
         22    1    1    2    0    0  0.18860760407E+04 -0.65153787218E+03  0.70648709515E+03  0.21168156382E+04  0.00000000000E+00 0.  1.
<mgrwt>
<rscale>  0 0.41199909E+04</rscale>
<asrwt>0</asrwt>
<pdfrwt beam="1">  1        2 0.34862041E+00 0.41199909E+04</pdfrwt>
<pdfrwt beam="2">  1       -2 0.28810646E+00 0.41199909E+04</pdfrwt>
<totfact> 0.13914311E-01</totfact>
</mgrwt>
</event>
<event>
 6    1  0.1528034E-005  0.1108267E+04  0.7818608E-02  0.9197171E-01
         -1   -1    0    0    0  501 -0.00000000000E+00  0.00000000000E+00  0.39322968403E+03  0.39322968403E+03  0.00000000000E+00 0.  1.
          1   -1    0    0  501    0  0.00000000000E+00 -0.00000000000E+00 -0.78087725710E+03  0.78087725710E+03  0.00000000000E+00 0. -1.
         23    2    1    2    0    0  0.13502272669E+03  0.43876287599E+03 -0.51673261275E+03  0.69723489798E+03  0.91541858206E+02 0.  0.
         11    1    3    3    0    0  0.23413275593E+02  0.82046994588E+02 -0.15585668626E+03  0.17768285637E+03  0.00000000000E+00 0.  1.
        -11    1    3    3    0    0  0.11160945110E+03  0.35671588140E+03 -0.36087592650E+03  0.51955204161E+03  0.00000000000E+00 0. -1.
         22    1    1    2    0    0 -0.13502272669E+03 -0.43876287599E+03  0.12908503968E+03  0.47687204315E+03  0.00000000000E+00 0.  1.
<mgrwt>
<rscale>  0 0.11082673E+04</rscale>
<asrwt>0</asrwt>
<pdfrwt beam="1">  1        1 0.12013496E+00 0.11082673E+04</pdfrwt>
<pdfrwt beam="2">  1       -1 0.60496874E-01 0.11082673E+04</pdfrwt>
<totfact> 0.63427678E+01</totfact>
</mgrwt>
</event>
<event>
 6    1  0.1528034E-005  0.2417986E+04  0.7818608E-02  0.8432800E-01
         -2   -1    0    0    0  501 -0.00000000000E+00  0.00000000000E+00  0.86771305604E+03  0.86771305604E+03  0.00000000000E+00 0.  1.
          2   -1    0    0  501    0  0.00000000000E+00 -0.00000000000E+00 -0.16845021593E+04  0.16845021593E+04  0.00000000000E+00 0. -1.
         23    2    1    2    0    0  0.15595647973E+03  0.91786512844E+03  0.40410339131E+03  0.10168399189E+04  0.62169544400E+02 0.  0.
         11    1    3    3    0    0  0.45418919700E+01  0.71437641153E+02  0.15497815276E+02  0.73240341578E+02  0.00000000000E+00 0. -1.
        -11    1    3    3    0    0  0.15141458776E+03  0.84642748729E+03  0.38860557604E+03  0.94359957734E+03  0.00000000000E+00 0.  1.
         22    1    1    2    0    0 -0.15595647973E+03 -0.91786512844E+03 -0.12208924946E+04  0.15353752964E+04  0.00000000000E+00 0. -1.
<mgrwt>
<rscale>  0 0.24179864E+04</rscale>
<asrwt>0</asrwt>
<pdfrwt beam="1">  1        2 0.25915417E+00 0.24179864E+04</pdfrwt>
<pdfrwt beam="2">  1       -2 0.13349432E+00 0.24179864E+04</pdfrwt>
<totfact> 0.36472111E+00</totfact>
</mgrwt>
</event>
<event>
 6    1  0.1528034E-005  0.1882465E+04  0.7818608E-02  0.8663634E-01
          2   -1    0    0  501    0  0.00000000000E+00  0.00000000000E+00  0.12443250167E+04  0.12443250167E+04  0.00000000000E+00 0. -1.
         -2   -1    0    0    0  501 -0.00000000000E+00 -0.00000000000E+00 -0.71196733045E+03  0.71196733045E+03  0.00000000000E+00 0.  1.
         23    2    1    2    0    0  0.75044291077E+03 -0.92765509109E+02 -0.31192433728E+03  0.82289826861E+03  0.89970919200E+02 0.  0.
         13    1    3    3    0    0  0.60204553028E+03 -0.38773953938E+02 -0.23807269125E+03  0.64856830508E+03  0.00000000000E+00 0.  1.
        -13    1    3    3    0    0  0.14839738049E+03 -0.53991555172E+02 -0.73851646027E+02  0.17432996353E+03  0.00000000000E+00 0. -1.
         22    1    1    2    0    0 -0.75044291077E+03  0.92765509109E+02  0.84428202350E+03  0.11333940785E+04  0.00000000000E+00 0. -1.
<mgrwt>
<rscale>  0 0.18824652E+04</rscale>
<asrwt>0</asrwt>
<pdfrwt beam="1">  1        2 0.19143462E+00 0.18824652E+04</pdfrwt>
<pdfrwt beam="2">  1       -2 0.10953344E+00 0.18824652E+04</pdfrwt>
<totfact> 0.11099403E+01</totfact>
</mgrwt>
</event>
<event>
 6    1  0.1528034E-005  0.2131091E+04  0.7818608E-02  0.8547670E-01
          2   -1    0    0  501    0  0.00000000000E+00  0.00000000000E+00  0.11643259373E+04  0.11643259373E+04  0.00000000000E+00 0. -1.
         -2   -1    0    0    0  501 -0.00000000000E+00 -0.00000000000E+00 -0.97514506626E+03  0.97514506626E+03  0.00000000000E+00 0.  1.
         23    2    1    2    0    0  0.73940587642E+03 -0.74200482495E+03 -0.90273133297E+02  0.10553184539E+04  0.90860278906E+02 0.  0.
         11    1    3    3    0    0  0.71000142824E+02 -0.11357872947E+03 -0.74009167089E+01  0.13414887863E+03  0.00000000000E+00 0.  1.
        -11    1    3    3    0    0  0.66840573359E+03 -0.62842609548E+03 -0.82872216588E+02  0.92116957530E+03  0.00000000000E+00 0. -1.
         22    1    1    2    0    0 -0.73940587642E+03  0.74200482495E+03  0.27945400434E+03  0.10841525496E+04  0.00000000000E+00 0.  1.
<mgrwt>
<rscale>  0 0.21310905E+04</rscale>
<asrwt>0</asrwt>
<pdfrwt beam="1">  1        2 0.17912707E+00 0.21310905E+04</pdfrwt>
<pdfrwt beam="2">  1       -2 0.15002232E+00 0.21310905E+04</pdfrwt>
<totfact> 0.54789896E+00</totfact>
</mgrwt>
</event>
<event>
 6    1  0.1528034E-005  0.1102017E+04  0.7818608E-02  0.9203228E-01
         -2   -1    0    0    0  501 -0.00000000000E+00  0.00000000000E+00  0.64545540489E+02  0.64545540489E+02  0.00000000000E+00 0.  1.
          2   -1    0    0  501    0  0.00000000000E+00 -0.00000000000E+00 -0.47038145785E+04  0.47038145785E+04  0.00000000000E+00 0. -1.
         23    2    1    2    0    0  0.15193084788E+03  0.29654710076E+03 -0.42126648952E+04  0.42270522028E+04  0.10198843145E+03 0.  0.
         13    1    3    3    0    0  0.45977110275E+02  0.18051785237E+03 -0.26373483447E+04  0.26439188492E+04  0.00000000000E+00 0. -1.
        -13    1    3    3    0    0  0.10595373761E+03  0.11602924840E+03 -0.15753165505E+04  0.15831333536E+04  0.00000000000E+00 0.  1.
         22    1    1    2    0    0 -0.15193084788E+03 -0.29654710076E+03 -0.42660414284E+03  0.54130791625E+03  0.00000000000E+00 0.  1.
<mgrwt>
<rscale>  0 0.11020168E+04</rscale>
<asrwt>0</asrwt>
<pdfrwt beam="1">  1        2 0.72366390E+00 0.11020168E+04</pdfrwt>
<pdfrwt beam="2">  1       -2 0.99300816E-02 0.11020168E+04</pdfrwt>
<totfact> 0.56695804E+00</totfact>
</mgrwt>
</event>
<event>
 6    1  0.1528034E-005  0.5384818E+03  0.7818608E-02  0.1004196E+00
          3   -1    0    0  501    0  0.00000000000E+00  0.00000000000E+00  0.67392239695E+02  0.67392239695E+02  0.00000000000E+00 0. -1.
         -3   -1    0    0    0  501 -0.00000000000E+00 -0.00000000000E+00 -0.10756528158E+04  0.10756528158E+04  0.00000000000E+00 0.  1.
         23    2    1    2    0    0 -0.26306140117E+03 -0.17866916088E+02 -0.57750077122E+03  0.63799601136E+03  0.63334368781E+02 0.  0.
         11    1    3    3    0    0 -0.20707143472E+03  0.15862676196E+01 -0.39315803397E+03  0.44435834075E+03  0.00000000000E+00 0. -1.
        -11    1    3    3    0    0 -0.55989966457E+02 -0.19453183708E+02 -0.18434273725E+03  0.19363767061E+03  0.00000000000E+00 0.  1.
         22    1    1    2    0    0  0.26306140117E+03  0.17866916088E+02 -0.43075980486E+03  0.50504904411E+03  0.00000000000E+00 0. -1.
<mgrwt>
<rscale>  0 0.53848176E+03</rscale>
<asrwt>0</asrwt>
<pdfrwt beam="1">  1        3 0.10368037E-01 0.53848176E+03</pdfrwt>
<pdfrwt beam="2">  1       -3 0.16548505E+00 0.53848176E+03</pdfrwt>
<totfact> 0.47539032E+01</totfact>
</mgrwt>
</event>
<event>
 6    1  0.1528034E-005  0.1792161E+04  0.7818608E-02  0.8710480E-01
          1   -1    0    0  501    0  0.00000000000E+00  0.00000000000E+00  0.53055989832E+03  0.53055989832E+03  0.00000000000E+00 0. -1.
         -1   -1    0    0    0  501 -0.00000000000E+00 -0.00000000000E+00 -0.15134197974E+04  0.15134197974E+04  0.00000000000E+00 0.  1.
         23    2    1    2    0    0 -0.75120297931E+03 -0.42947709060E+03 -0.23792434472E+03  0.90218922998E+03  0.92633284538E+02 0.  0.
         11    1    3    3    0    0 -0.31154051821E+03 -0.12836595084E+03 -0.78666886168E+02  0.34601125820E+03  0.00000000000E+00 0. -1.
        -11    1    3    3    0    0 -0.43966246110E+03 -0.30111113976E+03 -0.15925745855E+03  0.55617797178E+03  0.00000000000E+00 0.  1.
         22    1    1    2    0    0  0.75120297931E+03  0.42947709060E+03 -0.74493555434E+03  0.11417904657E+04  0.00000000000E+00 0. -1.
<mgrwt>
<rscale>  0 0.17921605E+04</rscale>
<asrwt>0</asrwt>
<pdfrwt beam="1">  1        1 0.81624599E-01 0.17921605E+04</pdfrwt>
<pdfrwt beam="2">  1       -1 0.23283382E+00 0.17921605E+04</pdfrwt>
<totfact> 0.34829622E+00</totfact>
</mgrwt>
</event>
<event>
 6    1  0.1528034E-005  0.2820125E+04  0.7818608E-02  0.8297047E-01
          2   -1    0    0  501    0  0.00000000000E+00  0.00000000000E+00  0.18822469051E+04  0.18822469051E+04  0.00000000000E+00 0. -1.
         -2   -1    0    0    0  501 -0.00000000000E+00 -0.00000000000E+00 -0.10563313812E+04  0.10563313812E+04  0.00000000000E+00 0.  1.
         23    2    1    2    0    0 -0.18691436358E+03  0.12365862927E+04  0.10887447110E+04  0.16606260884E+04  0.90726629259E+02 0.  0.
         13    1    3    3    0    0 -0.64840846321E+02  0.40357495625E+03  0.41296538080E+03  0.58104860933E+03  0.00000000000E+00 0. -1.
        -13    1    3    3    0    0 -0.12207351725E+03  0.83301133641E+03  0.67577933018E+03  0.10795774791E+04  0.00000000000E+00 0.  1.
         22    1    1    2    0    0  0.18691436358E+03 -0.12365862927E+04 -0.26282918714E+03  0.12779521979E+04  0.00000000000E+00 0.  1.
<mgrwt>
<rscale>  0 0.28201252E+04</rscale>
<asrwt>0</asrwt>
<pdfrwt beam="1">  1        2 0.28957645E+00 0.28201252E+04</pdfrwt>
<pdfrwt beam="2">  1       -2 0.16251252E+00 0.28201252E+04</pdfrwt>
<totfact> 0.16291019E+00</totfact>
</mgrwt>
</event>
<event>
 6    1  0.1528034E-005  0.1436358E+04  0.7818608E-02  0.8927913E-01
          1   -1    0    0  501    0  0.00000000000E+00  0.00000000000E+00  0.30846290484E+03  0.30846290484E+03  0.00000000000E+00 0. -1.
         -1   -1    0    0    0  501 -0.00000000000E+00 -0.00000000000E+00 -0.16721016218E+04  0.16721016218E+04  0.00000000000E+00 0.  1.
         23    2    1    2    0    0 -0.65824793484E+02  0.67247311352E+03 -0.36056007343E+03  0.77113500948E+03  0.89959126549E+02 0.  0.
         13    1    3    3    0    0  0.21174279309E+02  0.17179917962E+03 -0.80591950434E+02  0.19094075180E+03  0.00000000000E+00 0. -1.
        -13    1    3    3    0    0 -0.86999072792E+02  0.50067393390E+03 -0.27996812300E+03  0.58019425768E+03  0.00000000000E+00 0.  1.
         22    1    1    2    0    0  0.65824793484E+02 -0.67247311352E+03 -0.10030786435E+04  0.12094295171E+04  0.00000000000E+00 0.  1.
<mgrwt>
<rscale>  0 0.14363583E+04</rscale>
<asrwt>0</asrwt>
<pdfrwt beam="1">  1        1 0.47455832E-01 0.14363583E+04</pdfrwt>
<pdfrwt beam="2">  1       -1 0.25724640E+00 0.14363583E+04</pdfrwt>
<totfact> 0.51455434E+00</totfact>
</mgrwt>
</event>
<event>
 6    1  0.1528034E-005  0.1485562E+04  0.7818608E-02  0.8894111E-01
          2   -1    0    0  501    0  0.00000000000E+00  0.00000000000E+00  0.12121466734E+04  0.12121466734E+04  0.00000000000E+00 0. -1.
         -2   -1    0    0    0  501 -0.00000000000E+00 -0.00000000000E+00 -0.45516217121E+03  0.45516217121E+03  0.00000000000E+00 0.  1.
         23    2    1    2    0    0  0.52276762841E+03 -0.41493527134E+03  0.21300183258E+02  0.67398679722E+03  0.91363188982E+02 0.  0.
         11    1    3    3    0    0  0.52661372655E+03 -0.41138029831E+03  0.22447534987E+02  0.66862520043E+03  0.00000000000E+00 0. -1.
        -11    1    3    3    0    0 -0.38460981357E+01 -0.35549730229E+01 -0.11473517297E+01  0.53615967822E+01  0.00000000000E+00 0.  1.
         22    1    1    2    0    0 -0.52276762841E+03  0.41493527134E+03  0.73568431889E+03  0.99332204736E+03  0.00000000000E+00 0. -1.
<mgrwt>
<rscale>  0 0.14855616E+04</rscale>
<asrwt>0</asrwt>
<pdfrwt beam="1">  1        2 0.18648410E+00 0.14855616E+04</pdfrwt>
<pdfrwt beam="2">  1       -2 0.70024950E-01 0.14855616E+04</pdfrwt>
<totfact> 0.33467906E+01</totfact>
</mgrwt>
</event>
<event>
 6    1  0.1528034E-005  0.2220865E+04  0.7818608E-02  0.8509793E-01
         -2   -1    0    0    0  501 -0.00000000000E+00  0.00000000000E+00  0.32689007711E+03  0.32689007711E+03  0.00000000000E+00 0.  1.
          2   -1    0    0  501    0  0.00000000000E+00 -0.00000000000E+00 -0.37720959213E+04  0.37720959213E+04  0.00000000000E+00 0. -1.
         23    2    1    2    0    0  0.22197670414E+03  0.83736776834E+03 -0.44878567042E+03  0.97985273829E+03  0.90798535891E+02 0.  0.
         11    1    3    3    0    0  0.48660289976E+02  0.95086238711E+02 -0.34210779323E+02  0.11215878938E+03  0.00000000000E+00 0. -1.
        -11    1    3    3    0    0  0.17331641417E+03  0.74228152963E+03 -0.41457489110E+03  0.86769394891E+03  0.00000000000E+00 0.  1.
         22    1    1    2    0    0 -0.22197670414E+03 -0.83736776834E+03 -0.29964201738E+04  0.31191332602E+04  0.00000000000E+00 0. -1.
<mgrwt>
<rscale>  0 0.22208654E+04</rscale>
<asrwt>0</asrwt>
<pdfrwt beam="1">  1        2 0.58032242E+00 0.22208654E+04</pdfrwt>
<pdfrwt beam="2">  1       -2 0.50290784E-01 0.22208654E+04</pdfrwt>
<totfact> 0.17684463E+00</totfact>
</mgrwt>
</event>
<event>
 6    1  0.1528034E-005  0.6862097E+03  0.7818608E-02  0.9741110E-01
          2   -1    0    0  501    0  0.00000000000E+00  0.00000000000E+00  0.23996746795E+04  0.23996746795E+04  0.00000000000E+00 0. -1.
         -2   -1    0    0    0  501 -0.00000000000E+00 -0.00000000000E+00 -0.49057039515E+02  0.49057039515E+02  0.00000000000E+00 0.  1.
         23    2    1    2    0    0 -0.15273422100E+03  0.29641147023E+03  0.13248154013E+04  0.13700947389E+04  0.10409728208E+03 0.  0.
         13    1    3    3    0    0 -0.50061346646E+02  0.19944110771E+02  0.17912559502E+03  0.18705583330E+03  0.00000000000E+00 0. -1.
        -13    1    3    3    0    0 -0.10267287436E+03  0.27646735946E+03  0.11456898063E+04  0.11830389056E+04  0.00000000000E+00 0.  1.
         22    1    1    2    0    0  0.15273422100E+03 -0.29641147023E+03  0.10258022387E+04  0.10786369801E+04  0.00000000000E+00 0.  1.
<mgrwt>
<rscale>  0 0.68620969E+03</rscale>
<asrwt>0</asrwt>
<pdfrwt beam="1">  1        2 0.36918063E+00 0.68620969E+03</pdfrwt>
<pdfrwt beam="2">  1       -2 0.75472387E-02 0.68620969E+03</pdfrwt>
<totfact> 0.44687889E+02</totfact>
</mgrwt>
</event>
<event>
 6    1  0.1528034E-005  0.2984250E+04  0.7818608E-02  0.8248243E-01
         -2   -1    0    0    0  501 -0.00000000000E+00  0.00000000000E+00  0.16633699989E+04  0.16633699989E+04  0.00000000000E+00 0.  1.
          2   -1    0    0  501    0  0.00000000000E+00 -0.00000000000E+00 -0.13385101045E+04  0.13385101045E+04  0.00000000000E+00 0. -1.
         23    2    1    2    0    0 -0.16230456488E+03 -0.13134227129E+04  0.85298343405E+03  0.15769813465E+04  0.88698555955E+02 0.  0.
         13    1    3    3    0    0 -0.17107727184E+03 -0.12397880677E+04  0.79315765462E+03  0.14817020453E+04  0.00000000000E+00 0.  1.
        -13    1    3    3    0    0  0.87727069623E+01 -0.73634645143E+02  0.59825779432E+02  0.95279301202E+02  0.00000000000E+00 0. -1.
         22    1    1    2    0    0  0.16230456488E+03  0.13134227129E+04 -0.52812353965E+03  0.14248987570E+04  0.00000000000E+00 0.  1.
<mgrwt>
<rscale>  0 0.29842504E+04</rscale>
<asrwt>0</asrwt>
<pdfrwt beam="1">  1        2 0.20592463E+00 0.29842504E+04</pdfrwt>
<pdfrwt beam="2">  1       -2 0.25590308E+00 0.29842504E+04</pdfrwt>
<totfact> 0.79549656E-01</totfact>
</mgrwt>
</event>
<event>
 6    1  0.1528034E-005  0.3303978E+04  0.7818608E-02  0.8161884E-01
         -2   -1    0    0    0  501 -0.00000000000E+00  0.00000000000E+00  0.95306562719E+03  0.95306562719E+03  0.00000000000E+00 0.  1.
          2   -1    0    0  501    0  0.00000000000E+00 -0.00000000000E+00 -0.28634616159E+04  0.28634616159E+04  0.00000000000E+00 0. -1.
         23    2    1    2    0    0  0.35824292159E+03  0.60753329427E+03  0.76824721834E+03  0.10465878710E+04  0.87793443114E+02 0.  0.
         11    1    3    3    0    0  0.23760186575E+02  0.84438721150E+02  0.12355592566E+03  0.15152726112E+03  0.00000000000E+00 0.  1.
        -11    1    3    3    0    0  0.33448273502E+03  0.52309457312E+03  0.64469129268E+03  0.89506060985E+03  0.00000000000E+00 0. -1.
         22    1    1    2    0    0 -0.35824292159E+03 -0.60753329427E+03 -0.26786432070E+04  0.27699393721E+04  0.00000000000E+00 0. -1.
<mgrwt>
<rscale>  0 0.33039775E+04</rscale>
<asrwt>0</asrwt>
<pdfrwt beam="1">  1        2 0.44053255E+00 0.33039775E+04</pdfrwt>
<pdfrwt beam="2">  1       -2 0.14662548E+00 0.33039775E+04</pdfrwt>
<totfact> 0.56175586E-01</totfact>
</mgrwt>
</event>
<event>
 6    1  0.1528034E-005  0.1719035E+04  0.7818608E-02  0.8750582E-01
          2   -1    0    0  501    0  0.00000000000E+00  0.00000000000E+00  0.14020375871E+04  0.14020375871E+04  0.00000000000E+00 0. -1.
         -2   -1    0    0    0  501 -0.00000000000E+00 -0.00000000000E+00 -0.52692612854E+03  0.52692612854E+03  0.00000000000E+00 0.  1.
         23    2    1    2    0    0 -0.39751802254E+03 -0.42658410934E+03  0.11435851261E+04  0.12870348327E+04  0.93151164067E+02 0.  0.
         11    1    3    3    0    0 -0.12395228620E+03 -0.14655694479E+03  0.47428529930E+03  0.51165384045E+03  0.00000000000E+00 0. -1.
        -11    1    3    3    0    0 -0.27356573635E+03 -0.28002716455E+03  0.66929982683E+03  0.77538099228E+03  0.00000000000E+00 0.  1.
         22    1    1    2    0    0  0.39751802254E+03  0.42658410934E+03 -0.26847366754E+03  0.64192888294E+03  0.00000000000E+00 0.  1.
<mgrwt>
<rscale>  0 0.17190349E+04</rscale>
<asrwt>0</asrwt>
<pdfrwt beam="1">  1        2 0.21569809E+00 0.17190349E+04</pdfrwt>
<pdfrwt beam="2">  1       -2 0.81065559E-01 0.17190349E+04</pdfrwt>
<totfact> 0.18397830E+01</totfact>
</mgrwt>
</event>
<event>
 6    1  0.1528034E-005  0.1513578E+04  0.7818608E-02  0.8875474E-01
         -2   -1    0    0    0  501 -0.00000000000E+00  0.00000000000E+00  0.14984290812E+03  0.14984290812E+03  0.00000000000E+00 0.  1.
          2   -1    0    0  501    0  0.00000000000E+00 -0.00000000000E+00 -0.38222002960E+04  0.38222002960E+04  0.00000000000E+00 0. -1.
         23    2    1    2    0    0 -0.37621244545E+03  0.59655561677E+03 -0.11422617000E+04  0.13454867897E+04  0.90324426820E+02 0.  0.
         11    1    3    3    0    0 -0.14567200369E+03  0.31464684299E+03 -0.57010184055E+03  0.66726237498E+03  0.00000000000E+00 0.  1.
        -11    1    3    3    0    0 -0.23054044176E+03  0.28190877378E+03 -0.57215985944E+03  0.67822441476E+03  0.00000000000E+00 0. -1.
         22    1    1    2    0    0  0.37621244545E+03 -0.59655561677E+03 -0.25300956879E+04  0.26265564144E+04  0.00000000000E+00 0. -1.
<mgrwt>
<rscale>  0 0.15135780E+04</rscale>
<asrwt>0</asrwt>
<pdfrwt beam="1">  1        2 0.58803076E+00 0.15135780E+04</pdfrwt>
<pdfrwt beam="2">  1       -2 0.23052757E-01 0.15135780E+04</pdfrwt>
<totfact> 0.77207302E+00</totfact>
</mgrwt>
</event>
<event>
 6    1  0.1528034E-005  0.1430683E+04  0.7818608E-02  0.8931903E-01
          2   -1    0    0  501    0  0.00000000000E+00  0.00000000000E+00  0.65216225973E+03  0.65216225973E+03  0.00000000000E+00 0. -1.
         -2   -1    0    0    0  501 -0.00000000000E+00 -0.00000000000E+00 -0.78464183509E+03  0.78464183509E+03  0.00000000000E+00 0.  1.
         23    2    1    2    0    0  0.53200211834E+03  0.46761155759E+03 -0.14346293705E+03  0.72842040152E+03  0.91257023456E+02 0.  0.
         11    1    3    3    0    0  0.42206816631E+03  0.41247813816E+03 -0.13328001781E+03  0.60501513586E+03  0.00000000000E+00 0.  1.
        -11    1    3    3    0    0  0.10993395204E+03  0.55133419423E+02 -0.10182919235E+02  0.12340526566E+03  0.00000000000E+00 0. -1.
         22    1    1    2    0    0 -0.53200211834E+03 -0.46761155759E+03  0.10983361691E+02  0.70838369331E+03  0.00000000000E+00 0. -1.
<mgrwt>
<rscale>  0 0.14306835E+04</rscale>
<asrwt>0</asrwt>
<pdfrwt beam="1">  1        2 0.10033266E+00 0.14306835E+04</pdfrwt>
<pdfrwt beam="2">  1       -2 0.12071413E+00 0.14306835E+04</pdfrwt>
<totfact> 0.22748275E+01</totfact>
</mgrwt>
</event>
<event>
 6    1  0.1528034E-005  0.3664830E+04  0.7818608E-02  0.8075801E-01
          2   -1    0    0  501    0  0.00000000000E+00  0.00000000000E+00  0.13200546790E+04  0.13200546790E+04  0.00000000000E+00 0.  1.
         -2   -1    0    0    0  501 -0.00000000000E+00 -0.00000000000E+00 -0.25436400961E+04  0.25436400961E+04  0.00000000000E+00 0. -1.
         23    2    1    2    0    0 -0.12877472753E+04  0.91409613585E+02 -0.19814622390E+04  0.23666890837E+04  0.91519679737E+02 0.  0.
         13    1    3    3    0    0 -0.46874094976E+03  0.76721628763E+02 -0.71234584937E+03  0.85617807459E+03  0.00000000000E+00 0.  1.
        -13    1    3    3    0    0 -0.81900632558E+03  0.14687984823E+02 -0.12691163897E+04  0.15105110091E+04  0.00000000000E+00 0. -1.
         22    1    1    2    0    0  0.12877472753E+04 -0.91409613585E+02  0.75787682201E+03  0.14970056914E+04  0.00000000000E+00 0.  1.
<mgrwt>
<rscale>  0 0.36648296E+04</rscale>
<asrwt>0</asrwt>
<pdfrwt beam="1">  1        2 0.20308533E+00 0.36648296E+04</pdfrwt>
<pdfrwt beam="2">  1       -2 0.39132925E+00 0.36648296E+04</pdfrwt>
<totfact> 0.11023069E-01</totfact>
</mgrwt>
</event>
<event>
 6    1  0.1528034E-005  0.1912904E+04  0.7818608E-02  0.8648460E-01
          2   -1    0    0  501    0  0.00000000000E+00  0.00000000000E+00  0.47083542089E+03  0.47083542089E+03  0.00000000000E+00 0. -1.
         -2   -1    0    0    0  501 -0.00000000000E+00 -0.00000000000E+00 -0.19429299281E+04  0.19429299281E+04  0.00000000000E+00 0.  1.
         23    2    1    2    0    0 -0.35872826457E+03  0.56599556698E+02  0.37582689254E+03  0.53049612307E+03  0.91053862200E+02 0.  0.
         11    1    3    3    0    0 -0.12403675748E+03 -0.17665838467E+02  0.15921423713E+03  0.20259904334E+03  0.00000000000E+00 0. -1.
        -11    1    3    3    0    0 -0.23469150708E+03  0.74265395165E+02  0.21661265541E+03  0.32789707974E+03  0.00000000000E+00 0.  1.
         22    1    1    2    0    0  0.35872826457E+03 -0.56599556698E+02 -0.18479213998E+04  0.18832692259E+04  0.00000000000E+00 0.  1.
<mgrwt>
<rscale>  0 0.19129038E+04</rscale>
<asrwt>0</asrwt>
<pdfrwt beam="1">  1        2 0.72436217E-01 0.19129038E+04</pdfrwt>
<pdfrwt beam="2">  1       -2 0.29891230E+00 0.19129038E+04</pdfrwt>
<totfact> 0.19961173E+00</totfact>
</mgrwt>
</event>
<event>
 6    1  0.1528034E-005  0.1041427E+04  0.7818608E-02  0.9264240E-01
          1   -1    0    0  501    0  0.00000000000E+00  0.00000000000E+00  0.68884656106E+03  0.68884656106E+03  0.00000000000E+00 0. -1.
         -1   -1    0    0    0  501 -0.00000000000E+00 -0.00000000000E+00 -0.39361834461E+03  0.39361834461E+03  0.00000000000E+00 0.  1.
         23    2    1    2    0    0  0.37211100584E+03  0.24056661670E+03 -0.12752493431E+03  0.47004419715E+03  0.91323823124E+02 0.  0.
         13    1    3    3    0    0  0.21015261341E+03  0.10241496001E+03 -0.29332677913E+02  0.23561271390E+03  0.00000000000E+00 0.  1.
        -13    1    3    3    0    0  0.16195839243E+03  0.13815165669E+03 -0.98192256401E+02  0.23443148326E+03  0.00000000000E+00 0. -1.
         22    1    1    2    0    0 -0.37211100584E+03 -0.24056661670E+03  0.42275315077E+03  0.61242070852E+03  0.00000000000E+00 0. -1.
<mgrwt>
<rscale>  0 0.10414272E+04</rscale>
<asrwt>0</asrwt>
<pdfrwt beam="1">  1        1 0.10597639E+00 0.10414272E+04</pdfrwt>
<pdfrwt beam="2">  1       -1 0.60556669E-01 0.10414272E+04</pdfrwt>
<totfact> 0.77225011E+01</totfact>
</mgrwt>
</event>
<event>
 6    1  0.1528034E-005  0.1905408E+04  0.7818608E-02  0.8652169E-01
          1   -1    0    0  501    0  0.00000000000E+00  0.00000000000E+00  0.27144162073E+04  0.27144162073E+04  0.00000000000E+00 0. -1.
         -1   -1    0    0    0  501 -0.00000000000E+00 -0.00000000000E+00 -0.33437957601E+03  0.33437957601E+03  0.00000000000E+00 0.  1.
         23    2    1    2    0    0 -0.14816148813E+03 -0.71235729977E+03  0.21401609525E+03  0.76383413994E+03  0.90746654003E+02 0.  0.
         13    1    3    3    0    0 -0.13445650252E+03 -0.47460573599E+03  0.11901590915E+03  0.50743860943E+03  0.00000000000E+00 0. -1.
        -13    1    3    3    0    0 -0.13704985616E+02 -0.23775156378E+03  0.95000186094E+02  0.25639553051E+03  0.00000000000E+00 0.  1.
         22    1    1    2    0    0  0.14816148813E+03  0.71235729977E+03  0.21660205360E+04  0.22849616434E+04  0.00000000000E+00 0. -1.
<mgrwt>
<rscale>  0 0.19054085E+04</rscale>
<asrwt>0</asrwt>
<pdfrwt beam="1">  1        1 0.41760248E+00 0.19054085E+04</pdfrwt>
<pdfrwt beam="2">  1       -1 0.51443014E-01 0.19054085E+04</pdfrwt>
<totfact> 0.34124285E+00</totfact>
</mgrwt>
</event>
<event>
 6    1  0.1528034E-005  0.1859180E+04  0.7818608E-02  0.8675446E-01
          2   -1    0    0  501    0  0.00000000000E+00  0.00000000000E+00  0.23794931751E+04  0.23794931751E+04  0.00000000000E+00 0. -1.
         -2   -1    0    0    0  501 -0.00000000000E+00 -0.00000000000E+00 -0.36316038089E+03  0.36316038089E+03  0.00000000000E+00 0.  1.
         23    2    1    2    0    0 -0.25576726577E+03 -0.86715248027E+03  0.13152689468E+04  0.15985989959E+04  0.90642314156E+02 0.  0.
         13    1    3    3    0    0 -0.23058869147E+03 -0.65866983654E+03  0.98298034546E+03  0.12055154324E+04  0.00000000000E+00 0. -1.
        -13    1    3    3    0    0 -0.25178574303E+02 -0.20848264372E+03  0.33228860131E+03  0.39308356350E+03  0.00000000000E+00 0.  1.
         22    1    1    2    0    0  0.25576726577E+03  0.86715248027E+03  0.70106384745E+03  0.11440545601E+04  0.00000000000E+00 0. -1.
<mgrwt>
<rscale>  0 0.18591801E+04</rscale>
<asrwt>0</asrwt>
<pdfrwt beam="1">  1        2 0.36607586E+00 0.18591801E+04</pdfrwt>
<pdfrwt beam="2">  1       -2 0.55870829E-01 0.18591801E+04</pdfrwt>
<totfact> 0.11554154E+01</totfact>
</mgrwt>
</event>
<event>
 6    1  0.1528034E-005  0.1457076E+04  0.7818608E-02  0.8913509E-01
          2   -1    0    0  501    0  0.00000000000E+00  0.00000000000E+00  0.90023834551E+03  0.90023834551E+03  0.00000000000E+00 0.  1.
         -2   -1    0    0    0  501 -0.00000000000E+00 -0.00000000000E+00 -0.58958574023E+03  0.58958574023E+03  0.00000000000E+00 0. -1.
         23    2    1    2    0    0  0.54689009719E+03  0.41960769073E+03  0.38813595642E+03  0.79616490269E+03  0.89831169885E+02 0.  0.
         11    1    3    3    0    0  0.43386528196E+03  0.28688366117E+03  0.30581674977E+03  0.60337815868E+03  0.00000000000E+00 0.  1.
        -11    1    3    3    0    0  0.11302481523E+03  0.13272402956E+03  0.82319206652E+02  0.19278674400E+03  0.00000000000E+00 0. -1.
         22    1    1    2    0    0 -0.54689009719E+03 -0.41960769073E+03 -0.77483351143E+02  0.69365918305E+03  0.00000000000E+00 0.  1.
<mgrwt>
<rscale>  0 0.14570761E+04</rscale>
<asrwt>0</asrwt>
<pdfrwt beam="1">  1        2 0.13849821E+00 0.14570761E+04</pdfrwt>
<pdfrwt beam="2">  1       -2 0.90705498E-01 0.14570761E+04</pdfrwt>
<totfact> 0.29495152E+01</totfact>
</mgrwt>
</event>
<event>
 6    1  0.1528034E-005  0.3065054E+04  0.7818608E-02  0.8225395E-01
          2   -1    0    0  501    0  0.00000000000E+00  0.00000000000E+00  0.26802272486E+04  0.26802272486E+04  0.00000000000E+00 0.  1.
         -2   -1    0    0    0  501 -0.00000000000E+00 -0.00000000000E+00 -0.87628330126E+03  0.87628330126E+03  0.00000000000E+00 0. -1.
         23    2    1    2    0    0 -0.25116667389E+03  0.96055959410E+03 -0.44975398242E+03  0.10938059816E+04  0.91506550624E+02 0.  0.
         11    1    3    3    0    0 -0.32482129234E+02  0.18771643476E+03 -0.12259940949E+03  0.22654616264E+03  0.00000000000E+00 0.  1.
        -11    1    3    3    0    0 -0.21868454466E+03  0.77284315934E+03 -0.32715457293E+03  0.86725981897E+03  0.00000000000E+00 0. -1.
         22    1    1    2    0    0  0.25116667389E+03 -0.96055959410E+03  0.22536979297E+04  0.24627045682E+04  0.00000000000E+00 0.  1.
<mgrwt>
<rscale>  0 0.30650536E+04</rscale>
<asrwt>0</asrwt>
<pdfrwt beam="1">  1        2 0.41234265E+00 0.30650536E+04</pdfrwt>
<pdfrwt beam="2">  1       -2 0.13481282E+00 0.30650536E+04</pdfrwt>
<totfact> 0.91945577E-01</totfact>
</mgrwt>
</event>
<event>
 6    1  0.1528034E-005  0.4067843E+04  0.7818608E-02  0.7990999E-01
         -1   -1    0    0    0  501 -0.00000000000E+00  0.00000000000E+00  0.30312720429E+04  0.30312720429E+04  0.00000000000E+00 0.  1.
          1   -1    0    0  501    0  0.00000000000E+00 -0.00000000000E+00 -0.13647195119E+04  0.13647195119E+04  0.00000000000E+00 0. -1.
         23    2    1    2    0    0  0.11883366370E+04  0.12717849860E+04  0.19687796104E+04  0.26293783484E+04  0.89198269338E+02 0.  0.
         11    1    3    3    0    0  0.99217327876E+03  0.10928185379E+04  0.17039638238E+04  0.22543630773E+04  0.00000000000E+00 0. -1.
        -11    1    3    3    0    0  0.19616335823E+03  0.17896644815E+03  0.26481578661E+03  0.37501527104E+03  0.00000000000E+00 0.  1.
         22    1    1    2    0    0 -0.11883366370E+04 -0.12717849860E+04 -0.30222707938E+03  0.17666132064E+04  0.00000000000E+00 0. -1.
<mgrwt>
<rscale>  0 0.40678427E+04</rscale>
<asrwt>0</asrwt>
<pdfrwt beam="1">  1        1 0.20995685E+00 0.40678427E+04</pdfrwt>
<pdfrwt beam="2">  1       -1 0.46634954E+00 0.40678427E+04</pdfrwt>
<totfact> 0.15831017E-02</totfact>
</mgrwt>
</event>
<event>
 6    1  0.1528034E-005  0.1584982E+04  0.7818608E-02  0.8829827E-01
          1   -1    0    0  501    0  0.00000000000E+00  0.00000000000E+00  0.17189171187E+04  0.17189171187E+04  0.00000000000E+00 0. -1.
         -1   -1    0    0    0  501 -0.00000000000E+00 -0.00000000000E+00 -0.36537093416E+03  0.36537093416E+03  0.00000000000E+00 0.  1.
         23    2    1    2    0    0 -0.67388286863E+03 -0.39770594349E+03  0.53857622145E+03  0.95448091054E+03  0.93173623664E+02 0.  0.
         11    1    3    3    0    0 -0.36048484390E+03 -0.21495715860E+03  0.34483685783E+03  0.54320195253E+03  0.00000000000E+00 0. -1.
        -11    1    3    3    0    0 -0.31339802473E+03 -0.18274878488E+03  0.19373936363E+03  0.41127895800E+03  0.00000000000E+00 0.  1.
         22    1    1    2    0    0  0.67388286863E+03  0.39770594349E+03  0.81496996311E+03  0.11298071423E+04  0.00000000000E+00 0. -1.
<mgrwt>
<rscale>  0 0.15849825E+04</rscale>
<asrwt>0</asrwt>
<pdfrwt beam="1">  1        1 0.26444878E+00 0.15849825E+04</pdfrwt>
<pdfrwt beam="2">  1       -1 0.56210914E-01 0.15849825E+04</pdfrwt>
<totfact> 0.14233634E+01</totfact>
</mgrwt>
</event>
<event>
 6    1  0.1528034E-005  0.2159415E+04  0.7818608E-02  0.8535513E-01
          1   -1    0    0  501    0  0.00000000000E+00  0.00000000000E+00  0.23212973088E+04  0.23212973088E+04  0.00000000000E+00 0. -1.
         -1   -1    0    0    0  501 -0.00000000000E+00 -0.00000000000E+00 -0.50220570969E+03  0.50220570969E+03  0.00000000000E+00 0.  1.
         23    2    1    2    0    0 -0.10131074429E+04 -0.30492213269E+03  0.11799033802E+04  0.15874100701E+04  0.91293734702E+02 0.  0.
         13    1    3    3    0    0 -0.77504103308E+03 -0.27164711387E+03  0.92791933991E+03  0.12391590127E+04  0.00000000000E+00 0. -1.
        -13    1    3    3    0    0 -0.23806640987E+03 -0.33275018824E+02  0.25198404034E+03  0.34825105739E+03  0.00000000000E+00 0.  1.
         22    1    1    2    0    0  0.10131074429E+04  0.30492213269E+03  0.63918821891E+03  0.12360929484E+04  0.00000000000E+00 0. -1.
<mgrwt>
<rscale>  0 0.21594154E+04</rscale>
<asrwt>0</asrwt>
<pdfrwt beam="1">  1        1 0.35712266E+00 0.21594154E+04</pdfrwt>
<pdfrwt beam="2">  1       -1 0.77262418E-01 0.21594154E+04</pdfrwt>
<totfact> 0.27653076E+00</totfact>
</mgrwt>
</event>
<event>
 6    1  0.1528034E-005  0.1556339E+04  0.7818608E-02  0.8847829E-01
          1   -1    0    0  501    0  0.00000000000E+00  0.00000000000E+00  0.14257689895E+04  0.14257689895E+04  0.00000000000E+00 0. -1.
         -1   -1    0    0    0  501 -0.00000000000E+00 -0.00000000000E+00 -0.42471659758E+03  0.42471659758E+03  0.00000000000E+00 0.  1.
         23    2    1    2    0    0  0.75144227324E+03 -0.19010418363E+03  0.53235549731E+03  0.94468104431E+03  0.90635585243E+02 0.  0.
         13    1    3    3    0    0  0.43908762829E+03 -0.82219094399E+02  0.34803329749E+03  0.56629065060E+03  0.00000000000E+00 0. -1.
        -13    1    3    3    0    0  0.31235464495E+03 -0.10788508923E+03  0.18432219982E+03  0.37839039370E+03  0.00000000000E+00 0.  1.
         22    1    1    2    0    0 -0.75144227324E+03  0.19010418363E+03  0.46869689458E+03  0.90580454273E+03  0.00000000000E+00 0.  1.
<mgrwt>
<rscale>  0 0.15563390E+04</rscale>
<asrwt>0</asrwt>
<pdfrwt beam="1">  1        1 0.21934907E+00 0.15563390E+04</pdfrwt>
<pdfrwt beam="2">  1       -1 0.65341016E-01 0.15563390E+04</pdfrwt>
<totfact> 0.16849354E+01</totfact>
</mgrwt>
</event>
<event>
 6    1  0.1528034E-005  0.1330633E+04  0.7818608E-02  0.9005620E-01
          2   -1    0    0  501    0  0.00000000000E+00  0.00000000000E+00  0.10480411007E+04  0.10480411007E+04  0.00000000000E+00 0.  1.
         -2   -1    0    0    0  501 -0.00000000000E+00 -0.00000000000E+00 -0.42235539738E+03  0.42235539738E+03  0.00000000000E+00 0. -1.
         23    2    1    2    0    0  0.48262283309E+03 -0.31757508252E+02  0.81464051538E+03  0.95113042049E+03  0.84122346133E+02 0.  0.
         13    1    3    3    0    0  0.26442324000E+03 -0.56474065506E+02  0.47872932877E+03  0.54980973086E+03  0.00000000000E+00 0.  1.
        -13    1    3    3    0    0  0.21819959310E+03  0.24716557254E+02  0.33591118661E+03  0.40132068963E+03  0.00000000000E+00 0. -1.
         22    1    1    2    0    0 -0.48262283309E+03  0.31757508252E+02 -0.18895481205E+03  0.51926607760E+03  0.00000000000E+00 0. -1.
<mgrwt>
<rscale>  0 0.13306327E+04</rscale>
<asrwt>0</asrwt>
<pdfrwt beam="1">  1        2 0.16123709E+00 0.13306327E+04</pdfrwt>
<pdfrwt beam="2">  1       -2 0.64977754E-01 0.13306327E+04</pdfrwt>
<totfact> 0.50171928E+01</totfact>
</mgrwt>
</event>
<event>
 6    1  0.1528034E-005  0.4048770E+04  0.7818608E-02  0.7994780E-01
          2   -1    0    0  501    0  0.00000000000E+00  0.00000000000E+00  0.48422321047E+04  0.48422321047E+04  0.00000000000E+00 0. -1.
         -2   -1    0    0    0  501 -0.00000000000E+00 -0.00000000000E+00 -0.84633165808E+03  0.84633165808E+03  0.00000000000E+00 0.  1.
         23    2    1    2    0    0  0.10127950709E+04  0.58045344412E+03 -0.32291250539E+03  0.12147705880E+04  0.93354372352E+02 0.  0.
         11    1    3    3    0    0  0.28191040820E+03  0.17182686152E+03 -0.13439208318E+03  0.35645361636E+03  0.00000000000E+00 0.  1.
        -11    1    3    3    0    0  0.73088466271E+03  0.40862658260E+03 -0.18852042221E+03  0.85831697162E+03  0.00000000000E+00 0. -1.
         22    1    1    2    0    0 -0.10127950709E+04 -0.58045344412E+03  0.43188129520E+04  0.44737931748E+04  0.00000000000E+00 0. -1.
<mgrwt>
<rscale>  0 0.40487699E+04</rscale>
<asrwt>0</asrwt>
<pdfrwt beam="1">  1        2 0.74495877E+00 0.40487699E+04</pdfrwt>
<pdfrwt beam="2">  1       -2 0.13020487E+00 0.40487699E+04</pdfrwt>
<totfact> 0.17913786E-02</totfact>
</mgrwt>
</event>
<event>
 6    1  0.1528034E-005  0.2229861E+04  0.7818608E-02  0.8506101E-01
         -2   -1    0    0    0  501 -0.00000000000E+00  0.00000000000E+00  0.38216069638E+03  0.38216069638E+03  0.00000000000E+00 0. -1.
          2   -1    0    0  501    0  0.00000000000E+00 -0.00000000000E+00 -0.32527422496E+04  0.32527422496E+04  0.00000000000E+00 0.  1.
         23    2    1    2    0    0  0.93706976623E+03  0.55931627928E+03 -0.10835916165E+04  0.15410386999E+04  0.98463375104E+02 0.  0.
         13    1    3    3    0    0  0.38138557797E+03  0.18514041474E+03 -0.37659450058E+03  0.56705850679E+03  0.00000000000E+00 0. -1.
        -13    1    3    3    0    0  0.55568418826E+03  0.37417586453E+03 -0.70699711589E+03  0.97398019311E+03  0.00000000000E+00 0.  1.
         22    1    1    2    0    0 -0.93706976623E+03 -0.55931627928E+03 -0.17869899368E+04  0.20938642461E+04  0.00000000000E+00 0.  1.
<mgrwt>
<rscale>  0 0.22298612E+04</rscale>
<asrwt>0</asrwt>
<pdfrwt beam="1">  1        2 0.50042191E+00 0.22298612E+04</pdfrwt>
<pdfrwt beam="2">  1       -2 0.58793951E-01 0.22298612E+04</pdfrwt>
<totfact> 0.29574652E+00</totfact>
</mgrwt>
</event>
<event>
 6    1  0.1528034E-005  0.2692728E+04  0.7818608E-02  0.8337368E-01
         -2   -1    0    0    0  501 -0.00000000000E+00  0.00000000000E+00  0.10755539741E+04  0.10755539741E+04  0.00000000000E+00 0. -1.
          2   -1    0    0  501    0  0.00000000000E+00 -0.00000000000E+00 -0.16853600613E+04  0.16853600613E+04  0.00000000000E+00 0.  1.
         23    2    1    2    0    0 -0.38914522193E+03 -0.33676506693E+03 -0.15793183176E+04  0.16632808185E+04  0.86093082980E+02 0.  0.
         11    1    3    3    0    0 -0.33353758171E+03 -0.32044265739E+03 -0.14374857730E+04  0.15100649531E+04  0.00000000000E+00 0.  1.
        -11    1    3    3    0    0 -0.55607640224E+02 -0.16322409539E+02 -0.14183254462E+03  0.15321586543E+03  0.00000000000E+00 0. -1.
         22    1    1    2    0    0  0.38914522193E+03  0.33676506693E+03  0.96951223037E+03  0.10976332169E+04  0.00000000000E+00 0. -1.
<mgrwt>
<rscale>  0 0.26927278E+04</rscale>
<asrwt>0</asrwt>
<pdfrwt beam="1">  1        2 0.25928616E+00 0.26927278E+04</pdfrwt>
<pdfrwt beam="2">  1       -2 0.16546984E+00 0.26927278E+04</pdfrwt>
<totfact> 0.20153037E+00</totfact>
</mgrwt>
</event>
<event>
 6    1  0.1528034E-005  0.2631244E+04  0.7818608E-02  0.8357665E-01
         -2   -1    0    0    0  501 -0.00000000000E+00  0.00000000000E+00  0.59336544266E+03  0.59336544266E+03  0.00000000000E+00 0.  1.
          2   -1    0    0  501    0  0.00000000000E+00 -0.00000000000E+00 -0.29170232131E+04  0.29170232131E+04  0.00000000000E+00 0. -1.
         23    2    1    2    0    0 -0.28028556788E+03  0.75590654830E+03 -0.25476107672E+04  0.26736631010E+04  0.90548589523E+02 0.  0.
         13    1    3    3    0    0 -0.83896602854E+02  0.25113050204E+03 -0.97901991160E+03  0.10141918735E+04  0.00000000000E+00 0. -1.
        -13    1    3    3    0    0 -0.19638896503E+03  0.50477604626E+03 -0.15685908556E+04  0.16594712274E+04  0.00000000000E+00 0.  1.
         22    1    1    2    0    0  0.28028556788E+03 -0.75590654830E+03  0.22395299673E+03  0.83672555481E+03  0.00000000000E+00 0.  1.
<mgrwt>
<rscale>  0 0.26312436E+04</rscale>
<asrwt>0</asrwt>
<pdfrwt beam="1">  1        2 0.44877280E+00 0.26312436E+04</pdfrwt>
<pdfrwt beam="2">  1       -2 0.91286992E-01 0.26312436E+04</pdfrwt>
<totfact> 0.17690619E+00</totfact>
</mgrwt>
</event>
<event>
 6    1  0.1528034E-005  0.3286542E+04  0.7818608E-02  0.8166328E-01
          1   -1    0    0  501    0  0.00000000000E+00  0.00000000000E+00  0.16870627681E+04  0.16870627681E+04  0.00000000000E+00 0. -1.
         -1   -1    0    0    0  501 -0.00000000000E+00 -0.00000000000E+00 -0.16006158202E+04  0.16006158202E+04  0.00000000000E+00 0.  1.
         23    2    1    2    0    0 -0.16403668073E+04  0.38927529801E+02  0.10502283241E+03  0.16467448058E+04  0.91760801810E+02 0.  0.
         13    1    3    3    0    0 -0.13192549970E+04  0.24589805632E+02  0.12025243522E+03  0.13249524723E+04  0.00000000000E+00 0. -1.
        -13    1    3    3    0    0 -0.32111181032E+03  0.14337724169E+02 -0.15229602810E+02  0.32179233344E+03  0.00000000000E+00 0.  1.
         22    1    1    2    0    0  0.16403668073E+04 -0.38927529801E+02 -0.18575884432E+02  0.16409337825E+04  0.00000000000E+00 0. -1.
<mgrwt>
<rscale>  0 0.32865419E+04</rscale>
<asrwt>0</asrwt>
<pdfrwt beam="1">  1        1 0.25954812E+00 0.32865419E+04</pdfrwt>
<pdfrwt beam="2">  1       -1 0.24624859E+00 0.32865419E+04</pdfrwt>
<totfact> 0.29803788E-01</totfact>
</mgrwt>
</event>
<event>
 6    1  0.1667493E-005  0.3250267E+04  0.7818608E-02  0.8175667E-01
          4   -1    0    0  501    0  0.00000000000E+00  0.00000000000E+00  0.18744683374E+04  0.18744683374E+04  0.00000000000E+00 0. -1.
         -4   -1    0    0    0  501 -0.00000000000E+00 -0.00000000000E+00 -0.14089639322E+04  0.14089639322E+04  0.00000000000E+00 0.  1.
         23    2    1    2    0    0 -0.23063162635E+03 -0.62346987654E+03 -0.12638035393E+04  0.14307553951E+04  0.89196304535E+02 0.  0.
         11    1    3    3    0    0 -0.14801420936E+03 -0.35613423224E+03 -0.64273653512E+03  0.74956657551E+03  0.00000000000E+00 0.  1.
        -11    1    3    3    0    0 -0.82617416997E+02 -0.26733564430E+03 -0.62106700417E+03  0.68118881962E+03  0.00000000000E+00 0. -1.
         22    1    1    2    0    0  0.23063162635E+03  0.62346987654E+03  0.17293079445E+04  0.18526768744E+04  0.00000000000E+00 0. -1.
<mgrwt>
<rscale>  0 0.32502666E+04</rscale>
<asrwt>0</asrwt>
<pdfrwt beam="1">  1        4 0.28837975E+00 0.32502666E+04</pdfrwt>
<pdfrwt beam="2">  1       -4 0.21676368E+00 0.32502666E+04</pdfrwt>
<totfact> 0.61950300E-03</totfact>
</mgrwt>
</event>
<event>
 6    1  0.1528034E-005  0.2398403E+04  0.7818608E-02  0.8440102E-01
         -2   -1    0    0    0  501 -0.00000000000E+00  0.00000000000E+00  0.11221737691E+04  0.11221737691E+04  0.00000000000E+00 0.  1.
          2   -1    0    0  501    0  0.00000000000E+00 -0.00000000000E+00 -0.12815166522E+04  0.12815166522E+04  0.00000000000E+00 0. -1.
         23    2    1    2    0    0 -0.61823305670E+03 -0.95008695025E+03 -0.46544995575E+03  0.12295614397E+04  0.10149062689E+03 0.  0.
         13    1    3    3    0    0 -0.48450617870E+03 -0.81205004413E+03 -0.39664665153E+03  0.10254267782E+04  0.00000000000E+00 0. -1.
        -13    1    3    3    0    0 -0.13372687800E+03 -0.13803690612E+03 -0.68803304214E+02  0.20413466149E+03  0.00000000000E+00 0.  1.
         22    1    1    2    0    0  0.61823305670E+03  0.95008695025E+03  0.30610707264E+03  0.11741289816E+04  0.00000000000E+00 0.  1.
<mgrwt>
<rscale>  0 0.23984031E+04</rscale>
<asrwt>0</asrwt>
<pdfrwt beam="1">  1        2 0.19715641E+00 0.23984031E+04</pdfrwt>
<pdfrwt beam="2">  1       -2 0.17264212E+00 0.23984031E+04</pdfrwt>
<totfact> 0.31117776E+00</totfact>
</mgrwt>
</event>
<event>
 6    1  0.1528034E-005  0.9016362E+03  0.7818608E-02  0.9423538E-01
          2   -1    0    0  501    0  0.00000000000E+00  0.00000000000E+00  0.18246828655E+03  0.18246828655E+03  0.00000000000E+00 0. -1.
         -2   -1    0    0    0  501 -0.00000000000E+00 -0.00000000000E+00 -0.11138208295E+04  0.11138208295E+04  0.00000000000E+00 0.  1.
         23    2    1    2    0    0 -0.78491697293E+02 -0.26075372457E+03 -0.97844111296E+03  0.10199364702E+04  0.93647959590E+02 0.  0.
         13    1    3    3    0    0  0.19125151251E+02 -0.37894740245E+02 -0.19586967688E+03  0.20041634931E+03  0.00000000000E+00 0.  1.
        -13    1    3    3    0    0 -0.97616848544E+02 -0.22285898432E+03 -0.78257143608E+03  0.81952012091E+03  0.00000000000E+00 0. -1.
         22    1    1    2    0    0  0.78491697293E+02  0.26075372457E+03  0.47088570032E+02  0.27635264581E+03  0.00000000000E+00 0. -1.
<mgrwt>
<rscale>  0 0.90163624E+03</rscale>
<asrwt>0</asrwt>
<pdfrwt beam="1">  1        2 0.28072045E-01 0.90163624E+03</pdfrwt>
<pdfrwt beam="2">  1       -2 0.17135705E+00 0.90163624E+03</pdfrwt>
<totfact> 0.40172526E+01</totfact>
</mgrwt>
</event>
<event>
 6    1  0.1528034E-005  0.8166824E+03  0.7818608E-02  0.9536179E-01
         -1   -1    0    0    0  501 -0.00000000000E+00  0.00000000000E+00  0.20009154371E+03  0.20009154371E+03  0.00000000000E+00 0.  1.
          1   -1    0    0  501    0  0.00000000000E+00 -0.00000000000E+00 -0.83333121485E+03  0.83333121485E+03  0.00000000000E+00 0. -1.
         23    2    1    2    0    0  0.18572266684E+03  0.10448572759E+03  0.11266431653E+03  0.25767606340E+03  0.91068815632E+02 0.  0.
         13    1    3    3    0    0  0.92180772197E+02  0.77707745653E+02  0.10534102787E+03  0.16010159477E+03  0.00000000000E+00 0.  1.
        -13    1    3    3    0    0  0.93541894645E+02  0.26777981936E+02  0.73232886616E+01  0.97574468623E+02  0.00000000000E+00 0. -1.
         22    1    1    2    0    0 -0.18572266684E+03 -0.10448572759E+03 -0.74590398766E+03  0.77574669517E+03  0.00000000000E+00 0. -1.
<mgrwt>
<rscale>  0 0.81668238E+03</rscale>
<asrwt>0</asrwt>
<pdfrwt beam="1">  1        1 0.12820481E+00 0.81668238E+03</pdfrwt>
<pdfrwt beam="2">  1       -1 0.30783313E-01 0.81668238E+03</pdfrwt>
<totfact> 0.20362935E+02</totfact>
</mgrwt>
</event>
<event>
 6    1  0.1528034E-005  0.1245376E+04  0.7818608E-02  0.9074041E-01
         -2   -1    0    0    0  501 -0.00000000000E+00  0.00000000000E+00  0.14562612298E+04  0.14562612298E+04  0.00000000000E+00 0. -1.
          2   -1    0    0  501    0  0.00000000000E+00 -0.00000000000E+00 -0.26625745592E+03  0.26625745592E+03  0.00000000000E+00 0.  1.
         23    2    1    2    0    0 -0.18304475346E+03  0.28353631489E+03  0.13164466272E+04  0.13621216564E+04  0.91899188240E+02 0.  0.
         13    1    3    3    0    0 -0.60487047074E+02  0.99474628107E+02  0.63835509532E+03  0.64888451378E+03  0.00000000000E+00 0. -1.
        -13    1    3    3    0    0 -0.12255770639E+03  0.18406168678E+03  0.67809153191E+03  0.71323714260E+03  0.00000000000E+00 0.  1.
         22    1    1    2    0    0  0.18304475346E+03 -0.28353631489E+03 -0.12644285331E+03  0.36039702937E+03  0.00000000000E+00 0.  1.
<mgrwt>
<rscale>  0 0.12453761E+04</rscale>
<asrwt>0</asrwt>
<pdfrwt beam="1">  1        2 0.40962686E-01 0.12453761E+04</pdfrwt>
<pdfrwt beam="2">  1       -2 0.22404018E+00 0.12453761E+04</pdfrwt>
<totfact> 0.11504834E+01</totfact>
</mgrwt>
</event>
<event>
 6    1  0.1528034E-005  0.3305851E+04  0.7818608E-02  0.8161408E-01
          1   -1    0    0  501    0  0.00000000000E+00  0.00000000000E+00  0.21729734620E+04  0.21729734620E+04  0.00000000000E+00 0. -1.
         -1   -1    0    0    0  501 -0.00000000000E+00 -0.00000000000E+00 -0.12573383368E+04  0.12573383368E+04  0.00000000000E+00 0.  1.
         23    2    1    2    0    0 -0.15315267225E+04 -0.54324844357E+03  0.76463302214E+03  0.17982901665E+04  0.92146031939E+02 0.  0.
         11    1    3    3    0    0 -0.11921124533E+04 -0.41211079660E+03  0.63377347154E+03  0.14116076732E+04  0.00000000000E+00 0. -1.
        -11    1    3    3    0    0 -0.33941426924E+03 -0.13113764698E+03  0.13085955060E+03  0.38668249327E+03  0.00000000000E+00 0.  1.
         22    1    1    2    0    0  0.15315267225E+04  0.54324844357E+03  0.15100210303E+03  0.16320216323E+04  0.00000000000E+00 0.  1.
<mgrwt>
<rscale>  0 0.33058511E+04</rscale>
<asrwt>0</asrwt>
<pdfrwt beam="1">  1        1 0.33430361E+00 0.33058511E+04</pdfrwt>
<pdfrwt beam="2">  1       -1 0.19343667E+00 0.33058511E+04</pdfrwt>
<totfact> 0.31507066E-01</totfact>
</mgrwt>
</event>
<event>
 6    1  0.1528034E-005  0.3215571E+04  0.7818608E-02  0.8184717E-01
          1   -1    0    0  501    0  0.00000000000E+00  0.00000000000E+00  0.22128596719E+04  0.22128596719E+04  0.00000000000E+00 0. -1.
         -1   -1    0    0    0  501 -0.00000000000E+00 -0.00000000000E+00 -0.11681602209E+04  0.11681602209E+04  0.00000000000E+00 0.  1.
         23    2    1    2    0    0  0.15086642382E+04 -0.43342824911E+03  0.16330943211E+03  0.15808042957E+04  0.91347795597E+02 0.  0.
         13    1    3    3    0    0  0.37717015767E+03 -0.13068054573E+03  0.79244124218E+01  0.39924620121E+03  0.00000000000E+00 0. -1.
        -13    1    3    3    0    0  0.11314940806E+04 -0.30274770338E+03  0.15538501969E+03  0.11815580945E+04  0.00000000000E+00 0.  1.
         22    1    1    2    0    0 -0.15086642382E+04  0.43342824911E+03  0.88139001890E+03  0.18002155972E+04  0.00000000000E+00 0. -1.
<mgrwt>
<rscale>  0 0.32155713E+04</rscale>
<asrwt>0</asrwt>
<pdfrwt beam="1">  1        1 0.34043995E+00 0.32155713E+04</pdfrwt>
<pdfrwt beam="2">  1       -1 0.17971696E+00 0.32155713E+04</pdfrwt>
<totfact> 0.37295439E-01</totfact>
</mgrwt>
</event>
<event>
 6    1  0.1528034E-005  0.2711051E+04  0.7818608E-02  0.8331428E-01
          2   -1    0    0  501    0  0.00000000000E+00  0.00000000000E+00  0.24502847153E+04  0.24502847153E+04  0.00000000000E+00 0. -1.
         -2   -1    0    0    0  501 -0.00000000000E+00 -0.00000000000E+00 -0.74989215831E+03  0.74989215831E+03  0.00000000000E+00 0.  1.
         23    2    1    2    0    0 -0.43800067793E+03 -0.11138902589E+04  0.15982071935E+04  0.19989117275E+04  0.93732373801E+02 0.  0.
         11    1    3    3    0    0 -0.12644970726E+03 -0.32780919941E+03  0.54216453409E+03  0.64605787799E+03  0.00000000000E+00 0. -1.
        -11    1    3    3    0    0 -0.31155097067E+03 -0.78608105953E+03  0.10560426594E+04  0.13528538495E+04  0.00000000000E+00 0.  1.
         22    1    1    2    0    0  0.43800067793E+03  0.11138902589E+04  0.10218536345E+03  0.12012651461E+04  0.00000000000E+00 0.  1.
<mgrwt>
<rscale>  0 0.27110509E+04</rscale>
<asrwt>0</asrwt>
<pdfrwt beam="1">  1        2 0.37696688E+00 0.27110509E+04</pdfrwt>
<pdfrwt beam="2">  1       -2 0.11536803E+00 0.27110509E+04</pdfrwt>
<totfact> 0.19069391E+00</totfact>
</mgrwt>
</event>
<event>
 6    1  0.1528034E-005  0.4112643E+04  0.7818608E-02  0.7982201E-01
         -2   -1    0    0    0  501 -0.00000000000E+00  0.00000000000E+00  0.18462506011E+04  0.18462506011E+04  0.00000000000E+00 0.  1.
          2   -1    0    0  501    0  0.00000000000E+00 -0.00000000000E+00 -0.22902948711E+04  0.22902948711E+04  0.00000000000E+00 0. -1.
         23    2    1    2    0    0  0.13101481712E+04 -0.68097520532E+03  0.12159477045E+04  0.19148819476E+04  0.89602413949E+02 0.  0.
         11    1    3    3    0    0  0.40274046809E+03 -0.25446624391E+03  0.37594774477E+03  0.60686873435E+03  0.00000000000E+00 0. -1.
        -11    1    3    3    0    0  0.90740770307E+03 -0.42650896140E+03  0.83999995977E+03  0.13080132133E+04  0.00000000000E+00 0.  1.
         22    1    1    2    0    0 -0.13101481712E+04  0.68097520532E+03 -0.16599919746E+04  0.22216635245E+04  0.00000000000E+00 0. -1.
<mgrwt>
<rscale>  0 0.41126431E+04</rscale>
<asrwt>0</asrwt>
<pdfrwt beam="1">  1        2 0.35235306E+00 0.41126431E+04</pdfrwt>
<pdfrwt beam="2">  1       -2 0.28403855E+00 0.41126431E+04</pdfrwt>
<totfact> 0.14282949E-01</totfact>
</mgrwt>
</event>
<event>
 6    1  0.1528034E-005  0.4988127E+03  0.7818608E-02  0.1014089E+00
         -4   -1    0    0    0  501 -0.00000000000E+00  0.00000000000E+00  0.75624484680E+02  0.75624484680E+02  0.00000000000E+00 0.  1.
          4   -1    0    0  501    0  0.00000000000E+00 -0.00000000000E+00 -0.82253161303E+03  0.82253161303E+03  0.00000000000E+00 0. -1.
         23    2    1    2    0    0 -0.17898809702E+03  0.94692155718E+02 -0.62208390807E+03  0.66028180412E+03  0.89332686877E+02 0.  0.
         13    1    3    3    0    0 -0.18910547658E+03  0.89364307634E+02 -0.57595750799E+03  0.61275926085E+03  0.00000000000E+00 0. -1.
        -13    1    3    3    0    0  0.10117379559E+02  0.53278480836E+01 -0.46126400077E+02  0.47522543266E+02  0.00000000000E+00 0.  1.
         22    1    1    2    0    0  0.17898809702E+03 -0.94692155718E+02 -0.12482322028E+03  0.23787429359E+03  0.00000000000E+00 0.  1.
<mgrwt>
<rscale>  0 0.49881271E+03</rscale>
<asrwt>0</asrwt>
<pdfrwt beam="1">  1        4 0.12654332E+00 0.49881271E+03</pdfrwt>
<pdfrwt beam="2">  1       -4 0.11634537E-01 0.49881271E+03</pdfrwt>
<totfact> 0.55295720E+01</totfact>
</mgrwt>
</event>
<event>
 6    1  0.1528034E-005  0.1495288E+04  0.7818608E-02  0.8887592E-01
          3   -1    0    0  501    0  0.00000000000E+00  0.00000000000E+00  0.95334548434E+03  0.95334548434E+03  0.00000000000E+00 0. -1.
         -3   -1    0    0    0  501 -0.00000000000E+00 -0.00000000000E+00 -0.58632623340E+03  0.58632623340E+03  0.00000000000E+00 0.  1.
         23    2    1    2    0    0 -0.14927034016E+01 -0.74058708827E+03  0.26614559157E+03  0.79224482591E+03  0.91361506146E+02 0.  0.
         13    1    3    3    0    0  0.38076284408E+02 -0.24015417617E+03  0.10671691544E+03  0.26554158206E+03  0.00000000000E+00 0. -1.
        -13    1    3    3    0    0 -0.39568987810E+02 -0.50043291210E+03  0.15942867614E+03  0.52670324385E+03  0.00000000000E+00 0.  1.
         22    1    1    2    0    0  0.14927034016E+01  0.74058708827E+03  0.10087365938E+03  0.74742689183E+03  0.00000000000E+00 0.  1.
<mgrwt>
<rscale>  0 0.14952879E+04</rscale>
<asrwt>0</asrwt>
<pdfrwt beam="1">  1        3 0.14666854E+00 0.14952879E+04</pdfrwt>
<pdfrwt beam="2">  1       -3 0.90204036E-01 0.14952879E+04</pdfrwt>
<totfact> 0.96261136E-01</totfact>
</mgrwt>
</event>
<event>
 6    1  0.1528034E-005  0.2890097E+04  0.7818608E-02  0.8275830E-01
         -1   -1    0    0    0  501 -0.00000000000E+00  0.00000000000E+00  0.11182794757E+04  0.11182794757E+04  0.00000000000E+00 0.  1.
          1   -1    0    0  501    0  0.00000000000E+00 -0.00000000000E+00 -0.18673017307E+04  0.18673017307E+04  0.00000000000E+00 0. -1.
         23    2    1    2    0    0  0.86891635643E+03  0.51652286069E+03  0.68984539852E+03  0.12271297215E+04  0.90272806076E+02 0.  0.
         11    1    3    3    0    0  0.75794546086E+03  0.46281654340E+03  0.63746430068E+03  0.10931794039E+04  0.00000000000E+00 0.  1.
        -11    1    3    3    0    0  0.11097089557E+03  0.53706317291E+02  0.52381097836E+02  0.13395031762E+03  0.00000000000E+00 0. -1.
         22    1    1    2    0    0 -0.86891635643E+03 -0.51652286069E+03 -0.14388676536E+04  0.17584514849E+04  0.00000000000E+00 0. -1.
<mgrwt>
<rscale>  0 0.28900970E+04</rscale>
<asrwt>0</asrwt>
<pdfrwt beam="1">  1        1 0.28727719E+00 0.28900970E+04</pdfrwt>
<pdfrwt beam="2">  1       -1 0.17204300E+00 0.28900970E+04</pdfrwt>
<totfact> 0.74883133E-01</totfact>
</mgrwt>
</event>
<event>
 6    1  0.1528034E-005  0.6023828E+04  0.7818608E-02  0.7687454E-01
         -2   -1    0    0    0  501 -0.00000000000E+00  0.00000000000E+00  0.29583368257E+04  0.29583368257E+04  0.00000000000E+00 0.  1.
          2   -1    0    0  501    0  0.00000000000E+00 -0.00000000000E+00 -0.30664616644E+04  0.30664616644E+04  0.00000000000E+00 0. -1.
         23    2    1    2    0    0 -0.77910635988E+03 -0.11782628753E+04 -0.27138597836E+04  0.30608206349E+04  0.90983022735E+02 0.  0.
         13    1    3    3    0    0 -0.43654779080E+03 -0.58289984270E+03 -0.14307539169E+04  0.16054292171E+04  0.00000000000E+00 0. -1.
        -13    1    3    3    0    0 -0.34255856909E+03 -0.59536303263E+03 -0.12831058667E+04  0.14553914178E+04  0.00000000000E+00 0.  1.
         22    1    1    2    0    0  0.77910635988E+03  0.11782628753E+04  0.26057349449E+04  0.29639778552E+04  0.00000000000E+00 0.  1.
<mgrwt>
<rscale>  0 0.60238282E+04</rscale>
<asrwt>0</asrwt>
<pdfrwt beam="1">  1        2 0.47176333E+00 0.60238282E+04</pdfrwt>
<pdfrwt beam="2">  1       -2 0.45512875E+00 0.60238282E+04</pdfrwt>
<totfact> 0.34260712E-03</totfact>
</mgrwt>
</event>
<event>
 6    1  0.1528034E-005  0.4422014E+04  0.7818608E-02  0.7924434E-01
         -1   -1    0    0    0  501 -0.00000000000E+00  0.00000000000E+00  0.32148757047E+04  0.32148757047E+04  0.00000000000E+00 0.  1.
          1   -1    0    0  501    0  0.00000000000E+00 -0.00000000000E+00 -0.15206035579E+04  0.15206035579E+04  0.00000000000E+00 0. -1.
         23    2    1    2    0    0  0.13138891163E+03  0.22042205163E+04  0.92994292904E+03  0.23988042139E+04  0.11669050842E+03 0.  0.
         11    1    3    3    0    0  0.84130731180E+02  0.19723455740E+04  0.81557350063E+03  0.21359740584E+04  0.00000000000E+00 0. -1.
        -11    1    3    3    0    0  0.47258180446E+02  0.23187494231E+03  0.11436942841E+03  0.26283015551E+03  0.00000000000E+00 0.  1.
         22    1    1    2    0    0 -0.13138891163E+03 -0.22042205163E+04  0.76432921773E+03  0.23366750488E+04  0.00000000000E+00 0.  1.
<mgrwt>
<rscale>  0 0.44220138E+04</rscale>
<asrwt>0</asrwt>
<pdfrwt beam="1">  1        1 0.23393901E+00 0.44220138E+04</pdfrwt>
<pdfrwt beam="2">  1       -1 0.49459626E+00 0.44220138E+04</pdfrwt>
<totfact> 0.77556343E-03</totfact>
</mgrwt>
</event>
<event>
 6    1  0.1528034E-005  0.1695517E+04  0.7818608E-02  0.8763925E-01
         -2   -1    0    0    0  501 -0.00000000000E+00  0.00000000000E+00  0.46781367153E+03  0.46781367153E+03  0.00000000000E+00 0.  1.
          2   -1    0    0  501    0  0.00000000000E+00 -0.00000000000E+00 -0.15362844137E+04  0.15362844137E+04  0.00000000000E+00 0. -1.
         23    2    1    2    0    0  0.76101085894E+02 -0.33614792047E+03  0.37670125331E+03  0.51839660234E+03  0.89690597968E+02 0.  0.
         13    1    3    3    0    0  0.55996263726E+02 -0.13910807753E+03  0.10897365472E+03  0.18536962051E+03  0.00000000000E+00 0. -1.
        -13    1    3    3    0    0  0.20104822168E+02 -0.19703984294E+03  0.26772759860E+03  0.33302698184E+03  0.00000000000E+00 0.  1.
         22    1    1    2    0    0 -0.76101085894E+02  0.33614792047E+03 -0.14451719955E+04  0.14857014829E+04  0.00000000000E+00 0. -1.
<mgrwt>
<rscale>  0 0.16955174E+04</rscale>
<asrwt>0</asrwt>
<pdfrwt beam="1">  1        2 0.23635144E+00 0.16955174E+04</pdfrwt>
<pdfrwt beam="2">  1       -2 0.71971335E-01 0.16955174E+04</pdfrwt>
<totfact> 0.20159769E+01</totfact>
</mgrwt>
</event>
<event>
 6    1  0.1528034E-005  0.7241370E+03  0.7818608E-02  0.9676822E-01
         -2   -1    0    0    0  501 -0.00000000000E+00  0.00000000000E+00  0.14011577560E+04  0.14011577560E+04  0.00000000000E+00 0.  1.
          2   -1    0    0  501    0  0.00000000000E+00 -0.00000000000E+00 -0.93560923926E+02  0.93560923926E+02  0.00000000000E+00 0. -1.
         23    2    1    2    0    0  0.22839111958E+03 -0.20984517075E+03  0.10257370410E+04  0.10756215062E+04  0.92885134404E+02 0.  0.
         13    1    3    3    0    0  0.13424805457E+03 -0.17568086124E+03  0.76502659152E+03  0.79633660652E+03  0.00000000000E+00 0. -1.
        -13    1    3    3    0    0  0.94143065008E+02 -0.34164309507E+02  0.26071044948E+03  0.27928489970E+03  0.00000000000E+00 0.  1.
         22    1    1    2    0    0 -0.22839111958E+03  0.20984517075E+03  0.28185979112E+03  0.41909717374E+03  0.00000000000E+00 0. -1.
<mgrwt>
<rscale>  0 0.72413704E+03</rscale>
<asrwt>0</asrwt>
<pdfrwt beam="1">  1        2 0.14393989E-01 0.72413704E+03</pdfrwt>
<pdfrwt beam="2">  1       -2 0.21556272E+00 0.72413704E+03</pdfrwt>
<totfact> 0.45451407E+01</totfact>
</mgrwt>
</event>
<event>
 6    1  0.1528034E-005  0.1737592E+04  0.7818608E-02  0.8740210E-01
          2   -1    0    0  501    0  0.00000000000E+00  0.00000000000E+00  0.83290958912E+03  0.83290958912E+03  0.00000000000E+00 0. -1.
         -2   -1    0    0    0  501 -0.00000000000E+00 -0.00000000000E+00 -0.90622867658E+03  0.90622867658E+03  0.00000000000E+00 0.  1.
         23    2    1    2    0    0  0.33284603219E+03  0.79836581239E+03  0.10635980830E+02  0.87010264788E+03  0.93760557915E+02 0.  0.
         13    1    3    3    0    0  0.13847742064E+03  0.29574401057E+03  0.47278585518E+02  0.32996330169E+03  0.00000000000E+00 0. -1.
        -13    1    3    3    0    0  0.19436861154E+03  0.50262180182E+03 -0.36642604688E+02  0.54013934619E+03  0.00000000000E+00 0.  1.
         22    1    1    2    0    0 -0.33284603219E+03 -0.79836581239E+03 -0.83955068289E+02  0.86903561782E+03  0.00000000000E+00 0.  1.
<mgrwt>
<rscale>  0 0.17375921E+04</rscale>
<asrwt>0</asrwt>
<pdfrwt beam="1">  1        2 0.12813994E+00 0.17375921E+04</pdfrwt>
<pdfrwt beam="2">  1       -2 0.13941980E+00 0.17375921E+04</pdfrwt>
<totfact> 0.11236248E+01</totfact>
</mgrwt>
</event>
<event>
 6    1  0.1528034E-005  0.2256384E+04  0.7818608E-02  0.8495320E-01
          2   -1    0    0  501    0  0.00000000000E+00  0.00000000000E+00  0.30220108803E+04  0.30220108803E+04  0.00000000000E+00 0. -1.
         -2   -1    0    0    0  501 -0.00000000000E+00 -0.00000000000E+00 -0.42118219006E+03  0.42118219006E+03  0.00000000000E+00 0.  1.
         23    2    1    2    0    0  0.82480686906E+03  0.63840176414E+03  0.65370479649E+03  0.12343122132E+04  0.91287977753E+02 0.  0.
         13    1    3    3    0    0  0.15112148830E+03  0.15171505499E+03  0.10565281206E+03  0.23878374910E+03  0.00000000000E+00 0.  1.
        -13    1    3    3    0    0  0.67368538076E+03  0.48668670916E+03  0.54805198443E+03  0.99552846406E+03  0.00000000000E+00 0. -1.
         22    1    1    2    0    0 -0.82480686906E+03 -0.63840176414E+03  0.19471238937E+04  0.22088808572E+04  0.00000000000E+00 0.  1.
<mgrwt>
<rscale>  0 0.22563840E+04</rscale>
<asrwt>0</asrwt>
<pdfrwt beam="1">  1        2 0.46492474E+00 0.22563840E+04</pdfrwt>
<pdfrwt beam="2">  1       -2 0.64797262E-01 0.22563840E+04</pdfrwt>
<totfact> 0.33761515E+00</totfact>
</mgrwt>
</event>
<event>
 6    1  0.1528034E-005  0.6230705E+04  0.7818608E-02  0.7662437E-01
         -2   -1    0    0    0  501 -0.00000000000E+00  0.00000000000E+00  0.30472070162E+04  0.30472070162E+04  0.00000000000E+00 0.  1.
          2   -1    0    0  501    0  0.00000000000E+00 -0.00000000000E+00 -0.31850219552E+04  0.31850219552E+04  0.00000000000E+00 0. -1.
         23    2    1    2    0    0  0.23504341572E+04 -0.11406327922E+04 -0.17651142611E+04  0.31542934657E+04  0.91405791554E+02 0.  0.
         13    1    3    3    0    0  0.51170995248E+03 -0.27229045924E+03 -0.35422236191E+03  0.67931042340E+03  0.00000000000E+00 0. -1.
        -13    1    3    3    0    0  0.18387242047E+04 -0.86834233294E+03 -0.14108918992E+04  0.24749830423E+04  0.00000000000E+00 0.  1.
         22    1    1    2    0    0 -0.23504341572E+04  0.11406327922E+04  0.16272993221E+04  0.30779355058E+04  0.00000000000E+00 0.  1.
<mgrwt>
<rscale>  0 0.62307050E+04</rscale>
<asrwt>0</asrwt>
<pdfrwt beam="1">  1        2 0.49000338E+00 0.62307050E+04</pdfrwt>
<pdfrwt beam="2">  1       -2 0.46880108E+00 0.62307050E+04</pdfrwt>
<totfact> 0.23047378E-03</totfact>
</mgrwt>
</event>
<event>
 6    1  0.1528034E-005  0.2410517E+04  0.7818608E-02  0.8435577E-01
         -2   -1    0    0    0  501 -0.00000000000E+00  0.00000000000E+00  0.97707568440E+03  0.97707568440E+03  0.00000000000E+00 0. -1.
          2   -1    0    0  501    0  0.00000000000E+00 -0.00000000000E+00 -0.14867301708E+04  0.14867301708E+04  0.00000000000E+00 0.  1.
         23    2    1    2    0    0 -0.27231966936E+02 -0.85876152416E+03  0.60589734819E+03  0.10557331188E+04  0.96165930151E+02 0.  0.
         13    1    3    3    0    0 -0.39349752967E+02 -0.38471145981E+03  0.22431789356E+03  0.44706803480E+03  0.00000000000E+00 0.  1.
        -13    1    3    3    0    0  0.12117786032E+02 -0.47405006435E+03  0.38157945464E+03  0.60866508398E+03  0.00000000000E+00 0. -1.
         22    1    1    2    0    0  0.27231966936E+02  0.85876152416E+03 -0.11155518346E+04  0.14080727365E+04  0.00000000000E+00 0.  1.
<mgrwt>
<rscale>  0 0.24105169E+04</rscale>
<asrwt>0</asrwt>
<pdfrwt beam="1">  1        2 0.22872772E+00 0.24105169E+04</pdfrwt>
<pdfrwt beam="2">  1       -2 0.15031934E+00 0.24105169E+04</pdfrwt>
<totfact> 0.34576812E+00</totfact>
</mgrwt>
</event>
<event>
 6    1  0.1528034E-005  0.6770431E+03  0.7818608E-02  0.9757317E-01
          1   -1    0    0  501    0  0.00000000000E+00  0.00000000000E+00  0.13181424742E+04  0.13181424742E+04  0.00000000000E+00 0. -1.
         -1   -1    0    0    0  501 -0.00000000000E+00 -0.00000000000E+00 -0.86938135718E+02  0.86938135718E+02  0.00000000000E+00 0.  1.
         23    2    1    2    0    0  0.28338365901E+03 -0.20720428246E+02  0.26788959741E+03  0.40073459151E+03  0.89931874715E+02 0.  0.
         13    1    3    3    0    0  0.49851908602E+02  0.97633845695E+01  0.10529975081E+02  0.51878867034E+02  0.00000000000E+00 0. -1.
        -13    1    3    3    0    0  0.23353175041E+03 -0.30483812815E+02  0.25735962233E+03  0.34885572447E+03  0.00000000000E+00 0.  1.
         22    1    1    2    0    0 -0.28338365901E+03  0.20720428246E+02  0.96331474108E+03  0.10043460184E+04  0.00000000000E+00 0. -1.
<mgrwt>
<rscale>  0 0.67704313E+03</rscale>
<asrwt>0</asrwt>
<pdfrwt beam="1">  1        1 0.20279113E+00 0.67704313E+03</pdfrwt>
<pdfrwt beam="2">  1       -1 0.13375099E-01 0.67704313E+03</pdfrwt>
<totfact> 0.35441315E+02</totfact>
</mgrwt>
</event>
<event>
 6    1  0.1528034E-005  0.3648544E+04  0.7818608E-02  0.8079462E-01
         -2   -1    0    0    0  501 -0.00000000000E+00  0.00000000000E+00  0.18558224717E+04  0.18558224717E+04  0.00000000000E+00 0.  1.
          2   -1    0    0  501    0  0.00000000000E+00 -0.00000000000E+00 -0.17932582739E+04  0.17932582739E+04  0.00000000000E+00 0. -1.
         23    2    1    2    0    0 -0.73094525942E+03  0.60527201241E+03  0.15881863961E+04  0.18523731252E+04  0.91186539894E+02 0.  0.
         13    1    3    3    0    0 -0.51816977245E+03  0.37379145198E+03  0.10551768930E+04  0.12335389083E+04  0.00000000000E+00 0. -1.
        -13    1    3    3    0    0 -0.21277548698E+03  0.23148056043E+03  0.53300950304E+03  0.61883421693E+03  0.00000000000E+00 0.  1.
         22    1    1    2    0    0  0.73094525942E+03 -0.60527201241E+03 -0.15256221983E+04  0.17967076204E+04  0.00000000000E+00 0. -1.
<mgrwt>
<rscale>  0 0.36485444E+04</rscale>
<asrwt>0</asrwt>
<pdfrwt beam="1">  1        2 0.27588589E+00 0.36485444E+04</pdfrwt>
<pdfrwt beam="2">  1       -2 0.28551115E+00 0.36485444E+04</pdfrwt>
<totfact> 0.27537600E-01</totfact>
</mgrwt>
</event>
<event>
 6    1  0.1528034E-005  0.1899508E+04  0.7818608E-02  0.8655101E-01
          2   -1    0    0  501    0  0.00000000000E+00  0.00000000000E+00  0.17419941086E+04  0.17419941086E+04  0.00000000000E+00 0. -1.
         -2   -1    0    0    0  501 -0.00000000000E+00 -0.00000000000E+00 -0.51781634120E+03  0.51781634120E+03  0.00000000000E+00 0.  1.
         23    2    1    2    0    0 -0.28597899692E+03 -0.65397303248E+03  0.13551237078E+04  0.15341303872E+04  0.87926489853E+02 0.  0.
         13    1    3    3    0    0 -0.10637532611E+03 -0.31845876178E+03  0.56747231704E+03  0.65936069307E+03  0.00000000000E+00 0. -1.
        -13    1    3    3    0    0 -0.17960367081E+03 -0.33551427070E+03  0.78765139080E+03  0.87476969417E+03  0.00000000000E+00 0.  1.
         22    1    1    2    0    0  0.28597899692E+03  0.65397303248E+03 -0.13094594044E+03  0.72568006257E+03  0.00000000000E+00 0.  1.
<mgrwt>
<rscale>  0 0.18995084E+04</rscale>
<asrwt>0</asrwt>
<pdfrwt beam="1">  1        2 0.26799909E+00 0.18995084E+04</pdfrwt>
<pdfrwt beam="2">  1       -2 0.79664053E-01 0.18995084E+04</pdfrwt>
<totfact> 0.12145297E+01</totfact>
</mgrwt>
</event>
<event>
 6    1  0.1528034E-005  0.1441275E+04  0.7818608E-02  0.8924471E-01
          2   -1    0    0  501    0  0.00000000000E+00  0.00000000000E+00  0.22164265644E+04  0.22164265644E+04  0.00000000000E+00 0. -1.
         -2   -1    0    0    0  501 -0.00000000000E+00 -0.00000000000E+00 -0.23430450133E+03  0.23430450133E+03  0.00000000000E+00 0.  1.
         23    2    1    2    0    0  0.10143165144E+03  0.47221665948E+03  0.93011423596E+02  0.50085518210E+03  0.94487221958E+02 0.  0.
         11    1    3    3    0    0 -0.10059869184E+02  0.14432306468E+03  0.11956634567E+02  0.14516648744E+03  0.00000000000E+00 0.  1.
        -11    1    3    3    0    0  0.11149152063E+03  0.32789359480E+03  0.81054789029E+02  0.35568869466E+03  0.00000000000E+00 0. -1.
         22    1    1    2    0    0 -0.10143165144E+03 -0.47221665948E+03  0.18891106395E+04  0.19498758836E+04  0.00000000000E+00 0. -1.
<mgrwt>
<rscale>  0 0.14412754E+04</rscale>
<asrwt>0</asrwt>
<pdfrwt beam="1">  1        2 0.34098869E+00 0.14412754E+04</pdfrwt>
<pdfrwt beam="2">  1       -2 0.36046848E-01 0.14412754E+04</pdfrwt>
<totfact> 0.35561657E+01</totfact>
</mgrwt>
</event>
<event>
 6    1  0.1528034E-005  0.1114618E+04  0.7818608E-02  0.9191060E-01
         -1   -1    0    0    0  501 -0.00000000000E+00  0.00000000000E+00  0.24825946931E+03  0.24825946931E+03  0.00000000000E+00 0.  1.
          1   -1    0    0  501    0  0.00000000000E+00 -0.00000000000E+00 -0.12510833142E+04  0.12510833142E+04  0.00000000000E+00 0. -1.
         23    2    1    2    0    0 -0.21244215205E+03 -0.32433088673E+03  0.26381505205E+02  0.39953105202E+03  0.92773302484E+02 0.  0.
         13    1    3    3    0    0 -0.16971876569E+03 -0.22219971074E+03  0.55503754765E+02  0.28505760413E+03  0.00000000000E+00 0.  1.
        -13    1    3    3    0    0 -0.42723386362E+02 -0.10213117599E+03 -0.29122249560E+02  0.11447344789E+03  0.00000000000E+00 0. -1.
         22    1    1    2    0    0  0.21244215205E+03  0.32433088673E+03 -0.10292053501E+04  0.10998117315E+04  0.00000000000E+00 0. -1.
<mgrwt>
<rscale>  0 0.11146179E+04</rscale>
<asrwt>0</asrwt>
<pdfrwt beam="1">  1        1 0.19247435E+00 0.11146179E+04</pdfrwt>
<pdfrwt beam="2">  1       -1 0.38193765E-01 0.11146179E+04</pdfrwt>
<totfact> 0.64672172E+01</totfact>
</mgrwt>
</event>
<event>
 6    1  0.1528034E-005  0.2581066E+04  0.7818608E-02  0.8374661E-01
          2   -1    0    0  501    0  0.00000000000E+00  0.00000000000E+00  0.33389662387E+04  0.33389662387E+04  0.00000000000E+00 0. -1.
         -2   -1    0    0    0  501 -0.00000000000E+00 -0.00000000000E+00 -0.49879965042E+03  0.49879965042E+03  0.00000000000E+00 0.  1.
         23    2    1    2    0    0  0.46467103759E+02  0.33953780492E+03  0.32693754003E+04  0.32885252159E+04  0.90207952481E+02 0.  0.
         13    1    3    3    0    0  0.62850335460E+02  0.15302707498E+03  0.13732985963E+04  0.13832268379E+04  0.00000000000E+00 0.  1.
        -13    1    3    3    0    0 -0.16383231701E+02  0.18651072994E+03  0.18960768040E+04  0.19052983780E+04  0.00000000000E+00 0. -1.
         22    1    1    2    0    0 -0.46467103759E+02 -0.33953780492E+03 -0.42920881208E+03  0.54924067318E+03  0.00000000000E+00 0.  1.
<mgrwt>
<rscale>  0 0.25810658E+04</rscale>
<asrwt>0</asrwt>
<pdfrwt beam="1">  1        2 0.51368710E+00 0.25810658E+04</pdfrwt>
<pdfrwt beam="2">  1       -2 0.76738410E-01 0.25810658E+04</pdfrwt>
<totfact> 0.14106106E+00</totfact>
</mgrwt>
</event>
<event>
 6    1  0.1528034E-005  0.8837286E+03  0.7818608E-02  0.9446153E-01
          1   -1    0    0  501    0  0.00000000000E+00  0.00000000000E+00  0.11862740417E+04  0.11862740417E+04  0.00000000000E+00 0. -1.
         -1   -1    0    0    0  501 -0.00000000000E+00 -0.00000000000E+00 -0.16458597001E+03  0.16458597001E+03  0.00000000000E+00 0.  1.
         23    2    1    2    0    0 -0.41620844413E+03 -0.12498568896E+03  0.44349711335E+03  0.62756499878E+03  0.91089224020E+02 0.  0.
         13    1    3    3    0    0 -0.12044926779E+03 -0.37997896966E+02  0.19145569022E+03  0.22936248081E+03  0.00000000000E+00 0. -1.
        -13    1    3    3    0    0 -0.29575917634E+03 -0.86987791996E+02  0.25204142313E+03  0.39820251797E+03  0.00000000000E+00 0.  1.
         22    1    1    2    0    0  0.41620844413E+03  0.12498568896E+03  0.57819095832E+03  0.72329501291E+03  0.00000000000E+00 0.  1.
<mgrwt>
<rscale>  0 0.88372861E+03</rscale>
<asrwt>0</asrwt>
<pdfrwt beam="1">  1        1 0.18250369E+00 0.88372861E+03</pdfrwt>
<pdfrwt beam="2">  1       -1 0.25320919E-01 0.88372861E+03</pdfrwt>
<totfact> 0.15095856E+02</totfact>
</mgrwt>
</event>
<event>
 6    1  0.1528034E-005  0.2763827E+04  0.7818608E-02  0.8314587E-01
         -1   -1    0    0    0  501 -0.00000000000E+00  0.00000000000E+00  0.85925847795E+03  0.85925847795E+03  0.00000000000E+00 0.  1.
          1   -1    0    0  501    0  0.00000000000E+00 -0.00000000000E+00 -0.22224798471E+04  0.22224798471E+04  0.00000000000E+00 0. -1.
         23    2    1    2    0    0  0.96125144401E+03  0.39388704114E+03 -0.16959860641E+04  0.19909204291E+04  0.90796947137E+02 0.  0.
         13    1    3    3    0    0  0.44864889078E+03  0.13535810952E+03 -0.75226791670E+03  0.88629265116E+03  0.00000000000E+00 0.  1.
        -13    1    3    3    0    0  0.51260255323E+03  0.25852893162E+03 -0.94371814739E+03  0.11046277779E+04  0.00000000000E+00 0. -1.
         22    1    1    2    0    0 -0.96125144401E+03 -0.39388704114E+03  0.33276469499E+03  0.10908178959E+04  0.00000000000E+00 0.  1.
<mgrwt>
<rscale>  0 0.27638268E+04</rscale>
<asrwt>0</asrwt>
<pdfrwt beam="1">  1        1 0.34191997E+00 0.27638268E+04</pdfrwt>
<pdfrwt beam="2">  1       -1 0.13219361E+00 0.27638268E+04</pdfrwt>
<totfact> 0.88739851E-01</totfact>
</mgrwt>
</event>
<event>
 6    1  0.1528034E-005  0.2754886E+04  0.7818608E-02  0.8317413E-01
          2   -1    0    0  501    0  0.00000000000E+00  0.00000000000E+00  0.65945094138E+03  0.65945094138E+03  0.00000000000E+00 0. -1.
         -2   -1    0    0    0  501 -0.00000000000E+00 -0.00000000000E+00 -0.28771647970E+04  0.28771647970E+04  0.00000000000E+00 0.  1.
         23    2    1    2    0    0  0.73417632777E+03  0.94120257185E+03 -0.23152900525E+03  0.12193312454E+04  0.91026612938E+02 0.  0.
         13    1    3    3    0    0  0.92289777144E+02  0.16234412687E+03 -0.55527969402E+02  0.19482395613E+03  0.00000000000E+00 0.  1.
        -13    1    3    3    0    0  0.64188655062E+03  0.77885844498E+03 -0.17600103585E+03  0.10245072893E+04  0.00000000000E+00 0. -1.
         22    1    1    2    0    0 -0.73417632777E+03 -0.94120257185E+03 -0.19861848504E+04  0.23172844930E+04  0.00000000000E+00 0.  1.
<mgrwt>
<rscale>  0 0.27548859E+04</rscale>
<asrwt>0</asrwt>
<pdfrwt beam="1">  1        2 0.10145399E+00 0.27548859E+04</pdfrwt>
<pdfrwt beam="2">  1       -2 0.44264073E+00 0.27548859E+04</pdfrwt>
<totfact> 0.14958704E-01</totfact>
</mgrwt>
</event>
<event>
 6    1  0.1528034E-005  0.1198006E+04  0.7818608E-02  0.9114604E-01
          1   -1    0    0  501    0  0.00000000000E+00  0.00000000000E+00  0.21992802111E+04  0.21992802111E+04  0.00000000000E+00 0. -1.
         -1   -1    0    0    0  501 -0.00000000000E+00 -0.00000000000E+00 -0.16314633471E+03  0.16314633471E+03  0.00000000000E+00 0.  1.
         23    2    1    2    0    0  0.18795912525E+03 -0.34997737046E+03  0.14811325397E+03  0.43306533979E+03  0.88290769189E+02 0.  0.
         13    1    3    3    0    0  0.88271748326E+02 -0.89365413475E+02  0.67643122568E+02  0.14266629142E+03  0.00000000000E+00 0. -1.
        -13    1    3    3    0    0  0.99687376927E+02 -0.26061195699E+03  0.80470131399E+02  0.29039904836E+03  0.00000000000E+00 0.  1.
         22    1    1    2    0    0 -0.18795912525E+03  0.34997737046E+03  0.18880206224E+04  0.19293612060E+04  0.00000000000E+00 0. -1.
<mgrwt>
<rscale>  0 0.11980059E+04</rscale>
<asrwt>0</asrwt>
<pdfrwt beam="1">  1        1 0.33835078E+00 0.11980059E+04</pdfrwt>
<pdfrwt beam="2">  1       -1 0.25099438E-01 0.11980059E+04</pdfrwt>
<totfact> 0.30137422E+01</totfact>
</mgrwt>
</event>
<event>
 6    1  0.1528034E-005  0.1227738E+04  0.7818608E-02  0.9088918E-01
          2   -1    0    0  501    0  0.00000000000E+00  0.00000000000E+00  0.58128907207E+03  0.58128907207E+03  0.00000000000E+00 0. -1.
         -2   -1    0    0    0  501 -0.00000000000E+00 -0.00000000000E+00 -0.64827463215E+03  0.64827463215E+03  0.00000000000E+00 0.  1.
         23    2    1    2    0    0  0.57720170307E+03 -0.29503647630E+02 -0.22995487553E+03  0.62907118218E+03  0.93909723730E+02 0.  0.
         13    1    3    3    0    0  0.61855425618E+02 -0.24218095916E+02 -0.46149963662E+01  0.66587596740E+02  0.00000000000E+00 0.  1.
        -13    1    3    3    0    0  0.51534627745E+03 -0.52855517137E+01 -0.22533987916E+03  0.56248358544E+03  0.00000000000E+00 0. -1.
         22    1    1    2    0    0 -0.57720170307E+03  0.29503647630E+02  0.16296931545E+03  0.60049252205E+03  0.00000000000E+00 0.  1.
<mgrwt>
<rscale>  0 0.12277377E+04</rscale>
<asrwt>0</asrwt>
<pdfrwt beam="1">  1        2 0.89429088E-01 0.12277377E+04</pdfrwt>
<pdfrwt beam="2">  1       -2 0.99734558E-01 0.12277377E+04</pdfrwt>
<totfact> 0.42199545E+01</totfact>
</mgrwt>
</event>
<event>
 6    1  0.1528034E-005  0.9318519E+03  0.7818608E-02  0.9386618E-01
          2   -1    0    0  501    0  0.00000000000E+00  0.00000000000E+00  0.68026161864E+03  0.68026161864E+03  0.00000000000E+00 0. -1.
         -2   -1    0    0    0  501 -0.00000000000E+00 -0.00000000000E+00 -0.31912280762E+03  0.31912280762E+03  0.00000000000E+00 0.  1.
         23    2    1    2    0    0 -0.40905729707E+03 -0.33724851106E+02  0.40841711755E+03  0.58622528484E+03  0.91598607047E+02 0.  0.
         11    1    3    3    0    0 -0.35678702577E+03 -0.58933922357E+02  0.33813647829E+03  0.49508228297E+03  0.00000000000E+00 0.  1.
        -11    1    3    3    0    0 -0.52270271296E+02  0.25209071251E+02  0.70280639264E+02  0.91143001871E+02  0.00000000000E+00 0. -1.
         22    1    1    2    0    0  0.40905729707E+03  0.33724851106E+02 -0.47278306539E+02  0.41315914142E+03  0.00000000000E+00 0. -1.
<mgrwt>
<rscale>  0 0.93185191E+03</rscale>
<asrwt>0</asrwt>
<pdfrwt beam="1">  1        2 0.10465563E+00 0.93185191E+03</pdfrwt>
<pdfrwt beam="2">  1       -2 0.49095816E-01 0.93185191E+03</pdfrwt>
<totfact> 0.16714909E+02</totfact>
</mgrwt>
</event>
<event>
 6    1  0.1528034E-005  0.1135556E+04  0.7818608E-02  0.9171213E-01
         -2   -1    0    0    0  501 -0.00000000000E+00  0.00000000000E+00  0.43476367093E+03  0.43476367093E+03  0.00000000000E+00 0.  1.
          2   -1    0    0  501    0  0.00000000000E+00 -0.00000000000E+00 -0.74148785039E+03  0.74148785039E+03  0.00000000000E+00 0. -1.
         23    2    1    2    0    0 -0.12138541630E+03  0.52974399234E+03 -0.31128626305E+03  0.63275917610E+03  0.90121699150E+02 0.  0.
         13    1    3    3    0    0 -0.51294179074E+02  0.21221267137E+03 -0.17654601769E+03  0.28077358683E+03  0.00000000000E+00 0. -1.
        -13    1    3    3    0    0 -0.70091237230E+02  0.31753132097E+03 -0.13474024536E+03  0.35198558926E+03  0.00000000000E+00 0.  1.
         22    1    1    2    0    0  0.12138541630E+03 -0.52974399234E+03  0.45620835997E+01  0.54349234522E+03  0.00000000000E+00 0.  1.
<mgrwt>
<rscale>  0 0.11355562E+04</rscale>
<asrwt>0</asrwt>
<pdfrwt beam="1">  1        2 0.11407505E+00 0.11355562E+04</pdfrwt>
<pdfrwt beam="2">  1       -2 0.66886720E-01 0.11355562E+04</pdfrwt>
<totfact> 0.77427773E+01</totfact>
</mgrwt>
</event>
<event>
 6    1  0.1528034E-005  0.1550400E+04  0.7818608E-02  0.8851612E-01
         -2   -1    0    0    0  501 -0.00000000000E+00  0.00000000000E+00  0.75307916112E+03  0.75307916112E+03  0.00000000000E+00 0.  1.
          2   -1    0    0  501    0  0.00000000000E+00 -0.00000000000E+00 -0.79797035346E+03  0.79797035346E+03  0.00000000000E+00 0. -1.
         23    2    1    2    0    0  0.18010192412E+03 -0.36123529805E+03  0.63639704202E+03  0.75916486269E+03  0.91664878824E+02 0.  0.
         11    1    3    3    0    0  0.65773263142E+02 -0.52026537540E+02  0.11616146222E+03  0.14327026230E+03  0.00000000000E+00 0.  1.
        -11    1    3    3    0    0  0.11432866098E+03 -0.30920876051E+03  0.52023557980E+03  0.61589460039E+03  0.00000000000E+00 0. -1.
         22    1    1    2    0    0 -0.18010192412E+03  0.36123529805E+03 -0.68128823436E+03  0.79188465189E+03  0.00000000000E+00 0. -1.
<mgrwt>
<rscale>  0 0.15503997E+04</rscale>
<asrwt>0</asrwt>
<pdfrwt beam="1">  1        2 0.12276467E+00 0.15503997E+04</pdfrwt>
<pdfrwt beam="2">  1       -2 0.11585833E+00 0.15503997E+04</pdfrwt>
<totfact> 0.19263193E+01</totfact>
</mgrwt>
</event>
<event>
 6    1  0.1528034E-005  0.1202173E+04  0.7818608E-02  0.9110956E-01
          2   -1    0    0  501    0  0.00000000000E+00  0.00000000000E+00  0.13914852771E+04  0.13914852771E+04  0.00000000000E+00 0. -1.
         -2   -1    0    0    0  501 -0.00000000000E+00 -0.00000000000E+00 -0.25965440046E+03  0.25965440046E+03  0.00000000000E+00 0.  1.
         23    2    1    2    0    0 -0.29307586417E+03 -0.15592206964E+03  0.12517759318E+04  0.12981637999E+04  0.89895015723E+02 0.  0.
         13    1    3    3    0    0 -0.89751567052E+02 -0.90644834117E+02  0.55101821494E+03  0.56559075570E+03  0.00000000000E+00 0. -1.
        -13    1    3    3    0    0 -0.20332429711E+03 -0.65277235526E+02  0.70075771689E+03  0.73257304418E+03  0.00000000000E+00 0.  1.
         22    1    1    2    0    0  0.29307586417E+03  0.15592206964E+03 -0.11994505518E+03  0.35297587768E+03  0.00000000000E+00 0.  1.
<mgrwt>
<rscale>  0 0.12021735E+04</rscale>
<asrwt>0</asrwt>
<pdfrwt beam="1">  1        2 0.21407465E+00 0.12021735E+04</pdfrwt>
<pdfrwt beam="2">  1       -2 0.39946832E-01 0.12021735E+04</pdfrwt>
<totfact> 0.85562724E+01</totfact>
</mgrwt>
</event>
<event>
 6    1  0.1528034E-005  0.2749681E+04  0.7818608E-02  0.8319063E-01
          2   -1    0    0  501    0  0.00000000000E+00  0.00000000000E+00  0.19601146460E+04  0.19601146460E+04  0.00000000000E+00 0.  1.
         -2   -1    0    0    0  501 -0.00000000000E+00 -0.00000000000E+00 -0.96432419203E+03  0.96432419203E+03  0.00000000000E+00 0. -1.
         23    2    1    2    0    0 -0.79614861817E+03 -0.11076628352E+04  0.32954692361E+03  0.14063314570E+04  0.91637401698E+02 0.  0.
         11    1    3    3    0    0 -0.44710651976E+03 -0.62202626367E+03  0.23174746130E+03  0.80032980610E+03  0.00000000000E+00 0.  1.
        -11    1    3    3    0    0 -0.34904209841E+03 -0.48563657149E+03  0.97799462304E+02  0.60600165087E+03  0.00000000000E+00 0. -1.
         22    1    1    2    0    0  0.79614861817E+03  0.11076628352E+04  0.66624353033E+03  0.15181073810E+04  0.00000000000E+00 0.  1.
<mgrwt>
<rscale>  0 0.27496807E+04</rscale>
<asrwt>0</asrwt>
<pdfrwt beam="1">  1        2 0.30155610E+00 0.27496807E+04</pdfrwt>
<pdfrwt beam="2">  1       -2 0.14835757E+00 0.27496807E+04</pdfrwt>
<totfact> 0.18953930E+00</totfact>
</mgrwt>
</event>
<event>
 6    1  0.1528034E-005  0.1925035E+04  0.7818608E-02  0.8642494E-01
          2   -1    0    0  501    0  0.00000000000E+00  0.00000000000E+00  0.13059863747E+04  0.13059863747E+04  0.00000000000E+00 0. -1.
         -2   -1    0    0    0  501 -0.00000000000E+00 -0.00000000000E+00 -0.70937975744E+03  0.70937975744E+03  0.00000000000E+00 0.  1.
         23    2    1    2    0    0  0.25054586512E+03  0.66489928905E+03  0.97540367491E+03  0.12101633589E+04  0.90657217166E+02 0.  0.
         11    1    3    3    0    0  0.41067838424E+02  0.22923072195E+03  0.31917818057E+03  0.39510505210E+03  0.00000000000E+00 0. -1.
        -11    1    3    3    0    0  0.20947802670E+03  0.43566856709E+03  0.65622549434E+03  0.81505830677E+03  0.00000000000E+00 0.  1.
         22    1    1    2    0    0 -0.25054586512E+03 -0.66489928905E+03 -0.37879705769E+03  0.80520277323E+03  0.00000000000E+00 0.  1.
<mgrwt>
<rscale>  0 0.19250354E+04</rscale>
<asrwt>0</asrwt>
<pdfrwt beam="1">  1        2 0.20092098E+00 0.19250354E+04</pdfrwt>
<pdfrwt beam="2">  1       -2 0.10913535E+00 0.19250354E+04</pdfrwt>
<totfact> 0.10266869E+01</totfact>
</mgrwt>
</event>
<event>
 6    1  0.1528034E-005  0.1744730E+04  0.7818608E-02  0.8736256E-01
         -1   -1    0    0    0  501 -0.00000000000E+00  0.00000000000E+00  0.37635242938E+03  0.37635242938E+03  0.00000000000E+00 0.  1.
          1   -1    0    0  501    0  0.00000000000E+00 -0.00000000000E+00 -0.20220963521E+04  0.20220963521E+04  0.00000000000E+00 0. -1.
         23    2    1    2    0    0 -0.49410580006E+03 -0.67840992723E+03 -0.51027951169E+03  0.98647852694E+03  0.91510289229E+02 0.  0.
         11    1    3    3    0    0 -0.15049810944E+03 -0.24968502084E+03 -0.13611053909E+03  0.32174270688E+03  0.00000000000E+00 0.  1.
        -11    1    3    3    0    0 -0.34360769062E+03 -0.42872490639E+03 -0.37416897260E+03  0.66473582006E+03  0.00000000000E+00 0. -1.
         22    1    1    2    0    0  0.49410580006E+03  0.67840992723E+03 -0.11354644110E+04  0.14119702546E+04  0.00000000000E+00 0. -1.
<mgrwt>
<rscale>  0 0.17447302E+04</rscale>
<asrwt>0</asrwt>
<pdfrwt beam="1">  1        1 0.31109174E+00 0.17447302E+04</pdfrwt>
<pdfrwt beam="2">  1       -1 0.57900375E-01 0.17447302E+04</pdfrwt>
<totfact> 0.82490002E+00</totfact>
</mgrwt>
</event>
<event>
 6    1  0.1528034E-005  0.2119588E+04  0.7818608E-02  0.8552663E-01
          1   -1    0    0  501    0  0.00000000000E+00  0.00000000000E+00  0.10603649857E+04  0.10603649857E+04  0.00000000000E+00 0. -1.
         -1   -1    0    0    0  501 -0.00000000000E+00 -0.00000000000E+00 -0.10592237815E+04  0.10592237815E+04  0.00000000000E+00 0.  1.
         23    2    1    2    0    0 -0.82234971270E+03  0.59809743958E+03 -0.29061151810E+03  0.10617138936E+04  0.93817590095E+02 0.  0.
         11    1    3    3    0    0 -0.26544870768E+03  0.14043441829E+03 -0.81765920092E+02  0.31124027364E+03  0.00000000000E+00 0. -1.
        -11    1    3    3    0    0 -0.55690100502E+03  0.45766302130E+03 -0.20884559801E+03  0.75047361996E+03  0.00000000000E+00 0.  1.
         22    1    1    2    0    0  0.82234971270E+03 -0.59809743958E+03  0.29175272224E+03  0.10578748736E+04  0.00000000000E+00 0.  1.
<mgrwt>
<rscale>  0 0.21195885E+04</rscale>
<asrwt>0</asrwt>
<pdfrwt beam="1">  1        1 0.16313308E+00 0.21195885E+04</pdfrwt>
<pdfrwt beam="2">  1       -1 0.16295750E+00 0.21195885E+04</pdfrwt>
<totfact> 0.34634399E+00</totfact>
</mgrwt>
</event>
<event>
 6    1  0.1528034E-005  0.2435442E+04  0.7818608E-02  0.8426353E-01
          1   -1    0    0  501    0  0.00000000000E+00  0.00000000000E+00  0.20582169277E+04  0.20582169277E+04  0.00000000000E+00 0. -1.
         -1   -1    0    0    0  501 -0.00000000000E+00 -0.00000000000E+00 -0.72045106949E+03  0.72045106949E+03  0.00000000000E+00 0.  1.
         23    2    1    2    0    0  0.96654599558E+03 -0.22766095058E+03 -0.13147182506E+03  0.10053377854E+04  0.85898498523E+02 0.  0.
         11    1    3    3    0    0  0.23011312053E+02 -0.17483437152E+02 -0.12116045045E+02  0.31336713366E+02  0.00000000000E+00 0.  1.
        -11    1    3    3    0    0  0.94353468352E+03 -0.21017751343E+03 -0.11935578001E+03  0.97400107207E+03  0.00000000000E+00 0. -1.
         22    1    1    2    0    0 -0.96654599558E+03  0.22766095058E+03  0.14692376833E+04  0.17733302118E+04  0.00000000000E+00 0. -1.
<mgrwt>
<rscale>  0 0.24354421E+04</rscale>
<asrwt>0</asrwt>
<pdfrwt beam="1">  1        1 0.31664875E+00 0.24354421E+04</pdfrwt>
<pdfrwt beam="2">  1       -1 0.11083863E+00 0.24354421E+04</pdfrwt>
<totfact> 0.18215009E+00</totfact>
</mgrwt>
</event>
<event>
 6    1  0.1528034E-005  0.2849495E+04  0.7818608E-02  0.8288065E-01
          2   -1    0    0  501    0  0.00000000000E+00  0.00000000000E+00  0.19776733199E+04  0.19776733199E+04  0.00000000000E+00 0. -1.
         -2   -1    0    0    0  501 -0.00000000000E+00 -0.00000000000E+00 -0.10264110083E+04  0.10264110083E+04  0.00000000000E+00 0.  1.
         23    2    1    2    0    0  0.78982598288E+03  0.82190112066E+03 -0.42239646845E+03  0.12190675273E+04  0.91434807986E+02 0.  0.
         13    1    3    3    0    0  0.54876214038E+03  0.59507465796E+03 -0.33987520859E+03  0.87793444668E+03  0.00000000000E+00 0.  1.
        -13    1    3    3    0    0  0.24106384250E+03  0.22682646271E+03 -0.82521259862E+02  0.34113308059E+03  0.00000000000E+00 0. -1.
         22    1    1    2    0    0 -0.78982598288E+03 -0.82190112066E+03  0.13736587800E+04  0.17850168009E+04  0.00000000000E+00 0. -1.
<mgrwt>
<rscale>  0 0.28494952E+04</rscale>
<asrwt>0</asrwt>
<pdfrwt beam="1">  1        2 0.30425743E+00 0.28494952E+04</pdfrwt>
<pdfrwt beam="2">  1       -2 0.15790939E+00 0.28494952E+04</pdfrwt>
<totfact> 0.15556147E+00</totfact>
</mgrwt>
</event>
<event>
 6    1  0.1528034E-005  0.2723699E+04  0.7818608E-02  0.8327356E-01
          2   -1    0    0  501    0  0.00000000000E+00  0.00000000000E+00  0.21141832037E+04  0.21141832037E+04  0.00000000000E+00 0. -1.
         -2   -1    0    0    0  501 -0.00000000000E+00 -0.00000000000E+00 -0.87723403354E+03  0.87723403354E+03  0.00000000000E+00 0.  1.
         23    2    1    2    0    0 -0.10373865385E+03  0.39158822754E+03  0.20453697060E+04  0.20871789883E+04  0.93144225498E+02 0.  0.
         13    1    3    3    0    0 -0.16815025347E+02  0.11535595462E+03  0.80852405208E+03  0.81688486590E+03  0.00000000000E+00 0. -1.
        -13    1    3    3    0    0 -0.86923628507E+02  0.27623227291E+03  0.12368456539E+04  0.12702941224E+04  0.00000000000E+00 0.  1.
         22    1    1    2    0    0  0.10373865385E+03 -0.39158822754E+03 -0.80842053579E+03  0.90423824898E+03  0.00000000000E+00 0.  1.
<mgrwt>
<rscale>  0 0.27236986E+04</rscale>
<asrwt>0</asrwt>
<pdfrwt beam="1">  1        2 0.32525895E+00 0.27236986E+04</pdfrwt>
<pdfrwt beam="2">  1       -2 0.13495908E+00 0.27236986E+04</pdfrwt>
<totfact> 0.19945190E+00</totfact>
</mgrwt>
</event>
<event>
 6    1  0.1745218E-005  0.2437725E+04  0.7818608E-02  0.8425513E-01
         -1   -1    0    0    0  501 -0.00000000000E+00  0.00000000000E+00  0.94970472672E+03  0.94970472672E+03  0.00000000000E+00 0.  1.
          1   -1    0    0  501    0  0.00000000000E+00 -0.00000000000E+00 -0.15643031054E+04  0.15643031054E+04  0.00000000000E+00 0. -1.
         23    2    1    2    0    0  0.48235281864E+02 -0.43243302683E+03 -0.14801404501E+04  0.15452519070E+04  0.87537071077E+02 0.  0.
         11    1    3    3    0    0 -0.19689961290E+02 -0.16962954053E+03 -0.50849160917E+03  0.53640058929E+03  0.00000000000E+00 0.  1.
        -11    1    3    3    0    0  0.67925243154E+02 -0.26280348630E+03 -0.97164884093E+03  0.10088513177E+04  0.00000000000E+00 0. -1.
         22    1    1    2    0    0 -0.48235281864E+02  0.43243302683E+03  0.86554207144E+03  0.96875592516E+03  0.00000000000E+00 0.  1.
<mgrwt>
<rscale>  0 0.24377252E+04</rscale>
<asrwt>0</asrwt>
<pdfrwt beam="1">  1        1 0.24066201E+00 0.24377252E+04</pdfrwt>
<pdfrwt beam="2">  1       -1 0.14610842E+00 0.24377252E+04</pdfrwt>
<totfact> 0.19747797E+00</totfact>
</mgrwt>
</event>
<event>
 6    1  0.1528034E-005  0.1377686E+04  0.7818608E-02  0.8970131E-01
          1   -1    0    0  501    0  0.00000000000E+00  0.00000000000E+00  0.18924942795E+04  0.18924942795E+04  0.00000000000E+00 0. -1.
         -1   -1    0    0    0  501 -0.00000000000E+00 -0.00000000000E+00 -0.25072963432E+03  0.25072963432E+03  0.00000000000E+00 0.  1.
         23    2    1    2    0    0  0.37314509017E+03  0.55021347306E+03  0.55941626334E+03  0.87300734020E+03  0.84989035175E+02 0.  0.
         13    1    3    3    0    0  0.19996609714E+03  0.27967079737E+03  0.34325467893E+03  0.48582504002E+03  0.00000000000E+00 0. -1.
        -13    1    3    3    0    0  0.17317899302E+03  0.27054267569E+03  0.21616158442E+03  0.38718230018E+03  0.00000000000E+00 0.  1.
         22    1    1    2    0    0 -0.37314509017E+03 -0.55021347306E+03  0.10823483819E+04  0.12702165736E+04  0.00000000000E+00 0. -1.
<mgrwt>
<rscale>  0 0.13776856E+04</rscale>
<asrwt>0</asrwt>
<pdfrwt beam="1">  1        1 0.29115296E+00 0.13776856E+04</pdfrwt>
<pdfrwt beam="2">  1       -1 0.38573791E-01 0.13776856E+04</pdfrwt>
<totfact> 0.22425264E+01</totfact>
</mgrwt>
</event>
<event>
 6    1  0.1528034E-005  0.1758756E+04  0.7818608E-02  0.8728546E-01
         -2   -1    0    0    0  501 -0.00000000000E+00  0.00000000000E+00  0.12779397800E+04  0.12779397800E+04  0.00000000000E+00 0. -1.
          2   -1    0    0  501    0  0.00000000000E+00 -0.00000000000E+00 -0.60511868690E+03  0.60511868690E+03  0.00000000000E+00 0.  1.
         23    2    1    2    0    0  0.32153395155E+03  0.30002326081E+03  0.11497168637E+04  0.12343461924E+04  0.91452812321E+02 0.  0.
         13    1    3    3    0    0  0.13283383157E+03  0.15530888270E+03  0.42442674974E+03  0.47106660012E+03  0.00000000000E+00 0.  1.
        -13    1    3    3    0    0  0.18870011998E+03  0.14471437811E+03  0.72529011399E+03  0.76327959226E+03  0.00000000000E+00 0. -1.
         22    1    1    2    0    0 -0.32153395155E+03 -0.30002326081E+03 -0.47689577065E+03  0.64871227450E+03  0.00000000000E+00 0.  1.
<mgrwt>
<rscale>  0 0.17587555E+04</rscale>
<asrwt>0</asrwt>
<pdfrwt beam="1">  1        2 0.93095183E-01 0.17587555E+04</pdfrwt>
<pdfrwt beam="2">  1       -2 0.19660612E+00 0.17587555E+04</pdfrwt>
<totfact> 0.65053048E+00</totfact>
</mgrwt>
</event>
<event>
 6    1  0.1528034E-005  0.8519838E+03  0.7818608E-02  0.9487678E-01
         -4   -1    0    0    0  501 -0.00000000000E+00  0.00000000000E+00  0.44812713231E+03  0.44812713231E+03  0.00000000000E+00 0. -1.
          4   -1    0    0  501    0  0.00000000000E+00 -0.00000000000E+00 -0.40495006263E+03  0.40495006263E+03  0.00000000000E+00 0.  1.
         23    2    1    2    0    0 -0.31127779965E+03 -0.22588055921E+03 -0.15012687255E+03  0.42263287837E+03  0.90358045764E+02 0.  0.
         11    1    3    3    0    0 -0.20752207654E+03 -0.18570974005E+03 -0.75079282251E+02  0.28842749249E+03  0.00000000000E+00 0.  1.
        -11    1    3    3    0    0 -0.10375572311E+03 -0.40170819164E+02 -0.75047590296E+02  0.13420538588E+03  0.00000000000E+00 0. -1.
         22    1    1    2    0    0  0.31127779965E+03  0.22588055921E+03  0.19330394222E+03  0.43044431657E+03  0.00000000000E+00 0. -1.
<mgrwt>
<rscale>  0 0.85198383E+03</rscale>
<asrwt>0</asrwt>
<pdfrwt beam="1">  1        4 0.62300009E-01 0.85198383E+03</pdfrwt>
<pdfrwt beam="2">  1       -4 0.68942636E-01 0.85198383E+03</pdfrwt>
<totfact> 0.93094838E+00</totfact>
</mgrwt>
</event>
<event>
 6    1  0.1528034E-005  0.1559812E+04  0.7818608E-02  0.8845625E-01
         -2   -1    0    0    0  501 -0.00000000000E+00  0.00000000000E+00  0.72553896761E+03  0.72553896761E+03  0.00000000000E+00 0.  1.
          2   -1    0    0  501    0  0.00000000000E+00 -0.00000000000E+00 -0.83834708087E+03  0.83834708087E+03  0.00000000000E+00 0. -1.
         23    2    1    2    0    0 -0.17740607123E+00 -0.77202796261E+03  0.33348919958E+02  0.77814494298E+03  0.91488771450E+02 0.  0.
         13    1    3    3    0    0  0.41964275513E+02 -0.45869047914E+03  0.39578609329E+01  0.46062307881E+03  0.00000000000E+00 0.  1.
        -13    1    3    3    0    0 -0.42141681584E+02 -0.31333748347E+03  0.29391059025E+02  0.31752186417E+03  0.00000000000E+00 0. -1.
         22    1    1    2    0    0  0.17740607123E+00  0.77202796261E+03 -0.14615703322E+03  0.78574110550E+03  0.00000000000E+00 0. -1.
<mgrwt>
<rscale>  0 0.15598121E+04</rscale>
<asrwt>0</asrwt>
<pdfrwt beam="1">  1        2 0.12897647E+00 0.15598121E+04</pdfrwt>
<pdfrwt beam="2">  1       -2 0.11162138E+00 0.15598121E+04</pdfrwt>
<totfact> 0.19727291E+01</totfact>
</mgrwt>
</event>
<event>
 6    1  0.1528034E-005  0.3370940E+04  0.7818608E-02  0.8145076E-01
          1   -1    0    0  501    0  0.00000000000E+00  0.00000000000E+00  0.16985157241E+04  0.16985157241E+04  0.00000000000E+00 0. -1.
         -1   -1    0    0    0  501 -0.00000000000E+00 -0.00000000000E+00 -0.16725241240E+04  0.16725241240E+04  0.00000000000E+00 0.  1.
         23    2    1    2    0    0 -0.15576653331E+04  0.16697251696E+02 -0.62734665624E+03  0.16818237680E+04  0.91472789385E+02 0.  0.
         11    1    3    3    0    0 -0.62824335938E+03  0.51472947739E+02 -0.24952801657E+03  0.67794056820E+03  0.00000000000E+00 0.  1.
        -11    1    3    3    0    0 -0.92942197375E+03 -0.34775696042E+02 -0.37781863967E+03  0.10038831998E+04  0.00000000000E+00 0. -1.
         22    1    1    2    0    0  0.15576653331E+04 -0.16697251696E+02  0.65333825627E+03  0.16892160801E+04  0.00000000000E+00 0. -1.
<mgrwt>
<rscale>  0 0.33709396E+04</rscale>
<asrwt>0</asrwt>
<pdfrwt beam="1">  1        1 0.26131011E+00 0.33709396E+04</pdfrwt>
<pdfrwt beam="2">  1       -1 0.25731140E+00 0.33709396E+04</pdfrwt>
<totfact> 0.24610828E-01</totfact>
</mgrwt>
</event>
<event>
 6    1  0.1528034E-005  0.1862627E+04  0.7818608E-02  0.8673686E-01
          2   -1    0    0  501    0  0.00000000000E+00  0.00000000000E+00  0.97805862851E+03  0.97805862851E+03  0.00000000000E+00 0. -1.
         -2   -1    0    0    0  501 -0.00000000000E+00 -0.00000000000E+00 -0.88680271054E+03  0.88680271054E+03  0.00000000000E+00 0.  1.
         23    2    1    2    0    0 -0.24564525827E+03 -0.17977033688E+02  0.94264235376E+03  0.97856362965E+03  0.91364125989E+02 0.  0.
         11    1    3    3    0    0 -0.14341028541E+03  0.50142732857E+00  0.70124542375E+03  0.71575967036E+03  0.00000000000E+00 0.  1.
        -11    1    3    3    0    0 -0.10223497285E+03 -0.18478461017E+02  0.24139693001E+03  0.26280395928E+03  0.00000000000E+00 0. -1.
         22    1    1    2    0    0  0.24564525827E+03  0.17977033688E+02 -0.85138643579E+03  0.88629770941E+03  0.00000000000E+00 0.  1.
<mgrwt>
<rscale>  0 0.18626272E+04</rscale>
<asrwt>0</asrwt>
<pdfrwt beam="1">  1        2 0.15047056E+00 0.18626272E+04</pdfrwt>
<pdfrwt beam="2">  1       -2 0.13643119E+00 0.18626272E+04</pdfrwt>
<totfact> 0.93872109E+00</totfact>
</mgrwt>
</event>
<event>
 6    1  0.1528034E-005  0.1461222E+04  0.7818608E-02  0.8910658E-01
          2   -1    0    0  501    0  0.00000000000E+00  0.00000000000E+00  0.57727593668E+03  0.57727593668E+03  0.00000000000E+00 0. -1.
         -2   -1    0    0    0  501 -0.00000000000E+00 -0.00000000000E+00 -0.92467426567E+03  0.92467426567E+03  0.00000000000E+00 0.  1.
         23    2    1    2    0    0 -0.72624649055E+03  0.37008445491E+00 -0.12455094225E+03  0.74228247250E+03  0.89645020871E+02 0.  0.
         11    1    3    3    0    0 -0.54126704316E+02  0.73794813171E+01  0.13099797157E+02  0.56176165321E+02  0.00000000000E+00 0. -1.
        -11    1    3    3    0    0 -0.67211978623E+03 -0.70093968622E+01 -0.13765073941E+03  0.68610630718E+03  0.00000000000E+00 0.  1.
         22    1    1    2    0    0  0.72624649055E+03 -0.37008445491E+00 -0.22284738674E+03  0.75966772985E+03  0.00000000000E+00 0.  1.
<mgrwt>
<rscale>  0 0.14612217E+04</rscale>
<asrwt>0</asrwt>
<pdfrwt beam="1">  1        2 0.88811684E-01 0.14612217E+04</pdfrwt>
<pdfrwt beam="2">  1       -2 0.14225758E+00 0.14612217E+04</pdfrwt>
<totfact> 0.17333268E+01</totfact>
</mgrwt>
</event>
<event>
 6    1  0.1528034E-005  0.7489304E+03  0.7818608E-02  0.9637030E-01
         -2   -1    0    0    0  501 -0.00000000000E+00  0.00000000000E+00  0.13914693905E+03  0.13914693905E+03  0.00000000000E+00 0. -1.
          2   -1    0    0  501    0  0.00000000000E+00 -0.00000000000E+00 -0.10077418066E+04  0.10077418066E+04  0.00000000000E+00 0.  1.
         23    2    1    2    0    0 -0.20498382536E+03  0.30335587217E+03 -0.50963705953E+03  0.63415698167E+03  0.91553214675E+02 0.  0.
         13    1    3    3    0    0 -0.53253855164E+02  0.76319823026E+02 -0.69336232537E+02  0.11605258127E+03  0.00000000000E+00 0. -1.
        -13    1    3    3    0    0 -0.15172997020E+03  0.22703604914E+03 -0.44030082700E+03  0.51810440041E+03  0.00000000000E+00 0.  1.
         22    1    1    2    0    0  0.20498382536E+03 -0.30335587217E+03 -0.35895780797E+03  0.51273176393E+03  0.00000000000E+00 0.  1.
<mgrwt>
<rscale>  0 0.74893040E+03</rscale>
<asrwt>0</asrwt>
<pdfrwt beam="1">  1        2 0.15503720E+00 0.74893040E+03</pdfrwt>
<pdfrwt beam="2">  1       -2 0.21407221E-01 0.74893040E+03</pdfrwt>
<totfact> 0.47418829E+02</totfact>
</mgrwt>
</event>
<event>
 6    1  0.1528034E-005  0.4822193E+04  0.7818608E-02  0.7856537E-01
          2   -1    0    0  501    0  0.00000000000E+00  0.00000000000E+00  0.31442513916E+04  0.31442513916E+04  0.00000000000E+00 0. -1.
         -2   -1    0    0    0  501 -0.00000000000E+00 -0.00000000000E+00 -0.18488935782E+04  0.18488935782E+04  0.00000000000E+00 0.  1.
         23    2    1    2    0    0  0.17948819919E+04  0.15719963917E+04  0.29407305975E+03  0.24056084622E+04  0.87744451786E+02 0.  0.
         13    1    3    3    0    0  0.11940679084E+04  0.10247695629E+04  0.15511434996E+03  0.15811423998E+04  0.00000000000E+00 0. -1.
        -13    1    3    3    0    0  0.60081408351E+03  0.54722682874E+03  0.13895870979E+03  0.82446606241E+03  0.00000000000E+00 0.  1.
         22    1    1    2    0    0 -0.17948819919E+04 -0.15719963917E+04  0.10012847536E+04  0.25875365076E+04  0.00000000000E+00 0. -1.
<mgrwt>
<rscale>  0 0.48221929E+04</rscale>
<asrwt>0</asrwt>
<pdfrwt beam="1">  1        2 0.48373098E+00 0.48221929E+04</pdfrwt>
<pdfrwt beam="2">  1       -2 0.28444517E+00 0.48221929E+04</pdfrwt>
<totfact> 0.41139678E-02</totfact>
</mgrwt>
</event>
<event>
 6    1  0.1528034E-005  0.2633976E+04  0.7818608E-02  0.8356751E-01
          2   -1    0    0  501    0  0.00000000000E+00  0.00000000000E+00  0.81152615166E+03  0.81152615166E+03  0.00000000000E+00 0. -1.
         -2   -1    0    0    0  501 -0.00000000000E+00 -0.00000000000E+00 -0.21372781529E+04  0.21372781529E+04  0.00000000000E+00 0.  1.
         23    2    1    2    0    0  0.93126541547E+03  0.75460131586E+03 -0.56990913629E+02  0.12034008792E+04  0.90814601314E+02 0.  0.
         13    1    3    3    0    0  0.26988560198E+03  0.26065542221E+03 -0.44477634441E+02  0.37783296210E+03  0.00000000000E+00 0.  1.
        -13    1    3    3    0    0  0.66137981349E+03  0.49394589365E+03 -0.12513279188E+02  0.82556791707E+03  0.00000000000E+00 0. -1.
         22    1    1    2    0    0 -0.93126541547E+03 -0.75460131586E+03 -0.12687610876E+04  0.17454034254E+04  0.00000000000E+00 0. -1.
<mgrwt>
<rscale>  0 0.26339758E+04</rscale>
<asrwt>0</asrwt>
<pdfrwt beam="1">  1        2 0.12485018E+00 0.26339758E+04</pdfrwt>
<pdfrwt beam="2">  1       -2 0.32881202E+00 0.26339758E+04</pdfrwt>
<totfact> 0.62951075E-01</totfact>
</mgrwt>
</event>
<event>
 6    1  0.1528034E-005  0.2304501E+04  0.7818608E-02  0.8476149E-01
          2   -1    0    0  501    0  0.00000000000E+00  0.00000000000E+00  0.20110208226E+04  0.20110208226E+04  0.00000000000E+00 0. -1.
         -2   -1    0    0    0  501 -0.00000000000E+00 -0.00000000000E+00 -0.66020263417E+03  0.66020263417E+03  0.00000000000E+00 0.  1.
         23    2    1    2    0    0 -0.88236750659E+03 -0.73765666590E+03  0.63899795714E+03  0.13186711232E+04  0.88686912090E+02 0.  0.
         11    1    3    3    0    0 -0.70914483067E+03 -0.63651998027E+03  0.52624378489E+03  0.10885663036E+04  0.00000000000E+00 0.  1.
        -11    1    3    3    0    0 -0.17322267591E+03 -0.10113668564E+03  0.11275417225E+03  0.23010481958E+03  0.00000000000E+00 0. -1.
         22    1    1    2    0    0  0.88236750659E+03  0.73765666590E+03  0.71182023125E+03  0.13525523336E+04  0.00000000000E+00 0.  1.
<mgrwt>
<rscale>  0 0.23045010E+04</rscale>
<asrwt>0</asrwt>
<pdfrwt beam="1">  1        2 0.30938782E+00 0.23045010E+04</pdfrwt>
<pdfrwt beam="2">  1       -2 0.10156964E+00 0.23045010E+04</pdfrwt>
<totfact> 0.47515275E+00</totfact>
</mgrwt>
</event>
<event>
 6    1  0.1528034E-005  0.2747160E+04  0.7818608E-02  0.8319863E-01
         -1   -1    0    0    0  501 -0.00000000000E+00  0.00000000000E+00  0.84065102170E+03  0.84065102170E+03  0.00000000000E+00 0.  1.
          1   -1    0    0  501    0  0.00000000000E+00 -0.00000000000E+00 -0.22443584269E+04  0.22443584269E+04  0.00000000000E+00 0. -1.
         23    2    1    2    0    0  0.63839122851E+03  0.30708844123E+03 -0.20221990417E+04  0.21445954037E+04  0.90298448245E+02 0.  0.
         13    1    3    3    0    0  0.30608549855E+03  0.15088232531E+03 -0.83953721802E+03  0.90624309595E+03  0.00000000000E+00 0.  1.
        -13    1    3    3    0    0  0.33230572996E+03  0.15620611591E+03 -0.11826618237E+04  0.12383523077E+04  0.00000000000E+00 0. -1.
         22    1    1    2    0    0 -0.63839122851E+03 -0.30708844123E+03  0.61849163654E+03  0.94041404490E+03  0.00000000000E+00 0.  1.
<mgrwt>
<rscale>  0 0.27471601E+04</rscale>
<asrwt>0</asrwt>
<pdfrwt beam="1">  1        1 0.34528591E+00 0.27471601E+04</pdfrwt>
<pdfrwt beam="2">  1       -1 0.12933093E+00 0.27471601E+04</pdfrwt>
<totfact> 0.90757931E-01</totfact>
</mgrwt>
</event>
<event>
 6    1  0.1913425E-005  0.2246847E+04  0.7818608E-02  0.8499178E-01
          2   -1    0    0  501    0  0.00000000000E+00  0.00000000000E+00  0.12993753346E+04  0.12993753346E+04  0.00000000000E+00 0. -1.
         -2   -1    0    0    0  501 -0.00000000000E+00 -0.00000000000E+00 -0.97129819160E+03  0.97129819160E+03  0.00000000000E+00 0.  1.
         23    2    1    2    0    0 -0.59132537552E+03  0.90622091340E+03 -0.13391383626E+03  0.10940947109E+04  0.90599543700E+02 0.  0.
         13    1    3    3    0    0 -0.27463097257E+03  0.49149951453E+03 -0.93333798880E+02  0.57070582781E+03  0.00000000000E+00 0.  1.
        -13    1    3    3    0    0 -0.31669440296E+03  0.41472139887E+03 -0.40580037385E+02  0.52338888313E+03  0.00000000000E+00 0. -1.
         22    1    1    2    0    0  0.59132537552E+03 -0.90622091340E+03  0.46199097927E+03  0.11765788153E+04  0.00000000000E+00 0.  1.
<mgrwt>
<rscale>  0 0.22468475E+04</rscale>
<asrwt>0</asrwt>
<pdfrwt beam="1">  1        2 0.19990390E+00 0.22468475E+04</pdfrwt>
<pdfrwt beam="2">  1       -2 0.14943049E+00 0.22468475E+04</pdfrwt>
<totfact> 0.45602274E+00</totfact>
</mgrwt>
</event>
<event>
 6    1  0.1528034E-005  0.1034087E+04  0.7818608E-02  0.9271929E-01
          3   -1    0    0  501    0  0.00000000000E+00  0.00000000000E+00  0.79851529562E+03  0.79851529562E+03  0.00000000000E+00 0. -1.
         -3   -1    0    0    0  501 -0.00000000000E+00 -0.00000000000E+00 -0.33478900269E+03  0.33478900269E+03  0.00000000000E+00 0.  1.
         23    2    1    2    0    0  0.15062465482E+03 -0.14717462065E+03  0.74639264575E+03  0.78081540114E+03  0.90678296344E+02 0.  0.
         13    1    3    3    0    0  0.87405945707E+02 -0.35378142945E+02  0.22756253494E+03  0.24632523146E+03  0.00000000000E+00 0. -1.
        -13    1    3    3    0    0  0.63218709115E+02 -0.11179647770E+03  0.51883011081E+03  0.53449016969E+03  0.00000000000E+00 0.  1.
         22    1    1    2    0    0 -0.15062465482E+03  0.14717462065E+03 -0.28266635282E+03  0.35248889716E+03  0.00000000000E+00 0.  1.
<mgrwt>
<rscale>  0 0.10340873E+04</rscale>
<asrwt>0</asrwt>
<pdfrwt beam="1">  1        3 0.12284851E+00 0.10340873E+04</pdfrwt>
<pdfrwt beam="2">  1       -3 0.51506001E-01 0.10340873E+04</pdfrwt>
<totfact> 0.52159002E+00</totfact>
</mgrwt>
</event>
<event>
 6    1  0.1528034E-005  0.4535832E+04  0.7818608E-02  0.7904393E-01
          2   -1    0    0  501    0  0.00000000000E+00  0.00000000000E+00  0.28356379133E+04  0.28356379133E+04  0.00000000000E+00 0. -1.
         -2   -1    0    0    0  501 -0.00000000000E+00 -0.00000000000E+00 -0.18138577071E+04  0.18138577071E+04  0.00000000000E+00 0.  1.
         23    2    1    2    0    0  0.29218888471E+03 -0.21981605724E+04  0.99403317635E+03  0.24318269923E+04  0.91631428900E+02 0.  0.
         13    1    3    3    0    0  0.17749922445E+03 -0.10468079854E+04  0.50361119080E+03  0.11751328284E+04  0.00000000000E+00 0. -1.
        -13    1    3    3    0    0  0.11468966026E+03 -0.11513525870E+04  0.49042198555E+03  0.12566941639E+04  0.00000000000E+00 0.  1.
         22    1    1    2    0    0 -0.29218888471E+03  0.21981605724E+04  0.27747029928E+02  0.22176686281E+04  0.00000000000E+00 0. -1.
<mgrwt>
<rscale>  0 0.45358323E+04</rscale>
<asrwt>0</asrwt>
<pdfrwt beam="1">  1        2 0.43625199E+00 0.45358323E+04</pdfrwt>
<pdfrwt beam="2">  1       -2 0.27905503E+00 0.45358323E+04</pdfrwt>
<totfact> 0.70913127E-02</totfact>
</mgrwt>
</event>
<event>
 6    1  0.1528034E-005  0.1158988E+04  0.7818608E-02  0.9149532E-01
         -1   -1    0    0    0  501 -0.00000000000E+00  0.00000000000E+00  0.29794754865E+03  0.29794754865E+03  0.00000000000E+00 0.  1.
          1   -1    0    0  501    0  0.00000000000E+00 -0.00000000000E+00 -0.11270879460E+04  0.11270879460E+04  0.00000000000E+00 0. -1.
         23    2    1    2    0    0  0.27449693921E+03  0.15218169207E+03 -0.10108589823E+04  0.10623655605E+04  0.90977277471E+02 0.  0.
         11    1    3    3    0    0  0.40363607731E+02 -0.59767582648E+01 -0.18709138432E+03  0.19148923875E+03  0.00000000000E+00 0.  1.
        -11    1    3    3    0    0  0.23413333148E+03  0.15815845034E+03 -0.82376759795E+03  0.87087632173E+03  0.00000000000E+00 0. -1.
         22    1    1    2    0    0 -0.27449693921E+03 -0.15218169207E+03  0.18171858494E+03  0.36266993417E+03  0.00000000000E+00 0.  1.
<mgrwt>
<rscale>  0 0.11589876E+04</rscale>
<asrwt>0</asrwt>
<pdfrwt beam="1">  1        1 0.17339815E+00 0.11589876E+04</pdfrwt>
<pdfrwt beam="2">  1       -1 0.45838084E-01 0.11589876E+04</pdfrwt>
<totfact> 0.56787375E+01</totfact>
</mgrwt>
</event>
<event>
 6    1  0.1528034E-005  0.5125392E+04  0.7818608E-02  0.7809450E-01
          2   -1    0    0  501    0  0.00000000000E+00  0.00000000000E+00  0.48069552969E+04  0.48069552969E+04  0.00000000000E+00 0. -1.
         -2   -1    0    0    0  501 -0.00000000000E+00 -0.00000000000E+00 -0.13662306946E+04  0.13662306946E+04  0.00000000000E+00 0.  1.
         23    2    1    2    0    0  0.16759047711E+04 -0.73562932536E+03  0.38799552972E+04  0.42909716282E+04  0.92612632488E+02 0.  0.
         13    1    3    3    0    0  0.12105833680E+04 -0.56816677030E+03  0.28869100594E+04  0.31815994816E+04  0.00000000000E+00 0. -1.
        -13    1    3    3    0    0  0.46532140308E+03 -0.16746255507E+03  0.99304523775E+03  0.11093721466E+04  0.00000000000E+00 0.  1.
         22    1    1    2    0    0 -0.16759047711E+04  0.73562932536E+03 -0.43923069483E+03  0.18822143633E+04  0.00000000000E+00 0.  1.
<mgrwt>
<rscale>  0 0.51253916E+04</rscale>
<asrwt>0</asrwt>
<pdfrwt beam="1">  1        2 0.73953157E+00 0.51253916E+04</pdfrwt>
<pdfrwt beam="2">  1       -2 0.21018934E+00 0.51253916E+04</pdfrwt>
<totfact> 0.47422256E-03</totfact>
</mgrwt>
</event>
<event>
 6    1  0.1528034E-005  0.9464542E+03  0.7818608E-02  0.9369305E-01
          1   -1    0    0  501    0  0.00000000000E+00  0.00000000000E+00  0.13531889726E+04  0.13531889726E+04  0.00000000000E+00 0. -1.
         -1   -1    0    0    0  501 -0.00000000000E+00 -0.00000000000E+00 -0.16549342183E+03  0.16549342183E+03  0.00000000000E+00 0.  1.
         23    2    1    2    0    0 -0.70434396433E+01 -0.35822842617E+03  0.11414239466E+03  0.38691669679E+03  0.91097906904E+02 0.  0.
         11    1    3    3    0    0 -0.24092049075E+02 -0.71786701879E+02 -0.57258122390E+01  0.75937752937E+02  0.00000000000E+00 0. -1.
        -11    1    3    3    0    0  0.17048609432E+02 -0.28644172429E+03  0.11986820690E+03  0.31097894385E+03  0.00000000000E+00 0.  1.
         22    1    1    2    0    0  0.70434396433E+01  0.35822842617E+03  0.10735531561E+04  0.11317656976E+04  0.00000000000E+00 0. -1.
<mgrwt>
<rscale>  0 0.94645417E+03</rscale>
<asrwt>0</asrwt>
<pdfrwt beam="1">  1        1 0.20818291E+00 0.94645417E+03</pdfrwt>
<pdfrwt beam="2">  1       -1 0.25460527E-01 0.94645417E+03</pdfrwt>
<totfact> 0.11308947E+02</totfact>
</mgrwt>
</event>
<event>
 6    1  0.1528034E-005  0.2309683E+04  0.7818608E-02  0.8474113E-01
          2   -1    0    0  501    0  0.00000000000E+00  0.00000000000E+00  0.10010630973E+04  0.10010630973E+04  0.00000000000E+00 0. -1.
         -2   -1    0    0    0  501 -0.00000000000E+00 -0.00000000000E+00 -0.13322421901E+04  0.13322421901E+04  0.00000000000E+00 0.  1.
         23    2    1    2    0    0  0.37714497513E+03  0.10541233654E+04  0.11267733958E+03  0.11289702284E+04  0.91995609334E+02 0.  0.
         13    1    3    3    0    0  0.14666695266E+03  0.30199129519E+03  0.55082772529E+02  0.34021177111E+03  0.00000000000E+00 0.  1.
        -13    1    3    3    0    0  0.23047802247E+03  0.75213207017E+03  0.57594567047E+02  0.78875845731E+03  0.00000000000E+00 0. -1.
         22    1    1    2    0    0 -0.37714497513E+03 -0.10541233654E+04 -0.44385643242E+03  0.12043350590E+04  0.00000000000E+00 0.  1.
<mgrwt>
<rscale>  0 0.23096827E+04</rscale>
<asrwt>0</asrwt>
<pdfrwt beam="1">  1        2 0.15400971E+00 0.23096827E+04</pdfrwt>
<pdfrwt beam="2">  1       -2 0.20496034E+00 0.23096827E+04</pdfrwt>
<totfact> 0.28114544E+00</totfact>
</mgrwt>
</event>
<event>
 6    1  0.1528034E-005  0.3899342E+04  0.7818608E-02  0.8025166E-01
         -1   -1    0    0    0  501 -0.00000000000E+00  0.00000000000E+00  0.16402969272E+04  0.16402969272E+04  0.00000000000E+00 0.  1.
          1   -1    0    0  501    0  0.00000000000E+00 -0.00000000000E+00 -0.23173953727E+04  0.23173953727E+04  0.00000000000E+00 0. -1.
         23    2    1    2    0    0  0.19259093604E+04  0.17736907255E+03 -0.58005872975E+03  0.20211997595E+04  0.90518977217E+02 0.  0.
         13    1    3    3    0    0  0.45060451382E+03  0.76558492990E+02 -0.12024200678E+03  0.47261376506E+03  0.00000000000E+00 0. -1.
        -13    1    3    3    0    0  0.14753048466E+04  0.10081057956E+03 -0.45981672297E+03  0.15485859944E+04  0.00000000000E+00 0.  1.
         22    1    1    2    0    0 -0.19259093604E+04 -0.17736907255E+03 -0.97039715762E+02  0.19364925404E+04  0.00000000000E+00 0.  1.
<mgrwt>
<rscale>  0 0.38993417E+04</rscale>
<asrwt>0</asrwt>
<pdfrwt beam="1">  1        1 0.35652237E+00 0.38993417E+04</pdfrwt>
<pdfrwt beam="2">  1       -1 0.25235337E+00 0.38993417E+04</pdfrwt>
<totfact> 0.96161129E-02</totfact>
</mgrwt>
</event>
<event>
 6    1  0.1528034E-005  0.7959729E+04  0.7818608E-02  0.7485819E-01
         -2   -1    0    0    0  501 -0.00000000000E+00  0.00000000000E+00  0.47969167171E+04  0.47969167171E+04  0.00000000000E+00 0. -1.
          2   -1    0    0  501    0  0.00000000000E+00 -0.00000000000E+00 -0.33019796316E+04  0.33019796316E+04  0.00000000000E+00 0.  1.
         23    2    1    2    0    0 -0.73000123494E+03 -0.22553192700E+04 -0.25045662036E+04  0.34496605651E+04  0.89102940889E+02 0.  0.
         13    1    3    3    0    0 -0.23772816512E+03 -0.63306179420E+03 -0.67757946649E+03  0.95728566748E+03  0.00000000000E+00 0.  1.
        -13    1    3    3    0    0 -0.49227306982E+03 -0.16222574758E+04 -0.18269867371E+04  0.24923748977E+04  0.00000000000E+00 0. -1.
         22    1    1    2    0    0  0.73000123494E+03  0.22553192700E+04  0.39995032891E+04  0.46492357836E+04  0.00000000000E+00 0. -1.
<mgrwt>
<rscale>  0 0.79597290E+04</rscale>
<asrwt>0</asrwt>
<pdfrwt beam="1">  1        2 0.50799687E+00 0.79597290E+04</pdfrwt>
<pdfrwt beam="2">  1       -2 0.73798719E+00 0.79597290E+04</pdfrwt>
<totfact> 0.10692013E-04</totfact>
</mgrwt>
</event>
<event>
 6    1  0.1528034E-005  0.1445360E+04  0.7818608E-02  0.8921623E-01
         -1   -1    0    0    0  501 -0.00000000000E+00  0.00000000000E+00  0.24068155201E+03  0.24068155201E+03  0.00000000000E+00 0.  1.
          1   -1    0    0  501    0  0.00000000000E+00 -0.00000000000E+00 -0.21699489933E+04  0.21699489933E+04  0.00000000000E+00 0. -1.
         23    2    1    2    0    0 -0.29135998037E+03  0.14222723723E+03 -0.20402801671E+04  0.20679308948E+04  0.92064110012E+02 0.  0.
         13    1    3    3    0    0 -0.15045436544E+03  0.22845900727E+02 -0.95551873443E+03  0.96756111078E+03  0.00000000000E+00 0. -1.
        -13    1    3    3    0    0 -0.14090561493E+03  0.11938133650E+03 -0.10847614326E+04  0.11003697840E+04  0.00000000000E+00 0.  1.
         22    1    1    2    0    0  0.29135998037E+03 -0.14222723723E+03  0.11101272579E+03  0.34269965051E+03  0.00000000000E+00 0.  1.
<mgrwt>
<rscale>  0 0.14453604E+04</rscale>
<asrwt>0</asrwt>
<pdfrwt beam="1">  1        1 0.33383830E+00 0.14453604E+04</pdfrwt>
<pdfrwt beam="2">  1       -1 0.37027931E-01 0.14453604E+04</pdfrwt>
<totfact> 0.15577574E+01</totfact>
</mgrwt>
</event>
<event>
 6    1  0.1528034E-005  0.3041529E+04  0.7818608E-02  0.8231971E-01
         -2   -1    0    0    0  501 -0.00000000000E+00  0.00000000000E+00  0.64141533730E+03  0.64141533730E+03  0.00000000000E+00 0.  1.
          2   -1    0    0  501    0  0.00000000000E+00 -0.00000000000E+00 -0.36056574800E+04  0.36056574800E+04  0.00000000000E+00 0. -1.
         23    2    1    2    0    0 -0.24718207851E+03 -0.10586050429E+04 -0.29656775334E+04  0.31599915521E+04  0.92518973969E+02 0.  0.
         11    1    3    3    0    0 -0.12634289074E+03 -0.46920429260E+03 -0.14505554407E+04  0.15297798145E+04  0.00000000000E+00 0.  1.
        -11    1    3    3    0    0 -0.12083918777E+03 -0.58940075028E+03 -0.15151220927E+04  0.16302117376E+04  0.00000000000E+00 0. -1.
         22    1    1    2    0    0  0.24718207851E+03  0.10586050429E+04  0.14353907168E+01  0.10870812652E+04  0.00000000000E+00 0.  1.
<mgrwt>
<rscale>  0 0.30415286E+04</rscale>
<asrwt>0</asrwt>
<pdfrwt beam="1">  1        2 0.55471653E+00 0.30415286E+04</pdfrwt>
<pdfrwt beam="2">  1       -2 0.98679283E-01 0.30415286E+04</pdfrwt>
<totfact> 0.49690185E-01</totfact>
</mgrwt>
</event>
<event>
 6    1  0.1528034E-005  0.2705845E+04  0.7818608E-02  0.8333111E-01
         -2   -1    0    0    0  501 -0.00000000000E+00  0.00000000000E+00  0.68656084198E+03  0.68656084198E+03  0.00000000000E+00 0.  1.
          2   -1    0    0  501    0  0.00000000000E+00 -0.00000000000E+00 -0.26660408467E+04  0.26660408467E+04  0.00000000000E+00 0. -1.
         23    2    1    2    0    0 -0.25063575355E+03  0.11018935856E+04 -0.73039956160E+02  0.11364109447E+04  0.95431887230E+02 0.  0.
         11    1    3    3    0    0 -0.21407908869E+03  0.79407848328E+03 -0.80359572027E+02  0.82634626800E+03  0.00000000000E+00 0.  1.
        -11    1    3    3    0    0 -0.36556664860E+02  0.30781510231E+03  0.73196158667E+01  0.31006467670E+03  0.00000000000E+00 0. -1.
         22    1    1    2    0    0  0.25063575355E+03 -0.11018935856E+04 -0.19064400486E+04  0.22161907440E+04  0.00000000000E+00 0. -1.
<mgrwt>
<rscale>  0 0.27058450E+04</rscale>
<asrwt>0</asrwt>
<pdfrwt beam="1">  1        2 0.41016013E+00 0.27058450E+04</pdfrwt>
<pdfrwt beam="2">  1       -2 0.10562474E+00 0.27058450E+04</pdfrwt>
<totfact> 0.17672354E+00</totfact>
</mgrwt>
</event>
<event>
 6    1  0.1528034E-005  0.4893866E+03  0.7818608E-02  0.1016587E+00
          1   -1    0    0  501    0  0.00000000000E+00  0.00000000000E+00  0.26398734680E+03  0.26398734680E+03  0.00000000000E+00 0. -1.
         -1   -1    0    0    0  501 -0.00000000000E+00 -0.00000000000E+00 -0.22680943784E+03  0.22680943784E+03  0.00000000000E+00 0.  1.
         23    2    1    2    0    0  0.13565519294E+03  0.87529904707E+02 -0.15402015865E+03  0.24055586743E+03  0.89894941428E+02 0.  0.
         13    1    3    3    0    0  0.35703673832E+02  0.45256859101E+02 -0.10851998716E+03  0.12288011733E+03  0.00000000000E+00 0. -1.
        -13    1    3    3    0    0  0.99951519105E+02  0.42273045605E+02 -0.45500171490E+02  0.11767575010E+03  0.00000000000E+00 0.  1.
         22    1    1    2    0    0 -0.13565519294E+03 -0.87529904707E+02  0.19119806761E+03  0.25024091721E+03  0.00000000000E+00 0. -1.
<mgrwt>
<rscale>  0 0.48938664E+03</rscale>
<asrwt>0</asrwt>
<pdfrwt beam="1">  1        1 0.40613438E-01 0.48938664E+03</pdfrwt>
<pdfrwt beam="2">  1       -1 0.34893760E-01 0.48938664E+03</pdfrwt>
<totfact> 0.81239834E+02</totfact>
</mgrwt>
</event>
<event>
 6    1  0.1528034E-005  0.4800842E+03  0.7818608E-02  0.1019112E+00
          1   -1    0    0  501    0  0.00000000000E+00  0.00000000000E+00  0.30842623076E+03  0.30842623076E+03  0.00000000000E+00 0. -1.
         -1   -1    0    0    0  501 -0.00000000000E+00 -0.00000000000E+00 -0.18682003109E+03  0.18682003109E+03  0.00000000000E+00 0.  1.
         23    2    1    2    0    0 -0.19587073334E+03  0.26136430228E+01 -0.63474326250E+02  0.22575233542E+03  0.92536217485E+02 0.  0.
         11    1    3    3    0    0 -0.11974149822E+03  0.35916713532E+02 -0.68522713055E+01  0.12519980163E+03  0.00000000000E+00 0. -1.
        -11    1    3    3    0    0 -0.76129235125E+02 -0.33303070509E+02 -0.56622054945E+02  0.10055253379E+03  0.00000000000E+00 0.  1.
         22    1    1    2    0    0  0.19587073334E+03 -0.26136430228E+01  0.18508052592E+03  0.26949392643E+03  0.00000000000E+00 0. -1.
<mgrwt>
<rscale>  0 0.48008415E+03</rscale>
<asrwt>0</asrwt>
<pdfrwt beam="1">  1        1 0.47450189E-01 0.48008415E+03</pdfrwt>
<pdfrwt beam="2">  1       -1 0.28741543E-01 0.48008415E+03</pdfrwt>
<totfact> 0.93295222E+02</totfact>
</mgrwt>
</event>
<event>
 6    1  0.1528034E-005  0.3941917E+04  0.7818608E-02  0.8016367E-01
          2   -1    0    0  501    0  0.00000000000E+00  0.00000000000E+00  0.24619540566E+04  0.24619540566E+04  0.00000000000E+00 0. -1.
         -2   -1    0    0    0  501 -0.00000000000E+00 -0.00000000000E+00 -0.15778840128E+04  0.15778840128E+04  0.00000000000E+00 0.  1.
         23    2    1    2    0    0  0.14354248307E+04  0.36766136017E+02 -0.93983014047E+03  0.17185435867E+04  0.91187569543E+02 0.  0.
         11    1    3    3    0    0  0.35979200244E+03 -0.30287022624E+02 -0.23437059389E+03  0.43046157092E+03  0.00000000000E+00 0. -1.
        -11    1    3    3    0    0  0.10756328283E+04  0.67053158641E+02 -0.70545954659E+03  0.12880820157E+04  0.00000000000E+00 0.  1.
         22    1    1    2    0    0 -0.14354248307E+04 -0.36766136017E+02  0.18239001843E+04  0.23212944828E+04  0.00000000000E+00 0. -1.
<mgrwt>
<rscale>  0 0.39419173E+04</rscale>
<asrwt>0</asrwt>
<pdfrwt beam="1">  1        2 0.37876216E+00 0.39419173E+04</pdfrwt>
<pdfrwt beam="2">  1       -2 0.24275139E+00 0.39419173E+04</pdfrwt>
<totfact> 0.20674788E-01</totfact>
</mgrwt>
</event>
<event>
 6    1  0.1528034E-005  0.2669737E+04  0.7818608E-02  0.8344891E-01
         -1   -1    0    0    0  501 -0.00000000000E+00  0.00000000000E+00  0.10067738626E+04  0.10067738626E+04  0.00000000000E+00 0.  1.
          1   -1    0    0  501    0  0.00000000000E+00 -0.00000000000E+00 -0.17698854551E+04  0.17698854551E+04  0.00000000000E+00 0. -1.
         23    2    1    2    0    0  0.39138744040E+03  0.71434443311E+03 -0.14799140604E+04  0.16916349514E+04  0.89504665563E+02 0.  0.
         13    1    3    3    0    0  0.31696412628E+03  0.59401558438E+03 -0.11488773569E+04  0.13316305617E+04  0.00000000000E+00 0. -1.
        -13    1    3    3    0    0  0.74423314119E+02  0.12032884873E+03 -0.33103670351E+03  0.36000438969E+03  0.00000000000E+00 0.  1.
         22    1    1    2    0    0 -0.39138744040E+03 -0.71434443311E+03  0.71680246789E+03  0.10850243664E+04  0.00000000000E+00 0.  1.
<mgrwt>
<rscale>  0 0.26697374E+04</rscale>
<asrwt>0</asrwt>
<pdfrwt beam="1">  1        1 0.27229007E+00 0.26697374E+04</pdfrwt>
<pdfrwt beam="2">  1       -1 0.15488829E+00 0.26697374E+04</pdfrwt>
<totfact> 0.11955000E+00</totfact>
</mgrwt>
</event>
<event>
 6    1  0.1528034E-005  0.4364651E+04  0.7818608E-02  0.7934770E-01
          2   -1    0    0  501    0  0.00000000000E+00  0.00000000000E+00  0.31252409072E+04  0.31252409072E+04  0.00000000000E+00 0. -1.
         -2   -1    0    0    0  501 -0.00000000000E+00 -0.00000000000E+00 -0.15238968756E+04  0.15238968756E+04  0.00000000000E+00 0.  1.
         23    2    1    2    0    0  0.20512186738E+04 -0.24040906683E+03  0.53060426911E+02  0.20679603987E+04  0.91379618114E+02 0.  0.
         13    1    3    3    0    0  0.11756322452E+04 -0.16477056535E+03  0.66867524316E+02  0.11890045336E+04  0.00000000000E+00 0. -1.
        -13    1    3    3    0    0  0.87558642859E+03 -0.75638501483E+02 -0.13807097405E+02  0.87895586509E+03  0.00000000000E+00 0.  1.
         22    1    1    2    0    0 -0.20512186738E+04  0.24040906683E+03  0.15482836047E+04  0.25811773840E+04  0.00000000000E+00 0. -1.
<mgrwt>
<rscale>  0 0.43646511E+04</rscale>
<asrwt>0</asrwt>
<pdfrwt beam="1">  1        2 0.48080629E+00 0.43646511E+04</pdfrwt>
<pdfrwt beam="2">  1       -2 0.23444567E+00 0.43646511E+04</pdfrwt>
<totfact> 0.88998908E-02</totfact>
</mgrwt>
</event>
<event>
 6    1  0.1528034E-005  0.2511130E+04  0.7818608E-02  0.8399031E-01
         -2   -1    0    0    0  501 -0.00000000000E+00  0.00000000000E+00  0.89488022716E+03  0.89488022716E+03  0.00000000000E+00 0.  1.
          2   -1    0    0  501    0  0.00000000000E+00 -0.00000000000E+00 -0.17616255119E+04  0.17616255119E+04  0.00000000000E+00 0. -1.
         23    2    1    2    0    0 -0.54911266451E+03 -0.52463702659E+03  0.62156089491E+03  0.98563051560E+03  0.91437624664E+02 0.  0.
         11    1    3    3    0    0 -0.20665414958E+03 -0.18131061380E+03  0.28064008625E+03  0.39285917862E+03  0.00000000000E+00 0. -1.
        -11    1    3    3    0    0 -0.34245851493E+03 -0.34332641278E+03  0.34092080866E+03  0.59277133697E+03  0.00000000000E+00 0.  1.
         22    1    1    2    0    0  0.54911266451E+03  0.52463702659E+03 -0.14883061796E+04  0.16708752234E+04  0.00000000000E+00 0. -1.
<mgrwt>
<rscale>  0 0.25111303E+04</rscale>
<asrwt>0</asrwt>
<pdfrwt beam="1">  1        2 0.27101931E+00 0.25111303E+04</pdfrwt>
<pdfrwt beam="2">  1       -2 0.13767388E+00 0.25111303E+04</pdfrwt>
<totfact> 0.30296920E+00</totfact>
</mgrwt>
</event>
<event>
 6    1  0.1528034E-005  0.2253160E+04  0.7818608E-02  0.8496622E-01
          2   -1    0    0  501    0  0.00000000000E+00  0.00000000000E+00  0.20197903968E+04  0.20197903968E+04  0.00000000000E+00 0. -1.
         -2   -1    0    0    0  501 -0.00000000000E+00 -0.00000000000E+00 -0.62837354481E+03  0.62837354481E+03  0.00000000000E+00 0.  1.
         23    2    1    2    0    0 -0.66100230080E+02  0.61817624101E+03 -0.40537309845E+03  0.74685775075E+03  0.83414899926E+02 0.  0.
         11    1    3    3    0    0 -0.55293681346E+02  0.27182894959E+03 -0.21883437065E+03  0.35332258746E+03  0.00000000000E+00 0. -1.
        -11    1    3    3    0    0 -0.10806548734E+02  0.34634729142E+03 -0.18653872780E+03  0.39353516329E+03  0.00000000000E+00 0.  1.
         22    1    1    2    0    0  0.66100230080E+02 -0.61817624101E+03  0.17967899504E+04  0.19013061908E+04  0.00000000000E+00 0. -1.
<mgrwt>
<rscale>  0 0.22531603E+04</rscale>
<asrwt>0</asrwt>
<pdfrwt beam="1">  1        2 0.31073698E+00 0.22531603E+04</pdfrwt>
<pdfrwt beam="2">  1       -2 0.96672854E-01 0.22531603E+04</pdfrwt>
<totfact> 0.53030909E+00</totfact>
</mgrwt>
</event>
<event>
 6    1  0.1528034E-005  0.1993108E+04  0.7818608E-02  0.8609850E-01
         -2   -1    0    0    0  501 -0.00000000000E+00  0.00000000000E+00  0.35233848922E+03  0.35233848922E+03  0.00000000000E+00 0.  1.
          2   -1    0    0  501    0  0.00000000000E+00 -0.00000000000E+00 -0.28186515082E+04  0.28186515082E+04  0.00000000000E+00 0. -1.
         23    2    1    2    0    0 -0.67682740961E+03 -0.22031864148E+03 -0.23406798297E+04  0.24482041755E+04  0.91027322232E+02 0.  0.
         11    1    3    3    0    0 -0.64255399049E+03 -0.21617075983E+03 -0.21476522806E+04  0.22521136176E+04  0.00000000000E+00 0.  1.
        -11    1    3    3    0    0 -0.34273419129E+02 -0.41478816539E+01 -0.19302754912E+03  0.19609055791E+03  0.00000000000E+00 0. -1.
         22    1    1    2    0    0  0.67682740961E+03  0.22031864148E+03 -0.12563318929E+03  0.72278582197E+03  0.00000000000E+00 0.  1.
<mgrwt>
<rscale>  0 0.19931075E+04</rscale>
<asrwt>0</asrwt>
<pdfrwt beam="1">  1        2 0.43363869E+00 0.19931075E+04</pdfrwt>
<pdfrwt beam="2">  1       -2 0.54205922E-01 0.19931075E+04</pdfrwt>
<totfact> 0.67217952E+00</totfact>
</mgrwt>
</event>
<event>
 6    1  0.1528034E-005  0.1682646E+04  0.7818608E-02  0.8771324E-01
          1   -1    0    0  501    0  0.00000000000E+00  0.00000000000E+00  0.65695861223E+03  0.65695861223E+03  0.00000000000E+00 0. -1.
         -1   -1    0    0    0  501 -0.00000000000E+00 -0.00000000000E+00 -0.10774263409E+04  0.10774263409E+04  0.00000000000E+00 0.  1.
         23    2    1    2    0    0 -0.77846799458E+03  0.19365458888E+03  0.41497177941E+02  0.80868192660E+03  0.93434063618E+02 0.  0.
         11    1    3    3    0    0 -0.15387759842E+03  0.67866652226E+02 -0.16126830865E+02  0.16895050297E+03  0.00000000000E+00 0. -1.
        -11    1    3    3    0    0 -0.62459039616E+03  0.12578793666E+03  0.57624008806E+02  0.63973142363E+03  0.00000000000E+00 0.  1.
         22    1    1    2    0    0  0.77846799458E+03 -0.19365458888E+03 -0.46196490661E+03  0.92570302653E+03  0.00000000000E+00 0.  1.
<mgrwt>
<rscale>  0 0.16826461E+04</rscale>
<asrwt>0</asrwt>
<pdfrwt beam="1">  1        1 0.10107056E+00 0.16826461E+04</pdfrwt>
<pdfrwt beam="2">  1       -1 0.16575790E+00 0.16826461E+04</pdfrwt>
<totfact> 0.75567017E+00</totfact>
</mgrwt>
</event>
<event>
 6    1  0.1528034E-005  0.2683315E+04  0.7818608E-02  0.8340439E-01
          1   -1    0    0  501    0  0.00000000000E+00  0.00000000000E+00  0.16052953988E+04  0.16052953988E+04  0.00000000000E+00 0. -1.
         -1   -1    0    0    0  501 -0.00000000000E+00 -0.00000000000E+00 -0.11213167587E+04  0.11213167587E+04  0.00000000000E+00 0.  1.
         23    2    1    2    0    0 -0.20732386262E+03 -0.12233133914E+04 -0.27230080168E+03  0.12735335527E+04  0.90890844489E+02 0.  0.
         11    1    3    3    0    0 -0.16545131551E+03 -0.10522773224E+04 -0.26304734562E+03  0.10972035395E+04  0.00000000000E+00 0.  1.
        -11    1    3    3    0    0 -0.41872547110E+02 -0.17103606903E+03 -0.92534560624E+01  0.17633001321E+03  0.00000000000E+00 0. -1.
         22    1    1    2    0    0  0.20732386262E+03  0.12233133914E+04  0.75627944183E+03  0.14530786048E+04  0.00000000000E+00 0. -1.
<mgrwt>
<rscale>  0 0.26833148E+04</rscale>
<asrwt>0</asrwt>
<pdfrwt beam="1">  1        1 0.24696852E+00 0.26833148E+04</pdfrwt>
<pdfrwt beam="2">  1       -1 0.17251027E+00 0.26833148E+04</pdfrwt>
<totfact> 0.11412242E+00</totfact>
</mgrwt>
</event>
<event>
 6    1  0.1528034E-005  0.8506771E+03  0.7818608E-02  0.9489429E-01
          3   -1    0    0  501    0  0.00000000000E+00  0.00000000000E+00  0.23366610540E+04  0.23366610540E+04  0.00000000000E+00 0. -1.
         -3   -1    0    0    0  501 -0.00000000000E+00 -0.00000000000E+00 -0.77423679867E+02  0.77423679867E+02  0.00000000000E+00 0.  1.
         23    2    1    2    0    0 -0.32533887944E+03  0.25469945891E+03  0.91900950954E+03  0.10116126558E+04  0.89802482231E+02 0.  0.
         13    1    3    3    0    0 -0.60837837877E+02  0.15833490520E+02  0.96018897476E+02  0.11476746321E+03  0.00000000000E+00 0.  1.
        -13    1    3    3    0    0 -0.26450104156E+03  0.23886596839E+03  0.82299061207E+03  0.89684519255E+03  0.00000000000E+00 0. -1.
         22    1    1    2    0    0  0.32533887944E+03 -0.25469945891E+03  0.13402278646E+04  0.14024720781E+04  0.00000000000E+00 0. -1.
<mgrwt>
<rscale>  0 0.85067714E+03</rscale>
<asrwt>0</asrwt>
<pdfrwt beam="1">  1        3 0.35948626E+00 0.85067714E+03</pdfrwt>
<pdfrwt beam="2">  1       -3 0.11911337E-01 0.85067714E+03</pdfrwt>
<totfact> 0.28453605E+00</totfact>
</mgrwt>
</event>
<event>
 6    1  0.1528034E-005  0.1386516E+04  0.7818608E-02  0.8963637E-01
          1   -1    0    0  501    0  0.00000000000E+00  0.00000000000E+00  0.65595952066E+03  0.65595952066E+03  0.00000000000E+00 0. -1.
         -1   -1    0    0    0  501 -0.00000000000E+00 -0.00000000000E+00 -0.73267730091E+03  0.73267730091E+03  0.00000000000E+00 0.  1.
         23    2    1    2    0    0  0.29611618493E+03  0.49184523612E+03 -0.42232302240E+03  0.71853271424E+03  0.91301669815E+02 0.  0.
         13    1    3    3    0    0  0.12901949226E+03  0.29672409802E+03 -0.21585412788E+03  0.38895272753E+03  0.00000000000E+00 0.  1.
        -13    1    3    3    0    0  0.16709669267E+03  0.19512113809E+03 -0.20646889452E+03  0.32957998671E+03  0.00000000000E+00 0. -1.
         22    1    1    2    0    0 -0.29611618493E+03 -0.49184523612E+03  0.34560524215E+03  0.67010410734E+03  0.00000000000E+00 0.  1.
<mgrwt>
<rscale>  0 0.13865160E+04</rscale>
<asrwt>0</asrwt>
<pdfrwt beam="1">  1        1 0.10091685E+00 0.13865160E+04</pdfrwt>
<pdfrwt beam="2">  1       -1 0.11271958E+00 0.13865160E+04</pdfrwt>
<totfact> 0.21128185E+01</totfact>
</mgrwt>
</event>
<event>
 6    1  0.1528034E-005  0.2559639E+04  0.7818608E-02  0.8382041E-01
          2   -1    0    0  501    0  0.00000000000E+00  0.00000000000E+00  0.17996696480E+04  0.17996696480E+04  0.00000000000E+00 0. -1.
         -2   -1    0    0    0  501 -0.00000000000E+00 -0.00000000000E+00 -0.91013286605E+03  0.91013286605E+03  0.00000000000E+00 0.  1.
         23    2    1    2    0    0  0.41801845027E+03 -0.62769668992E+02 -0.83169485323E+03  0.93742620015E+03  0.91499156955E+02 0.  0.
         13    1    3    3    0    0  0.18152929055E+03 -0.62137603939E+02 -0.43766798473E+03  0.47787784005E+03  0.00000000000E+00 0. -1.
        -13    1    3    3    0    0  0.23648915972E+03 -0.63206505297E+00 -0.39402686850E+03  0.45954836010E+03  0.00000000000E+00 0.  1.
         22    1    1    2    0    0 -0.41801845027E+03  0.62769668992E+02  0.17212316352E+04  0.17723763139E+04  0.00000000000E+00 0. -1.
<mgrwt>
<rscale>  0 0.25596394E+04</rscale>
<asrwt>0</asrwt>
<pdfrwt beam="1">  1        2 0.27687225E+00 0.25596394E+04</pdfrwt>
<pdfrwt beam="2">  1       -2 0.14002044E+00 0.25596394E+04</pdfrwt>
<totfact> 0.27509715E+00</totfact>
</mgrwt>
</event>
<event>
 6    1  0.1528034E-005  0.1186274E+04  0.7818608E-02  0.9124957E-01
         -2   -1    0    0    0  501 -0.00000000000E+00  0.00000000000E+00  0.45271204924E+03  0.45271204924E+03  0.00000000000E+00 0.  1.
          2   -1    0    0  501    0  0.00000000000E+00 -0.00000000000E+00 -0.77711932654E+03  0.77711932654E+03  0.00000000000E+00 0. -1.
         23    2    1    2    0    0 -0.12248942984E+03 -0.55774700906E+03 -0.31534749988E+03  0.65872064562E+03  0.91561218546E+02 0.  0.
         13    1    3    3    0    0 -0.91712630517E+02 -0.35753037715E+03 -0.25027917456E+03  0.44595834155E+03  0.00000000000E+00 0. -1.
        -13    1    3    3    0    0 -0.30776799322E+02 -0.20021663191E+03 -0.65068325317E+02  0.21276230407E+03  0.00000000000E+00 0.  1.
         22    1    1    2    0    0  0.12248942984E+03  0.55774700906E+03 -0.90597774186E+01  0.57111073016E+03  0.00000000000E+00 0.  1.
<mgrwt>
<rscale>  0 0.11862736E+04</rscale>
<asrwt>0</asrwt>
<pdfrwt beam="1">  1        2 0.11955682E+00 0.11862736E+04</pdfrwt>
<pdfrwt beam="2">  1       -2 0.69648007E-01 0.11862736E+04</pdfrwt>
<totfact> 0.66478214E+01</totfact>
</mgrwt>
</event>
<event>
 6    1  0.1528034E-005  0.1957290E+04  0.7818608E-02  0.8626853E-01
         -2   -1    0    0    0  501 -0.00000000000E+00  0.00000000000E+00  0.11296419676E+04  0.11296419676E+04  0.00000000000E+00 0. -1.
          2   -1    0    0  501    0  0.00000000000E+00 -0.00000000000E+00 -0.84783161036E+03  0.84783161036E+03  0.00000000000E+00 0.  1.
         23    2    1    2    0    0 -0.75569375574E+02  0.95999624418E+03  0.30533308078E+03  0.10142203206E+04  0.90061363211E+02 0.  0.
         13    1    3    3    0    0 -0.60763876071E+02  0.71052867540E+03  0.18432829055E+03  0.73655968251E+03  0.00000000000E+00 0. -1.
        -13    1    3    3    0    0 -0.14805499503E+02  0.24946756878E+03  0.12100479023E+03  0.27766063809E+03  0.00000000000E+00 0.  1.
         22    1    1    2    0    0  0.75569375574E+02 -0.95999624418E+03 -0.23522723487E+02  0.96325325740E+03  0.00000000000E+00 0.  1.
<mgrwt>
<rscale>  0 0.19572901E+04</rscale>
<asrwt>0</asrwt>
<pdfrwt beam="1">  1        2 0.13043563E+00 0.19572901E+04</pdfrwt>
<pdfrwt beam="2">  1       -2 0.17379107E+00 0.19572901E+04</pdfrwt>
<totfact> 0.59468585E+00</totfact>
</mgrwt>
</event>
<event>
 6    1  0.1528034E-005  0.3924978E+04  0.7818608E-02  0.8019854E-01
          2   -1    0    0  501    0  0.00000000000E+00  0.00000000000E+00  0.22603133577E+04  0.22603133577E+04  0.00000000000E+00 0. -1.
         -2   -1    0    0    0  501 -0.00000000000E+00 -0.00000000000E+00 -0.17039066940E+04  0.17039066940E+04  0.00000000000E+00 0.  1.
         23    2    1    2    0    0 -0.56696663895E+03 -0.17987441852E+04  0.82249056150E+03  0.20595593329E+04  0.91444565120E+02 0.  0.
         11    1    3    3    0    0 -0.21445910362E+03 -0.57253030992E+03  0.29705324789E+03  0.67972369018E+03  0.00000000000E+00 0.  1.
        -11    1    3    3    0    0 -0.35250753533E+03 -0.12262138752E+04  0.52543731361E+03  0.13798356427E+04  0.00000000000E+00 0. -1.
         22    1    1    2    0    0  0.56696663895E+03  0.17987441852E+04 -0.26608389777E+03  0.19046607189E+04  0.00000000000E+00 0.  1.
<mgrwt>
<rscale>  0 0.39249780E+04</rscale>
<asrwt>0</asrwt>
<pdfrwt beam="1">  1        2 0.34774052E+00 0.39249780E+04</pdfrwt>
<pdfrwt beam="2">  1       -2 0.26213949E+00 0.39249780E+04</pdfrwt>
<totfact> 0.20516070E-01</totfact>
</mgrwt>
</event>
<event>
 6    1  0.1528034E-005  0.6567318E+03  0.7818608E-02  0.9794229E-01
          2   -1    0    0  501    0  0.00000000000E+00  0.00000000000E+00  0.86316459915E+03  0.86316459915E+03  0.00000000000E+00 0. -1.
         -2   -1    0    0    0  501 -0.00000000000E+00 -0.00000000000E+00 -0.12491726871E+03  0.12491726871E+03  0.00000000000E+00 0.  1.
         23    2    1    2    0    0  0.17191494404E+03  0.25003519612E+03  0.53671975463E+03  0.62382136891E+03  0.94935019926E+02 0.  0.
         11    1    3    3    0    0  0.13586690645E+03  0.12557175322E+03  0.35913232972E+03  0.40398528652E+03  0.00000000000E+00 0. -1.
        -11    1    3    3    0    0  0.36048037593E+02  0.12446344289E+03  0.17758742492E+03  0.21983608239E+03  0.00000000000E+00 0.  1.
         22    1    1    2    0    0 -0.17191494404E+03 -0.25003519612E+03  0.20152757581E+03  0.36426049895E+03  0.00000000000E+00 0. -1.
<mgrwt>
<rscale>  0 0.65673180E+03</rscale>
<asrwt>0</asrwt>
<pdfrwt beam="1">  1        2 0.13279455E+00 0.65673180E+03</pdfrwt>
<pdfrwt beam="2">  1       -2 0.19218042E-01 0.65673180E+03</pdfrwt>
<totfact> 0.71560862E+02</totfact>
</mgrwt>
</event>
<event>
 6    1  0.1528034E-005  0.1213591E+04  0.7818608E-02  0.9101043E-01
          2   -1    0    0  501    0  0.00000000000E+00  0.00000000000E+00  0.15532467632E+04  0.15532467632E+04  0.00000000000E+00 0. -1.
         -2   -1    0    0    0  501 -0.00000000000E+00 -0.00000000000E+00 -0.23705216883E+03  0.23705216883E+03  0.00000000000E+00 0.  1.
         23    2    1    2    0    0 -0.59250144916E+03  0.46392251062E+02  0.81434816566E+03  0.10124428745E+04  0.93099038538E+02 0.  0.
         13    1    3    3    0    0 -0.39242621167E+03  0.67181847887E+02  0.58155794830E+03  0.70478463343E+03  0.00000000000E+00 0. -1.
        -13    1    3    3    0    0 -0.20007523748E+03 -0.20789596825E+02  0.23279021737E+03  0.30765824106E+03  0.00000000000E+00 0.  1.
         22    1    1    2    0    0  0.59250144916E+03 -0.46392251062E+02  0.50184642866E+03  0.77785605749E+03  0.00000000000E+00 0.  1.
<mgrwt>
<rscale>  0 0.12135906E+04</rscale>
<asrwt>0</asrwt>
<pdfrwt beam="1">  1        2 0.23896103E+00 0.12135906E+04</pdfrwt>
<pdfrwt beam="2">  1       -2 0.36469565E-01 0.12135906E+04</pdfrwt>
<totfact> 0.82627985E+01</totfact>
</mgrwt>
</event>
<event>
 6    1  0.1528034E-005  0.1894358E+04  0.7818608E-02  0.8657670E-01
         -2   -1    0    0    0  501 -0.00000000000E+00  0.00000000000E+00  0.47887480336E+03  0.47887480336E+03  0.00000000000E+00 0.  1.
          2   -1    0    0  501    0  0.00000000000E+00 -0.00000000000E+00 -0.18734501073E+04  0.18734501073E+04  0.00000000000E+00 0. -1.
         23    2    1    2    0    0  0.76026720794E+03 -0.50203355982E+03 -0.10105397432E+04  0.13636251410E+04  0.90769102131E+02 0.  0.
         13    1    3    3    0    0  0.37653737817E+03 -0.27248132093E+03 -0.45422377295E+03  0.64988129941E+03  0.00000000000E+00 0.  1.
        -13    1    3    3    0    0  0.38372982977E+03 -0.22955223889E+03 -0.55631597025E+03  0.71374384158E+03  0.00000000000E+00 0. -1.
         22    1    1    2    0    0 -0.76026720794E+03  0.50203355982E+03 -0.38403556074E+03  0.98869976968E+03  0.00000000000E+00 0.  1.
<mgrwt>
<rscale>  0 0.18943580E+04</rscale>
<asrwt>0</asrwt>
<pdfrwt beam="1">  1        2 0.28822309E+00 0.18943580E+04</pdfrwt>
<pdfrwt beam="2">  1       -2 0.73673048E-01 0.18943580E+04</pdfrwt>
<totfact> 0.12226324E+01</totfact>
</mgrwt>
</event>
<event>
 6    1  0.1528034E-005  0.4735954E+03  0.7818608E-02  0.1020910E+00
         -2   -1    0    0    0  501 -0.00000000000E+00  0.00000000000E+00  0.29995577281E+02  0.29995577281E+02  0.00000000000E+00 0.  1.
          2   -1    0    0  501    0  0.00000000000E+00 -0.00000000000E+00 -0.18693807135E+04  0.18693807135E+04  0.00000000000E+00 0. -1.
         23    2    1    2    0    0 -0.88399437759E+02  0.12231898507E+03 -0.16410736155E+04  0.16501698423E+04  0.84625659761E+02 0.  0.
         13    1    3    3    0    0 -0.11377182612E+02  0.79466339179E+02 -0.97319816727E+03  0.97650346242E+03  0.00000000000E+00 0. -1.
        -13    1    3    3    0    0 -0.77022255148E+02  0.42852645894E+02 -0.66787544824E+03  0.67366637990E+03  0.00000000000E+00 0.  1.
         22    1    1    2    0    0  0.88399437759E+02 -0.12231898507E+03 -0.19831152070E+03  0.24920644845E+03  0.00000000000E+00 0.  1.
<mgrwt>
<rscale>  0 0.47359541E+03</rscale>
<asrwt>0</asrwt>
<pdfrwt beam="1">  1        2 0.28759707E+00 0.47359541E+03</pdfrwt>
<pdfrwt beam="2">  1       -2 0.46147035E-02 0.47359541E+03</pdfrwt>
<totfact> 0.19055001E+03</totfact>
</mgrwt>
</event>
<event>
 6    1  0.1528034E-005  0.7011165E+04  0.7818608E-02  0.7576285E-01
         -2   -1    0    0    0  501 -0.00000000000E+00  0.00000000000E+00  0.45116115382E+04  0.45116115382E+04  0.00000000000E+00 0.  1.
          2   -1    0    0  501    0  0.00000000000E+00 -0.00000000000E+00 -0.27238845217E+04  0.27238845217E+04  0.00000000000E+00 0. -1.
         23    2    1    2    0    0 -0.29838617127E+02 -0.29981953417E+04 -0.97924119191E+03  0.31555231782E+04  0.91365016228E+02 0.  0.
         11    1    3    3    0    0  0.43569175760E+01 -0.11594269655E+04 -0.33501529972E+03  0.12068658261E+04  0.00000000000E+00 0. -1.
        -11    1    3    3    0    0 -0.34195534703E+02 -0.18387683762E+04 -0.64422589219E+03  0.19486573521E+04  0.00000000000E+00 0.  1.
         22    1    1    2    0    0  0.29838617127E+02  0.29981953417E+04  0.27669682084E+04  0.40799728818E+04  0.00000000000E+00 0. -1.
<mgrwt>
<rscale>  0 0.70111650E+04</rscale>
<asrwt>0</asrwt>
<pdfrwt beam="1">  1        2 0.41905916E+00 0.70111650E+04</pdfrwt>
<pdfrwt beam="2">  1       -2 0.69409408E+00 0.70111650E+04</pdfrwt>
<totfact> 0.39239622E-04</totfact>
</mgrwt>
</event>
<event>
 6    1  0.1528034E-005  0.3635752E+04  0.7818608E-02  0.8082351E-01
         -2   -1    0    0    0  501 -0.00000000000E+00  0.00000000000E+00  0.10670130773E+04  0.10670130773E+04  0.00000000000E+00 0.  1.
          2   -1    0    0  501    0  0.00000000000E+00 -0.00000000000E+00 -0.30971250453E+04  0.30971250453E+04  0.00000000000E+00 0. -1.
         23    2    1    2    0    0 -0.11525092000E+04 -0.66922579114E+03 -0.24298170022E+04  0.27727701878E+04  0.90017968011E+02 0.  0.
         13    1    3    3    0    0 -0.13679165939E+03 -0.10233003542E+03 -0.36050257895E+03  0.39893044964E+03  0.00000000000E+00 0. -1.
        -13    1    3    3    0    0 -0.10157175406E+04 -0.56689575572E+03 -0.20693144233E+04  0.23738397382E+04  0.00000000000E+00 0.  1.
         22    1    1    2    0    0  0.11525092000E+04  0.66922579114E+03  0.39970503419E+03  0.13913679348E+04  0.00000000000E+00 0.  1.
<mgrwt>
<rscale>  0 0.36357519E+04</rscale>
<asrwt>0</asrwt>
<pdfrwt beam="1">  1        2 0.47648078E+00 0.36357519E+04</pdfrwt>
<pdfrwt beam="2">  1       -2 0.16415586E+00 0.36357519E+04</pdfrwt>
<totfact> 0.28812826E-01</totfact>
</mgrwt>
</event>
<event>
 6    1  0.1528034E-005  0.1575003E+04  0.7818608E-02  0.8836053E-01
         -2   -1    0    0    0  501 -0.00000000000E+00  0.00000000000E+00  0.30726501273E+03  0.30726501273E+03  0.00000000000E+00 0.  1.
          2   -1    0    0  501    0  0.00000000000E+00 -0.00000000000E+00 -0.20183190383E+04  0.20183190383E+04  0.00000000000E+00 0. -1.
         23    2    1    2    0    0  0.30225602423E+03  0.65999915808E+03 -0.41763059411E+03  0.84237746869E+03  0.90702225848E+02 0.  0.
         13    1    3    3    0    0  0.15825912507E+03  0.39626094550E+03 -0.28995496795E+03  0.51589007650E+03  0.00000000000E+00 0. -1.
        -13    1    3    3    0    0  0.14399689916E+03  0.26373821258E+03 -0.12767562616E+03  0.32648739219E+03  0.00000000000E+00 0.  1.
         22    1    1    2    0    0 -0.30225602423E+03 -0.65999915808E+03 -0.12934234315E+04  0.14832065824E+04  0.00000000000E+00 0. -1.
<mgrwt>
<rscale>  0 0.15750033E+04</rscale>
<asrwt>0</asrwt>
<pdfrwt beam="1">  1        2 0.31051063E+00 0.15750033E+04</pdfrwt>
<pdfrwt beam="2">  1       -2 0.47271539E-01 0.15750033E+04</pdfrwt>
<totfact> 0.26601498E+01</totfact>
</mgrwt>
</event>
<event>
 6    1  0.1528034E-005  0.2085854E+04  0.7818608E-02  0.8567500E-01
         -2   -1    0    0    0  501 -0.00000000000E+00  0.00000000000E+00  0.63291530240E+03  0.63291530240E+03  0.00000000000E+00 0.  1.
          2   -1    0    0  501    0  0.00000000000E+00 -0.00000000000E+00 -0.17185507955E+04  0.17185507955E+04  0.00000000000E+00 0. -1.
         23    2    1    2    0    0  0.86645073359E+03 -0.57519897678E+03 -0.51382930205E+03  0.11646413186E+04  0.10381768972E+03 0.  0.
         11    1    3    3    0    0  0.41103915448E+03 -0.28274948990E+03 -0.30362320698E+03  0.58402697914E+03  0.00000000000E+00 0. -1.
        -11    1    3    3    0    0  0.45541157912E+03 -0.29244948689E+03 -0.21020609507E+03  0.58061433945E+03  0.00000000000E+00 0.  1.
         22    1    1    2    0    0 -0.86645073359E+03  0.57519897678E+03 -0.57180619106E+03  0.11868247793E+04  0.00000000000E+00 0. -1.
<mgrwt>
<rscale>  0 0.20858544E+04</rscale>
<asrwt>0</asrwt>
<pdfrwt beam="1">  1        2 0.26439243E+00 0.20858544E+04</pdfrwt>
<pdfrwt beam="2">  1       -2 0.97371584E-01 0.20858544E+04</pdfrwt>
<totfact> 0.77720305E+00</totfact>
</mgrwt>
</event>
<event>
 6    1  0.1528034E-005  0.2041258E+04  0.7818608E-02  0.8587571E-01
          2   -1    0    0  501    0  0.00000000000E+00  0.00000000000E+00  0.16624754426E+04  0.16624754426E+04  0.00000000000E+00 0. -1.
         -2   -1    0    0    0  501 -0.00000000000E+00 -0.00000000000E+00 -0.62658561139E+03  0.62658561139E+03  0.00000000000E+00 0.  1.
         23    2    1    2    0    0  0.10015459654E+04  0.67245495577E+01  0.31033172774E+03  0.10523015374E+04  0.88843706191E+02 0.  0.
         11    1    3    3    0    0  0.20406670995E+03  0.57261528324E+01  0.10121108630E+03  0.22785893647E+03  0.00000000000E+00 0. -1.
        -11    1    3    3    0    0  0.79747925540E+03  0.99839672532E+00  0.20912064144E+03  0.82444260095E+03  0.00000000000E+00 0.  1.
         22    1    1    2    0    0 -0.10015459654E+04 -0.67245495577E+01  0.72555810344E+03  0.12367595165E+04  0.00000000000E+00 0.  1.
<mgrwt>
<rscale>  0 0.20412576E+04</rscale>
<asrwt>0</asrwt>
<pdfrwt beam="1">  1        2 0.25576545E+00 0.20412576E+04</pdfrwt>
<pdfrwt beam="2">  1       -2 0.96397787E-01 0.20412576E+04</pdfrwt>
<totfact> 0.85823424E+00</totfact>
</mgrwt>
</event>
<event>
 6    1  0.1528034E-005  0.4435003E+04  0.7818608E-02  0.7922116E-01
         -1   -1    0    0    0  501 -0.00000000000E+00  0.00000000000E+00  0.16025830007E+04  0.16025830007E+04  0.00000000000E+00 0.  1.
          1   -1    0    0  501    0  0.00000000000E+00 -0.00000000000E+00 -0.30683667987E+04  0.30683667987E+04  0.00000000000E+00 0. -1.
         23    2    1    2    0    0 -0.11158264609E+04 -0.63536699976E+03 -0.26361038263E+04  0.29335929323E+04  0.90355930886E+02 0.  0.
         13    1    3    3    0    0 -0.32602264341E+03 -0.16017759604E+03 -0.82501826155E+03  0.90144481705E+03  0.00000000000E+00 0. -1.
        -13    1    3    3    0    0 -0.78980381750E+03 -0.47518940371E+03 -0.18110855647E+04  0.20321481153E+04  0.00000000000E+00 0.  1.
         22    1    1    2    0    0  0.11158264609E+04  0.63536699976E+03  0.11703200283E+04  0.17373568672E+04  0.00000000000E+00 0.  1.
<mgrwt>
<rscale>  0 0.44350028E+04</rscale>
<asrwt>0</asrwt>
<pdfrwt beam="1">  1        1 0.47205642E+00 0.44350028E+04</pdfrwt>
<pdfrwt beam="2">  1       -1 0.24655123E+00 0.44350028E+04</pdfrwt>
<totfact> 0.29531692E-02</totfact>
</mgrwt>
</event>
<event>
 6    1  0.1528034E-005  0.4452340E+04  0.7818608E-02  0.7919034E-01
         -3   -1    0    0    0  501 -0.00000000000E+00  0.00000000000E+00  0.23412231312E+04  0.23412231312E+04  0.00000000000E+00 0.  1.
          3   -1    0    0  501    0  0.00000000000E+00 -0.00000000000E+00 -0.21167705924E+04  0.21167705924E+04  0.00000000000E+00 0. -1.
         23    2    1    2    0    0  0.14495929501E+04  0.25588506619E+03  0.17831816814E+04  0.23140642873E+04  0.91431553593E+02 0.  0.
         13    1    3    3    0    0  0.58194849869E+03  0.57724157851E+02  0.71652886552E+03  0.92488364060E+03  0.00000000000E+00 0.  1.
        -13    1    3    3    0    0  0.86764445136E+03  0.19816090834E+03  0.10666528159E+04  0.13891806467E+04  0.00000000000E+00 0. -1.
         22    1    1    2    0    0 -0.14495929501E+04 -0.25588506619E+03 -0.15587291425E+04  0.21439294363E+04  0.00000000000E+00 0. -1.
<mgrwt>
<rscale>  0 0.44523397E+04</rscale>
<asrwt>0</asrwt>
<pdfrwt beam="1">  1        3 0.32565701E+00 0.44523397E+04</pdfrwt>
<pdfrwt beam="2">  1       -3 0.36018817E+00 0.44523397E+04</pdfrwt>
<totfact> 0.95889792E-04</totfact>
</mgrwt>
</event>
<event>
 6    1  0.1528034E-005  0.1499164E+04  0.7818608E-02  0.8885009E-01
         -2   -1    0    0    0  501 -0.00000000000E+00  0.00000000000E+00  0.23155384436E+03  0.23155384436E+03  0.00000000000E+00 0.  1.
          2   -1    0    0  501    0  0.00000000000E+00 -0.00000000000E+00 -0.24265319832E+04  0.24265319832E+04  0.00000000000E+00 0. -1.
         23    2    1    2    0    0  0.49911999679E+03 -0.14214213577E+03 -0.20536608421E+04  0.21202236367E+04  0.92196840085E+02 0.  0.
         13    1    3    3    0    0  0.20706695706E+03 -0.79271236963E+02 -0.71290684568E+03  0.74659013142E+03  0.00000000000E+00 0.  1.
        -13    1    3    3    0    0  0.29205303973E+03 -0.62870898804E+02 -0.13407539964E+04  0.13736335053E+04  0.00000000000E+00 0. -1.
         22    1    1    2    0    0 -0.49911999679E+03  0.14214213577E+03 -0.14131729670E+03  0.53786219081E+03  0.00000000000E+00 0.  1.
<mgrwt>
<rscale>  0 0.14991635E+04</rscale>
<asrwt>0</asrwt>
<pdfrwt beam="1">  1        2 0.37331261E+00 0.14991635E+04</pdfrwt>
<pdfrwt beam="2">  1       -2 0.35623669E-01 0.14991635E+04</pdfrwt>
<totfact> 0.27530035E+01</totfact>
</mgrwt>
</event>
<event>
 6    1  0.1528034E-005  0.1258406E+04  0.7818608E-02  0.9063215E-01
         -1   -1    0    0    0  501 -0.00000000000E+00  0.00000000000E+00  0.34221394954E+04  0.34221394954E+04  0.00000000000E+00 0.  1.
          1   -1    0    0  501    0  0.00000000000E+00 -0.00000000000E+00 -0.11568689203E+03  0.11568689203E+03  0.00000000000E+00 0. -1.
         23    2    1    2    0    0 -0.33746738751E+03 -0.50995519436E+03  0.12859742074E+04  0.14268381150E+04  0.90547260298E+02 0.  0.
         11    1    3    3    0    0 -0.17093040356E+03 -0.31414948871E+03  0.67241952251E+03  0.76161349672E+03  0.00000000000E+00 0.  1.
        -11    1    3    3    0    0 -0.16653698395E+03 -0.19580570565E+03  0.61355468492E+03  0.66522461829E+03  0.00000000000E+00 0. -1.
         22    1    1    2    0    0  0.33746738751E+03  0.50995519436E+03  0.20204783959E+04  0.21109882724E+04  0.00000000000E+00 0. -1.
<mgrwt>
<rscale>  0 0.12584064E+04</rscale>
<asrwt>0</asrwt>
<pdfrwt beam="1">  1        1 0.17797986E-01 0.12584064E+04</pdfrwt>
<pdfrwt beam="2">  1       -1 0.52648292E+00 0.12584064E+04</pdfrwt>
<totfact> 0.30818486E-01</totfact>
</mgrwt>
</event>
<event>
 6    1  0.1528034E-005  0.9015175E+03  0.7818608E-02  0.9423686E-01
          3   -1    0    0  501    0  0.00000000000E+00  0.00000000000E+00  0.18738913158E+03  0.18738913158E+03  0.00000000000E+00 0. -1.
         -3   -1    0    0    0  501 -0.00000000000E+00 -0.00000000000E+00 -0.10842861634E+04  0.10842861634E+04  0.00000000000E+00 0.  1.
         23    2    1    2    0    0  0.21383458051E+03 -0.36725539971E+03 -0.64420864383E+03  0.77725323046E+03  0.92282452512E+02 0.  0.
         11    1    3    3    0    0  0.10367047451E+03 -0.15468236834E+03 -0.36263042051E+03  0.40764570921E+03  0.00000000000E+00 0.  1.
        -11    1    3    3    0    0  0.11016410600E+03 -0.21257303137E+03 -0.28157822332E+03  0.36960752125E+03  0.00000000000E+00 0. -1.
         22    1    1    2    0    0 -0.21383458051E+03  0.36725539971E+03 -0.25268838795E+03  0.49442206448E+03  0.00000000000E+00 0. -1.
<mgrwt>
<rscale>  0 0.90151748E+03</rscale>
<asrwt>0</asrwt>
<pdfrwt beam="1">  1        3 0.28829097E-01 0.90151748E+03</pdfrwt>
<pdfrwt beam="2">  1       -3 0.16681326E+00 0.90151748E+03</pdfrwt>
<totfact> 0.74909020E+00</totfact>
</mgrwt>
</event>
<event>
 6    1  0.1528034E-005  0.3463809E+04  0.7818608E-02  0.8122421E-01
          2   -1    0    0  501    0  0.00000000000E+00  0.00000000000E+00  0.17790631173E+04  0.17790631173E+04  0.00000000000E+00 0.  1.
         -2   -1    0    0    0  501 -0.00000000000E+00 -0.00000000000E+00 -0.16859958835E+04  0.16859958835E+04  0.00000000000E+00 0. -1.
         23    2    1    2    0    0  0.17117608438E+04  0.23338087895E+03  0.15066106801E+03  0.17365021257E+04  0.90272110967E+02 0.  0.
         11    1    3    3    0    0  0.86823190213E+03  0.15077071422E+03  0.10863485300E+03  0.88789637651E+03  0.00000000000E+00 0. -1.
        -11    1    3    3    0    0  0.84352894166E+03  0.82610164726E+02  0.42026215016E+02  0.84860574915E+03  0.00000000000E+00 0.  1.
         22    1    1    2    0    0 -0.17117608438E+04 -0.23338087895E+03 -0.57593834235E+02  0.17285568752E+04  0.00000000000E+00 0.  1.
<mgrwt>
<rscale>  0 0.34638089E+04</rscale>
<asrwt>0</asrwt>
<pdfrwt beam="1">  1        2 0.27370202E+00 0.34638089E+04</pdfrwt>
<pdfrwt beam="2">  1       -2 0.25938398E+00 0.34638089E+04</pdfrwt>
<totfact> 0.41109638E-01</totfact>
</mgrwt>
</event>
<event>
 6    1  0.1528034E-005  0.1655083E+04  0.7818608E-02  0.8787405E-01
          2   -1    0    0  501    0  0.00000000000E+00  0.00000000000E+00  0.10892594892E+04  0.10892594892E+04  0.00000000000E+00 0. -1.
         -2   -1    0    0    0  501 -0.00000000000E+00 -0.00000000000E+00 -0.62870700118E+03  0.62870700118E+03  0.00000000000E+00 0.  1.
         23    2    1    2    0    0 -0.51505029601E+03  0.60662140723E+03  0.38858405610E+01  0.80046402934E+03  0.86378373371E+02 0.  0.
         13    1    3    3    0    0 -0.49920123089E+03  0.58546394289E+03 -0.12249660638E+02  0.76949330831E+03  0.00000000000E+00 0. -1.
        -13    1    3    3    0    0 -0.15849065122E+02  0.21157464336E+02  0.16135501199E+02  0.30970721033E+02  0.00000000000E+00 0.  1.
         22    1    1    2    0    0  0.51505029601E+03 -0.60662140723E+03  0.45666664746E+03  0.91750246104E+03  0.00000000000E+00 0.  1.
<mgrwt>
<rscale>  0 0.16550832E+04</rscale>
<asrwt>0</asrwt>
<pdfrwt beam="1">  1        2 0.16757838E+00 0.16550832E+04</pdfrwt>
<pdfrwt beam="2">  1       -2 0.96724155E-01 0.16550832E+04</pdfrwt>
<totfact> 0.18878649E+01</totfact>
</mgrwt>
</event>
<event>
 6    1  0.1528034E-005  0.1837621E+04  0.7818608E-02  0.8686545E-01
         -1   -1    0    0    0  501 -0.00000000000E+00  0.00000000000E+00  0.12784679049E+04  0.12784679049E+04  0.00000000000E+00 0.  1.
          1   -1    0    0  501    0  0.00000000000E+00 -0.00000000000E+00 -0.66033155776E+03  0.66033155776E+03  0.00000000000E+00 0. -1.
         23    2    1    2    0    0  0.10856207276E+03  0.20491467391E+03 -0.62572106536E+03  0.67351016377E+03  0.91177529290E+02 0.  0.
         13    1    3    3    0    0  0.69683464982E+02  0.16296822601E+03 -0.55466992967E+03  0.58229988739E+03  0.00000000000E+00 0. -1.
        -13    1    3    3    0    0  0.38878607782E+02  0.41946447900E+02 -0.71051135690E+02  0.91210276380E+02  0.00000000000E+00 0.  1.
         22    1    1    2    0    0 -0.10856207276E+03 -0.20491467391E+03  0.12438574125E+04  0.12652892988E+04  0.00000000000E+00 0.  1.
<mgrwt>
<rscale>  0 0.18376210E+04</rscale>
<asrwt>0</asrwt>
<pdfrwt beam="1">  1        1 0.10158947E+00 0.18376210E+04</pdfrwt>
<pdfrwt beam="2">  1       -1 0.19668737E+00 0.18376210E+04</pdfrwt>
<totfact> 0.44391599E+00</totfact>
</mgrwt>
</event>
<event>
 6    1  0.1528034E-005  0.8807393E+03  0.7818608E-02  0.9449984E-01
          2   -1    0    0  501    0  0.00000000000E+00  0.00000000000E+00  0.18385411436E+04  0.18385411436E+04  0.00000000000E+00 0.  1.
         -2   -1    0    0    0  501 -0.00000000000E+00 -0.00000000000E+00 -0.10547787447E+03  0.10547787447E+03  0.00000000000E+00 0. -1.
         23    2    1    2    0    0 -0.16591853689E+03  0.39778764921E+03  0.10141947615E+04  0.11058448679E+04  0.92400665030E+02 0.  0.
         11    1    3    3    0    0 -0.44319166680E+02  0.19685955980E+03  0.54490493760E+03  0.58106735052E+03  0.00000000000E+00 0.  1.
        -11    1    3    3    0    0 -0.12159937021E+03  0.20092808941E+03  0.46928982389E+03  0.52477751738E+03  0.00000000000E+00 0. -1.
         22    1    1    2    0    0  0.16591853689E+03 -0.39778764921E+03  0.71886850767E+03  0.83817415020E+03  0.00000000000E+00 0. -1.
<mgrwt>
<rscale>  0 0.88073926E+03</rscale>
<asrwt>0</asrwt>
<pdfrwt beam="1">  1        2 0.28285246E+00 0.88073926E+03</pdfrwt>
<pdfrwt beam="2">  1       -2 0.16227367E-01 0.88073926E+03</pdfrwt>
<totfact> 0.25431684E+02</totfact>
</mgrwt>
</event>
<event>
 6    1  0.1528034E-005  0.1160254E+04  0.7818608E-02  0.9148375E-01
          2   -1    0    0  501    0  0.00000000000E+00  0.00000000000E+00  0.21190795551E+03  0.21190795551E+03  0.00000000000E+00 0. -1.
         -2   -1    0    0    0  501 -0.00000000000E+00 -0.00000000000E+00 -0.15881779162E+04  0.15881779162E+04  0.00000000000E+00 0.  1.
         23    2    1    2    0    0  0.33710059855E+03 -0.72550461532E+00 -0.14181202904E+04  0.14603966167E+04  0.89753996252E+02 0.  0.
         13    1    3    3    0    0  0.11566530628E+03 -0.36480939623E+02 -0.40646557962E+03  0.42417400846E+03  0.00000000000E+00 0.  1.
        -13    1    3    3    0    0  0.22143529227E+03  0.35755435007E+02 -0.10116547108E+04  0.10362226082E+04  0.00000000000E+00 0. -1.
         22    1    1    2    0    0 -0.33710059855E+03  0.72550461532E+00  0.41850329755E+02  0.33968925506E+03  0.00000000000E+00 0. -1.
<mgrwt>
<rscale>  0 0.11602543E+04</rscale>
<asrwt>0</asrwt>
<pdfrwt beam="1">  1        2 0.32601225E-01 0.11602543E+04</pdfrwt>
<pdfrwt beam="2">  1       -2 0.24433506E+00 0.11602543E+04</pdfrwt>
<totfact> 0.11197995E+01</totfact>
</mgrwt>
</event>
<event>
 6    1  0.1528034E-005  0.4170443E+04  0.7818608E-02  0.7971018E-01
         -1   -1    0    0    0  501 -0.00000000000E+00  0.00000000000E+00  0.19400555358E+04  0.19400555358E+04  0.00000000000E+00 0.  1.
          1   -1    0    0  501    0  0.00000000000E+00 -0.00000000000E+00 -0.22412500951E+04  0.22412500951E+04  0.00000000000E+00 0. -1.
         23    2    1    2    0    0 -0.17039425963E+04 -0.82059023446E+03  0.72755836177E+03  0.20283724510E+04  0.90359979046E+02 0.  0.
         13    1    3    3    0    0 -0.77017770391E+03 -0.37384973008E+03  0.37752453970E+03  0.93566131391E+03  0.00000000000E+00 0.  1.
        -13    1    3    3    0    0 -0.93376489243E+03 -0.44674050438E+03  0.35003382207E+03  0.10927111371E+04  0.00000000000E+00 0. -1.
         22    1    1    2    0    0  0.17039425963E+04  0.82059023446E+03 -0.10287529211E+04  0.21529331799E+04  0.00000000000E+00 0. -1.
<mgrwt>
<rscale>  0 0.41704435E+04</rscale>
<asrwt>0</asrwt>
<pdfrwt beam="1">  1        1 0.34480771E+00 0.41704435E+04</pdfrwt>
<pdfrwt beam="2">  1       -1 0.29847008E+00 0.41704435E+04</pdfrwt>
<totfact> 0.53247704E-02</totfact>
</mgrwt>
</event>
<event>
 6    1  0.1528034E-005  0.3086225E+03  0.7818608E-02  0.1081008E+00
          1   -1    0    0  501    0  0.00000000000E+00  0.00000000000E+00  0.22432629441E+02  0.22432629441E+02  0.00000000000E+00 0.  1.
         -1   -1    0    0    0  501 -0.00000000000E+00 -0.00000000000E+00 -0.10614874998E+04  0.10614874998E+04  0.00000000000E+00 0. -1.
         23    2    1    2    0    0  0.81421822861E+02 -0.25306762257E+02 -0.95979866631E+03  0.96750925633E+03  0.87124828687E+02 0.  0.
         13    1    3    3    0    0  0.50802672759E+02  0.24508069457E+02 -0.31038978877E+03  0.31547326035E+03  0.00000000000E+00 0. -1.
        -13    1    3    3    0    0  0.30619150101E+02 -0.49814831714E+02 -0.64940887755E+03  0.65203599597E+03  0.00000000000E+00 0.  1.
         22    1    1    2    0    0 -0.81421822861E+02  0.25306762257E+02 -0.79256204070E+02  0.11641087294E+03  0.00000000000E+00 0.  1.
<mgrwt>
<rscale>  0 0.30862246E+03</rscale>
<asrwt>0</asrwt>
<pdfrwt beam="1">  1        1 0.34511735E-02 0.30862246E+03</pdfrwt>
<pdfrwt beam="2">  1       -1 0.16330578E+00 0.30862246E+03</pdfrwt>
<totfact> 0.84291494E+02</totfact>
</mgrwt>
</event>
<event>
 6    1  0.1528034E-005  0.2130310E+04  0.7818608E-02  0.8548008E-01
          1   -1    0    0  501    0  0.00000000000E+00  0.00000000000E+00  0.11175129617E+04  0.11175129617E+04  0.00000000000E+00 0. -1.
         -1   -1    0    0    0  501 -0.00000000000E+00 -0.00000000000E+00 -0.10152498310E+04  0.10152498310E+04  0.00000000000E+00 0.  1.
         23    2    1    2    0    0 -0.22996153252E+03  0.40582494262E+03 -0.90521856034E+03  0.10225395953E+04  0.92684364710E+02 0.  0.
         11    1    3    3    0    0 -0.10254181700E+03  0.10815086791E+03 -0.33817135533E+03  0.36955554391E+03  0.00000000000E+00 0. -1.
        -11    1    3    3    0    0 -0.12741971551E+03  0.29767407470E+03 -0.56704720500E+03  0.65298405138E+03  0.00000000000E+00 0.  1.
         22    1    1    2    0    0  0.22996153252E+03 -0.40582494262E+03  0.10074816910E+04  0.11102231974E+04  0.00000000000E+00 0. -1.
<mgrwt>
<rscale>  0 0.21303097E+04</rscale>
<asrwt>0</asrwt>
<pdfrwt beam="1">  1        1 0.17192507E+00 0.21303097E+04</pdfrwt>
<pdfrwt beam="2">  1       -1 0.15619228E+00 0.21303097E+04</pdfrwt>
<totfact> 0.35255594E+00</totfact>
</mgrwt>
</event>
<event>
 6    1  0.2686453E-005  0.3395646E+04  0.7818608E-02  0.8138976E-01
         -2   -1    0    0    0  501 -0.00000000000E+00  0.00000000000E+00  0.14395429222E+04  0.14395429222E+04  0.00000000000E+00 0.  1.
          2   -1    0    0  501    0  0.00000000000E+00 -0.00000000000E+00 -0.20024431025E+04  0.20024431025E+04  0.00000000000E+00 0. -1.
         23    2    1    2    0    0 -0.11962958930E+04  0.26503583244E+03 -0.14711809380E+04  0.19167510294E+04  0.90516851670E+02 0.  0.
         11    1    3    3    0    0 -0.58617514307E+03  0.95758445303E+02 -0.66437314681E+03  0.89115804233E+03  0.00000000000E+00 0.  1.
        -11    1    3    3    0    0 -0.61012074992E+03  0.16927738714E+03 -0.80680779118E+03  0.10255929871E+04  0.00000000000E+00 0. -1.
         22    1    1    2    0    0  0.11962958930E+04 -0.26503583244E+03  0.90828075768E+03  0.15252349953E+04  0.00000000000E+00 0.  1.
<mgrwt>
<rscale>  0 0.33956459E+04</rscale>
<asrwt>0</asrwt>
<pdfrwt beam="1">  1        2 0.30806817E+00 0.33956459E+04</pdfrwt>
<pdfrwt beam="2">  1       -2 0.22146814E+00 0.33956459E+04</pdfrwt>
<totfact> 0.53401524E-01</totfact>
</mgrwt>
</event>
<event>
 6    1  0.1528034E-005  0.7014227E+03  0.7818608E-02  0.9714802E-01
          2   -1    0    0  501    0  0.00000000000E+00  0.00000000000E+00  0.15502112115E+04  0.15502112115E+04  0.00000000000E+00 0. -1.
         -2   -1    0    0    0  501 -0.00000000000E+00 -0.00000000000E+00 -0.79343021630E+02  0.79343021630E+02  0.00000000000E+00 0.  1.
         23    2    1    2    0    0  0.87902285414E+02  0.13886602438E+03  0.14519646965E+04  0.14641216893E+04  0.91870869227E+02 0.  0.
         13    1    3    3    0    0 -0.13443437893E+02  0.35163129235E+02  0.47050384294E+03  0.47200745535E+03  0.00000000000E+00 0. -1.
        -13    1    3    3    0    0  0.10134572331E+03  0.10370289514E+03  0.98146085357E+03  0.99211423393E+03  0.00000000000E+00 0.  1.
         22    1    1    2    0    0 -0.87902285414E+02 -0.13886602438E+03  0.18903493378E+02  0.16543254386E+03  0.00000000000E+00 0.  1.
<mgrwt>
<rscale>  0 0.70142267E+03</rscale>
<asrwt>0</asrwt>
<pdfrwt beam="1">  1        2 0.23849401E+00 0.70142267E+03</pdfrwt>
<pdfrwt beam="2">  1       -2 0.12206620E-01 0.70142267E+03</pdfrwt>
<totfact> 0.59777276E+02</totfact>
</mgrwt>
</event>
<event>
 6    1  0.1528034E-005  0.7525041E+03  0.7818608E-02  0.9631430E-01
         -2   -1    0    0    0  501 -0.00000000000E+00  0.00000000000E+00  0.62461656644E+03  0.62461656644E+03  0.00000000000E+00 0.  1.
          2   -1    0    0  501    0  0.00000000000E+00 -0.00000000000E+00 -0.22664402872E+03  0.22664402872E+03  0.00000000000E+00 0. -1.
         23    2    1    2    0    0 -0.19784364816E+03 -0.28704331021E+03  0.59440707523E+02  0.36531844725E+03  0.91588204138E+02 0.  0.
         11    1    3    3    0    0 -0.16939333263E+03 -0.17439993370E+03  0.26537130330E+02  0.24456830804E+03  0.00000000000E+00 0.  1.
        -11    1    3    3    0    0 -0.28450315525E+02 -0.11264337652E+03  0.32903577193E+02  0.12075013921E+03  0.00000000000E+00 0. -1.
         22    1    1    2    0    0  0.19784364816E+03  0.28704331021E+03  0.33853183020E+03  0.48594214790E+03  0.00000000000E+00 0.  1.
<mgrwt>
<rscale>  0 0.75250413E+03</rscale>
<asrwt>0</asrwt>
<pdfrwt beam="1">  1        2 0.34868312E-01 0.75250413E+03</pdfrwt>
<pdfrwt beam="2">  1       -2 0.96094856E-01 0.75250413E+03</pdfrwt>
<totfact> 0.13749102E+02</totfact>
</mgrwt>
</event>
<event>
 6    1  0.1528034E-005  0.2183555E+04  0.7818608E-02  0.8525304E-01
          2   -1    0    0  501    0  0.00000000000E+00  0.00000000000E+00  0.22797992702E+04  0.22797992702E+04  0.00000000000E+00 0. -1.
         -2   -1    0    0    0  501 -0.00000000000E+00 -0.00000000000E+00 -0.52284334847E+03  0.52284334847E+03  0.00000000000E+00 0.  1.
         23    2    1    2    0    0  0.39144850442E+03  0.37741515975E+03 -0.33227238406E+03  0.64381213711E+03  0.91733288758E+02 0.  0.
         11    1    3    3    0    0  0.23064216098E+03  0.21783065977E+03 -0.24576376786E+03  0.40130516113E+03  0.00000000000E+00 0.  1.
        -11    1    3    3    0    0  0.16080634344E+03  0.15958449998E+03 -0.86508616197E+02  0.24250697598E+03  0.00000000000E+00 0. -1.
         22    1    1    2    0    0 -0.39144850442E+03 -0.37741515975E+03  0.20892283058E+04  0.21588304816E+04  0.00000000000E+00 0. -1.
<mgrwt>
<rscale>  0 0.21835548E+04</rscale>
<asrwt>0</asrwt>
<pdfrwt beam="1">  1        2 0.35073834E+00 0.21835548E+04</pdfrwt>
<pdfrwt beam="2">  1       -2 0.80437440E-01 0.21835548E+04</pdfrwt>
<totfact> 0.58168429E+00</totfact>
</mgrwt>
</event>
<event>
 6    1  0.1528034E-005  0.1673803E+04  0.7818608E-02  0.8776448E-01
         -2   -1    0    0    0  501 -0.00000000000E+00  0.00000000000E+00  0.34148434656E+03  0.34148434656E+03  0.00000000000E+00 0.  1.
          2   -1    0    0  501    0  0.00000000000E+00 -0.00000000000E+00 -0.20510575326E+04  0.20510575326E+04  0.00000000000E+00 0. -1.
         23    2    1    2    0    0  0.49225563510E+02 -0.75016417603E+03 -0.13749905201E+04  0.15696718970E+04  0.90008260807E+02 0.  0.
         13    1    3    3    0    0 -0.21033845853E+02 -0.32005602908E+03 -0.55244996657E+03  0.63881080922E+03  0.00000000000E+00 0. -1.
        -13    1    3    3    0    0  0.70259409363E+02 -0.43010814695E+03 -0.82254055349E+03  0.93086108782E+03  0.00000000000E+00 0.  1.
         22    1    1    2    0    0 -0.49225563510E+02  0.75016417603E+03 -0.33458266599E+03  0.82286998212E+03  0.00000000000E+00 0.  1.
<mgrwt>
<rscale>  0 0.16738029E+04</rscale>
<asrwt>0</asrwt>
<pdfrwt beam="1">  1        2 0.31554731E+00 0.16738029E+04</pdfrwt>
<pdfrwt beam="2">  1       -2 0.52536053E-01 0.16738029E+04</pdfrwt>
<totfact> 0.20402743E+01</totfact>
</mgrwt>
</event>
<event>
 6    1  0.1528034E-005  0.1036903E+04  0.7818608E-02  0.9268972E-01
          2   -1    0    0  501    0  0.00000000000E+00  0.00000000000E+00  0.22340562880E+04  0.22340562880E+04  0.00000000000E+00 0. -1.
         -2   -1    0    0    0  501 -0.00000000000E+00 -0.00000000000E+00 -0.12031555097E+03  0.12031555097E+03  0.00000000000E+00 0.  1.
         23    2    1    2    0    0 -0.43570305993E+03  0.25748405870E+03  0.85580483974E+03  0.99844487979E+03  0.91406002740E+02 0.  0.
         11    1    3    3    0    0 -0.15771584582E+03  0.11164726878E+03  0.40942451015E+03  0.45273372987E+03  0.00000000000E+00 0.  1.
        -11    1    3    3    0    0 -0.27798721411E+03  0.14583678992E+03  0.44638032958E+03  0.54571114991E+03  0.00000000000E+00 0. -1.
         22    1    1    2    0    0  0.43570305993E+03 -0.25748405870E+03  0.12579358973E+04  0.13559269591E+04  0.00000000000E+00 0. -1.
<mgrwt>
<rscale>  0 0.10369025E+04</rscale>
<asrwt>0</asrwt>
<pdfrwt beam="1">  1        2 0.34370094E+00 0.10369025E+04</pdfrwt>
<pdfrwt beam="2">  1       -2 0.18510086E-01 0.10369025E+04</pdfrwt>
<totfact> 0.12124154E+02</totfact>
</mgrwt>
</event>
<event>
 6    1  0.1528034E-005  0.7406876E+03  0.7818608E-02  0.9650074E-01
          2   -1    0    0  501    0  0.00000000000E+00  0.00000000000E+00  0.38004681860E+04  0.38004681860E+04  0.00000000000E+00 0. -1.
         -2   -1    0    0    0  501 -0.00000000000E+00 -0.00000000000E+00 -0.36088846237E+02  0.36088846237E+02  0.00000000000E+00 0.  1.
         23    2    1    2    0    0 -0.11980428406E+03  0.71869084130E+02  0.36561463550E+04  0.36598295281E+04  0.86184533940E+02 0.  0.
         11    1    3    3    0    0 -0.37588126160E+02  0.68115206535E+02  0.21830995817E+04  0.21844853701E+04  0.00000000000E+00 0. -1.
        -11    1    3    3    0    0 -0.82216157905E+02  0.37538775954E+01  0.14730467733E+04  0.14753441580E+04  0.00000000000E+00 0.  1.
         22    1    1    2    0    0  0.11980428406E+03 -0.71869084130E+02  0.10823298482E+03  0.17672750419E+03  0.00000000000E+00 0.  1.
<mgrwt>
<rscale>  0 0.74068755E+03</rscale>
<asrwt>0</asrwt>
<pdfrwt beam="1">  1        2 0.58468710E+00 0.74068755E+03</pdfrwt>
<pdfrwt beam="2">  1       -2 0.55521332E-02 0.74068755E+03</pdfrwt>
<totfact> 0.93998721E+01</totfact>
</mgrwt>
</event>
<event>
 6    1  0.1528034E-005  0.3513469E+04  0.7818608E-02  0.8110605E-01
          2   -1    0    0  501    0  0.00000000000E+00  0.00000000000E+00  0.30458954938E+04  0.30458954938E+04  0.00000000000E+00 0. -1.
         -2   -1    0    0    0  501 -0.00000000000E+00 -0.00000000000E+00 -0.10132049821E+04  0.10132049821E+04  0.00000000000E+00 0.  1.
         23    2    1    2    0    0 -0.65540391669E+03 -0.15406251447E+04  0.16273454448E+04  0.23364906089E+04  0.88628653265E+02 0.  0.
         11    1    3    3    0    0 -0.41040343194E+03 -0.10447281048E+04  0.10514949202E+04  0.15380277491E+04  0.00000000000E+00 0.  1.
        -11    1    3    3    0    0 -0.24500048476E+03 -0.49589703996E+03  0.57585052467E+03  0.79846285983E+03  0.00000000000E+00 0. -1.
         22    1    1    2    0    0  0.65540391669E+03  0.15406251447E+04  0.40534506691E+03  0.17226098670E+04  0.00000000000E+00 0.  1.
<mgrwt>
<rscale>  0 0.35134692E+04</rscale>
<asrwt>0</asrwt>
<pdfrwt beam="1">  1        2 0.46859930E+00 0.35134692E+04</pdfrwt>
<pdfrwt beam="2">  1       -2 0.15587769E+00 0.35134692E+04</pdfrwt>
<totfact> 0.36123595E-01</totfact>
</mgrwt>
</event>
<event>
 6    1  0.1528034E-005  0.3562645E+04  0.7818608E-02  0.8099102E-01
         -2   -1    0    0    0  501 -0.00000000000E+00  0.00000000000E+00  0.13634457019E+04  0.13634457019E+04  0.00000000000E+00 0.  1.
          2   -1    0    0  501    0  0.00000000000E+00 -0.00000000000E+00 -0.23272729873E+04  0.23272729873E+04  0.00000000000E+00 0. -1.
         23    2    1    2    0    0 -0.45385371141E+03 -0.69759381052E+03  0.11480022106E+04  0.14208191021E+04  0.90540209054E+02 0.  0.
         13    1    3    3    0    0 -0.20163270915E+03 -0.29971723791E+03  0.42353078736E+03  0.55665474034E+03  0.00000000000E+00 0. -1.
        -13    1    3    3    0    0 -0.25222100226E+03 -0.39787657261E+03  0.72447142323E+03  0.86416436173E+03  0.00000000000E+00 0.  1.
         22    1    1    2    0    0  0.45385371141E+03  0.69759381052E+03 -0.21118294959E+04  0.22698995871E+04  0.00000000000E+00 0. -1.
<mgrwt>
<rscale>  0 0.35626453E+04</rscale>
<asrwt>0</asrwt>
<pdfrwt beam="1">  1        2 0.35804200E+00 0.35626453E+04</pdfrwt>
<pdfrwt beam="2">  1       -2 0.20976088E+00 0.35626453E+04</pdfrwt>
<totfact> 0.41097851E-01</totfact>
</mgrwt>
</event>
<event>
 6    1  0.1528034E-005  0.1817624E+04  0.7818608E-02  0.8696983E-01
          2   -1    0    0  501    0  0.00000000000E+00  0.00000000000E+00  0.14719099886E+04  0.14719099886E+04  0.00000000000E+00 0. -1.
         -2   -1    0    0    0  501 -0.00000000000E+00 -0.00000000000E+00 -0.56113465210E+03  0.56113465210E+03  0.00000000000E+00 0.  1.
         23    2    1    2    0    0 -0.23454416961E+03  0.83849702718E+03  0.17428713215E+03  0.89264860981E+03  0.91418291826E+02 0.  0.
         11    1    3    3    0    0 -0.22698415806E+03  0.68392639885E+03  0.14872331469E+03  0.73579599848E+03  0.00000000000E+00 0.  1.
        -11    1    3    3    0    0 -0.75600115476E+01  0.15457062834E+03  0.25563817455E+02  0.15685261133E+03  0.00000000000E+00 0. -1.
         22    1    1    2    0    0  0.23454416961E+03 -0.83849702718E+03  0.73648820431E+03  0.11403960309E+04  0.00000000000E+00 0. -1.
<mgrwt>
<rscale>  0 0.18176245E+04</rscale>
<asrwt>0</asrwt>
<pdfrwt beam="1">  1        2 0.22644769E+00 0.18176245E+04</pdfrwt>
<pdfrwt beam="2">  1       -2 0.86328409E-01 0.18176245E+04</pdfrwt>
<totfact> 0.14437149E+01</totfact>
</mgrwt>
</event>
<event>
 6    1  0.1528034E-005  0.1256686E+04  0.7818608E-02  0.9064637E-01
         -1   -1    0    0    0  501 -0.00000000000E+00  0.00000000000E+00  0.14736736072E+03  0.14736736072E+03  0.00000000000E+00 0.  1.
          1   -1    0    0  501    0  0.00000000000E+00 -0.00000000000E+00 -0.26791199774E+04  0.26791199774E+04  0.00000000000E+00 0. -1.
         23    2    1    2    0    0  0.47512779653E+03  0.22966744897E+03 -0.20259248420E+04  0.20954912384E+04  0.90655968800E+02 0.  0.
         11    1    3    3    0    0  0.11358944130E+03  0.66556106595E+02 -0.36987140769E+03  0.39260302435E+03  0.00000000000E+00 0.  1.
        -11    1    3    3    0    0  0.36153835523E+03  0.16311134238E+03 -0.16560534343E+04  0.17028882141E+04  0.00000000000E+00 0. -1.
         22    1    1    2    0    0 -0.47512779653E+03 -0.22966744897E+03 -0.50582777469E+03  0.73099609972E+03  0.00000000000E+00 0.  1.
<mgrwt>
<rscale>  0 0.12566859E+04</rscale>
<asrwt>0</asrwt>
<pdfrwt beam="1">  1        1 0.41217230E+00 0.12566859E+04</pdfrwt>
<pdfrwt beam="2">  1       -1 0.22671902E-01 0.12566859E+04</pdfrwt>
<totfact> 0.16684029E+01</totfact>
</mgrwt>
</event>
<event>
 6    1  0.1528034E-005  0.6500115E+03  0.7818608E-02  0.9806758E-01
          2   -1    0    0  501    0  0.00000000000E+00  0.00000000000E+00  0.92762512895E+03  0.92762512895E+03  0.00000000000E+00 0. -1.
         -2   -1    0    0    0  501 -0.00000000000E+00 -0.00000000000E+00 -0.11387008289E+03  0.11387008289E+03  0.00000000000E+00 0.  1.
         23    2    1    2    0    0 -0.29545488106E+03 -0.10283779201E+03  0.32495661742E+03  0.46115642970E+03  0.95912727204E+02 0.  0.
         11    1    3    3    0    0 -0.18580036430E+03 -0.40987716580E+02  0.13510715468E+03  0.23335747584E+03  0.00000000000E+00 0.  1.
        -11    1    3    3    0    0 -0.10965451676E+03 -0.61850075426E+02  0.18984946274E+03  0.22779895386E+03  0.00000000000E+00 0. -1.
         22    1    1    2    0    0  0.29545488106E+03  0.10283779201E+03  0.48879842864E+03  0.58033878214E+03  0.00000000000E+00 0.  1.
<mgrwt>
<rscale>  0 0.65001154E+03</rscale>
<asrwt>0</asrwt>
<pdfrwt beam="1">  1        2 0.14271155E+00 0.65001154E+03</pdfrwt>
<pdfrwt beam="2">  1       -2 0.17518475E-01 0.65001154E+03</pdfrwt>
<totfact> 0.76014684E+02</totfact>
</mgrwt>
</event>
<event>
 6    1  0.1528034E-005  0.2104147E+04  0.7818608E-02  0.8559419E-01
          3   -1    0    0  501    0  0.00000000000E+00  0.00000000000E+00  0.50707497771E+03  0.50707497771E+03  0.00000000000E+00 0. -1.
         -3   -1    0    0    0  501 -0.00000000000E+00 -0.00000000000E+00 -0.21828299095E+04  0.21828299095E+04  0.00000000000E+00 0.  1.
         23    2    1    2    0    0 -0.58196845871E+03  0.63642594174E+03 -0.16054180697E+04  0.18246462320E+04  0.90782307193E+02 0.  0.
         13    1    3    3    0    0 -0.32485349988E+03  0.37996991703E+03 -0.10162417166E+04  0.11325432269E+04  0.00000000000E+00 0. -1.
        -13    1    3    3    0    0 -0.25711495883E+03  0.25645602471E+03 -0.58917635305E+03  0.69210300509E+03  0.00000000000E+00 0.  1.
         22    1    1    2    0    0  0.58196845871E+03 -0.63642594174E+03 -0.70336862129E+02  0.86525865521E+03  0.00000000000E+00 0. -1.
<mgrwt>
<rscale>  0 0.21041468E+04</rscale>
<asrwt>0</asrwt>
<pdfrwt beam="1">  1        3 0.78011537E-01 0.21041468E+04</pdfrwt>
<pdfrwt beam="2">  1       -3 0.33581998E+00 0.21041468E+04</pdfrwt>
<totfact> 0.88941284E-02</totfact>
</mgrwt>
</event>
<event>
 6    1  0.1528034E-005  0.2446643E+04  0.7818608E-02  0.8422245E-01
          2   -1    0    0  501    0  0.00000000000E+00  0.00000000000E+00  0.48754559021E+03  0.48754559021E+03  0.00000000000E+00 0. -1.
         -2   -1    0    0    0  501 -0.00000000000E+00 -0.00000000000E+00 -0.30694880872E+04  0.30694880872E+04  0.00000000000E+00 0.  1.
         23    2    1    2    0    0 -0.72760170845E+03 -0.42193596295E+03 -0.25808610044E+04  0.27159419032E+04  0.89792508753E+02 0.  0.
         13    1    3    3    0    0 -0.10764485542E+03 -0.10116506242E+03 -0.46857005708E+03  0.49130406384E+03  0.00000000000E+00 0.  1.
        -13    1    3    3    0    0 -0.61995685303E+03 -0.32077090053E+03 -0.21122909473E+04  0.22246378394E+04  0.00000000000E+00 0. -1.
         22    1    1    2    0    0  0.72760170845E+03  0.42193596295E+03 -0.10814925714E+01  0.84109177418E+03  0.00000000000E+00 0. -1.
<mgrwt>
<rscale>  0 0.24466429E+04</rscale>
<asrwt>0</asrwt>
<pdfrwt beam="1">  1        2 0.75007015E-01 0.24466429E+04</pdfrwt>
<pdfrwt beam="2">  1       -2 0.47222893E+00 0.24466429E+04</pdfrwt>
<totfact> 0.14059315E-01</totfact>
</mgrwt>
</event>
<event>
 6    1  0.1528034E-005  0.4051668E+04  0.7818608E-02  0.7994204E-01
          1   -1    0    0  501    0  0.00000000000E+00  0.00000000000E+00  0.46250361466E+04  0.46250361466E+04  0.00000000000E+00 0. -1.
         -1   -1    0    0    0  501 -0.00000000000E+00 -0.00000000000E+00 -0.88734517386E+03  0.88734517386E+03  0.00000000000E+00 0.  1.
         23    2    1    2    0    0  0.76453022743E+03 -0.33409733818E+03  0.43798405492E+04  0.44595358529E+04  0.91264924305E+02 0.  0.
         11    1    3    3    0    0  0.39065411561E+03 -0.13794922316E+03  0.19867791837E+04  0.20295152503E+04  0.00000000000E+00 0.  1.
        -11    1    3    3    0    0  0.37387611183E+03 -0.19614811501E+03  0.23930613655E+04  0.24300206026E+04  0.00000000000E+00 0. -1.
         22    1    1    2    0    0 -0.76453022743E+03  0.33409733818E+03 -0.64214957649E+03  0.10528454676E+04  0.00000000000E+00 0.  1.
<mgrwt>
<rscale>  0 0.40516681E+04</rscale>
<asrwt>0</asrwt>
<pdfrwt beam="1">  1        1 0.71154401E+00 0.40516681E+04</pdfrwt>
<pdfrwt beam="2">  1       -1 0.13651465E+00 0.40516681E+04</pdfrwt>
<totfact> 0.82427163E-03</totfact>
</mgrwt>
</event>
<event>
 6    1  0.1528034E-005  0.1890392E+04  0.7818608E-02  0.8659654E-01
         -1   -1    0    0    0  501 -0.00000000000E+00  0.00000000000E+00  0.55502816904E+03  0.55502816904E+03  0.00000000000E+00 0.  1.
          1   -1    0    0  501    0  0.00000000000E+00 -0.00000000000E+00 -0.16096405323E+04  0.16096405323E+04  0.00000000000E+00 0. -1.
         23    2    1    2    0    0 -0.56797529037E+03  0.40294556962E+03  0.19909726917E+03  0.73053171172E+03  0.95266975874E+02 0.  0.
         11    1    3    3    0    0 -0.41843130480E+03  0.30687429222E+03  0.10499971918E+03  0.52941621536E+03  0.00000000000E+00 0. -1.
        -11    1    3    3    0    0 -0.14954398558E+03  0.96071277395E+02  0.94097549984E+02  0.20111549636E+03  0.00000000000E+00 0.  1.
         22    1    1    2    0    0  0.56797529037E+03 -0.40294556962E+03 -0.12537096325E+04  0.14341369896E+04  0.00000000000E+00 0. -1.
<mgrwt>
<rscale>  0 0.18903924E+04</rscale>
<asrwt>0</asrwt>
<pdfrwt beam="1">  1        1 0.24763700E+00 0.18903924E+04</pdfrwt>
<pdfrwt beam="2">  1       -1 0.85388951E-01 0.18903924E+04</pdfrwt>
<totfact> 0.69752792E+00</totfact>
</mgrwt>
</event>
<event>
 6    1  0.1528034E-005  0.1808431E+04  0.7818608E-02  0.8701829E-01
         -2   -1    0    0    0  501 -0.00000000000E+00  0.00000000000E+00  0.60506403715E+03  0.60506403715E+03  0.00000000000E+00 0.  1.
          2   -1    0    0  501    0  0.00000000000E+00 -0.00000000000E+00 -0.13512719474E+04  0.13512719474E+04  0.00000000000E+00 0. -1.
         23    2    1    2    0    0 -0.47409341201E+03 -0.24310076394E+03  0.41276314847E+03  0.68076691167E+03  0.95956378403E+02 0.  0.
         13    1    3    3    0    0 -0.25741508892E+03 -0.14531666835E+03  0.28622409442E+03  0.41146530149E+03  0.00000000000E+00 0.  1.
        -13    1    3    3    0    0 -0.21667832309E+03 -0.97784095586E+02  0.12653905405E+03  0.26930161018E+03  0.00000000000E+00 0. -1.
         22    1    1    2    0    0  0.47409341201E+03  0.24310076394E+03 -0.11589710587E+04  0.12755690729E+04  0.00000000000E+00 0. -1.
<mgrwt>
<rscale>  0 0.18084314E+04</rscale>
<asrwt>0</asrwt>
<pdfrwt beam="1">  1        2 0.20788799E+00 0.18084314E+04</pdfrwt>
<pdfrwt beam="2">  1       -2 0.93086775E-01 0.18084314E+04</pdfrwt>
<totfact> 0.14234060E+01</totfact>
</mgrwt>
</event>
<event>
 6    1  0.1528034E-005  0.2569251E+04  0.7818608E-02  0.8378721E-01
         -2   -1    0    0    0  501 -0.00000000000E+00  0.00000000000E+00  0.18114780872E+04  0.18114780872E+04  0.00000000000E+00 0.  1.
          2   -1    0    0  501    0  0.00000000000E+00 -0.00000000000E+00 -0.91100363500E+03  0.91100363500E+03  0.00000000000E+00 0. -1.
         23    2    1    2    0    0 -0.31666426142E+03  0.79381232722E+03  0.14647528501E+04  0.16983604522E+04  0.92266182172E+02 0.  0.
         13    1    3    3    0    0 -0.15307348984E+03  0.26716396287E+03  0.50614550332E+03  0.59244522690E+03  0.00000000000E+00 0.  1.
        -13    1    3    3    0    0 -0.16359077158E+03  0.52664836435E+03  0.95860734675E+03  0.11059152253E+04  0.00000000000E+00 0. -1.
         22    1    1    2    0    0  0.31666426142E+03 -0.79381232722E+03 -0.56427839791E+03  0.10241212700E+04  0.00000000000E+00 0. -1.
<mgrwt>
<rscale>  0 0.25692513E+04</rscale>
<asrwt>0</asrwt>
<pdfrwt beam="1">  1        2 0.14015441E+00 0.25692513E+04</pdfrwt>
<pdfrwt beam="2">  1       -2 0.27868893E+00 0.25692513E+04</pdfrwt>
<totfact> 0.10964525E+00</totfact>
</mgrwt>
</event>
<event>
 6    1  0.1528034E-005  0.4696238E+03  0.7818608E-02  0.1022026E+00
         -2   -1    0    0    0  501 -0.00000000000E+00  0.00000000000E+00  0.14156551722E+03  0.14156551722E+03  0.00000000000E+00 0.  1.
          2   -1    0    0  501    0  0.00000000000E+00 -0.00000000000E+00 -0.38947781152E+03  0.38947781152E+03  0.00000000000E+00 0. -1.
         23    2    1    2    0    0 -0.14342467776E+03 -0.23026951659E+02 -0.32433697192E+03  0.36690433264E+03  0.91232884777E+02 0.  0.
         11    1    3    3    0    0 -0.10220725858E+03  0.59686007422E+01 -0.12644730384E+03  0.16269870482E+03  0.00000000000E+00 0. -1.
        -11    1    3    3    0    0 -0.41217419179E+02 -0.28995552401E+02 -0.19788966808E+03  0.20420562782E+03  0.00000000000E+00 0.  1.
         22    1    1    2    0    0  0.14342467776E+03  0.23026951659E+02  0.76424677617E+02  0.16413899610E+03  0.00000000000E+00 0.  1.
<mgrwt>
<rscale>  0 0.46962380E+03</rscale>
<asrwt>0</asrwt>
<pdfrwt beam="1">  1        2 0.59919662E-01 0.46962380E+03</pdfrwt>
<pdfrwt beam="2">  1       -2 0.21779311E-01 0.46962380E+03</pdfrwt>
<totfact> 0.14997875E+03</totfact>
</mgrwt>
</event>
<event>
 6    1  0.1528034E-005  0.1655244E+04  0.7818608E-02  0.8787310E-01
         -2   -1    0    0    0  501 -0.00000000000E+00  0.00000000000E+00  0.56411991979E+03  0.56411991979E+03  0.00000000000E+00 0.  1.
          2   -1    0    0  501    0  0.00000000000E+00 -0.00000000000E+00 -0.12142073502E+04  0.12142073502E+04  0.00000000000E+00 0. -1.
         23    2    1    2    0    0  0.34538562759E+03  0.66463117378E+03 -0.69779373455E+03  0.10277929801E+04  0.91741403082E+02 0.  0.
         13    1    3    3    0    0  0.17096675722E+03  0.23857734917E+03 -0.24979299599E+03  0.38541578128E+03  0.00000000000E+00 0.  1.
        -13    1    3    3    0    0  0.17441887037E+03  0.42605382461E+03 -0.44800073856E+03  0.64237719881E+03  0.00000000000E+00 0. -1.
         22    1    1    2    0    0 -0.34538562759E+03 -0.66463117378E+03  0.47706304110E+02  0.75053428993E+03  0.00000000000E+00 0.  1.
<mgrwt>
<rscale>  0 0.16552445E+04</rscale>
<asrwt>0</asrwt>
<pdfrwt beam="1">  1        2 0.18680113E+00 0.16552445E+04</pdfrwt>
<pdfrwt beam="2">  1       -2 0.86787681E-01 0.16552445E+04</pdfrwt>
<totfact> 0.20380690E+01</totfact>
</mgrwt>
</event>
<event>
 6    1  0.1528034E-005  0.2747891E+04  0.7818608E-02  0.8319631E-01
          1   -1    0    0  501    0  0.00000000000E+00  0.00000000000E+00  0.11628461119E+04  0.11628461119E+04  0.00000000000E+00 0.  1.
         -1   -1    0    0    0  501 -0.00000000000E+00 -0.00000000000E+00 -0.16233677526E+04  0.16233677526E+04  0.00000000000E+00 0. -1.
         23    2    1    2    0    0 -0.75907024614E+02 -0.12922289390E+04  0.23191669032E+03  0.13181919473E+04  0.90703646241E+02 0.  0.
         13    1    3    3    0    0  0.61991162550E+01 -0.41780190046E+03  0.10457249891E+03  0.43073456397E+03  0.00000000000E+00 0.  1.
        -13    1    3    3    0    0 -0.82106140869E+02 -0.87442703856E+03  0.12734419140E+03  0.88745738332E+03  0.00000000000E+00 0. -1.
         22    1    1    2    0    0  0.75907024614E+02  0.12922289390E+04 -0.69243833101E+03  0.14680219172E+04  0.00000000000E+00 0. -1.
<mgrwt>
<rscale>  0 0.27478915E+04</rscale>
<asrwt>0</asrwt>
<pdfrwt beam="1">  1        1 0.17889940E+00 0.27478915E+04</pdfrwt>
<pdfrwt beam="2">  1       -1 0.24974888E+00 0.27478915E+04</pdfrwt>
<totfact> 0.69252526E-01</totfact>
</mgrwt>
</event>
<event>
 6    1  0.1528034E-005  0.5222749E+04  0.7818608E-02  0.7795036E-01
         -2   -1    0    0    0  501 -0.00000000000E+00  0.00000000000E+00  0.31257438580E+04  0.31257438580E+04  0.00000000000E+00 0.  1.
          2   -1    0    0  501    0  0.00000000000E+00 -0.00000000000E+00 -0.21816490692E+04  0.21816490692E+04  0.00000000000E+00 0. -1.
         23    2    1    2    0    0 -0.86526355014E+03 -0.23542931069E+02 -0.20306279707E+04  0.22092949983E+04  0.91099689634E+02 0.  0.
         11    1    3    3    0    0 -0.36452062799E+03  0.25645682558E+02 -0.92488928473E+03  0.99446125026E+03  0.00000000000E+00 0.  1.
        -11    1    3    3    0    0 -0.50074292215E+03 -0.49188613626E+02 -0.11057386859E+04  0.12148337480E+04  0.00000000000E+00 0. -1.
         22    1    1    2    0    0  0.86526355014E+03  0.23542931069E+02  0.29747227595E+04  0.30980979289E+04  0.00000000000E+00 0.  1.
<mgrwt>
<rscale>  0 0.52227488E+04</rscale>
<asrwt>0</asrwt>
<pdfrwt beam="1">  1        2 0.33563832E+00 0.52227488E+04</pdfrwt>
<pdfrwt beam="2">  1       -2 0.48088367E+00 0.52227488E+04</pdfrwt>
<totfact> 0.82934949E-03</totfact>
</mgrwt>
</event>
<event>
 6    1  0.1528034E-005  0.1979540E+04  0.7818608E-02  0.8616247E-01
         -2   -1    0    0    0  501 -0.00000000000E+00  0.00000000000E+00  0.22925178454E+04  0.22925178454E+04  0.00000000000E+00 0.  1.
          2   -1    0    0  501    0  0.00000000000E+00 -0.00000000000E+00 -0.42732260078E+03  0.42732260078E+03  0.00000000000E+00 0. -1.
         23    2    1    2    0    0 -0.64732419298E+03  0.73379167353E+03  0.74918932580E+03  0.12356072968E+04  0.89229563399E+02 0.  0.
         11    1    3    3    0    0 -0.31625020830E+03  0.29989709703E+03  0.35977150605E+03  0.56514422905E+03  0.00000000000E+00 0.  1.
        -11    1    3    3    0    0 -0.33107398469E+03  0.43389457650E+03  0.38941781975E+03  0.67046306773E+03  0.00000000000E+00 0. -1.
         22    1    1    2    0    0  0.64732419298E+03 -0.73379167353E+03  0.11160059189E+04  0.14842331494E+04  0.00000000000E+00 0. -1.
<mgrwt>
<rscale>  0 0.19795400E+04</rscale>
<asrwt>0</asrwt>
<pdfrwt beam="1">  1        2 0.65741940E-01 0.19795400E+04</pdfrwt>
<pdfrwt beam="2">  1       -2 0.35269505E+00 0.19795400E+04</pdfrwt>
<totfact> 0.10297850E+00</totfact>
</mgrwt>
</event>
<event>
 6    1  0.1528034E-005  0.1723013E+04  0.7818608E-02  0.8748347E-01
          2   -1    0    0  501    0  0.00000000000E+00  0.00000000000E+00  0.16795625817E+04  0.16795625817E+04  0.00000000000E+00 0. -1.
         -2   -1    0    0    0  501 -0.00000000000E+00 -0.00000000000E+00 -0.44189696601E+03  0.44189696601E+03  0.00000000000E+00 0.  1.
         23    2    1    2    0    0  0.41251950263E+03 -0.67383611159E+03  0.10360986801E+04  0.13060721092E+04  0.89980187880E+02 0.  0.
         11    1    3    3    0    0  0.17895584493E+03 -0.24760651546E+03  0.46187464642E+03  0.55377104470E+03  0.00000000000E+00 0. -1.
        -11    1    3    3    0    0  0.23356365769E+03 -0.42622959613E+03  0.57422403366E+03  0.75230106450E+03  0.00000000000E+00 0.  1.
         22    1    1    2    0    0 -0.41251950263E+03  0.67383611159E+03  0.20156693559E+03  0.81538743849E+03  0.00000000000E+00 0.  1.
<mgrwt>
<rscale>  0 0.17230132E+04</rscale>
<asrwt>0</asrwt>
<pdfrwt beam="1">  1        2 0.25839424E+00 0.17230132E+04</pdfrwt>
<pdfrwt beam="2">  1       -2 0.67984150E-01 0.17230132E+04</pdfrwt>
<totfact> 0.18942646E+01</totfact>
</mgrwt>
</event>
<event>
 6    1  0.1528034E-005  0.3590428E+04  0.7818608E-02  0.8092688E-01
          2   -1    0    0  501    0  0.00000000000E+00  0.00000000000E+00  0.24925677655E+04  0.24925677655E+04  0.00000000000E+00 0. -1.
         -2   -1    0    0    0  501 -0.00000000000E+00 -0.00000000000E+00 -0.12929610064E+04  0.12929610064E+04  0.00000000000E+00 0.  1.
         23    2    1    2    0    0 -0.10399907997E+04 -0.13726247702E+04  0.69898108612E+02  0.17259362737E+04  0.91053018202E+02 0.  0.
         11    1    3    3    0    0 -0.85327404921E+03 -0.11798929804E+04  0.53105002927E+02  0.14570669819E+04  0.00000000000E+00 0.  1.
        -11    1    3    3    0    0 -0.18671675048E+03 -0.19273178979E+03  0.16793105685E+02  0.26886929186E+03  0.00000000000E+00 0. -1.
         22    1    1    2    0    0  0.10399907997E+04  0.13726247702E+04  0.11297086505E+04  0.20595924981E+04  0.00000000000E+00 0. -1.
<mgrwt>
<rscale>  0 0.35904278E+04</rscale>
<asrwt>0</asrwt>
<pdfrwt beam="1">  1        2 0.38347196E+00 0.35904278E+04</pdfrwt>
<pdfrwt beam="2">  1       -2 0.19891708E+00 0.35904278E+04</pdfrwt>
<totfact> 0.38768836E-01</totfact>
</mgrwt>
</event>
<event>
 6    1  0.1528034E-005  0.2307650E+04  0.7818608E-02  0.8474911E-01
          2   -1    0    0  501    0  0.00000000000E+00  0.00000000000E+00  0.18115006472E+04  0.18115006472E+04  0.00000000000E+00 0. -1.
         -2   -1    0    0    0  501 -0.00000000000E+00 -0.00000000000E+00 -0.73492234999E+03  0.73492234999E+03  0.00000000000E+00 0.  1.
         23    2    1    2    0    0 -0.33175302718E+03  0.81425752478E+03  0.13603869641E+04  0.16225059300E+04  0.93794524971E+02 0.  0.
         13    1    3    3    0    0 -0.18877872032E+03  0.37410688652E+03  0.58687968841E+03  0.72112491044E+03  0.00000000000E+00 0.  1.
        -13    1    3    3    0    0 -0.14297430686E+03  0.44015063826E+03  0.77350727570E+03  0.90138101952E+03  0.00000000000E+00 0. -1.
         22    1    1    2    0    0  0.33175302718E+03 -0.81425752478E+03 -0.28380866690E+03  0.92391706723E+03  0.00000000000E+00 0.  1.
<mgrwt>
<rscale>  0 0.23076502E+04</rscale>
<asrwt>0</asrwt>
<pdfrwt beam="1">  1        2 0.27869241E+00 0.23076502E+04</pdfrwt>
<pdfrwt beam="2">  1       -2 0.11306498E+00 0.23076502E+04</pdfrwt>
<totfact> 0.47349276E+00</totfact>
</mgrwt>
</event>
<event>
 6    1  0.1528034E-005  0.1595824E+04  0.7818608E-02  0.8823117E-01
         -2   -1    0    0    0  501 -0.00000000000E+00  0.00000000000E+00  0.87309334903E+03  0.87309334903E+03  0.00000000000E+00 0.  1.
          2   -1    0    0  501    0  0.00000000000E+00 -0.00000000000E+00 -0.72920489701E+03  0.72920489701E+03  0.00000000000E+00 0. -1.
         23    2    1    2    0    0 -0.58495844783E+03 -0.45060215637E+03  0.36865800993E+03  0.83045626534E+03  0.92359034979E+02 0.  0.
         11    1    3    3    0    0 -0.56011030798E+03 -0.44108735688E+03  0.37109569401E+03  0.80373728769E+03  0.00000000000E+00 0. -1.
        -11    1    3    3    0    0 -0.24848139842E+02 -0.95147994915E+01 -0.24376840763E+01  0.26718977650E+02  0.00000000000E+00 0.  1.
         22    1    1    2    0    0  0.58495844783E+03  0.45060215637E+03 -0.22476955792E+03  0.77184198070E+03  0.00000000000E+00 0. -1.
<mgrwt>
<rscale>  0 0.15958245E+04</rscale>
<asrwt>0</asrwt>
<pdfrwt beam="1">  1        2 0.11218537E+00 0.15958245E+04</pdfrwt>
<pdfrwt beam="2">  1       -2 0.13432205E+00 0.15958245E+04</pdfrwt>
<totfact> 0.14902408E+01</totfact>
</mgrwt>
</event>
<event>
 6    1  0.1528034E-005  0.1836550E+04  0.7818608E-02  0.8687101E-01
         -1   -1    0    0    0  501 -0.00000000000E+00  0.00000000000E+00  0.11285714507E+04  0.11285714507E+04  0.00000000000E+00 0.  1.
          1   -1    0    0  501    0  0.00000000000E+00 -0.00000000000E+00 -0.74716491852E+03  0.74716491852E+03  0.00000000000E+00 0. -1.
         23    2    1    2    0    0 -0.11928715518E+03 -0.30090844115E+03  0.10663928455E+04  0.11181206587E+04  0.90690634488E+02 0.  0.
         13    1    3    3    0    0 -0.89574486681E+00 -0.46888258695E+02  0.26547376593E+03  0.26958418269E+03  0.00000000000E+00 0. -1.
        -13    1    3    3    0    0 -0.11839141031E+03 -0.25402018246E+03  0.80091907955E+03  0.84853647601E+03  0.00000000000E+00 0.  1.
         22    1    1    2    0    0  0.11928715518E+03  0.30090844115E+03 -0.68498631332E+03  0.75761571049E+03  0.00000000000E+00 0. -1.
<mgrwt>
<rscale>  0 0.18365500E+04</rscale>
<asrwt>0</asrwt>
<pdfrwt beam="1">  1        1 0.11494845E+00 0.18365500E+04</pdfrwt>
<pdfrwt beam="2">  1       -1 0.17362638E+00 0.18365500E+04</pdfrwt>
<totfact> 0.53642130E+00</totfact>
</mgrwt>
</event>
<event>
 6    1  0.1528034E-005  0.1586605E+04  0.7818608E-02  0.8828819E-01
         -2   -1    0    0    0  501 -0.00000000000E+00  0.00000000000E+00  0.44910218436E+03  0.44910218436E+03  0.00000000000E+00 0.  1.
          2   -1    0    0  501    0  0.00000000000E+00 -0.00000000000E+00 -0.14013049502E+04  0.14013049502E+04  0.00000000000E+00 0. -1.
         23    2    1    2    0    0  0.28089156896E+03  0.26400683197E+03 -0.12829221705E+04  0.13424947351E+04  0.88335368235E+02 0.  0.
         13    1    3    3    0    0  0.21279774864E+03  0.24248973366E+03 -0.10917020203E+04  0.11383749179E+04  0.00000000000E+00 0. -1.
        -13    1    3    3    0    0  0.68093820326E+02  0.21517098306E+02 -0.19122015028E+03  0.20411981716E+03  0.00000000000E+00 0.  1.
         22    1    1    2    0    0 -0.28089156896E+03 -0.26400683197E+03  0.33071940473E+03  0.50791239944E+03  0.00000000000E+00 0.  1.
<mgrwt>
<rscale>  0 0.15866053E+04</rscale>
<asrwt>0</asrwt>
<pdfrwt beam="1">  1        2 0.21558537E+00 0.15866053E+04</pdfrwt>
<pdfrwt beam="2">  1       -2 0.69092645E-01 0.15866053E+04</pdfrwt>
<totfact> 0.26520940E+01</totfact>
</mgrwt>
</event>
<event>
 6    1  0.1528034E-005  0.2314123E+04  0.7818608E-02  0.8472374E-01
          1   -1    0    0  501    0  0.00000000000E+00  0.00000000000E+00  0.10426195760E+04  0.10426195760E+04  0.00000000000E+00 0. -1.
         -1   -1    0    0    0  501 -0.00000000000E+00 -0.00000000000E+00 -0.12840644609E+04  0.12840644609E+04  0.00000000000E+00 0.  1.
         23    2    1    2    0    0 -0.80571533980E+03 -0.69945216086E+02  0.70841574078E+03  0.10791645981E+04  0.93133377104E+02 0.  0.
         11    1    3    3    0    0 -0.29499247060E+03  0.97813968496E+01  0.29458401170E+03  0.41700836129E+03  0.00000000000E+00 0.  1.
        -11    1    3    3    0    0 -0.51072286920E+03 -0.79726612936E+02  0.41383172908E+03  0.66215623680E+03  0.00000000000E+00 0. -1.
         22    1    1    2    0    0  0.80571533980E+03  0.69945216086E+02 -0.94986062570E+03  0.12475194388E+04  0.00000000000E+00 0. -1.
<mgrwt>
<rscale>  0 0.23141225E+04</rscale>
<asrwt>0</asrwt>
<pdfrwt beam="1">  1        1 0.16040301E+00 0.23141225E+04</pdfrwt>
<pdfrwt beam="2">  1       -1 0.19754838E+00 0.23141225E+04</pdfrwt>
<totfact> 0.19809845E+00</totfact>
</mgrwt>
</event>
<event>
 6    1  0.1528034E-005  0.2086833E+04  0.7818608E-02  0.8567066E-01
          1   -1    0    0  501    0  0.00000000000E+00  0.00000000000E+00  0.25346588307E+04  0.25346588307E+04  0.00000000000E+00 0. -1.
         -1   -1    0    0    0  501 -0.00000000000E+00 -0.00000000000E+00 -0.42953218486E+03  0.42953218486E+03  0.00000000000E+00 0.  1.
         23    2    1    2    0    0  0.52132580307E+03 -0.43599326062E+03  0.21754265618E+04  0.22809540182E+04  0.91650374864E+02 0.  0.
         13    1    3    3    0    0  0.33304955584E+03 -0.24621048994E+03  0.14431164305E+04  0.15013749179E+04  0.00000000000E+00 0.  1.
        -13    1    3    3    0    0  0.18827624723E+03 -0.18978277068E+03  0.73231013130E+03  0.77957910036E+03  0.00000000000E+00 0. -1.
         22    1    1    2    0    0 -0.52132580307E+03  0.43599326062E+03 -0.70299916009E+02  0.68323699728E+03  0.00000000000E+00 0.  1.
<mgrwt>
<rscale>  0 0.20868326E+04</rscale>
<asrwt>0</asrwt>
<pdfrwt beam="1">  1        1 0.38994750E+00 0.20868326E+04</pdfrwt>
<pdfrwt beam="2">  1       -1 0.66081876E-01 0.20868326E+04</pdfrwt>
<totfact> 0.27395322E+00</totfact>
</mgrwt>
</event>
<event>
 6    1  0.1528034E-005  0.2502768E+04  0.7818608E-02  0.8402000E-01
         -2   -1    0    0    0  501 -0.00000000000E+00  0.00000000000E+00  0.52917672224E+03  0.52917672224E+03  0.00000000000E+00 0.  1.
          2   -1    0    0  501    0  0.00000000000E+00 -0.00000000000E+00 -0.29592414738E+04  0.29592414738E+04  0.00000000000E+00 0. -1.
         23    2    1    2    0    0 -0.11003512145E+04 -0.33169700154E+03 -0.19010531451E+04  0.22232506278E+04  0.89691679824E+02 0.  0.
         13    1    3    3    0    0 -0.83947449229E+03 -0.28876610605E+03 -0.14336971010E+04  0.16862949518E+04  0.00000000000E+00 0.  1.
        -13    1    3    3    0    0 -0.26087672218E+03 -0.42930895493E+02 -0.46735604416E+03  0.53695567599E+03  0.00000000000E+00 0. -1.
         22    1    1    2    0    0  0.11003512145E+04  0.33169700154E+03 -0.52901160646E+03  0.12651675683E+04  0.00000000000E+00 0.  1.
<mgrwt>
<rscale>  0 0.25027678E+04</rscale>
<asrwt>0</asrwt>
<pdfrwt beam="1">  1        2 0.45526793E+00 0.25027678E+04</pdfrwt>
<pdfrwt beam="2">  1       -2 0.81411801E-01 0.25027678E+04</pdfrwt>
<totfact> 0.21879032E+00</totfact>
</mgrwt>
</event>
<event>
 6    1  0.1528034E-005  0.1760311E+04  0.7818608E-02  0.8727695E-01
          2   -1    0    0  501    0  0.00000000000E+00  0.00000000000E+00  0.13560328390E+04  0.13560328390E+04  0.00000000000E+00 0.  1.
         -2   -1    0    0    0  501 -0.00000000000E+00 -0.00000000000E+00 -0.57127967284E+03  0.57127967284E+03  0.00000000000E+00 0. -1.
         23    2    1    2    0    0  0.81800552528E+02 -0.69532557554E+03 -0.18630817653E+03  0.73017880267E+03  0.91001982613E+02 0.  0.
         13    1    3    3    0    0  0.33224544213E+02 -0.56048484203E+03 -0.16550168792E+03  0.58535283137E+03  0.00000000000E+00 0.  1.
        -13    1    3    3    0    0  0.48576008315E+02 -0.13484073350E+03 -0.20806488613E+02  0.14482597130E+03  0.00000000000E+00 0. -1.
         22    1    1    2    0    0 -0.81800552528E+02  0.69532557554E+03  0.97106134273E+03  0.11971337092E+04  0.00000000000E+00 0.  1.
<mgrwt>
<rscale>  0 0.17603113E+04</rscale>
<asrwt>0</asrwt>
<pdfrwt beam="1">  1        2 0.20862044E+00 0.17603113E+04</pdfrwt>
<pdfrwt beam="2">  1       -2 0.87889181E-01 0.17603113E+04</pdfrwt>
<totfact> 0.16215347E+01</totfact>
</mgrwt>
</event>
<event>
 6    1  0.1528034E-005  0.3115103E+04  0.7818608E-02  0.8211605E-01
          2   -1    0    0  501    0  0.00000000000E+00  0.00000000000E+00  0.33107042352E+04  0.33107042352E+04  0.00000000000E+00 0. -1.
         -2   -1    0    0    0  501 -0.00000000000E+00 -0.00000000000E+00 -0.73276459436E+03  0.73276459436E+03  0.00000000000E+00 0.  1.
         23    2    1    2    0    0 -0.55655107805E+03 -0.13064388271E+04  0.21164460388E+04  0.25503151683E+04  0.90730980877E+02 0.  0.
         11    1    3    3    0    0 -0.89615229296E+01 -0.44538503296E+01  0.99786849122E+01  0.14132226596E+02  0.00000000000E+00 0. -1.
        -11    1    3    3    0    0 -0.54758955512E+03 -0.13019849768E+04  0.21064673539E+04  0.25361829417E+04  0.00000000000E+00 0.  1.
         22    1    1    2    0    0  0.55655107805E+03  0.13064388271E+04  0.46149360207E+03  0.14931536613E+04  0.00000000000E+00 0.  1.
<mgrwt>
<rscale>  0 0.31151031E+04</rscale>
<asrwt>0</asrwt>
<pdfrwt beam="1">  1        2 0.50933910E+00 0.31151031E+04</pdfrwt>
<pdfrwt beam="2">  1       -2 0.11273302E+00 0.31151031E+04</pdfrwt>
<totfact> 0.57453692E-01</totfact>
</mgrwt>
</event>
<event>
 6    1  0.1528034E-005  0.1953232E+04  0.7818608E-02  0.8628804E-01
          2   -1    0    0  501    0  0.00000000000E+00  0.00000000000E+00  0.16299818477E+04  0.16299818477E+04  0.00000000000E+00 0. -1.
         -2   -1    0    0    0  501 -0.00000000000E+00 -0.00000000000E+00 -0.58514665323E+03  0.58514665323E+03  0.00000000000E+00 0.  1.
         23    2    1    2    0    0  0.85372940097E+03  0.46870331710E+03  0.55936046858E+03  0.11269086706E+04  0.92208072458E+02 0.  0.
         13    1    3    3    0    0  0.42468577050E+03  0.24787276234E+03  0.33328131844E+03  0.59403311962E+03  0.00000000000E+00 0. -1.
        -13    1    3    3    0    0  0.42904363047E+03  0.22083055476E+03  0.22607915014E+03  0.53287555103E+03  0.00000000000E+00 0.  1.
         22    1    1    2    0    0 -0.85372940097E+03 -0.46870331710E+03  0.48547472588E+03  0.10882198303E+04  0.00000000000E+00 0.  1.
<mgrwt>
<rscale>  0 0.19532316E+04</rscale>
<asrwt>0</asrwt>
<pdfrwt beam="1">  1        2 0.25076644E+00 0.19532316E+04</pdfrwt>
<pdfrwt beam="2">  1       -2 0.90022563E-01 0.19532316E+04</pdfrwt>
<totfact> 0.10568470E+01</totfact>
</mgrwt>
</event>
<event>
 6    1  0.1528034E-005  0.1910879E+04  0.7818608E-02  0.8649460E-01
         -1   -1    0    0    0  501 -0.00000000000E+00  0.00000000000E+00  0.16735389887E+04  0.16735389887E+04  0.00000000000E+00 0.  1.
          1   -1    0    0  501    0  0.00000000000E+00 -0.00000000000E+00 -0.54546947687E+03  0.54546947687E+03  0.00000000000E+00 0. -1.
         23    2    1    2    0    0  0.44209202893E+03 -0.37353056712E+03 -0.31436311593E+03  0.66479408774E+03  0.90313696786E+02 0.  0.
         13    1    3    3    0    0  0.15446270637E+03 -0.17076100428E+03 -0.16071004169E+03  0.28079488197E+03  0.00000000000E+00 0.  1.
        -13    1    3    3    0    0  0.28762932256E+03 -0.20276956284E+03 -0.15365307424E+03  0.38399920577E+03  0.00000000000E+00 0. -1.
         22    1    1    2    0    0 -0.44209202893E+03  0.37353056712E+03  0.14424326277E+04  0.15542143778E+04  0.00000000000E+00 0.  1.
<mgrwt>
<rscale>  0 0.19108788E+04</rscale>
<asrwt>0</asrwt>
<pdfrwt beam="1">  1        1 0.83918382E-01 0.19108788E+04</pdfrwt>
<pdfrwt beam="2">  1       -1 0.25746753E+00 0.19108788E+04</pdfrwt>
<totfact> 0.22866344E+00</totfact>
</mgrwt>
</event>
<event>
 6    1  0.1528034E-005  0.2335557E+04  0.7818608E-02  0.8464032E-01
          2   -1    0    0  501    0  0.00000000000E+00  0.00000000000E+00  0.22110204738E+04  0.22110204738E+04  0.00000000000E+00 0. -1.
         -2   -1    0    0    0  501 -0.00000000000E+00 -0.00000000000E+00 -0.61677693110E+03  0.61677693110E+03  0.00000000000E+00 0.  1.
         23    2    1    2    0    0 -0.16944693774E+03  0.11257327073E+04  0.11034007698E+04  0.15880744436E+04  0.92199709968E+02 0.  0.
         13    1    3    3    0    0 -0.14272428275E+03  0.10168688823E+04  0.95669461862E+03  0.14034447399E+04  0.00000000000E+00 0.  1.
        -13    1    3    3    0    0 -0.26722654991E+02  0.10886382508E+03  0.14670615117E+03  0.18462970371E+03  0.00000000000E+00 0. -1.
         22    1    1    2    0    0  0.16944693774E+03 -0.11257327073E+04  0.49084277287E+03  0.12397229613E+04  0.00000000000E+00 0.  1.
<mgrwt>
<rscale>  0 0.23355568E+04</rscale>
<asrwt>0</asrwt>
<pdfrwt beam="1">  1        2 0.34015699E+00 0.23355568E+04</pdfrwt>
<pdfrwt beam="2">  1       -2 0.94888759E-01 0.23355568E+04</pdfrwt>
<totfact> 0.43000923E+00</totfact>
</mgrwt>
</event>
<event>
 6    1  0.1528034E-005  0.4488052E+04  0.7818608E-02  0.7912732E-01
         -1   -1    0    0    0  501 -0.00000000000E+00  0.00000000000E+00  0.12627323076E+04  0.12627323076E+04  0.00000000000E+00 0.  1.
          1   -1    0    0  501    0  0.00000000000E+00 -0.00000000000E+00 -0.39879027683E+04  0.39879027683E+04  0.00000000000E+00 0. -1.
         23    2    1    2    0    0  0.11950576129E+04 -0.56953220223E+03  0.75534116087E+03  0.15268613481E+04  0.90750643846E+02 0.  0.
         13    1    3    3    0    0  0.83381485648E+03 -0.35524136145E+03  0.49497157616E+03  0.10326860612E+04  0.00000000000E+00 0. -1.
        -13    1    3    3    0    0  0.36124275643E+03 -0.21429084077E+03  0.26036958471E+03  0.49417528687E+03  0.00000000000E+00 0.  1.
         22    1    1    2    0    0 -0.11950576129E+04  0.56953220223E+03 -0.34805116216E+04  0.37237737278E+04  0.00000000000E+00 0. -1.
<mgrwt>
<rscale>  0 0.44880524E+04</rscale>
<asrwt>0</asrwt>
<pdfrwt beam="1">  1        1 0.61352350E+00 0.44880524E+04</pdfrwt>
<pdfrwt beam="2">  1       -1 0.19426651E+00 0.44880524E+04</pdfrwt>
<totfact> 0.12158444E-02</totfact>
</mgrwt>
</event>
<event>
 6    1  0.1528034E-005  0.3385814E+04  0.7818608E-02  0.8141397E-01
          2   -1    0    0  501    0  0.00000000000E+00  0.00000000000E+00  0.17543699101E+04  0.17543699101E+04  0.00000000000E+00 0.  1.
         -2   -1    0    0    0  501 -0.00000000000E+00 -0.00000000000E+00 -0.16335976281E+04  0.16335976281E+04  0.00000000000E+00 0. -1.
         23    2    1    2    0    0 -0.15380246509E+04 -0.37185544368E+03  0.65909320476E+03  0.17165652186E+04  0.91629685371E+02 0.  0.
         11    1    3    3    0    0 -0.46086382357E+03 -0.15285162015E+03  0.18819161266E+03  0.52074481729E+03  0.00000000000E+00 0. -1.
        -11    1    3    3    0    0 -0.10771608274E+04 -0.21900382353E+03  0.47090159210E+03  0.11958204013E+04  0.00000000000E+00 0.  1.
         22    1    1    2    0    0  0.15380246509E+04  0.37185544368E+03 -0.53832092277E+03  0.16714023196E+04  0.00000000000E+00 0.  1.
<mgrwt>
<rscale>  0 0.33858142E+04</rscale>
<asrwt>0</asrwt>
<pdfrwt beam="1">  1        2 0.26990306E+00 0.33858142E+04</pdfrwt>
<pdfrwt beam="2">  1       -2 0.25132271E+00 0.33858142E+04</pdfrwt>
<totfact> 0.47850715E-01</totfact>
</mgrwt>
</event>
<event>
 6    1  0.1528034E-005  0.1585827E+04  0.7818608E-02  0.8829303E-01
         -1   -1    0    0    0  501 -0.00000000000E+00  0.00000000000E+00  0.21927019918E+03  0.21927019918E+03  0.00000000000E+00 0.  1.
          1   -1    0    0  501    0  0.00000000000E+00 -0.00000000000E+00 -0.28672931242E+04  0.28672931242E+04  0.00000000000E+00 0. -1.
         23    2    1    2    0    0  0.52380314225E+03 -0.18870091555E+03 -0.23735101521E+03  0.61243381502E+03  0.93605053291E+02 0.  0.
         13    1    3    3    0    0  0.19291165559E+03 -0.78372683255E+02 -0.41192532867E+02  0.21225929687E+03  0.00000000000E+00 0.  1.
        -13    1    3    3    0    0  0.33089148666E+03 -0.11032823230E+03 -0.19615848234E+03  0.40017451816E+03  0.00000000000E+00 0. -1.
         22    1    1    2    0    0 -0.52380314225E+03  0.18870091555E+03 -0.24106719098E+04  0.24741295083E+04  0.00000000000E+00 0. -1.
<mgrwt>
<rscale>  0 0.15858271E+04</rscale>
<asrwt>0</asrwt>
<pdfrwt beam="1">  1        1 0.44112196E+00 0.15858271E+04</pdfrwt>
<pdfrwt beam="2">  1       -1 0.33733881E-01 0.15858271E+04</pdfrwt>
<totfact> 0.59640733E+00</totfact>
</mgrwt>
</event>
<event>
 6    1  0.1528034E-005  0.8956676E+03  0.7818608E-02  0.9431013E-01
         -4   -1    0    0    0  501 -0.00000000000E+00  0.00000000000E+00  0.22554389372E+03  0.22554389372E+03  0.00000000000E+00 0. -1.
          4   -1    0    0  501    0  0.00000000000E+00 -0.00000000000E+00 -0.88920657948E+03  0.88920657948E+03  0.00000000000E+00 0.  1.
         23    2    1    2    0    0  0.71415736812E+02 -0.20669171902E+03 -0.81504445104E+03  0.84878409743E+03  0.91188336434E+02 0.  0.
         13    1    3    3    0    0  0.83917782344E+02 -0.17629941324E+03 -0.75995531207E+03  0.78463733893E+03  0.00000000000E+00 0. -1.
        -13    1    3    3    0    0 -0.12502045532E+02 -0.30392305788E+02 -0.55089138975E+02  0.64146758504E+02  0.00000000000E+00 0.  1.
         22    1    1    2    0    0 -0.71415736812E+02  0.20669171902E+03  0.15138176529E+03  0.26596637577E+03  0.00000000000E+00 0. -1.
<mgrwt>
<rscale>  0 0.89566760E+03</rscale>
<asrwt>0</asrwt>
<pdfrwt beam="1">  1        4 0.13680101E+00 0.89566760E+03</pdfrwt>
<pdfrwt beam="2">  1       -4 0.34699061E-01 0.89566760E+03</pdfrwt>
<totfact> 0.61174376E+00</totfact>
</mgrwt>
</event>
<event>
 6    1  0.1528034E-005  0.2509024E+04  0.7818608E-02  0.8399778E-01
         -2   -1    0    0    0  501 -0.00000000000E+00  0.00000000000E+00  0.64080822760E+03  0.64080822760E+03  0.00000000000E+00 0.  1.
          2   -1    0    0  501    0  0.00000000000E+00 -0.00000000000E+00 -0.24559622337E+04  0.24559622337E+04  0.00000000000E+00 0. -1.
         23    2    1    2    0    0  0.68183915849E+03 -0.79261984434E+03 -0.17607852057E+04  0.20498192580E+04  0.90794240791E+02 0.  0.
         13    1    3    3    0    0  0.35948380414E+03 -0.44814008807E+03 -0.10456912854E+04  0.11931170975E+04  0.00000000000E+00 0.  1.
        -13    1    3    3    0    0  0.32235535435E+03 -0.34447975628E+03 -0.71509392024E+03  0.85670216045E+03  0.00000000000E+00 0. -1.
         22    1    1    2    0    0 -0.68183915849E+03  0.79261984434E+03 -0.54368800441E+02  0.10469512033E+04  0.00000000000E+00 0.  1.
<mgrwt>
<rscale>  0 0.25090244E+04</rscale>
<asrwt>0</asrwt>
<pdfrwt beam="1">  1        2 0.37784033E+00 0.25090244E+04</pdfrwt>
<pdfrwt beam="2">  1       -2 0.98585884E-01 0.25090244E+04</pdfrwt>
<totfact> 0.28100729E+00</totfact>
</mgrwt>
</event>
<event>
 6    1  0.1528034E-005  0.1456339E+04  0.7818608E-02  0.8914018E-01
          2   -1    0    0  501    0  0.00000000000E+00  0.00000000000E+00  0.18796565288E+04  0.18796565288E+04  0.00000000000E+00 0. -1.
         -2   -1    0    0    0  501 -0.00000000000E+00 -0.00000000000E+00 -0.28208925253E+03  0.28208925253E+03  0.00000000000E+00 0.  1.
         23    2    1    2    0    0 -0.74877940009E+02 -0.36506807707E+03 -0.12173100416E+03  0.40252209348E+03  0.91237007697E+02 0.  0.
         13    1    3    3    0    0 -0.33558480364E+02 -0.30900250798E+03 -0.78606359671E+02  0.32060517982E+03  0.00000000000E+00 0. -1.
        -13    1    3    3    0    0 -0.41319459645E+02 -0.56065569084E+02 -0.43124644490E+02  0.81916913665E+02  0.00000000000E+00 0.  1.
         22    1    1    2    0    0  0.74877940009E+02  0.36506807707E+03  0.17192982804E+04  0.17592236878E+04  0.00000000000E+00 0. -1.
<mgrwt>
<rscale>  0 0.14563391E+04</rscale>
<asrwt>0</asrwt>
<pdfrwt beam="1">  1        2 0.28917792E+00 0.14563391E+04</pdfrwt>
<pdfrwt beam="2">  1       -2 0.43398348E-01 0.14563391E+04</pdfrwt>
<totfact> 0.38039083E+01</totfact>
</mgrwt>
</event>
<event>
 6    1  0.1528034E-005  0.2780112E+04  0.7818608E-02  0.8309469E-01
         -1   -1    0    0    0  501 -0.00000000000E+00  0.00000000000E+00  0.83183631459E+03  0.83183631459E+03  0.00000000000E+00 0.  1.
          1   -1    0    0  501    0  0.00000000000E+00 -0.00000000000E+00 -0.23228803539E+04  0.23228803539E+04  0.00000000000E+00 0. -1.
         23    2    1    2    0    0 -0.26261005308E+03  0.13012797037E+04 -0.12085452488E+04  0.17974773845E+04  0.89724144975E+02 0.  0.
         13    1    3    3    0    0 -0.29049190366E+02  0.25135331785E+03 -0.26922754458E+03  0.36946693576E+03  0.00000000000E+00 0. -1.
        -13    1    3    3    0    0 -0.23356086271E+03  0.10499263859E+04 -0.93931770421E+03  0.14280104488E+04  0.00000000000E+00 0.  1.
         22    1    1    2    0    0  0.26261005308E+03 -0.13012797037E+04 -0.28249879052E+03  0.13572392840E+04  0.00000000000E+00 0.  1.
<mgrwt>
<rscale>  0 0.27801124E+04</rscale>
<asrwt>0</asrwt>
<pdfrwt beam="1">  1        1 0.35736621E+00 0.27801124E+04</pdfrwt>
<pdfrwt beam="2">  1       -1 0.12797482E+00 0.27801124E+04</pdfrwt>
<totfact> 0.82109877E-01</totfact>
</mgrwt>
</event>
<event>
 6    1  0.1528034E-005  0.2454142E+04  0.7818608E-02  0.8419507E-01
          1   -1    0    0  501    0  0.00000000000E+00  0.00000000000E+00  0.16494161179E+04  0.16494161179E+04  0.00000000000E+00 0. -1.
         -1   -1    0    0    0  501 -0.00000000000E+00 -0.00000000000E+00 -0.91287041601E+03  0.91287041601E+03  0.00000000000E+00 0.  1.
         23    2    1    2    0    0  0.75210395225E+03 -0.91557425996E+03  0.43137970588E+02  0.11894242457E+04  0.94512281534E+02 0.  0.
         11    1    3    3    0    0  0.31736526576E+03 -0.41517369406E+03  0.62269015828E+02  0.52627686485E+03  0.00000000000E+00 0. -1.
        -11    1    3    3    0    0  0.43473868649E+03 -0.50040056591E+03 -0.19131045240E+02  0.66314738089E+03  0.00000000000E+00 0.  1.
         22    1    1    2    0    0 -0.75210395225E+03  0.91557425996E+03  0.69340773135E+03  0.13728622882E+04  0.00000000000E+00 0. -1.
<mgrwt>
<rscale>  0 0.24541420E+04</rscale>
<asrwt>0</asrwt>
<pdfrwt beam="1">  1        1 0.25375633E+00 0.24541420E+04</pdfrwt>
<pdfrwt beam="2">  1       -1 0.14044160E+00 0.24541420E+04</pdfrwt>
<totfact> 0.19136669E+00</totfact>
</mgrwt>
</event>
<event>
 6    1  0.1528034E-005  0.9203081E+03  0.7818608E-02  0.9400545E-01
         -1   -1    0    0    0  501 -0.00000000000E+00  0.00000000000E+00  0.64671643158E+03  0.64671643158E+03  0.00000000000E+00 0.  1.
          1   -1    0    0  501    0  0.00000000000E+00 -0.00000000000E+00 -0.32741049352E+03  0.32741049352E+03  0.00000000000E+00 0. -1.
         23    2    1    2    0    0 -0.36623873699E+02 -0.45019069573E+03  0.97690919252E+02  0.47101045031E+03  0.91073365747E+02 0.  0.
         11    1    3    3    0    0 -0.53552433456E+02 -0.13806470028E+03  0.26906941253E+02  0.15051148820E+03  0.00000000000E+00 0. -1.
        -11    1    3    3    0    0  0.16928559758E+02 -0.31212599545E+03  0.70783978000E+02  0.32049896211E+03  0.00000000000E+00 0.  1.
         22    1    1    2    0    0  0.36623873699E+02  0.45019069573E+03  0.22161501880E+03  0.50311647479E+03  0.00000000000E+00 0.  1.
<mgrwt>
<rscale>  0 0.92030809E+03</rscale>
<asrwt>0</asrwt>
<pdfrwt beam="1">  1        1 0.50370845E-01 0.92030809E+03</pdfrwt>
<pdfrwt beam="2">  1       -1 0.99494836E-01 0.92030809E+03</pdfrwt>
<totfact> 0.75957918E+01</totfact>
</mgrwt>
</event>
<event>
 6    1  0.1528034E-005  0.3267452E+04  0.7818608E-02  0.8171227E-01
          1   -1    0    0  501    0  0.00000000000E+00  0.00000000000E+00  0.13994217139E+04  0.13994217139E+04  0.00000000000E+00 0. -1.
         -1   -1    0    0    0  501 -0.00000000000E+00 -0.00000000000E+00 -0.19072598341E+04  0.19072598341E+04  0.00000000000E+00 0.  1.
         23    2    1    2    0    0  0.11282790368E+03  0.60651407509E+03 -0.17837093652E+04  0.18894882327E+04  0.89203267267E+02 0.  0.
         11    1    3    3    0    0  0.11182016843E+03  0.37419178077E+03 -0.10826399356E+04  0.11509267870E+04  0.00000000000E+00 0.  1.
        -11    1    3    3    0    0  0.10077352457E+01  0.23232229433E+03 -0.70106942960E+03  0.73856144571E+03  0.00000000000E+00 0. -1.
         22    1    1    2    0    0 -0.11282790368E+03 -0.60651407509E+03  0.12758712450E+04  0.14171933153E+04  0.00000000000E+00 0. -1.
<mgrwt>
<rscale>  0 0.32674521E+04</rscale>
<asrwt>0</asrwt>
<pdfrwt beam="1">  1        1 0.21529565E+00 0.32674521E+04</pdfrwt>
<pdfrwt beam="2">  1       -1 0.29342459E+00 0.32674521E+04</pdfrwt>
<totfact> 0.23302703E-01</totfact>
</mgrwt>
</event>
<event>
 6    1  0.1528034E-005  0.1524090E+04  0.7818608E-02  0.8868590E-01
          1   -1    0    0  501    0  0.00000000000E+00  0.00000000000E+00  0.29656474058E+04  0.29656474058E+04  0.00000000000E+00 0. -1.
         -1   -1    0    0    0  501 -0.00000000000E+00 -0.00000000000E+00 -0.19581305781E+03  0.19581305781E+03  0.00000000000E+00 0.  1.
         23    2    1    2    0    0 -0.25275343372E+03  0.71305667706E+03  0.15212528477E+04  0.17015666709E+04  0.93727189873E+02 0.  0.
         11    1    3    3    0    0 -0.23702213895E+02  0.16912749955E+03  0.30074477128E+03  0.34585159173E+03  0.00000000000E+00 0. -1.
        -11    1    3    3    0    0 -0.22905121983E+03  0.54392917752E+03  0.12205080764E+04  0.13557150792E+04  0.00000000000E+00 0.  1.
         22    1    1    2    0    0  0.25275343372E+03 -0.71305667706E+03  0.12485815004E+04  0.14598937927E+04  0.00000000000E+00 0. -1.
<mgrwt>
<rscale>  0 0.15240899E+04</rscale>
<asrwt>0</asrwt>
<pdfrwt beam="1">  1        1 0.45625342E+00 0.15240899E+04</pdfrwt>
<pdfrwt beam="2">  1       -1 0.30125088E-01 0.15240899E+04</pdfrwt>
<totfact> 0.62273201E+00</totfact>
</mgrwt>
</event>
<event>
 6    1  0.1528034E-005  0.4215076E+04  0.7818608E-02  0.7962511E-01
         -2   -1    0    0    0  501 -0.00000000000E+00  0.00000000000E+00  0.20400934255E+04  0.20400934255E+04  0.00000000000E+00 0.  1.
          2   -1    0    0  501    0  0.00000000000E+00 -0.00000000000E+00 -0.21772120066E+04  0.21772120066E+04  0.00000000000E+00 0. -1.
         23    2    1    2    0    0 -0.81195364823E+03  0.11013529951E+04 -0.16711140095E+04  0.21617303007E+04  0.90601952802E+02 0.  0.
         13    1    3    3    0    0 -0.17602451442E+03  0.27366823765E+03 -0.44981784067E+03  0.55517116618E+03  0.00000000000E+00 0.  1.
        -13    1    3    3    0    0 -0.63592913381E+03  0.82768475741E+03 -0.12212961688E+04  0.16065591346E+04  0.00000000000E+00 0. -1.
         22    1    1    2    0    0  0.81195364823E+03 -0.11013529951E+04  0.15339954283E+04  0.20555751314E+04  0.00000000000E+00 0.  1.
<mgrwt>
<rscale>  0 0.42150758E+04</rscale>
<asrwt>0</asrwt>
<pdfrwt beam="1">  1        2 0.33495569E+00 0.42150758E+04</pdfrwt>
<pdfrwt beam="2">  1       -2 0.31386053E+00 0.42150758E+04</pdfrwt>
<totfact> 0.10773250E-01</totfact>
</mgrwt>
</event>
<event>
 6    1  0.1528034E-005  0.5072709E+04  0.7818608E-02  0.7817388E-01
         -1   -1    0    0    0  501 -0.00000000000E+00  0.00000000000E+00  0.19513886238E+04  0.19513886238E+04  0.00000000000E+00 0.  1.
          1   -1    0    0  501    0  0.00000000000E+00 -0.00000000000E+00 -0.32966756105E+04  0.32966756105E+04  0.00000000000E+00 0. -1.
         23    2    1    2    0    0 -0.21230412627E+04 -0.55653144494E+03 -0.19863168872E+04  0.29615929824E+04  0.92448715598E+02 0.  0.
         11    1    3    3    0    0 -0.26641728214E+03 -0.95165206166E+02 -0.28190517969E+03  0.39938091470E+03  0.00000000000E+00 0.  1.
        -11    1    3    3    0    0 -0.18566239805E+04 -0.46136623877E+03 -0.17044117075E+04  0.25622120677E+04  0.00000000000E+00 0. -1.
         22    1    1    2    0    0  0.21230412627E+04  0.55653144494E+03  0.64102990041E+03  0.22864712518E+04  0.00000000000E+00 0.  1.
<mgrwt>
<rscale>  0 0.50727094E+04</rscale>
<asrwt>0</asrwt>
<pdfrwt beam="1">  1        1 0.50718086E+00 0.50727094E+04</pdfrwt>
<pdfrwt beam="2">  1       -1 0.30021364E+00 0.50727094E+04</pdfrwt>
<totfact> 0.84837172E-03</totfact>
</mgrwt>
</event>
<event>
 6    1  0.1528034E-005  0.2240875E+04  0.7818608E-02  0.8501605E-01
         -2   -1    0    0    0  501 -0.00000000000E+00  0.00000000000E+00  0.14204094889E+04  0.14204094889E+04  0.00000000000E+00 0.  1.
          2   -1    0    0  501    0  0.00000000000E+00 -0.00000000000E+00 -0.88381561993E+03  0.88381561993E+03  0.00000000000E+00 0. -1.
         23    2    1    2    0    0 -0.31933156554E+03 -0.10458820077E+04  0.51269492459E+03  0.12104184612E+04  0.80093338562E+02 0.  0.
         11    1    3    3    0    0 -0.28286407929E+02 -0.17895809190E+03  0.10243506321E+03  0.20813231778E+03  0.00000000000E+00 0. -1.
        -11    1    3    3    0    0 -0.29104515761E+03 -0.86692391578E+03  0.41025986138E+03  0.10022861435E+04  0.00000000000E+00 0.  1.
         22    1    1    2    0    0  0.31933156554E+03  0.10458820077E+04  0.23898944368E+02  0.10938066476E+04  0.00000000000E+00 0. -1.
<mgrwt>
<rscale>  0 0.22408749E+04</rscale>
<asrwt>0</asrwt>
<pdfrwt beam="1">  1        2 0.13597163E+00 0.22408749E+04</pdfrwt>
<pdfrwt beam="2">  1       -2 0.21852454E+00 0.22408749E+04</pdfrwt>
<totfact> 0.27660371E+00</totfact>
</mgrwt>
</event>
<event>
 6    1  0.1528034E-005  0.5981055E+03  0.7818608E-02  0.9909344E-01
         -2   -1    0    0    0  501 -0.00000000000E+00  0.00000000000E+00  0.50195287604E+02  0.50195287604E+02  0.00000000000E+00 0.  1.
          2   -1    0    0  501    0  0.00000000000E+00 -0.00000000000E+00 -0.17816923345E+04  0.17816923345E+04  0.00000000000E+00 0. -1.
         23    2    1    2    0    0  0.20599818085E+03  0.13281717781E+02 -0.15190195191E+04  0.15356472563E+04  0.90446347150E+02 0.  0.
         13    1    3    3    0    0  0.46560120258E+02  0.33002487889E+02 -0.59841695459E+03  0.60113214899E+03  0.00000000000E+00 0. -1.
        -13    1    3    3    0    0  0.15943806060E+03 -0.19720770108E+02 -0.92060256451E+03  0.93451510727E+03  0.00000000000E+00 0.  1.
         22    1    1    2    0    0 -0.20599818085E+03 -0.13281717781E+02 -0.21247752783E+03  0.29624036588E+03  0.00000000000E+00 0.  1.
<mgrwt>
<rscale>  0 0.59810554E+03</rscale>
<asrwt>0</asrwt>
<pdfrwt beam="1">  1        2 0.27410649E+00 0.59810554E+03</pdfrwt>
<pdfrwt beam="2">  1       -2 0.77223526E-02 0.59810554E+03</pdfrwt>
<totfact> 0.94401573E+02</totfact>
</mgrwt>
</event>
<event>
 6    1  0.1528034E-005  0.1707854E+04  0.7818608E-02  0.8756898E-01
         -2   -1    0    0    0  501 -0.00000000000E+00  0.00000000000E+00  0.54646977616E+03  0.54646977616E+03  0.00000000000E+00 0.  1.
          2   -1    0    0  501    0  0.00000000000E+00 -0.00000000000E+00 -0.13343673650E+04  0.13343673650E+04  0.00000000000E+00 0. -1.
         23    2    1    2    0    0 -0.39469784305E+03 -0.49652167392E+03  0.23088212548E+03  0.68074036744E+03  0.88208457674E+02 0.  0.
         11    1    3    3    0    0 -0.38570329515E+03 -0.46901257218E+03  0.23574004867E+03  0.65139327238E+03  0.00000000000E+00 0. -1.
        -11    1    3    3    0    0 -0.89945479015E+01 -0.27509101742E+02 -0.48579231880E+01  0.29347095057E+02  0.00000000000E+00 0.  1.
         22    1    1    2    0    0  0.39469784305E+03  0.49652167392E+03 -0.10187797144E+04  0.12000967738E+04  0.00000000000E+00 0. -1.
<mgrwt>
<rscale>  0 0.17078541E+04</rscale>
<asrwt>0</asrwt>
<pdfrwt beam="1">  1        2 0.20528729E+00 0.17078541E+04</pdfrwt>
<pdfrwt beam="2">  1       -2 0.84072274E-01 0.17078541E+04</pdfrwt>
<totfact> 0.18548953E+01</totfact>
</mgrwt>
</event>
<event>
 6    1  0.1528034E-005  0.1996293E+04  0.7818608E-02  0.8608356E-01
          2   -1    0    0  501    0  0.00000000000E+00  0.00000000000E+00  0.13746075288E+04  0.13746075288E+04  0.00000000000E+00 0. -1.
         -2   -1    0    0    0  501 -0.00000000000E+00 -0.00000000000E+00 -0.72478595897E+03  0.72478595897E+03  0.00000000000E+00 0.  1.
         23    2    1    2    0    0 -0.85142499542E+03 -0.86255712951E+00 -0.21774058844E+03  0.88383215026E+03  0.93931033973E+02 0.  0.
         11    1    3    3    0    0 -0.51813948717E+03 -0.26803406786E+02 -0.93452428115E+02  0.52718147455E+03  0.00000000000E+00 0.  1.
        -11    1    3    3    0    0 -0.33328550824E+03  0.25940849656E+02 -0.12428816033E+03  0.35665067571E+03  0.00000000000E+00 0. -1.
         22    1    1    2    0    0  0.85142499542E+03  0.86255712951E+00  0.86756215831E+03  0.12155613376E+04  0.00000000000E+00 0. -1.
<mgrwt>
<rscale>  0 0.19962928E+04</rscale>
<asrwt>0</asrwt>
<pdfrwt beam="1">  1        2 0.21147808E+00 0.19962928E+04</pdfrwt>
<pdfrwt beam="2">  1       -2 0.11150553E+00 0.19962928E+04</pdfrwt>
<totfact> 0.88423632E+00</totfact>
</mgrwt>
</event>
<event>
 6    1  0.1528034E-005  0.4198657E+04  0.7818608E-02  0.7965628E-01
          2   -1    0    0  501    0  0.00000000000E+00  0.00000000000E+00  0.16878934164E+04  0.16878934164E+04  0.00000000000E+00 0.  1.
         -2   -1    0    0    0  501 -0.00000000000E+00 -0.00000000000E+00 -0.26110541944E+04  0.26110541944E+04  0.00000000000E+00 0. -1.
         23    2    1    2    0    0  0.16549782177E+04  0.48492082137E+03  0.76214342053E+03  0.18876509999E+04  0.90898843829E+02 0.  0.
         13    1    3    3    0    0  0.30250466034E+03  0.11763781375E+03  0.16768013637E+03  0.36532773353E+03  0.00000000000E+00 0. -1.
        -13    1    3    3    0    0  0.13524735574E+04  0.36728300762E+03  0.59446328416E+03  0.15223232664E+04  0.00000000000E+00 0.  1.
         22    1    1    2    0    0 -0.16549782177E+04 -0.48492082137E+03 -0.16853041985E+04  0.24112966109E+04  0.00000000000E+00 0. -1.
<mgrwt>
<rscale>  0 0.41986575E+04</rscale>
<asrwt>0</asrwt>
<pdfrwt beam="1">  1        2 0.25967591E+00 0.41986575E+04</pdfrwt>
<pdfrwt beam="2">  1       -2 0.40170064E+00 0.41986575E+04</pdfrwt>
<totfact> 0.55928861E-02</totfact>
</mgrwt>
</event>
<event>
 6    1  0.1528034E-005  0.1326044E+04  0.7818608E-02  0.9009163E-01
          1   -1    0    0  501    0  0.00000000000E+00  0.00000000000E+00  0.79469961841E+03  0.79469961841E+03  0.00000000000E+00 0. -1.
         -1   -1    0    0    0  501 -0.00000000000E+00 -0.00000000000E+00 -0.55316243488E+03  0.55316243488E+03  0.00000000000E+00 0.  1.
         23    2    1    2    0    0  0.13355327180E+03 -0.64234904420E+03  0.49739507034E+02  0.66431606383E+03  0.91613553090E+02 0.  0.
         11    1    3    3    0    0  0.25349561213E+02 -0.31297989477E+02  0.14329477918E+02  0.42749249542E+02  0.00000000000E+00 0.  1.
        -11    1    3    3    0    0  0.10820371059E+03 -0.61105105472E+03  0.35410029116E+02  0.62156681429E+03  0.00000000000E+00 0. -1.
         22    1    1    2    0    0 -0.13355327180E+03  0.64234904420E+03  0.19179767649E+03  0.68354598946E+03  0.00000000000E+00 0. -1.
<mgrwt>
<rscale>  0 0.13260437E+04</rscale>
<asrwt>0</asrwt>
<pdfrwt beam="1">  1        1 0.12226148E+00 0.13260437E+04</pdfrwt>
<pdfrwt beam="2">  1       -1 0.85101913E-01 0.13260437E+04</pdfrwt>
<totfact> 0.29936370E+01</totfact>
</mgrwt>
</event>
<event>
 6    1  0.1528034E-005  0.2068773E+04  0.7818608E-02  0.8575125E-01
          1   -1    0    0  501    0  0.00000000000E+00  0.00000000000E+00  0.13909338914E+04  0.13909338914E+04  0.00000000000E+00 0. -1.
         -1   -1    0    0    0  501 -0.00000000000E+00 -0.00000000000E+00 -0.76923495733E+03  0.76923495733E+03  0.00000000000E+00 0.  1.
         23    2    1    2    0    0  0.90804870790E+03  0.19618567204E+03  0.78190257299E+03  0.12174565491E+04  0.88247048547E+02 0.  0.
         11    1    3    3    0    0  0.33617761445E+03  0.10549369545E+03  0.33306517429E+03  0.48484710843E+03  0.00000000000E+00 0. -1.
        -11    1    3    3    0    0  0.57187109345E+03  0.90691976591E+02  0.44883739871E+03  0.73260944071E+03  0.00000000000E+00 0.  1.
         22    1    1    2    0    0 -0.90804870790E+03 -0.19618567204E+03 -0.16020363894E+03  0.94271229957E+03  0.00000000000E+00 0. -1.
<mgrwt>
<rscale>  0 0.20687726E+04</rscale>
<asrwt>0</asrwt>
<pdfrwt beam="1">  1        1 0.21398983E+00 0.20687726E+04</pdfrwt>
<pdfrwt beam="2">  1       -1 0.11834384E+00 0.20687726E+04</pdfrwt>
<totfact> 0.46051745E+00</totfact>
</mgrwt>
</event>
<event>
 6    1  0.2246684E-005  0.2267279E+04  0.7818608E-02  0.8490935E-01
          1   -1    0    0  501    0  0.00000000000E+00  0.00000000000E+00  0.15486674492E+04  0.15486674492E+04  0.00000000000E+00 0.  1.
         -1   -1    0    0    0  501 -0.00000000000E+00 -0.00000000000E+00 -0.82983513763E+03  0.82983513763E+03  0.00000000000E+00 0. -1.
         23    2    1    2    0    0 -0.36688966331E+03  0.10020104581E+04 -0.35651461741E+02  0.10716442367E+04  0.92289545701E+02 0.  0.
         13    1    3    3    0    0 -0.26527924252E+03  0.59837913414E+03 -0.33741394727E+02  0.65541524731E+03  0.00000000000E+00 0.  1.
        -13    1    3    3    0    0 -0.10161042079E+03  0.40363132392E+03 -0.19100670148E+01  0.41622898940E+03  0.00000000000E+00 0. -1.
         22    1    1    2    0    0  0.36688966331E+03 -0.10020104581E+04  0.75448377336E+03  0.13068583502E+04  0.00000000000E+00 0. -1.
<mgrwt>
<rscale>  0 0.22672791E+04</rscale>
<asrwt>0</asrwt>
<pdfrwt beam="1">  1        1 0.23825653E+00 0.22672791E+04</pdfrwt>
<pdfrwt beam="2">  1       -1 0.12766694E+00 0.22672791E+04</pdfrwt>
<totfact> 0.29126991E+00</totfact>
</mgrwt>
</event>
<event>
 6    1  0.1528034E-005  0.1647603E+04  0.7818608E-02  0.8791826E-01
          2   -1    0    0  501    0  0.00000000000E+00  0.00000000000E+00  0.12057399510E+04  0.12057399510E+04  0.00000000000E+00 0. -1.
         -2   -1    0    0    0  501 -0.00000000000E+00 -0.00000000000E+00 -0.56284870174E+03  0.56284870174E+03  0.00000000000E+00 0.  1.
         23    2    1    2    0    0  0.64842349732E+03  0.98486856433E+02 -0.20827330453E+03  0.69404977937E+03  0.90413683146E+02 0.  0.
         13    1    3    3    0    0  0.11115338279E+03  0.25928703634E+02 -0.72303930634E+02  0.13511191866E+03  0.00000000000E+00 0.  1.
        -13    1    3    3    0    0  0.53727011453E+03  0.72558152799E+02 -0.13596937389E+03  0.55893786071E+03  0.00000000000E+00 0. -1.
         22    1    1    2    0    0 -0.64842349732E+03 -0.98486856433E+02  0.85116455383E+03  0.10745388734E+04  0.00000000000E+00 0. -1.
<mgrwt>
<rscale>  0 0.16476033E+04</rscale>
<asrwt>0</asrwt>
<pdfrwt beam="1">  1        2 0.18549845E+00 0.16476033E+04</pdfrwt>
<pdfrwt beam="2">  1       -2 0.86592108E-01 0.16476033E+04</pdfrwt>
<totfact> 0.20738368E+01</totfact>
</mgrwt>
</event>
<event>
 6    1  0.1528034E-005  0.1640381E+04  0.7818608E-02  0.8796117E-01
         -2   -1    0    0    0  501 -0.00000000000E+00  0.00000000000E+00  0.71284939180E+03  0.71284939180E+03  0.00000000000E+00 0.  1.
          2   -1    0    0  501    0  0.00000000000E+00 -0.00000000000E+00 -0.94369532407E+03  0.94369532407E+03  0.00000000000E+00 0. -1.
         23    2    1    2    0    0 -0.16036568409E+03  0.21218481309E+03  0.66503164984E+03  0.72202013638E+03  0.91139642854E+02 0.  0.
         13    1    3    3    0    0 -0.99722263275E+02  0.19164392822E+03  0.48492715870E+03  0.53087312444E+03  0.00000000000E+00 0. -1.
        -13    1    3    3    0    0 -0.60643420811E+02  0.20540884873E+02  0.18010449115E+03  0.19114701193E+03  0.00000000000E+00 0.  1.
         22    1    1    2    0    0  0.16036568409E+03 -0.21218481309E+03 -0.89587758212E+03  0.93452457950E+03  0.00000000000E+00 0. -1.
<mgrwt>
<rscale>  0 0.16403812E+04</rscale>
<asrwt>0</asrwt>
<pdfrwt beam="1">  1        2 0.14518390E+00 0.16403812E+04</pdfrwt>
<pdfrwt beam="2">  1       -2 0.10966914E+00 0.16403812E+04</pdfrwt>
<totfact> 0.17345097E+01</totfact>
</mgrwt>
</event>
<event>
 6    1  0.1528034E-005  0.3656320E+04  0.7818608E-02  0.8077711E-01
          1   -1    0    0  501    0  0.00000000000E+00  0.00000000000E+00  0.30081659417E+04  0.30081659417E+04  0.00000000000E+00 0.  1.
         -1   -1    0    0    0  501 -0.00000000000E+00 -0.00000000000E+00 -0.11110319942E+04  0.11110319942E+04  0.00000000000E+00 0. -1.
         23    2    1    2    0    0 -0.35175205981E+03 -0.13333930535E+04  0.22993385611E+04  0.26827317519E+04  0.91789363797E+02 0.  0.
         13    1    3    3    0    0 -0.23587712624E+03 -0.71845015716E+03  0.12754084223E+04  0.14827256290E+04  0.00000000000E+00 0. -1.
        -13    1    3    3    0    0 -0.11587493357E+03 -0.61494289636E+03  0.10239301387E+04  0.12000061229E+04  0.00000000000E+00 0.  1.
         22    1    1    2    0    0  0.35175205981E+03  0.13333930535E+04 -0.40220461358E+03  0.14364661841E+04  0.00000000000E+00 0. -1.
<mgrwt>
<rscale>  0 0.36563198E+04</rscale>
<asrwt>0</asrwt>
<pdfrwt beam="1">  1        1 0.46279476E+00 0.36563198E+04</pdfrwt>
<pdfrwt beam="2">  1       -1 0.17092800E+00 0.36563198E+04</pdfrwt>
<totfact> 0.11492197E-01</totfact>
</mgrwt>
</event>
<event>
 6    1  0.1528034E-005  0.3170896E+04  0.7818608E-02  0.8196546E-01
         -2   -1    0    0    0  501 -0.00000000000E+00  0.00000000000E+00  0.48579823750E+03  0.48579823750E+03  0.00000000000E+00 0.  1.
          2   -1    0    0  501    0  0.00000000000E+00 -0.00000000000E+00 -0.51742585591E+04  0.51742585591E+04  0.00000000000E+00 0. -1.
         23    2    1    2    0    0  0.73498882042E+02 -0.14582552334E+04 -0.12492288664E+04  0.19237185606E+04  0.90608655382E+02 0.  0.
         13    1    3    3    0    0  0.24550588619E+02 -0.10202737179E+04 -0.83014431253E+03  0.13155610098E+04  0.00000000000E+00 0. -1.
        -13    1    3    3    0    0  0.48948293423E+02 -0.43798151549E+03 -0.41908455384E+03  0.60815755081E+03  0.00000000000E+00 0.  1.
         22    1    1    2    0    0 -0.73498882042E+02  0.14582552334E+04 -0.34392314553E+04  0.37363382361E+04  0.00000000000E+00 0.  1.
<mgrwt>
<rscale>  0 0.31708962E+04</rscale>
<asrwt>0</asrwt>
<pdfrwt beam="1">  1        2 0.79603975E+00 0.31708962E+04</pdfrwt>
<pdfrwt beam="2">  1       -2 0.74738193E-01 0.31708962E+04</pdfrwt>
<totfact> 0.27163665E-02</totfact>
</mgrwt>
</event>
<event>
 6    1  0.1528034E-005  0.1704056E+04  0.7818608E-02  0.8759054E-01
         -1   -1    0    0    0  501 -0.00000000000E+00  0.00000000000E+00  0.42540274320E+03  0.42540274320E+03  0.00000000000E+00 0.  1.
          1   -1    0    0  501    0  0.00000000000E+00 -0.00000000000E+00 -0.17065055226E+04  0.17065055226E+04  0.00000000000E+00 0. -1.
         23    2    1    2    0    0 -0.14344790343E+03 -0.25426690320E+03 -0.16404178737E+04  0.16689435845E+04  0.95775408801E+02 0.  0.
         11    1    3    3    0    0 -0.74147193401E+02 -0.45910530118E+02 -0.50856021862E+03  0.51598360344E+03  0.00000000000E+00 0. -1.
        -11    1    3    3    0    0 -0.69300710029E+02 -0.20835637308E+03 -0.11318576551E+04  0.11529599811E+04  0.00000000000E+00 0.  1.
         22    1    1    2    0    0  0.14344790343E+03  0.25426690320E+03  0.35931509433E+03  0.46296468124E+03  0.00000000000E+00 0.  1.
<mgrwt>
<rscale>  0 0.17040565E+04</rscale>
<asrwt>0</asrwt>
<pdfrwt beam="1">  1        1 0.26253931E+00 0.17040565E+04</pdfrwt>
<pdfrwt beam="2">  1       -1 0.65446577E-01 0.17040565E+04</pdfrwt>
<totfact> 0.10620814E+01</totfact>
</mgrwt>
</event>
<event>
 6    1  0.1528034E-005  0.4913353E+04  0.7818608E-02  0.7842014E-01
          1   -1    0    0  501    0  0.00000000000E+00  0.00000000000E+00  0.36937766088E+04  0.36937766088E+04  0.00000000000E+00 0. -1.
         -1   -1    0    0    0  501 -0.00000000000E+00 -0.00000000000E+00 -0.16338992854E+04  0.16338992854E+04  0.00000000000E+00 0.  1.
         23    2    1    2    0    0 -0.19323058270E+04  0.13448225561E+04  0.17876701752E+04  0.29577707805E+04  0.10143874289E+03 0.  0.
         11    1    3    3    0    0 -0.10592084804E+04  0.67552353533E+03  0.95216448257E+03  0.15763476310E+04  0.00000000000E+00 0. -1.
        -11    1    3    3    0    0 -0.87309734655E+03  0.66929902079E+03  0.83550569263E+03  0.13814231496E+04  0.00000000000E+00 0.  1.
         22    1    1    2    0    0  0.19323058270E+04 -0.13448225561E+04  0.27220714823E+03  0.23699051137E+04  0.00000000000E+00 0.  1.
<mgrwt>
<rscale>  0 0.49133528E+04</rscale>
<asrwt>0</asrwt>
<pdfrwt beam="1">  1        1 0.56827332E+00 0.49133528E+04</pdfrwt>
<pdfrwt beam="2">  1       -1 0.25136912E+00 0.49133528E+04</pdfrwt>
<totfact> 0.86504390E-03</totfact>
</mgrwt>
</event>
<event>
 6    1  0.1528034E-005  0.2469510E+04  0.7818608E-02  0.8413929E-01
          2   -1    0    0  501    0  0.00000000000E+00  0.00000000000E+00  0.10624543531E+04  0.10624543531E+04  0.00000000000E+00 0. -1.
         -2   -1    0    0    0  501 -0.00000000000E+00 -0.00000000000E+00 -0.14349984434E+04  0.14349984434E+04  0.00000000000E+00 0.  1.
         23    2    1    2    0    0  0.53557336614E+01  0.99110484906E+03 -0.92866312871E+03  0.13609731924E+04  0.86690933780E+02 0.  0.
         13    1    3    3    0    0 -0.40678966854E+02  0.47671992441E+03 -0.44350590175E+03  0.65239110169E+03  0.00000000000E+00 0. -1.
        -13    1    3    3    0    0  0.46034700515E+02  0.51438492464E+03 -0.48515722696E+03  0.70858209068E+03  0.00000000000E+00 0.  1.
         22    1    1    2    0    0 -0.53557336614E+01 -0.99110484906E+03  0.55611903839E+03  0.11364796041E+04  0.00000000000E+00 0. -1.
<mgrwt>
<rscale>  0 0.24695104E+04</rscale>
<asrwt>0</asrwt>
<pdfrwt beam="1">  1        2 0.16345451E+00 0.24695104E+04</pdfrwt>
<pdfrwt beam="2">  1       -2 0.22076899E+00 0.24695104E+04</pdfrwt>
<totfact> 0.20087156E+00</totfact>
</mgrwt>
</event>
<event>
 6    1  0.1528034E-005  0.6481039E+03  0.7818608E-02  0.9810344E-01
          1   -1    0    0  501    0  0.00000000000E+00  0.00000000000E+00  0.19883103485E+04  0.19883103485E+04  0.00000000000E+00 0. -1.
         -1   -1    0    0    0  501 -0.00000000000E+00 -0.00000000000E+00 -0.52813516181E+02  0.52813516181E+02  0.00000000000E+00 0.  1.
         23    2    1    2    0    0  0.20183569891E+03  0.22268389012E+03  0.13114594020E+04  0.13484850853E+04  0.90335474039E+02 0.  0.
         13    1    3    3    0    0  0.11047598627E+03  0.63146951550E+02  0.62581577274E+03  0.63862184620E+03  0.00000000000E+00 0. -1.
        -13    1    3    3    0    0  0.91359712646E+02  0.15953693857E+03  0.68564362930E+03  0.70986323912E+03  0.00000000000E+00 0.  1.
         22    1    1    2    0    0 -0.20183569891E+03 -0.22268389012E+03  0.62403743027E+03  0.69263877934E+03  0.00000000000E+00 0.  1.
<mgrwt>
<rscale>  0 0.64810388E+03</rscale>
<asrwt>0</asrwt>
<pdfrwt beam="1">  1        1 0.30589384E+00 0.64810388E+03</pdfrwt>
<pdfrwt beam="2">  1       -1 0.81251579E-02 0.64810388E+03</pdfrwt>
<totfact> 0.27556797E+02</totfact>
</mgrwt>
</event>
<event>
 6    1  0.1528034E-005  0.2299311E+04  0.7818608E-02  0.8478193E-01
          2   -1    0    0  501    0  0.00000000000E+00  0.00000000000E+00  0.18916524421E+04  0.18916524421E+04  0.00000000000E+00 0. -1.
         -2   -1    0    0    0  501 -0.00000000000E+00 -0.00000000000E+00 -0.69870523854E+03  0.69870523854E+03  0.00000000000E+00 0.  1.
         23    2    1    2    0    0 -0.35150862289E+03 -0.43496613040E+03  0.17266149091E+04  0.18173408202E+04  0.93673720845E+02 0.  0.
         11    1    3    3    0    0 -0.10414815244E+03 -0.14962310215E+03  0.70419613855E+03  0.72741055251E+03  0.00000000000E+00 0.  1.
        -11    1    3    3    0    0 -0.24736047046E+03 -0.28534302825E+03  0.10224187705E+04  0.10899302677E+04  0.00000000000E+00 0. -1.
         22    1    1    2    0    0  0.35150862289E+03  0.43496613040E+03 -0.53366770553E+03  0.77301686041E+03  0.00000000000E+00 0.  1.
<mgrwt>
<rscale>  0 0.22993107E+04</rscale>
<asrwt>0</asrwt>
<pdfrwt beam="1">  1        2 0.29102345E+00 0.22993107E+04</pdfrwt>
<pdfrwt beam="2">  1       -2 0.10749311E+00 0.22993107E+04</pdfrwt>
<totfact> 0.48340772E+00</totfact>
</mgrwt>
</event>
<event>
 6    1  0.1528034E-005  0.1597180E+04  0.7818608E-02  0.8822282E-01
          1   -1    0    0  501    0  0.00000000000E+00  0.00000000000E+00  0.60826319456E+03  0.60826319456E+03  0.00000000000E+00 0. -1.
         -1   -1    0    0    0  501 -0.00000000000E+00 -0.00000000000E+00 -0.10484708230E+04  0.10484708230E+04  0.00000000000E+00 0.  1.
         23    2    1    2    0    0 -0.66350891459E+03  0.42466049992E+03 -0.10293177198E+03  0.79980016757E+03  0.92221138679E+02 0.  0.
         11    1    3    3    0    0 -0.27194988171E+03  0.22202578508E+03 -0.23877029522E+02  0.35188392964E+03  0.00000000000E+00 0.  1.
        -11    1    3    3    0    0 -0.39155903288E+03  0.20263471485E+03 -0.79054742454E+02  0.44791623793E+03  0.00000000000E+00 0. -1.
         22    1    1    2    0    0  0.66350891459E+03 -0.42466049992E+03 -0.33727585650E+03  0.85693385002E+03  0.00000000000E+00 0.  1.
<mgrwt>
<rscale>  0 0.15971803E+04</rscale>
<asrwt>0</asrwt>
<pdfrwt beam="1">  1        1 0.93578954E-01 0.15971803E+04</pdfrwt>
<pdfrwt beam="2">  1       -1 0.16130320E+00 0.15971803E+04</pdfrwt>
<totfact> 0.92055091E+00</totfact>
</mgrwt>
</event>
<event>
 6    1  0.1528034E-005  0.2507368E+04  0.7818608E-02  0.8400365E-01
          1   -1    0    0  501    0  0.00000000000E+00  0.00000000000E+00  0.18751765812E+04  0.18751765812E+04  0.00000000000E+00 0. -1.
         -1   -1    0    0    0  501 -0.00000000000E+00 -0.00000000000E+00 -0.83817360694E+03  0.83817360694E+03  0.00000000000E+00 0.  1.
         23    2    1    2    0    0  0.10112408792E+04  0.24405921876E+03  0.12730678551E+04  0.16466263972E+04  0.92215563724E+02 0.  0.
         11    1    3    3    0    0  0.95478468645E+03  0.22045359576E+03  0.12256404900E+04  0.15692062312E+04  0.00000000000E+00 0. -1.
        -11    1    3    3    0    0  0.56456192789E+02  0.23605623000E+02  0.47427365078E+02  0.77420165975E+02  0.00000000000E+00 0.  1.
         22    1    1    2    0    0 -0.10112408792E+04 -0.24405921876E+03 -0.23606488086E+03  0.10667237909E+04  0.00000000000E+00 0.  1.
<mgrwt>
<rscale>  0 0.25073680E+04</rscale>
<asrwt>0</asrwt>
<pdfrwt beam="1">  1        1 0.28848870E+00 0.25073680E+04</pdfrwt>
<pdfrwt beam="2">  1       -1 0.12894979E+00 0.25073680E+04</pdfrwt>
<totfact> 0.16643999E+00</totfact>
</mgrwt>
</event>
<event>
 6    1  0.1528034E-005  0.1144306E+04  0.7818608E-02  0.9163053E-01
          2   -1    0    0  501    0  0.00000000000E+00  0.00000000000E+00  0.29588961854E+04  0.29588961854E+04  0.00000000000E+00 0. -1.
         -2   -1    0    0    0  501 -0.00000000000E+00 -0.00000000000E+00 -0.11063547894E+03  0.11063547894E+03  0.00000000000E+00 0.  1.
         23    2    1    2    0    0 -0.21440375270E+03  0.35349522969E+02  0.28423956420E+04  0.28521542117E+04  0.91389842692E+02 0.  0.
         13    1    3    3    0    0 -0.60884270990E+02  0.38631057990E+02  0.13381781166E+04  0.13401193697E+04  0.00000000000E+00 0. -1.
        -13    1    3    3    0    0 -0.15351948171E+03 -0.32815350213E+01  0.15042175254E+04  0.15120348420E+04  0.00000000000E+00 0.  1.
         22    1    1    2    0    0  0.21440375270E+03 -0.35349522969E+02  0.58650644238E+01  0.21737745267E+03  0.00000000000E+00 0.  1.
<mgrwt>
<rscale>  0 0.11443057E+04</rscale>
<asrwt>0</asrwt>
<pdfrwt beam="1">  1        2 0.45521474E+00 0.11443057E+04</pdfrwt>
<pdfrwt beam="2">  1       -2 0.17020845E-01 0.11443057E+04</pdfrwt>
<totfact> 0.52591962E+01</totfact>
</mgrwt>
</event>
<event>
 6    1  0.1528034E-005  0.2107394E+04  0.7818608E-02  0.8557993E-01
         -2   -1    0    0    0  501 -0.00000000000E+00  0.00000000000E+00  0.61566572225E+03  0.61566572225E+03  0.00000000000E+00 0.  1.
          2   -1    0    0  501    0  0.00000000000E+00 -0.00000000000E+00 -0.18033775777E+04  0.18033775777E+04  0.00000000000E+00 0. -1.
         23    2    1    2    0    0  0.73614149796E+03  0.74475661342E+03 -0.49562616672E+03  0.11638344254E+04  0.11089884706E+03 0.  0.
         11    1    3    3    0    0  0.19627782752E+03  0.13805913623E+03 -0.13392418192E+03  0.27481083890E+03  0.00000000000E+00 0. -1.
        -11    1    3    3    0    0  0.53986367044E+03  0.60669747719E+03 -0.36170198480E+03  0.88902358647E+03  0.00000000000E+00 0.  1.
         22    1    1    2    0    0 -0.73614149796E+03 -0.74475661342E+03 -0.69208568871E+03  0.12552088746E+04  0.00000000000E+00 0.  1.
<mgrwt>
<rscale>  0 0.21073944E+04</rscale>
<asrwt>0</asrwt>
<pdfrwt beam="1">  1        2 0.27744270E+00 0.21073944E+04</pdfrwt>
<pdfrwt beam="2">  1       -2 0.94717805E-01 0.21073944E+04</pdfrwt>
<totfact> 0.74261796E+00</totfact>
</mgrwt>
</event>
<event>
 6    1  0.1528034E-005  0.2381661E+04  0.7818608E-02  0.8446401E-01
          1   -1    0    0  501    0  0.00000000000E+00  0.00000000000E+00  0.64503739022E+03  0.64503739022E+03  0.00000000000E+00 0. -1.
         -1   -1    0    0    0  501 -0.00000000000E+00 -0.00000000000E+00 -0.21984426084E+04  0.21984426084E+04  0.00000000000E+00 0.  1.
         23    2    1    2    0    0 -0.11329065841E+04  0.10812893993E+02 -0.12087340487E+04  0.16592534738E+04  0.92140344464E+02 0.  0.
         13    1    3    3    0    0 -0.57131510104E+03 -0.27201971427E+02 -0.65662678504E+03  0.87080401168E+03  0.00000000000E+00 0. -1.
        -13    1    3    3    0    0 -0.56159148302E+03  0.38014865420E+02 -0.55210726367E+03  0.78844946216E+03  0.00000000000E+00 0.  1.
         22    1    1    2    0    0  0.11329065841E+04 -0.10812893993E+02 -0.34467116946E+03  0.11842265248E+04  0.00000000000E+00 0. -1.
<mgrwt>
<rscale>  0 0.23816613E+04</rscale>
<asrwt>0</asrwt>
<pdfrwt beam="1">  1        1 0.99236522E-01 0.23816613E+04</pdfrwt>
<pdfrwt beam="2">  1       -1 0.33822194E+00 0.23816613E+04</pdfrwt>
<totfact> 0.51418037E-01</totfact>
</mgrwt>
</event>
<event>
 6    1  0.1528034E-005  0.2041510E+04  0.7818608E-02  0.8587455E-01
         -1   -1    0    0    0  501 -0.00000000000E+00  0.00000000000E+00  0.68037858243E+03  0.68037858243E+03  0.00000000000E+00 0.  1.
          1   -1    0    0  501    0  0.00000000000E+00 -0.00000000000E+00 -0.15314138299E+04  0.15314138299E+04  0.00000000000E+00 0. -1.
         23    2    1    2    0    0 -0.54641126261E+03  0.84863617576E+03 -0.57567471380E+03  0.11655744378E+04  0.91726589790E+02 0.  0.
         13    1    3    3    0    0 -0.20793615363E+03  0.27628166316E+03 -0.23819937641E+03  0.41989039559E+03  0.00000000000E+00 0. -1.
        -13    1    3    3    0    0 -0.33847510898E+03  0.57235451260E+03 -0.33747533739E+03  0.74568404223E+03  0.00000000000E+00 0.  1.
         22    1    1    2    0    0  0.54641126261E+03 -0.84863617576E+03 -0.27536053368E+03  0.10462179745E+04  0.00000000000E+00 0.  1.
<mgrwt>
<rscale>  0 0.20415104E+04</rscale>
<asrwt>0</asrwt>
<pdfrwt beam="1">  1        1 0.23560213E+00 0.20415104E+04</pdfrwt>
<pdfrwt beam="2">  1       -1 0.10467363E+00 0.20415104E+04</pdfrwt>
<totfact> 0.49317947E+00</totfact>
</mgrwt>
</event>
<event>
 6    1  0.1528034E-005  0.3093916E+04  0.7818608E-02  0.8217410E-01
          1   -1    0    0  501    0  0.00000000000E+00  0.00000000000E+00  0.27655925287E+04  0.27655925287E+04  0.00000000000E+00 0. -1.
         -1   -1    0    0    0  501 -0.00000000000E+00 -0.00000000000E+00 -0.86530401160E+03  0.86530401160E+03  0.00000000000E+00 0.  1.
         23    2    1    2    0    0  0.29214863204E+03  0.82044196086E+03 -0.54750893782E+03  0.10327841073E+04  0.91657737810E+02 0.  0.
         11    1    3    3    0    0  0.37808606796E+02  0.21752273677E+03 -0.12224644060E+03  0.25236842909E+03  0.00000000000E+00 0.  1.
        -11    1    3    3    0    0  0.25434002524E+03  0.60291922408E+03 -0.42526249722E+03  0.78041567818E+03  0.00000000000E+00 0. -1.
         22    1    1    2    0    0 -0.29214863204E+03 -0.82044196086E+03  0.24477974549E+04  0.25981124330E+04  0.00000000000E+00 0. -1.
<mgrwt>
<rscale>  0 0.30939155E+04</rscale>
<asrwt>0</asrwt>
<pdfrwt beam="1">  1        1 0.42547577E+00 0.30939155E+04</pdfrwt>
<pdfrwt beam="2">  1       -1 0.13312370E+00 0.30939155E+04</pdfrwt>
<totfact> 0.35521854E-01</totfact>
</mgrwt>
</event>
<event>
 6    1  0.1528034E-005  0.3265029E+04  0.7818608E-02  0.8171851E-01
          2   -1    0    0  501    0  0.00000000000E+00  0.00000000000E+00  0.42594136944E+04  0.42594136944E+04  0.00000000000E+00 0.  1.
         -2   -1    0    0    0  501 -0.00000000000E+00 -0.00000000000E+00 -0.62569713401E+03  0.62569713401E+03  0.00000000000E+00 0. -1.
         23    2    1    2    0    0  0.29498997473E+03 -0.11664962812E+04  0.17027735882E+03  0.12186215318E+04  0.91166878060E+02 0.  0.
         13    1    3    3    0    0  0.21309680336E+03 -0.90073675677E+03  0.16679210952E+03  0.94050867109E+03  0.00000000000E+00 0. -1.
        -13    1    3    3    0    0  0.81893171368E+02 -0.26575952441E+03  0.34852492923E+01  0.27811286071E+03  0.00000000000E+00 0.  1.
         22    1    1    2    0    0 -0.29498997473E+03  0.11664962812E+04  0.34634392016E+04  0.36664892966E+04  0.00000000000E+00 0.  1.
<mgrwt>
<rscale>  0 0.32650286E+04</rscale>
<asrwt>0</asrwt>
<pdfrwt beam="1">  1        2 0.65529440E+00 0.32650286E+04</pdfrwt>
<pdfrwt beam="2">  1       -2 0.96261100E-01 0.32650286E+04</pdfrwt>
<totfact> 0.15569004E-01</totfact>
</mgrwt>
</event>
<event>
 6    1  0.1528034E-005  0.2778802E+04  0.7818608E-02  0.8309880E-01
         -1   -1    0    0    0  501 -0.00000000000E+00  0.00000000000E+00  0.13602350890E+04  0.13602350890E+04  0.00000000000E+00 0.  1.
          1   -1    0    0  501    0  0.00000000000E+00 -0.00000000000E+00 -0.14191921371E+04  0.14191921371E+04  0.00000000000E+00 0. -1.
         23    2    1    2    0    0 -0.29070707706E+03 -0.10218032188E+04  0.86390270634E+03  0.13722092086E+04  0.89653798371E+02 0.  0.
         13    1    3    3    0    0 -0.89498163766E+02 -0.44160177879E+03  0.33045382262E+03  0.55876809253E+03  0.00000000000E+00 0.  1.
        -13    1    3    3    0    0 -0.20120891329E+03 -0.58020143999E+03  0.53344888372E+03  0.81344111606E+03  0.00000000000E+00 0. -1.
         22    1    1    2    0    0  0.29070707706E+03  0.10218032188E+04 -0.92285975442E+03  0.14072180175E+04  0.00000000000E+00 0. -1.
<mgrwt>
<rscale>  0 0.27788019E+04</rscale>
<asrwt>0</asrwt>
<pdfrwt beam="1">  1        1 0.21833725E+00 0.27788019E+04</pdfrwt>
<pdfrwt beam="2">  1       -1 0.20926694E+00 0.27788019E+04</pdfrwt>
<totfact> 0.84006791E-01</totfact>
</mgrwt>
</event>
<event>
 6    1  0.1528034E-005  0.2008557E+04  0.7818608E-02  0.8602630E-01
          2   -1    0    0  501    0  0.00000000000E+00  0.00000000000E+00  0.15622621172E+04  0.15622621172E+04  0.00000000000E+00 0. -1.
         -2   -1    0    0    0  501 -0.00000000000E+00 -0.00000000000E+00 -0.64558639717E+03  0.64558639717E+03  0.00000000000E+00 0.  1.
         23    2    1    2    0    0 -0.42131468624E+03  0.85811789574E+02 -0.53581608128E+03  0.69305408576E+03  0.91407684323E+02 0.  0.
         11    1    3    3    0    0 -0.24966247165E+03  0.54399339642E+02 -0.24560156301E+03  0.35441609113E+03  0.00000000000E+00 0. -1.
        -11    1    3    3    0    0 -0.17165221459E+03  0.31412449933E+02 -0.29021451827E+03  0.33863799462E+03  0.00000000000E+00 0.  1.
         22    1    1    2    0    0  0.42131468624E+03 -0.85811789574E+02  0.14524918013E+04  0.15147944286E+04  0.00000000000E+00 0. -1.
<mgrwt>
<rscale>  0 0.20085569E+04</rscale>
<asrwt>0</asrwt>
<pdfrwt beam="1">  1        2 0.24034802E+00 0.20085569E+04</pdfrwt>
<pdfrwt beam="2">  1       -2 0.99320985E-01 0.20085569E+04</pdfrwt>
<totfact> 0.91261100E+00</totfact>
</mgrwt>
</event>
<event>
 6    1  0.1528034E-005  0.3663786E+04  0.7818608E-02  0.8076035E-01
          1   -1    0    0  501    0  0.00000000000E+00  0.00000000000E+00  0.16892249850E+04  0.16892249850E+04  0.00000000000E+00 0. -1.
         -1   -1    0    0    0  501 -0.00000000000E+00 -0.00000000000E+00 -0.19866099232E+04  0.19866099232E+04  0.00000000000E+00 0.  1.
         23    2    1    2    0    0 -0.57552693862E+03  0.16532108591E+04 -0.68634033002E+03  0.18826188870E+04  0.94092631949E+02 0.  0.
         13    1    3    3    0    0 -0.45371688795E+03  0.13337872340E+04 -0.59037302317E+03  0.15275430293E+04  0.00000000000E+00 0. -1.
        -13    1    3    3    0    0 -0.12181005067E+03  0.31942362512E+03 -0.95967306851E+02  0.35507585769E+03  0.00000000000E+00 0.  1.
         22    1    1    2    0    0  0.57552693862E+03 -0.16532108591E+04  0.38895539181E+03  0.17932160212E+04  0.00000000000E+00 0. -1.
<mgrwt>
<rscale>  0 0.36637855E+04</rscale>
<asrwt>0</asrwt>
<pdfrwt beam="1">  1        1 0.25988077E+00 0.36637855E+04</pdfrwt>
<pdfrwt beam="2">  1       -1 0.30563230E+00 0.36637855E+04</pdfrwt>
<totfact> 0.11841262E-01</totfact>
</mgrwt>
</event>
<event>
 6    1  0.1528034E-005  0.4314303E+04  0.7818608E-02  0.7943979E-01
         -1   -1    0    0    0  501 -0.00000000000E+00  0.00000000000E+00  0.27342550411E+04  0.27342550411E+04  0.00000000000E+00 0.  1.
          1   -1    0    0  501    0  0.00000000000E+00 -0.00000000000E+00 -0.17018542045E+04  0.17018542045E+04  0.00000000000E+00 0. -1.
         23    2    1    2    0    0 -0.46724687152E+03  0.15746143214E+04  0.19527625238E+04  0.25533465056E+04  0.92558107099E+02 0.  0.
         13    1    3    3    0    0 -0.16697183232E+03  0.44485500408E+03  0.60397291466E+03  0.76847826846E+03  0.00000000000E+00 0. -1.
        -13    1    3    3    0    0 -0.30027503920E+03  0.11297593174E+04  0.13487896091E+04  0.17848682371E+04  0.00000000000E+00 0.  1.
         22    1    1    2    0    0  0.46724687152E+03 -0.15746143214E+04 -0.92036168716E+03  0.18827627401E+04  0.00000000000E+00 0. -1.
<mgrwt>
<rscale>  0 0.43143034E+04</rscale>
<asrwt>0</asrwt>
<pdfrwt beam="1">  1        1 0.26182372E+00 0.43143034E+04</pdfrwt>
<pdfrwt beam="2">  1       -1 0.42065462E+00 0.43143034E+04</pdfrwt>
<totfact> 0.18701958E-02</totfact>
</mgrwt>
</event>
<event>
 6    1  0.1528034E-005  0.3685111E+04  0.7818608E-02  0.8071269E-01
         -2   -1    0    0    0  501 -0.00000000000E+00  0.00000000000E+00  0.10255793712E+04  0.10255793712E+04  0.00000000000E+00 0.  1.
          2   -1    0    0  501    0  0.00000000000E+00 -0.00000000000E+00 -0.33103349033E+04  0.33103349033E+04  0.00000000000E+00 0. -1.
         23    2    1    2    0    0 -0.21267163595E+03 -0.15880557130E+04 -0.22109679763E+04  0.27319832362E+04  0.90569523180E+02 0.  0.
         11    1    3    3    0    0 -0.15044317320E+03 -0.10977634736E+04 -0.15986338032E+04  0.19450829877E+04  0.00000000000E+00 0. -1.
        -11    1    3    3    0    0 -0.62228462751E+02 -0.49029223935E+03 -0.61233417303E+03  0.78690024844E+03  0.00000000000E+00 0.  1.
         22    1    1    2    0    0  0.21267163595E+03  0.15880557130E+04 -0.73787555907E+02  0.16039310383E+04  0.00000000000E+00 0.  1.
<mgrwt>
<rscale>  0 0.36851112E+04</rscale>
<asrwt>0</asrwt>
<pdfrwt beam="1">  1        2 0.50928230E+00 0.36851112E+04</pdfrwt>
<pdfrwt beam="2">  1       -2 0.15778144E+00 0.36851112E+04</pdfrwt>
<totfact> 0.23185692E-01</totfact>
</mgrwt>
</event>
<event>
 6    1  0.1528034E-005  0.9509846E+03  0.7818608E-02  0.9364000E-01
         -2   -1    0    0    0  501 -0.00000000000E+00  0.00000000000E+00  0.20203227059E+03  0.20203227059E+03  0.00000000000E+00 0.  1.
          2   -1    0    0  501    0  0.00000000000E+00 -0.00000000000E+00 -0.11190931323E+04  0.11190931323E+04  0.00000000000E+00 0. -1.
         23    2    1    2    0    0 -0.18054047203E+03  0.43533321098E+03 -0.47922424717E+03  0.67784415207E+03  0.87789229316E+02 0.  0.
         11    1    3    3    0    0 -0.78625736222E+02  0.25442665785E+03 -0.31919810326E+03  0.41569503214E+03  0.00000000000E+00 0. -1.
        -11    1    3    3    0    0 -0.10191473581E+03  0.18090655314E+03 -0.16002614391E+03  0.26214911993E+03  0.00000000000E+00 0.  1.
         22    1    1    2    0    0  0.18054047203E+03 -0.43533321098E+03 -0.43783661454E+03  0.64328125082E+03  0.00000000000E+00 0. -1.
<mgrwt>
<rscale>  0 0.95098460E+03</rscale>
<asrwt>0</asrwt>
<pdfrwt beam="1">  1        2 0.17216817E+00 0.95098460E+03</pdfrwt>
<pdfrwt beam="2">  1       -2 0.31081888E-01 0.95098460E+03</pdfrwt>
<totfact> 0.20329818E+02</totfact>
</mgrwt>
</event>
<event>
 6    1  0.1528034E-005  0.3407916E+04  0.7818608E-02  0.8135966E-01
         -1   -1    0    0    0  501 -0.00000000000E+00  0.00000000000E+00  0.10202096347E+04  0.10202096347E+04  0.00000000000E+00 0.  1.
          1   -1    0    0  501    0  0.00000000000E+00 -0.00000000000E+00 -0.28459571957E+04  0.28459571957E+04  0.00000000000E+00 0. -1.
         23    2    1    2    0    0  0.10430566100E+04  0.12344520805E+04 -0.30550641733E+03  0.16473896524E+04  0.93378075952E+02 0.  0.
         13    1    3    3    0    0  0.78976999335E+03  0.94378828818E+03 -0.19228705527E+03  0.12455710686E+04  0.00000000000E+00 0.  1.
        -13    1    3    3    0    0  0.25328661662E+03  0.29066379233E+03 -0.11321936205E+03  0.40181858379E+03  0.00000000000E+00 0. -1.
         22    1    1    2    0    0 -0.10430566100E+04 -0.12344520805E+04 -0.15202411436E+04  0.22187771780E+04  0.00000000000E+00 0. -1.
<mgrwt>
<rscale>  0 0.34079160E+04</rscale>
<asrwt>0</asrwt>
<pdfrwt beam="1">  1        1 0.43783957E+00 0.34079160E+04</pdfrwt>
<pdfrwt beam="2">  1       -1 0.15695533E+00 0.34079160E+04</pdfrwt>
<totfact> 0.19570955E-01</totfact>
</mgrwt>
</event>
<event>
 6    1  0.1528034E-005  0.1785916E+04  0.7818608E-02  0.8713825E-01
          2   -1    0    0  501    0  0.00000000000E+00  0.00000000000E+00  0.22012095886E+04  0.22012095886E+04  0.00000000000E+00 0. -1.
         -2   -1    0    0    0  501 -0.00000000000E+00 -0.00000000000E+00 -0.36224372027E+03  0.36224372027E+03  0.00000000000E+00 0.  1.
         23    2    1    2    0    0  0.19275959987E+03 -0.84857694993E+03  0.11913029047E+04  0.14786923132E+04  0.10044522387E+03 0.  0.
         13    1    3    3    0    0  0.42119471690E+02 -0.33723498859E+03  0.52483331433E+03  0.62526114165E+03  0.00000000000E+00 0. -1.
        -13    1    3    3    0    0  0.15064012817E+03 -0.51134196134E+03  0.66646959040E+03  0.85343117155E+03  0.00000000000E+00 0.  1.
         22    1    1    2    0    0 -0.19275959987E+03  0.84857694993E+03  0.64766296359E+03  0.10847609957E+04  0.00000000000E+00 0.  1.
<mgrwt>
<rscale>  0 0.17859164E+04</rscale>
<asrwt>0</asrwt>
<pdfrwt beam="1">  1        2 0.33864762E+00 0.17859164E+04</pdfrwt>
<pdfrwt beam="2">  1       -2 0.55729804E-01 0.17859164E+04</pdfrwt>
<totfact> 0.14743684E+01</totfact>
</mgrwt>
</event>
<event>
 6    1  0.1528034E-005  0.3105592E+04  0.7818608E-02  0.8214205E-01
         -1   -1    0    0    0  501 -0.00000000000E+00  0.00000000000E+00  0.11611631994E+04  0.11611631994E+04  0.00000000000E+00 0.  1.
          1   -1    0    0  501    0  0.00000000000E+00 -0.00000000000E+00 -0.20765177599E+04  0.20765177599E+04  0.00000000000E+00 0. -1.
         23    2    1    2    0    0 -0.12413027797E+04 -0.57616631743E+03  0.30354839762E+03  0.14050531636E+04  0.96086141134E+02 0.  0.
         13    1    3    3    0    0 -0.10541104999E+04 -0.46026868499E+03  0.23049386584E+03  0.11730829598E+04  0.00000000000E+00 0.  1.
        -13    1    3    3    0    0 -0.18719227980E+03 -0.11589763244E+03  0.73054531776E+02  0.23197020376E+03  0.00000000000E+00 0. -1.
         22    1    1    2    0    0  0.12413027797E+04  0.57616631743E+03 -0.12189029581E+04  0.18326277957E+04  0.00000000000E+00 0. -1.
<mgrwt>
<rscale>  0 0.31055924E+04</rscale>
<asrwt>0</asrwt>
<pdfrwt beam="1">  1        1 0.31946426E+00 0.31055924E+04</pdfrwt>
<pdfrwt beam="2">  1       -1 0.17864050E+00 0.31055924E+04</pdfrwt>
<totfact> 0.47463556E-01</totfact>
</mgrwt>
</event>
<event>
 6    1  0.1528034E-005  0.2644562E+04  0.7818608E-02  0.8353220E-01
         -2   -1    0    0    0  501 -0.00000000000E+00  0.00000000000E+00  0.12483811404E+04  0.12483811404E+04  0.00000000000E+00 0.  1.
          2   -1    0    0  501    0  0.00000000000E+00 -0.00000000000E+00 -0.14005552796E+04  0.14005552796E+04  0.00000000000E+00 0. -1.
         23    2    1    2    0    0 -0.21349069133E+02 -0.29500886293E+03  0.12130465399E+04  0.12520421810E+04  0.92960761329E+02 0.  0.
         13    1    3    3    0    0 -0.21188029986E+01 -0.85839261541E+02  0.54583238068E+03  0.55254489044E+03  0.00000000000E+00 0.  1.
        -13    1    3    3    0    0 -0.19230266134E+02 -0.20916960138E+03  0.66721415922E+03  0.69949729059E+03  0.00000000000E+00 0. -1.
         22    1    1    2    0    0  0.21349069133E+02  0.29500886293E+03 -0.13652206792E+04  0.13968942390E+04  0.00000000000E+00 0. -1.
<mgrwt>
<rscale>  0 0.26445618E+04</rscale>
<asrwt>0</asrwt>
<pdfrwt beam="1">  1        2 0.21547004E+00 0.26445618E+04</pdfrwt>
<pdfrwt beam="2">  1       -2 0.19205864E+00 0.26445618E+04</pdfrwt>
<totfact> 0.19137328E+00</totfact>
</mgrwt>
</event>
<event>
 6    1  0.1528034E-005  0.1645455E+04  0.7818608E-02  0.8793100E-01
         -2   -1    0    0    0  501 -0.00000000000E+00  0.00000000000E+00  0.51492043794E+03  0.51492043794E+03  0.00000000000E+00 0. -1.
          2   -1    0    0  501    0  0.00000000000E+00 -0.00000000000E+00 -0.13145345698E+04  0.13145345698E+04  0.00000000000E+00 0.  1.
         23    2    1    2    0    0 -0.63536950773E+03 -0.12396202565E+03 -0.96095341994E+03  0.11623033300E+04  0.91959559460E+02 0.  0.
         13    1    3    3    0    0 -0.14784457249E+03 -0.66196284923E+02 -0.26580613731E+03  0.31127619309E+03  0.00000000000E+00 0.  1.
        -13    1    3    3    0    0 -0.48752493524E+03 -0.57765740723E+02 -0.69514728263E+03  0.85102713695E+03  0.00000000000E+00 0. -1.
         22    1    1    2    0    0  0.63536950773E+03  0.12396202565E+03  0.16133928810E+03  0.66715167768E+03  0.00000000000E+00 0. -1.
<mgrwt>
<rscale>  0 0.16454552E+04</rscale>
<asrwt>0</asrwt>
<pdfrwt beam="1">  1        2 0.20223609E+00 0.16454552E+04</pdfrwt>
<pdfrwt beam="2">  1       -2 0.79218528E-01 0.16454552E+04</pdfrwt>
<totfact> 0.21894025E+01</totfact>
</mgrwt>
</event>
<event>
 6    1  0.1528034E-005  0.2216317E+04  0.7818608E-02  0.8511667E-01
         -2   -1    0    0    0  501 -0.00000000000E+00  0.00000000000E+00  0.66140807112E+03  0.66140807112E+03  0.00000000000E+00 0. -1.
          2   -1    0    0  501    0  0.00000000000E+00 -0.00000000000E+00 -0.18566682134E+04  0.18566682134E+04  0.00000000000E+00 0.  1.
         23    2    1    2    0    0 -0.53332103750E+02 -0.74706140905E+03 -0.15236918019E+04  0.17002667606E+04  0.91243015436E+02 0.  0.
         11    1    3    3    0    0 -0.38793213712E+02 -0.10125162541E+03 -0.22874532769E+03  0.25314270683E+03  0.00000000000E+00 0. -1.
        -11    1    3    3    0    0 -0.14538890038E+02 -0.64580978364E+03 -0.12949464742E+04  0.14471240538E+04  0.00000000000E+00 0.  1.
         22    1    1    2    0    0  0.53332103750E+02  0.74706140905E+03  0.32843165970E+03  0.81780952383E+03  0.00000000000E+00 0. -1.
<mgrwt>
<rscale>  0 0.22163171E+04</rscale>
<asrwt>0</asrwt>
<pdfrwt beam="1">  1        2 0.28564126E+00 0.22163171E+04</pdfrwt>
<pdfrwt beam="2">  1       -2 0.10175509E+00 0.22163171E+04</pdfrwt>
<totfact> 0.58057781E+00</totfact>
</mgrwt>
</event>
<event>
 6    1  0.1528034E-005  0.2020146E+04  0.7818608E-02  0.8597259E-01
         -2   -1    0    0    0  501 -0.00000000000E+00  0.00000000000E+00  0.50957566828E+03  0.50957566828E+03  0.00000000000E+00 0.  1.
          2   -1    0    0  501    0  0.00000000000E+00 -0.00000000000E+00 -0.20021511575E+04  0.20021511575E+04  0.00000000000E+00 0. -1.
         23    2    1    2    0    0 -0.26866244666E+03  0.68685007118E+03  0.10662944292E+03  0.75064791059E+03  0.90332259163E+02 0.  0.
         11    1    3    3    0    0 -0.24744726015E+03  0.56473832341E+03  0.65401490766E+02  0.62002973757E+03  0.00000000000E+00 0.  1.
        -11    1    3    3    0    0 -0.21215186514E+02  0.12211174777E+03  0.41227952155E+02  0.13061817301E+03  0.00000000000E+00 0. -1.
         22    1    1    2    0    0  0.26866244666E+03 -0.68685007118E+03 -0.15992049321E+04  0.17610789151E+04  0.00000000000E+00 0. -1.
<mgrwt>
<rscale>  0 0.20201460E+04</rscale>
<asrwt>0</asrwt>
<pdfrwt beam="1">  1        2 0.30802326E+00 0.20201460E+04</pdfrwt>
<pdfrwt beam="2">  1       -2 0.78396256E-01 0.20201460E+04</pdfrwt>
<totfact> 0.89394906E+00</totfact>
</mgrwt>
</event>
<event>
 6    1  0.1528034E-005  0.2888978E+04  0.7818608E-02  0.8276164E-01
         -1   -1    0    0    0  501 -0.00000000000E+00  0.00000000000E+00  0.24376252579E+04  0.24376252579E+04  0.00000000000E+00 0.  1.
          1   -1    0    0  501    0  0.00000000000E+00 -0.00000000000E+00 -0.85597581945E+03  0.85597581945E+03  0.00000000000E+00 0. -1.
         23    2    1    2    0    0  0.19668455197E+03  0.13379397940E+04  0.13659170646E+04  0.19241821632E+04  0.89330087567E+02 0.  0.
         11    1    3    3    0    0  0.14937197764E+03  0.71968406841E+03  0.75656285985E+03  0.10548196561E+04  0.00000000000E+00 0.  1.
        -11    1    3    3    0    0  0.47312574328E+02  0.61825572554E+03  0.60935420477E+03  0.86936250709E+03  0.00000000000E+00 0. -1.
         22    1    1    2    0    0 -0.19668455197E+03 -0.13379397940E+04  0.21573237380E+03  0.13694189141E+04  0.00000000000E+00 0. -1.
<mgrwt>
<rscale>  0 0.28889779E+04</rscale>
<asrwt>0</asrwt>
<pdfrwt beam="1">  1        1 0.13168859E+00 0.28889779E+04</pdfrwt>
<pdfrwt beam="2">  1       -1 0.37501927E+00 0.28889779E+04</pdfrwt>
<totfact> 0.17974628E-01</totfact>
</mgrwt>
</event>
<event>
 6    1  0.1528034E-005  0.1235102E+04  0.7818608E-02  0.9082675E-01
          1   -1    0    0  501    0  0.00000000000E+00  0.00000000000E+00  0.15161989916E+04  0.15161989916E+04  0.00000000000E+00 0. -1.
         -1   -1    0    0    0  501 -0.00000000000E+00 -0.00000000000E+00 -0.25152976146E+03  0.25152976146E+03  0.00000000000E+00 0.  1.
         23    2    1    2    0    0 -0.14224043878E+03 -0.57478537860E+03  0.86883625696E+03  0.10554827868E+04  0.92503501871E+02 0.  0.
         11    1    3    3    0    0 -0.93445955855E+01 -0.20829498940E+03  0.33163748992E+03  0.39173658088E+03  0.00000000000E+00 0. -1.
        -11    1    3    3    0    0 -0.13289584319E+03 -0.36649038919E+03  0.53719876703E+03  0.66374620587E+03  0.00000000000E+00 0.  1.
         22    1    1    2    0    0  0.14224043878E+03  0.57478537860E+03  0.39583297321E+03  0.71224596633E+03  0.00000000000E+00 0.  1.
<mgrwt>
<rscale>  0 0.12351019E+04</rscale>
<asrwt>0</asrwt>
<pdfrwt beam="1">  1        1 0.23326138E+00 0.12351019E+04</pdfrwt>
<pdfrwt beam="2">  1       -1 0.38696887E-01 0.12351019E+04</pdfrwt>
<totfact> 0.40716882E+01</totfact>
</mgrwt>
</event>
<event>
 6    1  0.1528034E-005  0.1288809E+04  0.7818608E-02  0.9038487E-01
          1   -1    0    0  501    0  0.00000000000E+00  0.00000000000E+00  0.27107714957E+04  0.27107714957E+04  0.00000000000E+00 0. -1.
         -1   -1    0    0    0  501 -0.00000000000E+00 -0.00000000000E+00 -0.15318782193E+03  0.15318782193E+03  0.00000000000E+00 0.  1.
         23    2    1    2    0    0 -0.61626671717E+03 -0.31963836389E+01  0.89114957198E+03  0.10872214363E+04  0.90044479262E+02 0.  0.
         13    1    3    3    0    0 -0.17980158844E+03 -0.86865477385E+01  0.33425973351E+03  0.37964936028E+03  0.00000000000E+00 0. -1.
        -13    1    3    3    0    0 -0.43646512873E+03  0.54901640996E+01  0.55688983847E+03  0.70757207597E+03  0.00000000000E+00 0.  1.
         22    1    1    2    0    0  0.61626671717E+03  0.31963836389E+01  0.16664341018E+04  0.17767378814E+04  0.00000000000E+00 0. -1.
<mgrwt>
<rscale>  0 0.12888090E+04</rscale>
<asrwt>0</asrwt>
<pdfrwt beam="1">  1        1 0.41704173E+00 0.12888090E+04</pdfrwt>
<pdfrwt beam="2">  1       -1 0.23567359E-01 0.12888090E+04</pdfrwt>
<totfact> 0.14796469E+01</totfact>
</mgrwt>
</event>
<event>
 6    1  0.1528034E-005  0.1311516E+04  0.7818608E-02  0.9020482E-01
          2   -1    0    0  501    0  0.00000000000E+00  0.00000000000E+00  0.32661449517E+03  0.32661449517E+03  0.00000000000E+00 0.  1.
         -2   -1    0    0    0  501 -0.00000000000E+00 -0.00000000000E+00 -0.13165933685E+04  0.13165933685E+04  0.00000000000E+00 0. -1.
         23    2    1    2    0    0  0.15411088215E+02 -0.39821086955E+03 -0.11447728015E+04  0.12156911289E+04  0.92686328835E+02 0.  0.
         13    1    3    3    0    0  0.18667128881E+02 -0.34957738167E+02 -0.61793855961E+02  0.73409711844E+02  0.00000000000E+00 0. -1.
        -13    1    3    3    0    0 -0.32560406661E+01 -0.36325313138E+03 -0.10829789456E+04  0.11422814171E+04  0.00000000000E+00 0.  1.
         22    1    1    2    0    0 -0.15411088215E+02  0.39821086955E+03  0.15479392821E+03  0.42751673473E+03  0.00000000000E+00 0.  1.
<mgrwt>
<rscale>  0 0.13115159E+04</rscale>
<asrwt>0</asrwt>
<pdfrwt beam="1">  1        2 0.50248385E-01 0.13115159E+04</pdfrwt>
<pdfrwt beam="2">  1       -2 0.20255282E+00 0.13115159E+04</pdfrwt>
<totfact> 0.12504835E+01</totfact>
</mgrwt>
</event>
<event>
 6    1  0.1528034E-005  0.2221741E+04  0.7818608E-02  0.8509433E-01
         -2   -1    0    0    0  501 -0.00000000000E+00  0.00000000000E+00  0.10171879694E+04  0.10171879694E+04  0.00000000000E+00 0. -1.
          2   -1    0    0  501    0  0.00000000000E+00 -0.00000000000E+00 -0.12131806595E+04  0.12131806595E+04  0.00000000000E+00 0.  1.
         23    2    1    2    0    0  0.36027006653E+03 -0.76252295726E+03 -0.82113807393E+03  0.11805864934E+04  0.90999729144E+02 0.  0.
         13    1    3    3    0    0  0.79352491862E+02 -0.11749312229E+03 -0.17624334202E+03  0.22619276593E+03  0.00000000000E+00 0. -1.
        -13    1    3    3    0    0  0.28091757466E+03 -0.64502983497E+03 -0.64489473191E+03  0.95439372745E+03  0.00000000000E+00 0.  1.
         22    1    1    2    0    0 -0.36027006653E+03  0.76252295726E+03  0.62514538381E+03  0.10497821355E+04  0.00000000000E+00 0. -1.
<mgrwt>
<rscale>  0 0.22217406E+04</rscale>
<asrwt>0</asrwt>
<pdfrwt beam="1">  1        2 0.18664318E+00 0.22217406E+04</pdfrwt>
<pdfrwt beam="2">  1       -2 0.15649046E+00 0.22217406E+04</pdfrwt>
<totfact> 0.45405829E+00</totfact>
</mgrwt>
</event>
<event>
 6    1  0.1528034E-005  0.2403441E+04  0.7818608E-02  0.8438216E-01
          1   -1    0    0  501    0  0.00000000000E+00  0.00000000000E+00  0.17261736951E+04  0.17261736951E+04  0.00000000000E+00 0. -1.
         -1   -1    0    0    0  501 -0.00000000000E+00 -0.00000000000E+00 -0.83660882922E+03  0.83660882922E+03  0.00000000000E+00 0.  1.
         23    2    1    2    0    0 -0.64608391083E+03 -0.42039810229E+03 -0.53509051790E+03  0.94296711917E+03  0.93306705189E+02 0.  0.
         13    1    3    3    0    0 -0.59296440413E+03 -0.38705590602E+03 -0.45685006136E+03  0.84269273019E+03  0.00000000000E+00 0.  1.
        -13    1    3    3    0    0 -0.53119506703E+02 -0.33342196273E+02 -0.78240456547E+02  0.10027438898E+03  0.00000000000E+00 0. -1.
         22    1    1    2    0    0  0.64608391083E+03  0.42039810229E+03  0.14246553838E+04  0.16198154052E+04  0.00000000000E+00 0. -1.
<mgrwt>
<rscale>  0 0.24034410E+04</rscale>
<asrwt>0</asrwt>
<pdfrwt beam="1">  1        1 0.26556518E+00 0.24034410E+04</pdfrwt>
<pdfrwt beam="2">  1       -1 0.12870905E+00 0.24034410E+04</pdfrwt>
<totfact> 0.21309768E+00</totfact>
</mgrwt>
</event>
<event>
 6    1  0.1528034E-005  0.5299368E+04  0.7818608E-02  0.7783916E-01
          1   -1    0    0  501    0  0.00000000000E+00  0.00000000000E+00  0.37247954378E+04  0.37247954378E+04  0.00000000000E+00 0. -1.
         -1   -1    0    0    0  501 -0.00000000000E+00 -0.00000000000E+00 -0.18848890503E+04  0.18848890503E+04  0.00000000000E+00 0.  1.
         23    2    1    2    0    0  0.72051612694E+03 -0.68080083647E+03  0.35205603076E+04  0.36584718222E+04  0.86243414780E+02 0.  0.
         13    1    3    3    0    0  0.50127554889E+03 -0.42282911296E+03  0.22569049560E+04  0.23502513940E+04  0.00000000000E+00 0. -1.
        -13    1    3    3    0    0  0.21924057805E+03 -0.25797172351E+03  0.12636553516E+04  0.13082204282E+04  0.00000000000E+00 0.  1.
         22    1    1    2    0    0 -0.72051612694E+03  0.68080083647E+03 -0.16806539202E+04  0.19512126659E+04  0.00000000000E+00 0.  1.
<mgrwt>
<rscale>  0 0.52993683E+04</rscale>
<asrwt>0</asrwt>
<pdfrwt beam="1">  1        1 0.57304545E+00 0.52993683E+04</pdfrwt>
<pdfrwt beam="2">  1       -1 0.28998293E+00 0.52993683E+04</pdfrwt>
<totfact> 0.44427057E-03</totfact>
</mgrwt>
</event>
<event>
 6    1  0.1528034E-005  0.1358911E+04  0.7818608E-02  0.8984110E-01
          1   -1    0    0  501    0  0.00000000000E+00  0.00000000000E+00  0.13885858973E+04  0.13885858973E+04  0.00000000000E+00 0. -1.
         -1   -1    0    0    0  501 -0.00000000000E+00 -0.00000000000E+00 -0.33246734954E+03  0.33246734954E+03  0.00000000000E+00 0.  1.
         23    2    1    2    0    0 -0.16933921529E+03 -0.31331032990E+03 -0.19778446934E+03  0.41755337766E+03  0.91613286272E+02 0.  0.
         13    1    3    3    0    0 -0.68703087781E+02 -0.47699561709E+02 -0.48288387660E+02  0.96577072023E+02  0.00000000000E+00 0. -1.
        -13    1    3    3    0    0 -0.10063612751E+03 -0.26561076819E+03 -0.14949608168E+03  0.32097630563E+03  0.00000000000E+00 0.  1.
         22    1    1    2    0    0  0.16933921529E+03  0.31331032990E+03  0.12539030171E+04  0.13034998692E+04  0.00000000000E+00 0. -1.
<mgrwt>
<rscale>  0 0.13589106E+04</rscale>
<asrwt>0</asrwt>
<pdfrwt beam="1">  1        1 0.21362860E+00 0.13589106E+04</pdfrwt>
<pdfrwt beam="2">  1       -1 0.51148824E-01 0.13589106E+04</pdfrwt>
<totfact> 0.29418244E+01</totfact>
</mgrwt>
</event>
<event>
 6    1  0.1528034E-005  0.3542477E+04  0.7818608E-02  0.8103797E-01
         -2   -1    0    0    0  501 -0.00000000000E+00  0.00000000000E+00  0.12491337321E+04  0.12491337321E+04  0.00000000000E+00 0.  1.
          2   -1    0    0  501    0  0.00000000000E+00 -0.00000000000E+00 -0.25115688964E+04  0.25115688964E+04  0.00000000000E+00 0. -1.
         23    2    1    2    0    0  0.93323981208E+03 -0.39751209586E+03  0.90828643949E+03  0.13646674255E+04  0.91545140794E+02 0.  0.
         11    1    3    3    0    0  0.22334732527E+03 -0.88538162126E+02  0.16540525170E+03  0.29168807166E+03  0.00000000000E+00 0.  1.
        -11    1    3    3    0    0  0.70989248681E+03 -0.30897393374E+03  0.74288118780E+03  0.10729793538E+04  0.00000000000E+00 0. -1.
         22    1    1    2    0    0 -0.93323981208E+03  0.39751209586E+03 -0.21707216038E+04  0.23960352031E+04  0.00000000000E+00 0. -1.
<mgrwt>
<rscale>  0 0.35424768E+04</rscale>
<asrwt>0</asrwt>
<pdfrwt beam="1">  1        2 0.38639521E+00 0.35424768E+04</pdfrwt>
<pdfrwt beam="2">  1       -2 0.19217442E+00 0.35424768E+04</pdfrwt>
<totfact> 0.42066213E-01</totfact>
</mgrwt>
</event>
<event>
 6    1  0.1528034E-005  0.3590811E+04  0.7818608E-02  0.8092600E-01
          2   -1    0    0  501    0  0.00000000000E+00  0.00000000000E+00  0.20347569140E+04  0.20347569140E+04  0.00000000000E+00 0. -1.
         -2   -1    0    0    0  501 -0.00000000000E+00 -0.00000000000E+00 -0.15842097040E+04  0.15842097040E+04  0.00000000000E+00 0.  1.
         23    2    1    2    0    0 -0.18386701607E+03 -0.10272509331E+04  0.16964692131E+04  0.19937364198E+04  0.89025621386E+02 0.  0.
         11    1    3    3    0    0 -0.13703176119E+03 -0.90550565243E+03  0.14532869891E+04  0.17177780016E+04  0.00000000000E+00 0.  1.
        -11    1    3    3    0    0 -0.46835254883E+02 -0.12174528069E+03  0.24318222401E+03  0.27595841815E+03  0.00000000000E+00 0. -1.
         22    1    1    2    0    0  0.18386701607E+03  0.10272509331E+04 -0.12459220032E+04  0.16252301982E+04  0.00000000000E+00 0.  1.
<mgrwt>
<rscale>  0 0.35908114E+04</rscale>
<asrwt>0</asrwt>
<pdfrwt beam="1">  1        2 0.31303953E+00 0.35908114E+04</pdfrwt>
<pdfrwt beam="2">  1       -2 0.24372457E+00 0.35908114E+04</pdfrwt>
<totfact> 0.36615352E-01</totfact>
</mgrwt>
</event>
<event>
 6    1  0.1528034E-005  0.1192687E+04  0.7818608E-02  0.9119281E-01
          3   -1    0    0  501    0  0.00000000000E+00  0.00000000000E+00  0.63506376673E+03  0.63506376673E+03  0.00000000000E+00 0. -1.
         -3   -1    0    0    0  501 -0.00000000000E+00 -0.00000000000E+00 -0.55998437246E+03  0.55998437246E+03  0.00000000000E+00 0.  1.
         23    2    1    2    0    0  0.36553720838E+03  0.70038598385E+02  0.50023098272E+03  0.63000236306E+03  0.90272284867E+02 0.  0.
         11    1    3    3    0    0  0.14572307848E+03  0.52460959079E+02  0.14664575587E+03  0.21328934700E+03  0.00000000000E+00 0. -1.
        -11    1    3    3    0    0  0.21981412990E+03  0.17577639307E+02  0.35358522685E+03  0.41671301606E+03  0.00000000000E+00 0.  1.
         22    1    1    2    0    0 -0.36553720838E+03 -0.70038598385E+02 -0.42515158844E+03  0.56504577613E+03  0.00000000000E+00 0.  1.
<mgrwt>
<rscale>  0 0.11926874E+04</rscale>
<asrwt>0</asrwt>
<pdfrwt beam="1">  1        3 0.97702118E-01 0.11926874E+04</pdfrwt>
<pdfrwt beam="2">  1       -3 0.86151442E-01 0.11926874E+04</pdfrwt>
<totfact> 0.29427284E+00</totfact>
</mgrwt>
</event>
<event>
 6    1  0.1528034E-005  0.8459795E+03  0.7818608E-02  0.9495749E-01
          2   -1    0    0  501    0  0.00000000000E+00  0.00000000000E+00  0.43201617985E+04  0.43201617985E+04  0.00000000000E+00 0. -1.
         -2   -1    0    0    0  501 -0.00000000000E+00 -0.00000000000E+00 -0.41415192927E+02  0.41415192927E+02  0.00000000000E+00 0.  1.
         23    2    1    2    0    0  0.14004033137E+03  0.22841816807E+03  0.38148898293E+04  0.38259005379E+04  0.11110518733E+03 0.  0.
         13    1    3    3    0    0 -0.13274595404E+01  0.83780233184E+02  0.14286321621E+04  0.14310872594E+04  0.00000000000E+00 0. -1.
        -13    1    3    3    0    0  0.14136779091E+03  0.14463793488E+03  0.23862576672E+04  0.23948132785E+04  0.00000000000E+00 0.  1.
         22    1    1    2    0    0 -0.14004033137E+03 -0.22841816807E+03  0.46385677624E+03  0.53567645344E+03  0.00000000000E+00 0.  1.
<mgrwt>
<rscale>  0 0.84597951E+03</rscale>
<asrwt>0</asrwt>
<pdfrwt beam="1">  1        2 0.66463992E+00 0.84597951E+03</pdfrwt>
<pdfrwt beam="2">  1       -2 0.63715716E-02 0.84597951E+03</pdfrwt>
<totfact> 0.28306744E+01</totfact>
</mgrwt>
</event>
<event>
 6    1  0.1528034E-005  0.2163678E+04  0.7818608E-02  0.8533700E-01
          2   -1    0    0  501    0  0.00000000000E+00  0.00000000000E+00  0.24691718949E+04  0.24691718949E+04  0.00000000000E+00 0.  1.
         -2   -1    0    0    0  501 -0.00000000000E+00 -0.00000000000E+00 -0.47399505930E+03  0.47399505930E+03  0.00000000000E+00 0. -1.
         23    2    1    2    0    0  0.72097604447E+03 -0.62071436384E+03  0.30415631907E+03  0.10028981157E+04  0.90558190898E+02 0.  0.
         13    1    3    3    0    0  0.51997068793E+03 -0.48288315553E+03  0.19546739099E+03  0.73603882992E+03  0.00000000000E+00 0. -1.
        -13    1    3    3    0    0  0.20100535654E+03 -0.13783120831E+03  0.10868892808E+03  0.26685928582E+03  0.00000000000E+00 0.  1.
         22    1    1    2    0    0 -0.72097604447E+03  0.62071436384E+03  0.16910205165E+04  0.19402688385E+04  0.00000000000E+00 0.  1.
<mgrwt>
<rscale>  0 0.21636777E+04</rscale>
<asrwt>0</asrwt>
<pdfrwt beam="1">  1        2 0.37987259E+00 0.21636777E+04</pdfrwt>
<pdfrwt beam="2">  1       -2 0.72922318E-01 0.21636777E+04</pdfrwt>
<totfact> 0.56511043E+00</totfact>
</mgrwt>
</event>
<event>
 6    1  0.1528034E-005  0.2430349E+04  0.7818608E-02  0.8428228E-01
          2   -1    0    0  501    0  0.00000000000E+00  0.00000000000E+00  0.23220180940E+04  0.23220180940E+04  0.00000000000E+00 0. -1.
         -2   -1    0    0    0  501 -0.00000000000E+00 -0.00000000000E+00 -0.63593358362E+03  0.63593358362E+03  0.00000000000E+00 0.  1.
         23    2    1    2    0    0 -0.86881344715E+03 -0.84710068310E+03  0.84945276555E+03  0.14840558028E+04  0.91843626354E+02 0.  0.
         11    1    3    3    0    0 -0.25152390769E+03 -0.25053862628E+03  0.30028843932E+03  0.46498067292E+03  0.00000000000E+00 0. -1.
        -11    1    3    3    0    0 -0.61728953947E+03 -0.59656205682E+03  0.54916432623E+03  0.10190751299E+04  0.00000000000E+00 0.  1.
         22    1    1    2    0    0  0.86881344715E+03  0.84710068310E+03  0.83663174480E+03  0.14738958748E+04  0.00000000000E+00 0. -1.
<mgrwt>
<rscale>  0 0.24303492E+04</rscale>
<asrwt>0</asrwt>
<pdfrwt beam="1">  1        2 0.35723355E+00 0.24303492E+04</pdfrwt>
<pdfrwt beam="2">  1       -2 0.97835937E-01 0.24303492E+04</pdfrwt>
<totfact> 0.34362670E+00</totfact>
</mgrwt>
</event>
<event>
 6    1  0.1528034E-005  0.1516700E+04  0.7818608E-02  0.8873423E-01
          1   -1    0    0  501    0  0.00000000000E+00  0.00000000000E+00  0.15381771519E+04  0.15381771519E+04  0.00000000000E+00 0. -1.
         -1   -1    0    0    0  501 -0.00000000000E+00 -0.00000000000E+00 -0.37388060435E+03  0.37388060435E+03  0.00000000000E+00 0.  1.
         23    2    1    2    0    0 -0.30492640082E+03  0.58730890298E+03  0.12482842172E+03  0.67982164168E+03  0.93077774934E+02 0.  0.
         11    1    3    3    0    0 -0.17282894750E+03  0.27820211110E+03  0.21812258386E+02  0.32824081758E+03  0.00000000000E+00 0.  1.
        -11    1    3    3    0    0 -0.13209745333E+03  0.30910679189E+03  0.10301616333E+03  0.35158082410E+03  0.00000000000E+00 0. -1.
         22    1    1    2    0    0  0.30492640082E+03 -0.58730890298E+03  0.10394681258E+04  0.12322361146E+04  0.00000000000E+00 0. -1.
<mgrwt>
<rscale>  0 0.15166998E+04</rscale>
<asrwt>0</asrwt>
<pdfrwt beam="1">  1        1 0.23664264E+00 0.15166998E+04</pdfrwt>
<pdfrwt beam="2">  1       -1 0.57520094E-01 0.15166998E+04</pdfrwt>
<totfact> 0.18201685E+01</totfact>
</mgrwt>
</event>
<event>
 6    1  0.1528034E-005  0.1758274E+04  0.7818608E-02  0.8728809E-01
          2   -1    0    0  501    0  0.00000000000E+00  0.00000000000E+00  0.41206135206E+03  0.41206135206E+03  0.00000000000E+00 0. -1.
         -2   -1    0    0    0  501 -0.00000000000E+00 -0.00000000000E+00 -0.18756474875E+04  0.18756474875E+04  0.00000000000E+00 0.  1.
         23    2    1    2    0    0 -0.83927587769E+03 -0.76804551205E+02 -0.10483500884E+04  0.13481856027E+04  0.91014138615E+02 0.  0.
         11    1    3    3    0    0 -0.40924190739E+02  0.97850868860E+01 -0.31937770669E+02  0.52825737178E+02  0.00000000000E+00 0. -1.
        -11    1    3    3    0    0 -0.79835168695E+03 -0.86589638091E+02 -0.10164123177E+04  0.12953598655E+04  0.00000000000E+00 0.  1.
         22    1    1    2    0    0  0.83927587769E+03  0.76804551205E+02 -0.41523604708E+03  0.93952323694E+03  0.00000000000E+00 0. -1.
<mgrwt>
<rscale>  0 0.17582740E+04</rscale>
<asrwt>0</asrwt>
<pdfrwt beam="1">  1        2 0.63394055E-01 0.17582740E+04</pdfrwt>
<pdfrwt beam="2">  1       -2 0.28856115E+00 0.17582740E+04</pdfrwt>
<totfact> 0.27231937E+00</totfact>
</mgrwt>
</event>
<event>
 6    1  0.1528034E-005  0.9495534E+03  0.7818608E-02  0.9365673E-01
         -3   -1    0    0    0  501 -0.00000000000E+00  0.00000000000E+00  0.28889558229E+03  0.28889558229E+03  0.00000000000E+00 0.  1.
          3   -1    0    0  501    0  0.00000000000E+00 -0.00000000000E+00 -0.78025732227E+03  0.78025732227E+03  0.00000000000E+00 0. -1.
         23    2    1    2    0    0  0.13828945531E+03 -0.67899227492E+02 -0.74835641981E+03  0.76951888778E+03  0.91584436698E+02 0.  0.
         13    1    3    3    0    0 -0.49484598296E+01 -0.25987346819E+02 -0.17820825433E+03  0.18016107060E+03  0.00000000000E+00 0.  1.
        -13    1    3    3    0    0  0.14323791514E+03 -0.41911880673E+02 -0.57014816548E+03  0.58935781718E+03  0.00000000000E+00 0. -1.
         22    1    1    2    0    0 -0.13828945531E+03  0.67899227492E+02  0.25699467983E+03  0.29963401677E+03  0.00000000000E+00 0.  1.
<mgrwt>
<rscale>  0 0.94955335E+03</rscale>
<asrwt>0</asrwt>
<pdfrwt beam="1">  1        3 0.12003959E+00 0.94955335E+03</pdfrwt>
<pdfrwt beam="2">  1       -3 0.44445475E-01 0.94955335E+03</pdfrwt>
<totfact> 0.74795915E+00</totfact>
</mgrwt>
</event>
<event>
 6    1  0.1528034E-005  0.1140434E+04  0.7818608E-02  0.9166654E-01
          2   -1    0    0  501    0  0.00000000000E+00  0.00000000000E+00  0.10041836281E+04  0.10041836281E+04  0.00000000000E+00 0. -1.
         -2   -1    0    0    0  501 -0.00000000000E+00 -0.00000000000E+00 -0.32379263415E+03  0.32379263415E+03  0.00000000000E+00 0.  1.
         23    2    1    2    0    0  0.40204171824E+03  0.26949836001E+03  0.68552082785E+03  0.84393780880E+03  0.89584097011E+02 0.  0.
         11    1    3    3    0    0  0.26451456970E+03  0.19297405269E+03  0.52789345499E+03  0.62119114805E+03  0.00000000000E+00 0. -1.
        -11    1    3    3    0    0  0.13752714854E+03  0.76524307315E+02  0.15762737287E+03  0.22274666075E+03  0.00000000000E+00 0.  1.
         22    1    1    2    0    0 -0.40204171824E+03 -0.26949836001E+03 -0.51298338795E+01  0.48403845348E+03  0.00000000000E+00 0.  1.
<mgrwt>
<rscale>  0 0.11404337E+04</rscale>
<asrwt>0</asrwt>
<pdfrwt beam="1">  1        2 0.15448979E+00 0.11404337E+04</pdfrwt>
<pdfrwt beam="2">  1       -2 0.49814252E-01 0.11404337E+04</pdfrwt>
<totfact> 0.94523147E+01</totfact>
</mgrwt>
</event>
<event>
 6    1  0.1528034E-005  0.2783420E+04  0.7818608E-02  0.8308434E-01
          1   -1    0    0  501    0  0.00000000000E+00  0.00000000000E+00  0.14850226088E+04  0.14850226088E+04  0.00000000000E+00 0. -1.
         -1   -1    0    0    0  501 -0.00000000000E+00 -0.00000000000E+00 -0.13042611287E+04  0.13042611287E+04  0.00000000000E+00 0.  1.
         23    2    1    2    0    0 -0.13380427052E+04  0.26183206308E+03  0.36207055725E+03  0.14138611509E+04  0.94836466001E+02 0.  0.
         11    1    3    3    0    0 -0.49954193596E+03  0.13926783916E+03  0.11536747322E+03  0.53126954617E+03  0.00000000000E+00 0. -1.
        -11    1    3    3    0    0 -0.83850076928E+03  0.12256422392E+03  0.24670308404E+03  0.88259160473E+03  0.00000000000E+00 0.  1.
         22    1    1    2    0    0  0.13380427052E+04 -0.26183206308E+03 -0.18130907709E+03  0.13754225866E+04  0.00000000000E+00 0.  1.
<mgrwt>
<rscale>  0 0.27834204E+04</rscale>
<asrwt>0</asrwt>
<pdfrwt beam="1">  1        1 0.22846502E+00 0.27834204E+04</pdfrwt>
<pdfrwt beam="2">  1       -1 0.20065556E+00 0.27834204E+04</pdfrwt>
<totfact> 0.86523127E-01</totfact>
</mgrwt>
</event>
<event>
 6    1  0.1528034E-005  0.1657005E+04  0.7818608E-02  0.8786273E-01
         -1   -1    0    0    0  501 -0.00000000000E+00  0.00000000000E+00  0.30496645029E+03  0.30496645029E+03  0.00000000000E+00 0.  1.
          1   -1    0    0  501    0  0.00000000000E+00 -0.00000000000E+00 -0.22507921169E+04  0.22507921169E+04  0.00000000000E+00 0. -1.
         23    2    1    2    0    0 -0.60569178778E+03  0.54063770930E+03 -0.74110758784E+03  0.11030034867E+04  0.90689362506E+02 0.  0.
         13    1    3    3    0    0 -0.16260480343E+03  0.16685356238E+03 -0.16318289548E+03  0.28444523331E+03  0.00000000000E+00 0.  1.
        -13    1    3    3    0    0 -0.44308698435E+03  0.37378414693E+03 -0.57792469237E+03  0.81855825342E+03  0.00000000000E+00 0. -1.
         22    1    1    2    0    0  0.60569178778E+03 -0.54063770930E+03 -0.12047180788E+04  0.14527550805E+04  0.00000000000E+00 0. -1.
<mgrwt>
<rscale>  0 0.16570046E+04</rscale>
<asrwt>0</asrwt>
<pdfrwt beam="1">  1        1 0.34627572E+00 0.16570046E+04</pdfrwt>
<pdfrwt beam="2">  1       -1 0.46917914E-01 0.16570046E+04</pdfrwt>
<totfact> 0.87059920E+00</totfact>
</mgrwt>
</event>
<event>
 6    1  0.1528034E-005  0.2275559E+04  0.7818608E-02  0.8487621E-01
         -1   -1    0    0    0  501 -0.00000000000E+00  0.00000000000E+00  0.22177567288E+04  0.22177567288E+04  0.00000000000E+00 0.  1.
          1   -1    0    0  501    0  0.00000000000E+00 -0.00000000000E+00 -0.58371698702E+03  0.58371698702E+03  0.00000000000E+00 0. -1.
         23    2    1    2    0    0  0.63960937907E+03 -0.59620514831E+03 -0.70118574892E+02  0.88608438073E+03  0.12517259508E+03 0.  0.
         13    1    3    3    0    0  0.50877105575E+03 -0.42071013628E+03 -0.89962268583E+02  0.66628688694E+03  0.00000000000E+00 0. -1.
        -13    1    3    3    0    0  0.13083832332E+03 -0.17549501203E+03  0.19843693691E+02  0.21979749379E+03  0.00000000000E+00 0.  1.
         22    1    1    2    0    0 -0.63960937907E+03  0.59620514831E+03  0.17041583167E+04  0.19153893351E+04  0.00000000000E+00 0.  1.
<mgrwt>
<rscale>  0 0.22755591E+04</rscale>
<asrwt>0</asrwt>
<pdfrwt beam="1">  1        1 0.89802614E-01 0.22755591E+04</pdfrwt>
<pdfrwt beam="2">  1       -1 0.34119334E+00 0.22755591E+04</pdfrwt>
<totfact> 0.57392159E-01</totfact>
</mgrwt>
</event>
<event>
 6    1  0.1528034E-005  0.2578784E+04  0.7818608E-02  0.8375444E-01
         -1   -1    0    0    0  501 -0.00000000000E+00  0.00000000000E+00  0.67419572878E+03  0.67419572878E+03  0.00000000000E+00 0.  1.
          1   -1    0    0  501    0  0.00000000000E+00 -0.00000000000E+00 -0.24659489431E+04  0.24659489431E+04  0.00000000000E+00 0. -1.
         23    2    1    2    0    0  0.10720886172E+04  0.64311899660E+03 -0.12742758485E+04  0.17870892883E+04  0.83265476168E+02 0.  0.
         13    1    3    3    0    0  0.98274128002E+03  0.60426573692E+03 -0.11471321735E+04  0.16269080268E+04  0.00000000000E+00 0.  1.
        -13    1    3    3    0    0  0.89347337151E+02  0.38853259674E+02 -0.12714367497E+03  0.16018126148E+03  0.00000000000E+00 0. -1.
         22    1    1    2    0    0 -0.10720886172E+04 -0.64311899660E+03 -0.51747736584E+03  0.13530553836E+04  0.00000000000E+00 0.  1.
<mgrwt>
<rscale>  0 0.25787844E+04</rscale>
<asrwt>0</asrwt>
<pdfrwt beam="1">  1        1 0.37937676E+00 0.25787844E+04</pdfrwt>
<pdfrwt beam="2">  1       -1 0.10372242E+00 0.25787844E+04</pdfrwt>
<totfact> 0.11052122E+00</totfact>
</mgrwt>
</event>
<event>
 6    1  0.1528034E-005  0.5061277E+03  0.7818608E-02  0.1012192E+00
          1   -1    0    0  501    0  0.00000000000E+00  0.00000000000E+00  0.30308492269E+03  0.30308492269E+03  0.00000000000E+00 0. -1.
         -1   -1    0    0    0  501 -0.00000000000E+00 -0.00000000000E+00 -0.21129826513E+03  0.21129826513E+03  0.00000000000E+00 0.  1.
         23    2    1    2    0    0 -0.23728375533E+02 -0.16839435236E+03 -0.13049272553E+03  0.23451211417E+03  0.95120379326E+02 0.  0.
         13    1    3    3    0    0 -0.27128968961E+02 -0.93342324509E+02 -0.12615177387E+03  0.15925778020E+03  0.00000000000E+00 0.  1.
        -13    1    3    3    0    0  0.34005934281E+01 -0.75052027854E+02 -0.43409516580E+01  0.75254333975E+02  0.00000000000E+00 0. -1.
         22    1    1    2    0    0  0.23728375533E+02  0.16839435236E+03  0.22227938310E+03  0.27987107365E+03  0.00000000000E+00 0.  1.
<mgrwt>
<rscale>  0 0.50612772E+03</rscale>
<asrwt>0</asrwt>
<pdfrwt beam="1">  1        1 0.46628450E-01 0.50612772E+03</pdfrwt>
<pdfrwt beam="2">  1       -1 0.32507425E-01 0.50612772E+03</pdfrwt>
<totfact> 0.77062122E+02</totfact>
</mgrwt>
</event>
<event>
 6    1  0.1528034E-005  0.3990526E+04  0.7818608E-02  0.8006461E-01
         -2   -1    0    0    0  501 -0.00000000000E+00  0.00000000000E+00  0.10009753222E+04  0.10009753222E+04  0.00000000000E+00 0.  1.
          2   -1    0    0  501    0  0.00000000000E+00 -0.00000000000E+00 -0.39771950247E+04  0.39771950247E+04  0.00000000000E+00 0. -1.
         23    2    1    2    0    0 -0.95200247729E+03 -0.14590973760E+04 -0.26993921570E+04  0.32141104388E+04  0.92271481286E+02 0.  0.
         13    1    3    3    0    0 -0.40724142710E+03 -0.58918400153E+03 -0.11858766304E+04  0.13853832503E+04  0.00000000000E+00 0.  1.
        -13    1    3    3    0    0 -0.54476105019E+03 -0.86991337445E+03 -0.15135155266E+04  0.18287271885E+04  0.00000000000E+00 0. -1.
         22    1    1    2    0    0  0.95200247729E+03  0.14590973760E+04 -0.27682754547E+03  0.17640599081E+04  0.00000000000E+00 0.  1.
<mgrwt>
<rscale>  0 0.39905258E+04</rscale>
<asrwt>0</asrwt>
<pdfrwt beam="1">  1        2 0.61187616E+00 0.39905258E+04</pdfrwt>
<pdfrwt beam="2">  1       -2 0.15399620E+00 0.39905258E+04</pdfrwt>
<totfact> 0.78438509E-02</totfact>
</mgrwt>
</event>
<event>
 6    1  0.1528034E-005  0.1522117E+04  0.7818608E-02  0.8869877E-01
         -2   -1    0    0    0  501 -0.00000000000E+00  0.00000000000E+00  0.21757203851E+03  0.21757203851E+03  0.00000000000E+00 0.  1.
          2   -1    0    0  501    0  0.00000000000E+00 -0.00000000000E+00 -0.26621522561E+04  0.26621522561E+04  0.00000000000E+00 0. -1.
         23    2    1    2    0    0  0.57909362834E+03  0.22872021014E+03 -0.40849469138E+03  0.75056797462E+03  0.93925538235E+02 0.  0.
         13    1    3    3    0    0  0.33346705839E+03  0.16885164718E+03 -0.20695065662E+03  0.42724668759E+03  0.00000000000E+00 0. -1.
        -13    1    3    3    0    0  0.24562656995E+03  0.59868562960E+02 -0.20154403476E+03  0.32332128703E+03  0.00000000000E+00 0.  1.
         22    1    1    2    0    0 -0.57909362834E+03 -0.22872021014E+03 -0.20360855262E+04  0.21291563200E+04  0.00000000000E+00 0. -1.
<mgrwt>
<rscale>  0 0.15221168E+04</rscale>
<asrwt>0</asrwt>
<pdfrwt beam="1">  1        2 0.40956187E+00 0.15221168E+04</pdfrwt>
<pdfrwt beam="2">  1       -2 0.33472623E-01 0.15221168E+04</pdfrwt>
<totfact> 0.22589478E+01</totfact>
</mgrwt>
</event>
<event>
 6    1  0.1528034E-005  0.2474174E+04  0.7818608E-02  0.8412244E-01
         -2   -1    0    0    0  501 -0.00000000000E+00  0.00000000000E+00  0.13788150274E+04  0.13788150274E+04  0.00000000000E+00 0.  1.
          2   -1    0    0  501    0  0.00000000000E+00 -0.00000000000E+00 -0.11099273528E+04  0.11099273528E+04  0.00000000000E+00 0. -1.
         23    2    1    2    0    0  0.56690641135E+03  0.79776330120E+03 -0.62378540363E+03  0.11641011501E+04  0.90631638663E+02 0.  0.
         13    1    3    3    0    0  0.47885785527E+03  0.71174515531E+03 -0.52034580587E+03  0.10033173822E+04  0.00000000000E+00 0. -1.
        -13    1    3    3    0    0  0.88048556081E+02  0.86018145892E+02 -0.10343959776E+03  0.16078376794E+03  0.00000000000E+00 0.  1.
         22    1    1    2    0    0 -0.56690641135E+03 -0.79776330120E+03  0.89267307815E+03  0.13246412301E+04  0.00000000000E+00 0.  1.
<mgrwt>
<rscale>  0 0.24741742E+04</rscale>
<asrwt>0</asrwt>
<pdfrwt beam="1">  1        2 0.17075805E+00 0.24741742E+04</pdfrwt>
<pdfrwt beam="2">  1       -2 0.21212539E+00 0.24741742E+04</pdfrwt>
<totfact> 0.21301045E+00</totfact>
</mgrwt>
</event>
<event>
 6    1  0.1528034E-005  0.3076544E+04  0.7818608E-02  0.8222205E-01
         -2   -1    0    0    0  501 -0.00000000000E+00  0.00000000000E+00  0.76453988365E+03  0.76453988365E+03  0.00000000000E+00 0. -1.
          2   -1    0    0  501    0  0.00000000000E+00 -0.00000000000E+00 -0.30950397712E+04  0.30950397712E+04  0.00000000000E+00 0.  1.
         23    2    1    2    0    0 -0.55335976477E+03  0.10287314387E+03  0.62778532279E+03  0.84822758333E+03  0.92659098953E+02 0.  0.
         13    1    3    3    0    0 -0.36231994248E+03  0.33872991868E+02  0.44619340494E+03  0.57577050542E+03  0.00000000000E+00 0.  1.
        -13    1    3    3    0    0 -0.19103982229E+03  0.69000152005E+02  0.18159191784E+03  0.27245707791E+03  0.00000000000E+00 0. -1.
         22    1    1    2    0    0  0.55335976477E+03 -0.10287314387E+03 -0.29582852103E+04  0.30113520715E+04  0.00000000000E+00 0.  1.
<mgrwt>
<rscale>  0 0.30765444E+04</rscale>
<asrwt>0</asrwt>
<pdfrwt beam="1">  1        2 0.47615997E+00 0.30765444E+04</pdfrwt>
<pdfrwt beam="2">  1       -2 0.11762152E+00 0.30765444E+04</pdfrwt>
<totfact> 0.71898521E-01</totfact>
</mgrwt>
</event>
<event>
 6    1  0.1528034E-005  0.4826587E+04  0.7818608E-02  0.7855829E-01
          2   -1    0    0  501    0  0.00000000000E+00  0.00000000000E+00  0.24139816772E+04  0.24139816772E+04  0.00000000000E+00 0.  1.
         -2   -1    0    0    0  501 -0.00000000000E+00 -0.00000000000E+00 -0.24126057663E+04  0.24126057663E+04  0.00000000000E+00 0. -1.
         23    2    1    2    0    0  0.14653192998E+04  0.90092674670E+03  0.16921223078E+04  0.24146477609E+04  0.91740129983E+02 0.  0.
         11    1    3    3    0    0  0.80096217017E+03  0.48169760028E+03  0.85642739041E+03  0.12676911498E+04  0.00000000000E+00 0. -1.
        -11    1    3    3    0    0  0.66435712966E+03  0.41922914643E+03  0.83569491742E+03  0.11469566112E+04  0.00000000000E+00 0.  1.
         22    1    1    2    0    0 -0.14653192998E+04 -0.90092674670E+03 -0.16907463969E+04  0.24119396825E+04  0.00000000000E+00 0. -1.
<mgrwt>
<rscale>  0 0.48265872E+04</rscale>
<asrwt>0</asrwt>
<pdfrwt beam="1">  1        2 0.37138180E+00 0.48265872E+04</pdfrwt>
<pdfrwt beam="2">  1       -2 0.37117012E+00 0.48265872E+04</pdfrwt>
<totfact> 0.32877364E-02</totfact>
</mgrwt>
</event>
<event>
 6    1  0.1660378E-005  0.2278862E+04  0.7818608E-02  0.8486302E-01
          2   -1    0    0  501    0  0.00000000000E+00  0.00000000000E+00  0.82814964463E+03  0.82814964463E+03  0.00000000000E+00 0. -1.
         -2   -1    0    0    0  501 -0.00000000000E+00 -0.00000000000E+00 -0.15677152974E+04  0.15677152974E+04  0.00000000000E+00 0.  1.
         23    2    1    2    0    0 -0.26898608047E+03  0.74529699886E+03  0.48772066673E+03  0.93502517052E+03  0.92625551311E+02 0.  0.
         13    1    3    3    0    0 -0.23377591270E+02  0.17839868994E+03  0.11162143982E+03  0.21173556662E+03  0.00000000000E+00 0. -1.
        -13    1    3    3    0    0 -0.24560848920E+03  0.56689830892E+03  0.37609922691E+03  0.72328960389E+03  0.00000000000E+00 0.  1.
         22    1    1    2    0    0  0.26898608047E+03 -0.74529699886E+03 -0.12272863195E+04  0.14608397715E+04  0.00000000000E+00 0.  1.
<mgrwt>
<rscale>  0 0.22788619E+04</rscale>
<asrwt>0</asrwt>
<pdfrwt beam="1">  1        2 0.12740764E+00 0.22788619E+04</pdfrwt>
<pdfrwt beam="2">  1       -2 0.24118697E+00 0.22788619E+04</pdfrwt>
<totfact> 0.21745202E+00</totfact>
</mgrwt>
</event>
<event>
 6    1  0.1528034E-005  0.3481615E+04  0.7818608E-02  0.8118161E-01
          2   -1    0    0  501    0  0.00000000000E+00  0.00000000000E+00  0.18248013497E+04  0.18248013497E+04  0.00000000000E+00 0. -1.
         -2   -1    0    0    0  501 -0.00000000000E+00 -0.00000000000E+00 -0.16606793919E+04  0.16606793919E+04  0.00000000000E+00 0.  1.
         23    2    1    2    0    0 -0.30927344058E+02  0.50718939004E+03  0.17477003586E+04  0.18223757752E+04  0.91647938817E+02 0.  0.
         11    1    3    3    0    0 -0.59876716802E+02  0.39701333907E+03  0.13147725880E+04  0.13747115228E+04  0.00000000000E+00 0. -1.
        -11    1    3    3    0    0  0.28949372744E+02  0.11017605097E+03  0.43292777055E+03  0.44766425243E+03  0.00000000000E+00 0.  1.
         22    1    1    2    0    0  0.30927344058E+02 -0.50718939004E+03 -0.15835784007E+04  0.16631049664E+04  0.00000000000E+00 0.  1.
<mgrwt>
<rscale>  0 0.34816146E+04</rscale>
<asrwt>0</asrwt>
<pdfrwt beam="1">  1        2 0.28073867E+00 0.34816146E+04</pdfrwt>
<pdfrwt beam="2">  1       -2 0.25548914E+00 0.34816146E+04</pdfrwt>
<totfact> 0.40906602E-01</totfact>
</mgrwt>
</event>
<event>
 6    1  0.1528034E-005  0.1837501E+04  0.7818608E-02  0.8686607E-01
          2   -1    0    0  501    0  0.00000000000E+00  0.00000000000E+00  0.74778485311E+03  0.74778485311E+03  0.00000000000E+00 0. -1.
         -2   -1    0    0    0  501 -0.00000000000E+00 -0.00000000000E+00 -0.11288033269E+04  0.11288033269E+04  0.00000000000E+00 0.  1.
         23    2    1    2    0    0 -0.36121317202E+02  0.88975807771E+03  0.30232516433E+02  0.89572041965E+03  0.91798032212E+02 0.  0.
         13    1    3    3    0    0  0.25104675882E+02  0.45046602027E+03  0.17700613197E+00  0.45116506015E+03  0.00000000000E+00 0.  1.
        -13    1    3    3    0    0 -0.61225993084E+02  0.43929205744E+03  0.30055510301E+02  0.44455535950E+03  0.00000000000E+00 0. -1.
         22    1    1    2    0    0  0.36121317202E+02 -0.88975807771E+03 -0.41125099026E+03  0.98086776040E+03  0.00000000000E+00 0.  1.
<mgrwt>
<rscale>  0 0.18375005E+04</rscale>
<asrwt>0</asrwt>
<pdfrwt beam="1">  1        2 0.11504382E+00 0.18375005E+04</pdfrwt>
<pdfrwt beam="2">  1       -2 0.17366205E+00 0.18375005E+04</pdfrwt>
<totfact> 0.71100550E+00</totfact>
</mgrwt>
</event>
<event>
 6    1  0.1528034E-005  0.2061240E+04  0.7818608E-02  0.8578513E-01
         -2   -1    0    0    0  501 -0.00000000000E+00  0.00000000000E+00  0.69268675357E+03  0.69268675357E+03  0.00000000000E+00 0.  1.
          2   -1    0    0  501    0  0.00000000000E+00 -0.00000000000E+00 -0.15334162275E+04  0.15334162275E+04  0.00000000000E+00 0. -1.
         23    2    1    2    0    0  0.53611690599E+02  0.59500792243E+03  0.48312486542E+03  0.77369155418E+03  0.90996397184E+02 0.  0.
         13    1    3    3    0    0  0.16304658241E+02  0.43151025148E+03  0.30257847998E+03  0.52727665941E+03  0.00000000000E+00 0. -1.
        -13    1    3    3    0    0  0.37307032358E+02  0.16349767096E+03  0.18054638544E+03  0.24641489478E+03  0.00000000000E+00 0.  1.
         22    1    1    2    0    0 -0.53611690599E+02 -0.59500792243E+03 -0.13238543394E+04  0.14524114269E+04  0.00000000000E+00 0. -1.
<mgrwt>
<rscale>  0 0.20612395E+04</rscale>
<asrwt>0</asrwt>
<pdfrwt beam="1">  1        2 0.23591019E+00 0.20612395E+04</pdfrwt>
<pdfrwt beam="2">  1       -2 0.10656719E+00 0.20612395E+04</pdfrwt>
<totfact> 0.79714041E+00</totfact>
</mgrwt>
</event>
<event>
 6    1  0.1528034E-005  0.5998561E+03  0.7818608E-02  0.9905705E-01
          1   -1    0    0  501    0  0.00000000000E+00  0.00000000000E+00  0.26415826803E+03  0.26415826803E+03  0.00000000000E+00 0. -1.
         -1   -1    0    0    0  501 -0.00000000000E+00 -0.00000000000E+00 -0.34054148572E+03  0.34054148572E+03  0.00000000000E+00 0.  1.
         23    2    1    2    0    0 -0.86434590216E+02  0.18070062512E+03  0.17606859189E+03  0.28243345011E+03  0.92977687580E+02 0.  0.
         11    1    3    3    0    0 -0.80051483421E+01  0.10846861850E+03  0.57692560413E+02  0.12311764750E+03  0.00000000000E+00 0.  1.
        -11    1    3    3    0    0 -0.78429441874E+02  0.72232006617E+02  0.11837603148E+03  0.15931580261E+03  0.00000000000E+00 0. -1.
         22    1    1    2    0    0  0.86434590216E+02 -0.18070062512E+03 -0.25245180958E+03  0.32226630364E+03  0.00000000000E+00 0.  1.
<mgrwt>
<rscale>  0 0.59985615E+03</rscale>
<asrwt>0</asrwt>
<pdfrwt beam="1">  1        1 0.40639734E-01 0.59985615E+03</pdfrwt>
<pdfrwt beam="2">  1       -1 0.52390998E-01 0.59985615E+03</pdfrwt>
<totfact> 0.38492545E+02</totfact>
</mgrwt>
</event>
<event>
 6    1  0.1528034E-005  0.1879960E+04  0.7818608E-02  0.8664897E-01
         -3   -1    0    0    0  501 -0.00000000000E+00  0.00000000000E+00  0.27972750123E+04  0.27972750123E+04  0.00000000000E+00 0.  1.
          3   -1    0    0  501    0  0.00000000000E+00 -0.00000000000E+00 -0.31586525979E+03  0.31586525979E+03  0.00000000000E+00 0. -1.
         23    2    1    2    0    0 -0.88606126280E+03  0.16828821992E+03  0.81994214568E+03  0.12226641165E+04  0.95796310122E+02 0.  0.
         13    1    3    3    0    0 -0.80974312389E+03  0.15594489724E+03  0.78236851296E+03  0.11367071865E+04  0.00000000000E+00 0.  1.
        -13    1    3    3    0    0 -0.76318138906E+02  0.12343322682E+02  0.37573632716E+02  0.85956930008E+02  0.00000000000E+00 0. -1.
         22    1    1    2    0    0  0.88606126280E+03 -0.16828821992E+03  0.16614676068E+04  0.18904761556E+04  0.00000000000E+00 0.  1.
<mgrwt>
<rscale>  0 0.18799596E+04</rscale>
<asrwt>0</asrwt>
<pdfrwt beam="1">  1        3 0.48594657E-01 0.18799596E+04</pdfrwt>
<pdfrwt beam="2">  1       -3 0.43034998E+00 0.18799596E+04</pdfrwt>
<totfact> 0.74713803E-02</totfact>
</mgrwt>
</event>
<event>
 6    1  0.1528034E-005  0.3133050E+04  0.7818608E-02  0.8206726E-01
         -2   -1    0    0    0  501 -0.00000000000E+00  0.00000000000E+00  0.90762292343E+03  0.90762292343E+03  0.00000000000E+00 0.  1.
          2   -1    0    0  501    0  0.00000000000E+00 -0.00000000000E+00 -0.27037661093E+04  0.27037661093E+04  0.00000000000E+00 0. -1.
         23    2    1    2    0    0 -0.13506855284E+04  0.59136061758E+03 -0.15041580611E+04  0.21082875425E+04  0.91247534796E+02 0.  0.
         13    1    3    3    0    0 -0.11749868713E+04  0.52333469448E+03 -0.12680222978E+04  0.18061987427E+04  0.00000000000E+00 0. -1.
        -13    1    3    3    0    0 -0.17569865708E+03  0.68025923100E+02 -0.23613576327E+03  0.30208879987E+03  0.00000000000E+00 0.  1.
         22    1    1    2    0    0  0.13506855284E+04 -0.59136061758E+03 -0.29198512475E+03  0.15031014902E+04  0.00000000000E+00 0.  1.
<mgrwt>
<rscale>  0 0.31330497E+04</rscale>
<asrwt>0</asrwt>
<pdfrwt beam="1">  1        2 0.41596401E+00 0.31330497E+04</pdfrwt>
<pdfrwt beam="2">  1       -2 0.13963430E+00 0.31330497E+04</pdfrwt>
<totfact> 0.80856648E-01</totfact>
</mgrwt>
</event>
<event>
 6    1  0.1528034E-005  0.2119544E+04  0.7818608E-02  0.8552683E-01
         -1   -1    0    0    0  501 -0.00000000000E+00  0.00000000000E+00  0.46611955745E+03  0.46611955745E+03  0.00000000000E+00 0.  1.
          1   -1    0    0  501    0  0.00000000000E+00 -0.00000000000E+00 -0.24095034297E+04  0.24095034297E+04  0.00000000000E+00 0. -1.
         23    2    1    2    0    0  0.67622800281E+03  0.74786736934E+03 -0.53929665441E+03  0.11470250497E+04  0.90750588818E+02 0.  0.
         11    1    3    3    0    0  0.24596885298E+03  0.33387088439E+03 -0.20243295766E+03  0.46146456681E+03  0.00000000000E+00 0. -1.
        -11    1    3    3    0    0  0.43025914982E+03  0.41399648495E+03 -0.33686369676E+03  0.68556048293E+03  0.00000000000E+00 0.  1.
         22    1    1    2    0    0 -0.67622800281E+03 -0.74786736934E+03 -0.14040872178E+04  0.17285979374E+04  0.00000000000E+00 0. -1.
<mgrwt>
<rscale>  0 0.21195440E+04</rscale>
<asrwt>0</asrwt>
<pdfrwt beam="1">  1        1 0.37069284E+00 0.21195440E+04</pdfrwt>
<pdfrwt beam="2">  1       -1 0.71710700E-01 0.21195440E+04</pdfrwt>
<totfact> 0.28205437E+00</totfact>
</mgrwt>
</event>
<event>
 6    1  0.1528034E-005  0.1878512E+04  0.7818608E-02  0.8665627E-01
         -2   -1    0    0    0  501 -0.00000000000E+00  0.00000000000E+00  0.16022925960E+04  0.16022925960E+04  0.00000000000E+00 0.  1.
          2   -1    0    0  501    0  0.00000000000E+00 -0.00000000000E+00 -0.55058705199E+03  0.55058705199E+03  0.00000000000E+00 0. -1.
         23    2    1    2    0    0  0.14320600225E+03  0.52041879699E+03 -0.35076327219E+03  0.65012801724E+03  0.91037807199E+02 0.  0.
         11    1    3    3    0    0  0.47139782246E+02  0.33737286792E+03 -0.21615847696E+03  0.40344404598E+03  0.00000000000E+00 0. -1.
        -11    1    3    3    0    0  0.96066220002E+02  0.18304592908E+03 -0.13460479523E+03  0.24668397126E+03  0.00000000000E+00 0.  1.
         22    1    1    2    0    0 -0.14320600225E+03 -0.52041879699E+03  0.14024688162E+04  0.15027516307E+04  0.00000000000E+00 0.  1.
<mgrwt>
<rscale>  0 0.18785117E+04</rscale>
<asrwt>0</asrwt>
<pdfrwt beam="1">  1        2 0.84705701E-01 0.18785117E+04</pdfrwt>
<pdfrwt beam="2">  1       -2 0.24650655E+00 0.18785117E+04</pdfrwt>
<totfact> 0.34824765E+00</totfact>
</mgrwt>
</event>
<event>
 6    1  0.1528034E-005  0.4688100E+04  0.7818608E-02  0.7878509E-01
         -2   -1    0    0    0  501 -0.00000000000E+00  0.00000000000E+00  0.21382294201E+04  0.21382294201E+04  0.00000000000E+00 0.  1.
          2   -1    0    0  501    0  0.00000000000E+00 -0.00000000000E+00 -0.25696818616E+04  0.25696818616E+04  0.00000000000E+00 0. -1.
         23    2    1    2    0    0 -0.17585039658E+04 -0.15016126335E+04  0.16265124352E+03  0.23204155462E+04  0.10342234416E+03 0.  0.
         13    1    3    3    0    0 -0.76787012813E+03 -0.72262630381E+03  0.66189056564E+02  0.10565009701E+04  0.00000000000E+00 0.  1.
        -13    1    3    3    0    0 -0.99063383764E+03 -0.77898632970E+03  0.96462186960E+02  0.12639145761E+04  0.00000000000E+00 0. -1.
         22    1    1    2    0    0  0.17585039658E+04  0.15016126335E+04 -0.59410368500E+03  0.23874957356E+04  0.00000000000E+00 0. -1.
<mgrwt>
<rscale>  0 0.46880996E+04</rscale>
<asrwt>0</asrwt>
<pdfrwt beam="1">  1        2 0.39533567E+00 0.46880996E+04</pdfrwt>
<pdfrwt beam="2">  1       -2 0.32895837E+00 0.46880996E+04</pdfrwt>
<totfact> 0.49853133E-02</totfact>
</mgrwt>
</event>
<event>
 6    1  0.1528034E-005  0.1203174E+04  0.7818608E-02  0.9110083E-01
         -2   -1    0    0    0  501 -0.00000000000E+00  0.00000000000E+00  0.27163247736E+03  0.27163247736E+03  0.00000000000E+00 0. -1.
          2   -1    0    0  501    0  0.00000000000E+00 -0.00000000000E+00 -0.13323412624E+04  0.13323412624E+04  0.00000000000E+00 0.  1.
         23    2    1    2    0    0 -0.86178339230E+02  0.42333013605E+03  0.18158314136E+02  0.44182515721E+03  0.90799972066E+02 0.  0.
         11    1    3    3    0    0 -0.32492588763E+02  0.29658671982E+02  0.51903996707E+01  0.44298367882E+02  0.00000000000E+00 0. -1.
        -11    1    3    3    0    0 -0.53685750467E+02  0.39367146407E+03  0.12967914465E+02  0.39752678932E+03  0.00000000000E+00 0.  1.
         22    1    1    2    0    0  0.86178339230E+02 -0.42333013605E+03 -0.10788670992E+04  0.11621485826E+04  0.00000000000E+00 0.  1.
<mgrwt>
<rscale>  0 0.12031744E+04</rscale>
<asrwt>0</asrwt>
<pdfrwt beam="1">  1        2 0.20497558E+00 0.12031744E+04</pdfrwt>
<pdfrwt beam="2">  1       -2 0.41789611E-01 0.12031744E+04</pdfrwt>
<totfact> 0.84691938E+01</totfact>
</mgrwt>
</event>
<event>
 6    1  0.1528034E-005  0.1972780E+04  0.7818608E-02  0.8619454E-01
          2   -1    0    0  501    0  0.00000000000E+00  0.00000000000E+00  0.28577956728E+04  0.28577956728E+04  0.00000000000E+00 0. -1.
         -2   -1    0    0    0  501 -0.00000000000E+00 -0.00000000000E+00 -0.34046005878E+03  0.34046005878E+03  0.00000000000E+00 0.  1.
         23    2    1    2    0    0 -0.66445623187E+03 -0.36062156978E+03  0.22831844052E+04  0.24068160376E+04  0.91007745984E+02 0.  0.
         11    1    3    3    0    0 -0.34061826396E+03 -0.15297898159E+03  0.12380273694E+04  0.12931106441E+04  0.00000000000E+00 0. -1.
        -11    1    3    3    0    0 -0.32383796791E+03 -0.20764258818E+03  0.10451570358E+04  0.11137053935E+04  0.00000000000E+00 0.  1.
         22    1    1    2    0    0  0.66445623187E+03  0.36062156978E+03  0.23415120878E+03  0.79143969400E+03  0.00000000000E+00 0.  1.
<mgrwt>
<rscale>  0 0.19727801E+04</rscale>
<asrwt>0</asrwt>
<pdfrwt beam="1">  1        2 0.43966086E+00 0.19727801E+04</pdfrwt>
<pdfrwt beam="2">  1       -2 0.52378472E-01 0.19727801E+04</pdfrwt>
<totfact> 0.68433534E+00</totfact>
</mgrwt>
</event>
<event>
 6    1  0.1528034E-005  0.4379852E+03  0.7818608E-02  0.1031367E+00
         -1   -1    0    0    0  501 -0.00000000000E+00  0.00000000000E+00  0.34308708009E+02  0.34308708009E+02  0.00000000000E+00 0.  1.
          1   -1    0    0  501    0  0.00000000000E+00 -0.00000000000E+00 -0.13978304063E+04  0.13978304063E+04  0.00000000000E+00 0. -1.
         23    2    1    2    0    0  0.10772199626E+03 -0.14258835692E+03 -0.10683087673E+04  0.10870505131E+04  0.91976779174E+02 0.  0.
         11    1    3    3    0    0  0.81951198166E+02 -0.97266103122E+02 -0.93981460873E+03  0.94838188114E+03  0.00000000000E+00 0. -1.
        -11    1    3    3    0    0  0.25770798098E+02 -0.45322253798E+02 -0.12849415853E+03  0.13866863200E+03  0.00000000000E+00 0.  1.
         22    1    1    2    0    0 -0.10772199626E+03  0.14258835692E+03 -0.29521293104E+03  0.34508860117E+03  0.00000000000E+00 0.  1.
<mgrwt>
<rscale>  0 0.43798518E+03</rscale>
<asrwt>0</asrwt>
<pdfrwt beam="1">  1        1 0.21505083E+00 0.43798518E+03</pdfrwt>
<pdfrwt beam="2">  1       -1 0.52782627E-02 0.43798518E+03</pdfrwt>
<totfact> 0.13507193E+03</totfact>
</mgrwt>
</event>
<event>
 6    1  0.1528034E-005  0.3314578E+04  0.7818608E-02  0.8159196E-01
          2   -1    0    0  501    0  0.00000000000E+00  0.00000000000E+00  0.20043768601E+04  0.20043768601E+04  0.00000000000E+00 0. -1.
         -2   -1    0    0    0  501 -0.00000000000E+00 -0.00000000000E+00 -0.13703047305E+04  0.13703047305E+04  0.00000000000E+00 0.  1.
         23    2    1    2    0    0 -0.77524441504E+03  0.44354079255E+03  0.17371530324E+04  0.19553437817E+04  0.89085962776E+02 0.  0.
         13    1    3    3    0    0 -0.55440591863E+03  0.34826240948E+03  0.13311829715E+04  0.14834758954E+04  0.00000000000E+00 0. -1.
        -13    1    3    3    0    0 -0.22083849641E+03  0.95278383072E+02  0.40597006090E+03  0.47186788631E+03  0.00000000000E+00 0.  1.
         22    1    1    2    0    0  0.77524441504E+03 -0.44354079255E+03 -0.11030809029E+04  0.14193378090E+04  0.00000000000E+00 0.  1.
<mgrwt>
<rscale>  0 0.33145782E+04</rscale>
<asrwt>0</asrwt>
<pdfrwt beam="1">  1        2 0.30836567E+00 0.33145782E+04</pdfrwt>
<pdfrwt beam="2">  1       -2 0.21081611E+00 0.33145782E+04</pdfrwt>
<totfact> 0.62706872E-01</totfact>
</mgrwt>
</event>
<event>
 6    1  0.1528034E-005  0.5492468E+04  0.7818608E-02  0.7756726E-01
          2   -1    0    0  501    0  0.00000000000E+00  0.00000000000E+00  0.21770361413E+04  0.21770361413E+04  0.00000000000E+00 0. -1.
         -2   -1    0    0    0  501 -0.00000000000E+00 -0.00000000000E+00 -0.34642517562E+04  0.34642517562E+04  0.00000000000E+00 0.  1.
         23    2    1    2    0    0 -0.20136665048E+04 -0.68208298998E+03  0.11404017972E+04  0.24143053600E+04  0.90907175487E+02 0.  0.
         13    1    3    3    0    0 -0.11963158879E+04 -0.37113930667E+03  0.63633414401E+03  0.14049331769E+04  0.00000000000E+00 0. -1.
        -13    1    3    3    0    0 -0.81735061690E+03 -0.31094368331E+03  0.50406765320E+03  0.10093721832E+04  0.00000000000E+00 0.  1.
         22    1    1    2    0    0  0.20136665048E+04  0.68208298998E+03 -0.24276174121E+04  0.32269825375E+04  0.00000000000E+00 0.  1.
<mgrwt>
<rscale>  0 0.54924680E+04</rscale>
<asrwt>0</asrwt>
<pdfrwt beam="1">  1        2 0.33492864E+00 0.54924680E+04</pdfrwt>
<pdfrwt beam="2">  1       -2 0.53296181E+00 0.54924680E+04</pdfrwt>
<totfact> 0.39752267E-03</totfact>
</mgrwt>
</event>
<event>
 6    1  0.1528034E-005  0.1455235E+04  0.7818608E-02  0.8914779E-01
          2   -1    0    0  501    0  0.00000000000E+00  0.00000000000E+00  0.13374622411E+04  0.13374622411E+04  0.00000000000E+00 0. -1.
         -2   -1    0    0    0  501 -0.00000000000E+00 -0.00000000000E+00 -0.39584459432E+03  0.39584459432E+03  0.00000000000E+00 0.  1.
         23    2    1    2    0    0  0.47068861208E+03 -0.54535946487E+03  0.56842912902E+03  0.92199038343E+03  0.89386111660E+02 0.  0.
         13    1    3    3    0    0  0.43485651156E+03 -0.48023089916E+03  0.53619337858E+03  0.84096684916E+03  0.00000000000E+00 0. -1.
        -13    1    3    3    0    0  0.35832100524E+02 -0.65128565711E+02  0.32235750432E+02  0.81023534269E+02  0.00000000000E+00 0.  1.
         22    1    1    2    0    0 -0.47068861208E+03  0.54535946487E+03  0.37318851774E+03  0.81131645198E+03  0.00000000000E+00 0. -1.
<mgrwt>
<rscale>  0 0.14552350E+04</rscale>
<asrwt>0</asrwt>
<pdfrwt beam="1">  1        2 0.20576342E+00 0.14552350E+04</pdfrwt>
<pdfrwt beam="2">  1       -2 0.60899169E-01 0.14552350E+04</pdfrwt>
<totfact> 0.38245988E+01</totfact>
</mgrwt>
</event>
<event>
 6    1  0.1528034E-005  0.1990845E+04  0.7818608E-02  0.8610913E-01
         -1   -1    0    0    0  501 -0.00000000000E+00  0.00000000000E+00  0.62161312167E+03  0.62161312167E+03  0.00000000000E+00 0.  1.
          1   -1    0    0  501    0  0.00000000000E+00 -0.00000000000E+00 -0.15940238621E+04  0.15940238621E+04  0.00000000000E+00 0. -1.
         23    2    1    2    0    0  0.23038474574E+03  0.36170815055E+03  0.50855479159E+03  0.67382998408E+03  0.10727979376E+03 0.  0.
         13    1    3    3    0    0  0.13548602728E+03  0.11494287819E+03  0.20311663692E+03  0.26986051402E+03  0.00000000000E+00 0.  1.
        -13    1    3    3    0    0  0.94898718454E+02  0.24676527236E+03  0.30543815467E+03  0.40396947006E+03  0.00000000000E+00 0. -1.
         22    1    1    2    0    0 -0.23038474574E+03 -0.36170815055E+03 -0.14809655320E+04  0.15418069997E+04  0.00000000000E+00 0. -1.
<mgrwt>
<rscale>  0 0.19908452E+04</rscale>
<asrwt>0</asrwt>
<pdfrwt beam="1">  1        1 0.24523444E+00 0.19908452E+04</pdfrwt>
<pdfrwt beam="2">  1       -1 0.95632789E-01 0.19908452E+04</pdfrwt>
<totfact> 0.55162759E+00</totfact>
</mgrwt>
</event>
<event>
 6    1  0.1528034E-005  0.4314411E+04  0.7818608E-02  0.7943959E-01
          1   -1    0    0  501    0  0.00000000000E+00  0.00000000000E+00  0.24886561574E+04  0.24886561574E+04  0.00000000000E+00 0. -1.
         -1   -1    0    0    0  501 -0.00000000000E+00 -0.00000000000E+00 -0.18698992472E+04  0.18698992472E+04  0.00000000000E+00 0.  1.
         23    2    1    2    0    0 -0.88191809318E+03  0.24537944641E+03  0.22817515458E+04  0.24602557039E+04  0.92072884020E+02 0.  0.
         11    1    3    3    0    0 -0.67960203197E+03  0.15330557169E+03  0.17794106870E+04  0.19109327338E+04  0.00000000000E+00 0. -1.
        -11    1    3    3    0    0 -0.20231606121E+03  0.92073874727E+02  0.50234085880E+03  0.54932297007E+03  0.00000000000E+00 0.  1.
         22    1    1    2    0    0  0.88191809318E+03 -0.24537944641E+03 -0.16629946355E+04  0.18982997007E+04  0.00000000000E+00 0.  1.
<mgrwt>
<rscale>  0 0.43144113E+04</rscale>
<asrwt>0</asrwt>
<pdfrwt beam="1">  1        1 0.38287018E+00 0.43144113E+04</pdfrwt>
<pdfrwt beam="2">  1       -1 0.28767681E+00 0.43144113E+04</pdfrwt>
<totfact> 0.41773599E-02</totfact>
</mgrwt>
</event>
<event>
 6    1  0.1528034E-005  0.1833137E+04  0.7818608E-02  0.8688874E-01
          1   -1    0    0  501    0  0.00000000000E+00  0.00000000000E+00  0.10776785115E+04  0.10776785115E+04  0.00000000000E+00 0. -1.
         -1   -1    0    0    0  501 -0.00000000000E+00 -0.00000000000E+00 -0.77954382381E+03  0.77954382381E+03  0.00000000000E+00 0.  1.
         23    2    1    2    0    0  0.57095316975E+02  0.30506216759E+03  0.10206985023E+04  0.10708246830E+04  0.92289045452E+02 0.  0.
         11    1    3    3    0    0 -0.23757970958E+02  0.59134960134E+02  0.24038835450E+03  0.24869247209E+03  0.00000000000E+00 0. -1.
        -11    1    3    3    0    0  0.80853287932E+02  0.24592720745E+03  0.78031014776E+03  0.82213221092E+03  0.00000000000E+00 0.  1.
         22    1    1    2    0    0 -0.57095316975E+02 -0.30506216759E+03 -0.72256381460E+03  0.78639765226E+03  0.00000000000E+00 0.  1.
<mgrwt>
<rscale>  0 0.18331368E+04</rscale>
<asrwt>0</asrwt>
<pdfrwt beam="1">  1        1 0.16579669E+00 0.18331368E+04</pdfrwt>
<pdfrwt beam="2">  1       -1 0.11992982E+00 0.18331368E+04</pdfrwt>
<totfact> 0.76908227E+00</totfact>
</mgrwt>
</event>
<event>
 6    1  0.1528034E-005  0.1715592E+04  0.7818608E-02  0.8752521E-01
         -1   -1    0    0    0  501 -0.00000000000E+00  0.00000000000E+00  0.10762214270E+04  0.10762214270E+04  0.00000000000E+00 0.  1.
          1   -1    0    0  501    0  0.00000000000E+00 -0.00000000000E+00 -0.68370110185E+03  0.68370110185E+03  0.00000000000E+00 0. -1.
         23    2    1    2    0    0  0.44589545266E+03 -0.50124566404E+03  0.74105852074E+03  0.10039140340E+04  0.92766837617E+02 0.  0.
         13    1    3    3    0    0  0.37964936702E+03 -0.39397668042E+03  0.55658042498E+03  0.78046975346E+03  0.00000000000E+00 0. -1.
        -13    1    3    3    0    0  0.66246085641E+02 -0.10726898361E+03  0.18447809576E+03  0.22344428058E+03  0.00000000000E+00 0.  1.
         22    1    1    2    0    0 -0.44589545266E+03  0.50124566404E+03 -0.34853819560E+03  0.75600849480E+03  0.00000000000E+00 0. -1.
<mgrwt>
<rscale>  0 0.17155918E+04</rscale>
<asrwt>0</asrwt>
<pdfrwt beam="1">  1        1 0.10518479E+00 0.17155918E+04</pdfrwt>
<pdfrwt beam="2">  1       -1 0.16557253E+00 0.17155918E+04</pdfrwt>
<totfact> 0.71205861E+00</totfact>
</mgrwt>
</event>
<event>
 6    1  0.1528034E-005  0.9083849E+03  0.7818608E-02  0.9415160E-01
          2   -1    0    0  501    0  0.00000000000E+00  0.00000000000E+00  0.31691456665E+03  0.31691456665E+03  0.00000000000E+00 0. -1.
         -2   -1    0    0    0  501 -0.00000000000E+00 -0.00000000000E+00 -0.65093505116E+03  0.65093505116E+03  0.00000000000E+00 0.  1.
         23    2    1    2    0    0  0.36763652194E+03  0.15262530955E+03 -0.39160483750E+03  0.56564686411E+03  0.90282494113E+02 0.  0.
         13    1    3    3    0    0  0.26096859199E+03  0.15089146439E+03 -0.29252182810E+03  0.42004983032E+03  0.00000000000E+00 0.  1.
        -13    1    3    3    0    0  0.10666792994E+03  0.17338451641E+01 -0.99083009397E+02  0.14559703379E+03  0.00000000000E+00 0. -1.
         22    1    1    2    0    0 -0.36763652194E+03 -0.15262530955E+03  0.57584352983E+02  0.40220275370E+03  0.00000000000E+00 0. -1.
<mgrwt>
<rscale>  0 0.90838494E+03</rscale>
<asrwt>0</asrwt>
<pdfrwt beam="1">  1        2 0.48756088E-01 0.90838494E+03</pdfrwt>
<pdfrwt beam="2">  1       -2 0.10014385E+00 0.90838494E+03</pdfrwt>
<totfact> 0.85267091E+01</totfact>
</mgrwt>
</event>
<event>
 6    1  0.1528034E-005  0.8341945E+03  0.7818608E-02  0.9511800E-01
          2   -1    0    0  501    0  0.00000000000E+00  0.00000000000E+00  0.59380094760E+03  0.59380094760E+03  0.00000000000E+00 0. -1.
         -2   -1    0    0    0  501 -0.00000000000E+00 -0.00000000000E+00 -0.29297716004E+03  0.29297716004E+03  0.00000000000E+00 0.  1.
         23    2    1    2    0    0  0.30888037926E+02 -0.38357700329E+03 -0.50843968015E+01  0.39518355356E+03  0.89770828079E+02 0.  0.
         13    1    3    3    0    0  0.31215832033E+02 -0.36273488657E+03  0.17441200296E+02  0.36449310223E+03  0.00000000000E+00 0. -1.
        -13    1    3    3    0    0 -0.32779410691E+00 -0.20842116719E+02 -0.22525597097E+02  0.30690451331E+02  0.00000000000E+00 0.  1.
         22    1    1    2    0    0 -0.30888037926E+02  0.38357700329E+03  0.30590818436E+03  0.49159455408E+03  0.00000000000E+00 0. -1.
<mgrwt>
<rscale>  0 0.83419450E+03</rscale>
<asrwt>0</asrwt>
<pdfrwt beam="1">  1        2 0.91353992E-01 0.83419450E+03</pdfrwt>
<pdfrwt beam="2">  1       -2 0.45073409E-01 0.83419450E+03</pdfrwt>
<totfact> 0.23572331E+02</totfact>
</mgrwt>
</event>
<event>
 6    1  0.1528034E-005  0.3096182E+04  0.7818608E-02  0.8216787E-01
         -1   -1    0    0    0  501 -0.00000000000E+00  0.00000000000E+00  0.16100550151E+04  0.16100550151E+04  0.00000000000E+00 0.  1.
          1   -1    0    0  501    0  0.00000000000E+00 -0.00000000000E+00 -0.14885113379E+04  0.14885113379E+04  0.00000000000E+00 0. -1.
         23    2    1    2    0    0  0.19931637844E+03 -0.10025820240E+04  0.12225279637E+04  0.15962134875E+04  0.91788572844E+02 0.  0.
         13    1    3    3    0    0  0.15153440302E+03 -0.59991269606E+03  0.78753098711E+03  0.10015303160E+04  0.00000000000E+00 0.  1.
        -13    1    3    3    0    0  0.47781975414E+02 -0.40266932792E+03  0.43499697656E+03  0.59468317148E+03  0.00000000000E+00 0. -1.
         22    1    1    2    0    0 -0.19931637844E+03  0.10025820240E+04 -0.11009842865E+04  0.15023528656E+04  0.00000000000E+00 0. -1.
<mgrwt>
<rscale>  0 0.30961816E+04</rscale>
<asrwt>0</asrwt>
<pdfrwt beam="1">  1        1 0.22900174E+00 0.30961816E+04</pdfrwt>
<pdfrwt beam="2">  1       -1 0.24770077E+00 0.30961816E+04</pdfrwt>
<totfact> 0.40593118E-01</totfact>
</mgrwt>
</event>
<event>
 6    1  0.1528034E-005  0.1534164E+04  0.7818608E-02  0.8862047E-01
          2   -1    0    0  501    0  0.00000000000E+00  0.00000000000E+00  0.32269239427E+03  0.32269239427E+03  0.00000000000E+00 0. -1.
         -2   -1    0    0    0  501 -0.00000000000E+00 -0.00000000000E+00 -0.18234533891E+04  0.18234533891E+04  0.00000000000E+00 0.  1.
         23    2    1    2    0    0 -0.47271180740E+03 -0.10658476236E+03  0.74801282419E+02  0.49774860614E+03  0.85683596092E+02 0.  0.
         13    1    3    3    0    0 -0.23461043853E+03 -0.90619528134E+01  0.37368807053E+02  0.23774062463E+03  0.00000000000E+00 0. -1.
        -13    1    3    3    0    0 -0.23810136887E+03 -0.97522809544E+02  0.37432475366E+02  0.26000798151E+03  0.00000000000E+00 0.  1.
         22    1    1    2    0    0  0.47271180740E+03  0.10658476236E+03 -0.15755622773E+04  0.16483971772E+04  0.00000000000E+00 0.  1.
<mgrwt>
<rscale>  0 0.15341637E+04</rscale>
<asrwt>0</asrwt>
<pdfrwt beam="1">  1        2 0.49644985E-01 0.15341637E+04</pdfrwt>
<pdfrwt beam="2">  1       -2 0.28053128E+00 0.15341637E+04</pdfrwt>
<totfact> 0.40856270E+00</totfact>
</mgrwt>
</event>
<event>
 6    1  0.1528034E-005  0.1962311E+04  0.7818608E-02  0.8624447E-01
         -1   -1    0    0    0  501 -0.00000000000E+00  0.00000000000E+00  0.16647902940E+04  0.16647902940E+04  0.00000000000E+00 0.  1.
          1   -1    0    0  501    0  0.00000000000E+00 -0.00000000000E+00 -0.57825066245E+03  0.57825066245E+03  0.00000000000E+00 0. -1.
         23    2    1    2    0    0 -0.62749707293E+03 -0.14833626187E+02  0.14032002890E+04  0.15400142251E+04  0.93274591427E+02 0.  0.
         11    1    3    3    0    0 -0.43295400110E+03  0.25430890821E+02  0.10200508406E+04  0.11084221283E+04  0.00000000000E+00 0. -1.
        -11    1    3    3    0    0 -0.19454307183E+03 -0.40264517008E+02  0.38314944845E+03  0.43159209675E+03  0.00000000000E+00 0.  1.
         22    1    1    2    0    0  0.62749707293E+03  0.14833626187E+02 -0.31666065747E+03  0.70302673135E+03  0.00000000000E+00 0. -1.
<mgrwt>
<rscale>  0 0.19623110E+04</rscale>
<asrwt>0</asrwt>
<pdfrwt beam="1">  1        1 0.88961641E-01 0.19623110E+04</pdfrwt>
<pdfrwt beam="2">  1       -1 0.25612158E+00 0.19623110E+04</pdfrwt>
<totfact> 0.21378169E+00</totfact>
</mgrwt>
</event>
<event>
 6    1  0.1528034E-005  0.5222552E+04  0.7818608E-02  0.7795064E-01
          2   -1    0    0  501    0  0.00000000000E+00  0.00000000000E+00  0.35317241935E+04  0.35317241935E+04  0.00000000000E+00 0. -1.
         -2   -1    0    0    0  501 -0.00000000000E+00 -0.00000000000E+00 -0.19307175668E+04  0.19307175668E+04  0.00000000000E+00 0.  1.
         23    2    1    2    0    0  0.79714220897E+03  0.11904052331E+04  0.30831558660E+04  0.34010668095E+04  0.94366460195E+02 0.  0.
         13    1    3    3    0    0  0.49774428668E+03  0.67165212991E+03  0.18527847300E+04  0.20326527530E+04  0.00000000000E+00 0. -1.
        -13    1    3    3    0    0  0.29939792228E+03  0.51875310314E+03  0.12303711360E+04  0.13684140565E+04  0.00000000000E+00 0.  1.
         22    1    1    2    0    0 -0.79714220897E+03 -0.11904052331E+04 -0.14821492392E+04  0.20613749507E+04  0.00000000000E+00 0.  1.
<mgrwt>
<rscale>  0 0.52225518E+04</rscale>
<asrwt>0</asrwt>
<pdfrwt beam="1">  1        2 0.54334218E+00 0.52225518E+04</pdfrwt>
<pdfrwt beam="2">  1       -2 0.29703347E+00 0.52225518E+04</pdfrwt>
<totfact> 0.18267316E-02</totfact>
</mgrwt>
</event>
<event>
 6    1  0.1528034E-005  0.3281896E+04  0.7818608E-02  0.8167517E-01
          2   -1    0    0  501    0  0.00000000000E+00  0.00000000000E+00  0.35442190083E+04  0.35442190083E+04  0.00000000000E+00 0. -1.
         -2   -1    0    0    0  501 -0.00000000000E+00 -0.00000000000E+00 -0.75974715949E+03  0.75974715949E+03  0.00000000000E+00 0.  1.
         23    2    1    2    0    0 -0.42016261521E+02  0.54172343871E+03  0.34221452580E+04  0.34661970904E+04  0.90633615688E+02 0.  0.
         11    1    3    3    0    0  0.11009145062E+02  0.36772330784E+03  0.21860758999E+04  0.22168151643E+04  0.00000000000E+00 0.  1.
        -11    1    3    3    0    0 -0.53025406583E+02  0.17400013087E+03  0.12360693581E+04  0.12493819261E+04  0.00000000000E+00 0. -1.
         22    1    1    2    0    0  0.42016261521E+02 -0.54172343871E+03 -0.63767340918E+03  0.83776907741E+03  0.00000000000E+00 0.  1.
<mgrwt>
<rscale>  0 0.32818960E+04</rscale>
<asrwt>0</asrwt>
<pdfrwt beam="1">  1        2 0.54526445E+00 0.32818960E+04</pdfrwt>
<pdfrwt beam="2">  1       -2 0.11688418E+00 0.32818960E+04</pdfrwt>
<totfact> 0.35812910E-01</totfact>
</mgrwt>
</event>
<event>
 6    1  0.1528034E-005  0.4847370E+04  0.7818608E-02  0.7852493E-01
         -2   -1    0    0    0  501 -0.00000000000E+00  0.00000000000E+00  0.19898894269E+04  0.19898894269E+04  0.00000000000E+00 0.  1.
          2   -1    0    0  501    0  0.00000000000E+00 -0.00000000000E+00 -0.29520476804E+04  0.29520476804E+04  0.00000000000E+00 0. -1.
         23    2    1    2    0    0  0.19078731927E+04  0.12795386978E+04  0.30393376760E+03  0.23189257835E+04  0.88553123217E+02 0.  0.
         11    1    3    3    0    0  0.13207876836E+04  0.90437044789E+03  0.17368497378E+03  0.16101343057E+04  0.00000000000E+00 0. -1.
        -11    1    3    3    0    0  0.58708550912E+03  0.37516824991E+03  0.13024879383E+03  0.70879147783E+03  0.00000000000E+00 0.  1.
         22    1    1    2    0    0 -0.19078731927E+04 -0.12795386978E+04 -0.12660920211E+04  0.26230113237E+04  0.00000000000E+00 0. -1.
<mgrwt>
<rscale>  0 0.48473698E+04</rscale>
<asrwt>0</asrwt>
<pdfrwt beam="1">  1        2 0.45416118E+00 0.48473698E+04</pdfrwt>
<pdfrwt beam="2">  1       -2 0.30613684E+00 0.48473698E+04</pdfrwt>
<totfact> 0.40047806E-02</totfact>
</mgrwt>
</event>
<event>
 6    1  0.1528034E-005  0.3697673E+04  0.7818608E-02  0.8068478E-01
         -2   -1    0    0    0  501 -0.00000000000E+00  0.00000000000E+00  0.21827522347E+04  0.21827522347E+04  0.00000000000E+00 0.  1.
          2   -1    0    0  501    0  0.00000000000E+00 -0.00000000000E+00 -0.15660026772E+04  0.15660026772E+04  0.00000000000E+00 0. -1.
         23    2    1    2    0    0  0.13075685463E+04 -0.80430541619E+03 -0.73391745877E+03  0.17040192091E+04  0.91672913004E+02 0.  0.
         13    1    3    3    0    0  0.94629690457E+03 -0.62739759336E+03 -0.55460480154E+03  0.12636028085E+04  0.00000000000E+00 0.  1.
        -13    1    3    3    0    0  0.36127164169E+03 -0.17690782284E+03 -0.17931265723E+03  0.44041640059E+03  0.00000000000E+00 0. -1.
         22    1    1    2    0    0 -0.13075685463E+04  0.80430541619E+03  0.13506670162E+04  0.20447357028E+04  0.00000000000E+00 0. -1.
<mgrwt>
<rscale>  0 0.36976727E+04</rscale>
<asrwt>0</asrwt>
<pdfrwt beam="1">  1        2 0.24092349E+00 0.36976727E+04</pdfrwt>
<pdfrwt beam="2">  1       -2 0.33580804E+00 0.36976727E+04</pdfrwt>
<totfact> 0.17989424E-01</totfact>
</mgrwt>
</event>
<event>
 6    1  0.1528034E-005  0.2424398E+04  0.7818608E-02  0.8430425E-01
         -1   -1    0    0    0  501 -0.00000000000E+00  0.00000000000E+00  0.86271365901E+03  0.86271365901E+03  0.00000000000E+00 0.  1.
          1   -1    0    0  501    0  0.00000000000E+00 -0.00000000000E+00 -0.17032611769E+04  0.17032611769E+04  0.00000000000E+00 0. -1.
         23    2    1    2    0    0  0.57319512226E+03 -0.25085057849E+03  0.67742056467E+03  0.92411437883E+03  0.60084131105E+02 0.  0.
         11    1    3    3    0    0  0.13011758579E+03 -0.82820552462E+02  0.15150480635E+03  0.21620253558E+03  0.00000000000E+00 0.  1.
        -11    1    3    3    0    0  0.44307753646E+03 -0.16803002603E+03  0.52591575832E+03  0.70791184325E+03  0.00000000000E+00 0. -1.
         22    1    1    2    0    0 -0.57319512226E+03  0.25085057849E+03 -0.15179680826E+04  0.16418604571E+04  0.00000000000E+00 0. -1.
<mgrwt>
<rscale>  0 0.24243982E+04</rscale>
<asrwt>0</asrwt>
<pdfrwt beam="1">  1        1 0.26204018E+00 0.24243982E+04</pdfrwt>
<pdfrwt beam="2">  1       -1 0.13272518E+00 0.24243982E+04</pdfrwt>
<totfact> 0.20398886E+00</totfact>
</mgrwt>
</event>
<event>
 6    1  0.1528034E-005  0.2344435E+04  0.7818608E-02  0.8460604E-01
          2   -1    0    0  501    0  0.00000000000E+00  0.00000000000E+00  0.95143125586E+03  0.95143125586E+03  0.00000000000E+00 0. -1.
         -2   -1    0    0    0  501 -0.00000000000E+00 -0.00000000000E+00 -0.14442382501E+04  0.14442382501E+04  0.00000000000E+00 0.  1.
         23    2    1    2    0    0 -0.20434885095E+02  0.11315553880E+04 -0.55189958331E+03  0.12623879369E+04  0.90526088808E+02 0.  0.
         13    1    3    3    0    0 -0.31243639743E+02  0.22254590884E+03 -0.13617548269E+03  0.26276721380E+03  0.00000000000E+00 0.  1.
        -13    1    3    3    0    0  0.10808754647E+02  0.90900947912E+03 -0.41572410062E+03  0.99962072314E+03  0.00000000000E+00 0. -1.
         22    1    1    2    0    0  0.20434885095E+02 -0.11315553880E+04  0.59092589081E+02  0.11332815690E+04  0.00000000000E+00 0. -1.
<mgrwt>
<rscale>  0 0.23444346E+04</rscale>
<asrwt>0</asrwt>
<pdfrwt beam="1">  1        2 0.14637404E+00 0.23444346E+04</pdfrwt>
<pdfrwt beam="2">  1       -2 0.22219050E+00 0.23444346E+04</pdfrwt>
<totfact> 0.23421493E+00</totfact>
</mgrwt>
</event>
<event>
 6    1  0.1528034E-005  0.1653974E+04  0.7818608E-02  0.8788059E-01
          2   -1    0    0  501    0  0.00000000000E+00  0.00000000000E+00  0.16756478356E+04  0.16756478356E+04  0.00000000000E+00 0. -1.
         -2   -1    0    0    0  501 -0.00000000000E+00 -0.00000000000E+00 -0.40814494115E+03  0.40814494115E+03  0.00000000000E+00 0.  1.
         23    2    1    2    0    0 -0.49192470448E+03  0.53434082574E+03  0.14408391121E+03  0.74604083979E+03  0.91141254236E+02 0.  0.
         13    1    3    3    0    0 -0.29093489426E+03  0.35085748365E+03  0.12799543371E+03  0.47342044483E+03  0.00000000000E+00 0.  1.
        -13    1    3    3    0    0 -0.20098981022E+03  0.18348334209E+03  0.16088477502E+02  0.27262039496E+03  0.00000000000E+00 0. -1.
         22    1    1    2    0    0  0.49192470448E+03 -0.53434082574E+03  0.11234189832E+04  0.13377519369E+04  0.00000000000E+00 0. -1.
<mgrwt>
<rscale>  0 0.16539736E+04</rscale>
<asrwt>0</asrwt>
<pdfrwt beam="1">  1        2 0.25779197E+00 0.16539736E+04</pdfrwt>
<pdfrwt beam="2">  1       -2 0.62791530E-01 0.16539736E+04</pdfrwt>
<totfact> 0.22715052E+01</totfact>
</mgrwt>
</event>
<event>
 6    1  0.1528034E-005  0.3138081E+04  0.7818608E-02  0.8205364E-01
         -2   -1    0    0    0  501 -0.00000000000E+00  0.00000000000E+00  0.14127409024E+04  0.14127409024E+04  0.00000000000E+00 0.  1.
          2   -1    0    0  501    0  0.00000000000E+00 -0.00000000000E+00 -0.17426325897E+04  0.17426325897E+04  0.00000000000E+00 0. -1.
         23    2    1    2    0    0  0.82799458168E+03  0.12723787031E+04 -0.55865043668E+03  0.16201688944E+04  0.91292631736E+02 0.  0.
         11    1    3    3    0    0  0.32310107695E+03  0.57740432266E+03 -0.25381754054E+03  0.70867016421E+03  0.00000000000E+00 0. -1.
        -11    1    3    3    0    0  0.50489350473E+03  0.69497438045E+03 -0.30483289613E+03  0.91149873020E+03  0.00000000000E+00 0.  1.
         22    1    1    2    0    0 -0.82799458168E+03 -0.12723787031E+04  0.22875874933E+03  0.15352045977E+04  0.00000000000E+00 0.  1.
<mgrwt>
<rscale>  0 0.31380812E+04</rscale>
<asrwt>0</asrwt>
<pdfrwt beam="1">  1        2 0.26809732E+00 0.31380812E+04</pdfrwt>
<pdfrwt beam="2">  1       -2 0.21734475E+00 0.31380812E+04</pdfrwt>
<totfact> 0.80759601E-01</totfact>
</mgrwt>
</event>
<event>
 6    1  0.1528034E-005  0.4553705E+04  0.7818608E-02  0.7901301E-01
          2   -1    0    0  501    0  0.00000000000E+00  0.00000000000E+00  0.38950864848E+04  0.38950864848E+04  0.00000000000E+00 0.  1.
         -2   -1    0    0    0  501 -0.00000000000E+00 -0.00000000000E+00 -0.13309225152E+04  0.13309225152E+04  0.00000000000E+00 0. -1.
         23    2    1    2    0    0  0.81806039029E+03 -0.13423888593E+04  0.31713714997E+04  0.35407993286E+04  0.91826163611E+02 0.  0.
         11    1    3    3    0    0  0.20215712553E+03 -0.40258739536E+03  0.86530045989E+03  0.97554548853E+03  0.00000000000E+00 0. -1.
        -11    1    3    3    0    0  0.61590326476E+03 -0.93980146396E+03  0.23060710398E+04  0.25652538401E+04  0.00000000000E+00 0.  1.
         22    1    1    2    0    0 -0.81806039029E+03  0.13423888593E+04 -0.60720753009E+03  0.16852096713E+04  0.00000000000E+00 0. -1.
<mgrwt>
<rscale>  0 0.45537054E+04</rscale>
<asrwt>0</asrwt>
<pdfrwt beam="1">  1        2 0.59924407E+00 0.45537054E+04</pdfrwt>
<pdfrwt beam="2">  1       -2 0.20475731E+00 0.45537054E+04</pdfrwt>
<totfact> 0.38596224E-02</totfact>
</mgrwt>
</event>
<event>
 6    1  0.1528034E-005  0.2507971E+04  0.7818608E-02  0.8400151E-01
          1   -1    0    0  501    0  0.00000000000E+00  0.00000000000E+00  0.13813198667E+04  0.13813198667E+04  0.00000000000E+00 0. -1.
         -1   -1    0    0    0  501 -0.00000000000E+00 -0.00000000000E+00 -0.11383889778E+04  0.11383889778E+04  0.00000000000E+00 0.  1.
         23    2    1    2    0    0  0.69624443861E+03 -0.85438478269E+03 -0.47600671900E+03  0.12038057480E+04  0.88522354033E+02 0.  0.
         11    1    3    3    0    0  0.59100235850E+03 -0.67904376847E+03 -0.36789853544E+03  0.97248833393E+03  0.00000000000E+00 0. -1.
        -11    1    3    3    0    0  0.10524208011E+03 -0.17534101422E+03 -0.10810818355E+03  0.23131741405E+03  0.00000000000E+00 0.  1.
         22    1    1    2    0    0 -0.69624443861E+03  0.85438478269E+03  0.71893760793E+03  0.13159030965E+04  0.00000000000E+00 0.  1.
<mgrwt>
<rscale>  0 0.25079707E+04</rscale>
<asrwt>0</asrwt>
<pdfrwt beam="1">  1        1 0.21251075E+00 0.25079707E+04</pdfrwt>
<pdfrwt beam="2">  1       -1 0.17513676E+00 0.25079707E+04</pdfrwt>
<totfact> 0.15866813E+00</totfact>
</mgrwt>
</event>
<event>
 6    1  0.1528034E-005  0.2782847E+04  0.7818608E-02  0.8308614E-01
         -2   -1    0    0    0  501 -0.00000000000E+00  0.00000000000E+00  0.66259379789E+03  0.66259379789E+03  0.00000000000E+00 0.  1.
          2   -1    0    0  501    0  0.00000000000E+00 -0.00000000000E+00 -0.29219394900E+04  0.29219394900E+04  0.00000000000E+00 0. -1.
         23    2    1    2    0    0  0.97744460821E+03  0.26565848250E+03  0.95129063198E+02  0.10214250645E+04  0.91034236818E+02 0.  0.
         13    1    3    3    0    0  0.51065284303E+03  0.18578838350E+03  0.53083183901E+02  0.54598669760E+03  0.00000000000E+00 0. -1.
        -13    1    3    3    0    0  0.46679176519E+03  0.79870098992E+02  0.42045879297E+02  0.47543836690E+03  0.00000000000E+00 0.  1.
         22    1    1    2    0    0 -0.97744460821E+03 -0.26565848250E+03 -0.23544747553E+04  0.25631082234E+04  0.00000000000E+00 0. -1.
<mgrwt>
<rscale>  0 0.27828467E+04</rscale>
<asrwt>0</asrwt>
<pdfrwt beam="1">  1        2 0.44952915E+00 0.27828467E+04</pdfrwt>
<pdfrwt beam="2">  1       -2 0.10193751E+00 0.27828467E+04</pdfrwt>
<totfact> 0.13385078E+00</totfact>
</mgrwt>
</event>
<event>
 6    1  0.1528034E-005  0.8446648E+03  0.7818608E-02  0.9497526E-01
         -1   -1    0    0    0  501 -0.00000000000E+00  0.00000000000E+00  0.31787927706E+03  0.31787927706E+03  0.00000000000E+00 0.  1.
          1   -1    0    0  501    0  0.00000000000E+00 -0.00000000000E+00 -0.56110809643E+03  0.56110809643E+03  0.00000000000E+00 0. -1.
         23    2    1    2    0    0  0.14425530237E+03  0.35675539720E+03  0.46143998829E+02  0.39750982095E+03  0.88322043851E+02 0.  0.
         11    1    3    3    0    0  0.13454991100E+03  0.31307158755E+03  0.68360356868E+02  0.34754947256E+03  0.00000000000E+00 0. -1.
        -11    1    3    3    0    0  0.97053913626E+01  0.43683809650E+02 -0.22216358039E+02  0.49960348393E+02  0.00000000000E+00 0.  1.
         22    1    1    2    0    0 -0.14425530237E+03 -0.35675539720E+03 -0.28937281820E+03  0.48147755255E+03  0.00000000000E+00 0. -1.
<mgrwt>
<rscale>  0 0.84466475E+03</rscale>
<asrwt>0</asrwt>
<pdfrwt beam="1">  1        1 0.86324321E-01 0.84466475E+03</pdfrwt>
<pdfrwt beam="2">  1       -1 0.48904505E-01 0.84466475E+03</pdfrwt>
<totfact> 0.15941777E+02</totfact>
</mgrwt>
</event>
<event>
 6    1  0.1528034E-005  0.1827477E+04  0.7818608E-02  0.8691823E-01
          1   -1    0    0  501    0  0.00000000000E+00  0.00000000000E+00  0.22505288915E+04  0.22505288915E+04  0.00000000000E+00 0. -1.
         -1   -1    0    0    0  501 -0.00000000000E+00 -0.00000000000E+00 -0.37098739817E+03  0.37098739817E+03  0.00000000000E+00 0.  1.
         23    2    1    2    0    0  0.57715825586E+03 -0.69402982255E+03  0.76015164135E+03  0.11835237001E+04  0.90048786690E+02 0.  0.
         11    1    3    3    0    0  0.23486277560E+03 -0.35205996795E+03  0.34690882954E+03  0.54722251453E+03  0.00000000000E+00 0.  1.
        -11    1    3    3    0    0  0.34229548025E+03 -0.34196985460E+03  0.41324281181E+03  0.63630118558E+03  0.00000000000E+00 0. -1.
         22    1    1    2    0    0 -0.57715825586E+03  0.69402982255E+03  0.11193898520E+04  0.14379925895E+04  0.00000000000E+00 0. -1.
<mgrwt>
<rscale>  0 0.18274768E+04</rscale>
<asrwt>0</asrwt>
<pdfrwt beam="1">  1        1 0.34623521E+00 0.18274768E+04</pdfrwt>
<pdfrwt beam="2">  1       -1 0.57074986E-01 0.18274768E+04</pdfrwt>
<totfact> 0.58899775E+00</totfact>
</mgrwt>
</event>
<event>
 6    1  0.1528034E-005  0.1628862E+04  0.7818608E-02  0.8803011E-01
          2   -1    0    0  501    0  0.00000000000E+00  0.00000000000E+00  0.29342722919E+04  0.29342722919E+04  0.00000000000E+00 0. -1.
         -2   -1    0    0    0  501 -0.00000000000E+00 -0.00000000000E+00 -0.22605178995E+03  0.22605178995E+03  0.00000000000E+00 0.  1.
         23    2    1    2    0    0 -0.28888788767E+03 -0.22396646068E+03  0.27648078556E+04  0.27904331308E+04  0.93474016180E+02 0.  0.
         13    1    3    3    0    0 -0.13807530057E+03 -0.15771312117E+03  0.13723825155E+04  0.13882982338E+04  0.00000000000E+00 0. -1.
        -13    1    3    3    0    0 -0.15081258710E+03 -0.66253339513E+02  0.13924253401E+04  0.14021348969E+04  0.00000000000E+00 0.  1.
         22    1    1    2    0    0  0.28888788767E+03  0.22396646068E+03 -0.56587353602E+02  0.36989095115E+03  0.00000000000E+00 0.  1.
<mgrwt>
<rscale>  0 0.16288616E+04</rscale>
<asrwt>0</asrwt>
<pdfrwt beam="1">  1        2 0.45142648E+00 0.16288616E+04</pdfrwt>
<pdfrwt beam="2">  1       -2 0.34777200E-01 0.16288616E+04</pdfrwt>
<totfact> 0.14269908E+01</totfact>
</mgrwt>
</event>
<event>
 6    1  0.1528034E-005  0.4178161E+04  0.7818608E-02  0.7969539E-01
         -2   -1    0    0    0  501 -0.00000000000E+00  0.00000000000E+00  0.25072764586E+04  0.25072764586E+04  0.00000000000E+00 0. -1.
          2   -1    0    0  501    0  0.00000000000E+00 -0.00000000000E+00 -0.17406369146E+04  0.17406369146E+04  0.00000000000E+00 0.  1.
         23    2    1    2    0    0  0.73568487584E+03  0.17810864025E+04  0.12009647789E+04  0.22725300130E+04  0.92602646589E+02 0.  0.
         13    1    3    3    0    0  0.67443708037E+02  0.22831692320E+03  0.12784693707E+03  0.27022603593E+03  0.00000000000E+00 0.  1.
        -13    1    3    3    0    0  0.66824116780E+03  0.15527694793E+04  0.10731178419E+04  0.20023039771E+04  0.00000000000E+00 0. -1.
         22    1    1    2    0    0 -0.73568487584E+03 -0.17810864025E+04 -0.43432523489E+03  0.19753833601E+04  0.00000000000E+00 0.  1.
<mgrwt>
<rscale>  0 0.41781613E+04</rscale>
<asrwt>0</asrwt>
<pdfrwt beam="1">  1        2 0.26779029E+00 0.41781613E+04</pdfrwt>
<pdfrwt beam="2">  1       -2 0.38573484E+00 0.41781613E+04</pdfrwt>
<totfact> 0.66529307E-02</totfact>
</mgrwt>
</event>
<event>
 6    1  0.1528034E-005  0.2694148E+04  0.7818608E-02  0.8336906E-01
          2   -1    0    0  501    0  0.00000000000E+00  0.00000000000E+00  0.22857975926E+04  0.22857975926E+04  0.00000000000E+00 0. -1.
         -2   -1    0    0    0  501 -0.00000000000E+00 -0.00000000000E+00 -0.79386250543E+03  0.79386250543E+03  0.00000000000E+00 0.  1.
         23    2    1    2    0    0  0.83318104791E+03 -0.56098210025E+03 -0.27623440606E+03  0.10461127216E+04  0.95680738840E+02 0.  0.
         11    1    3    3    0    0  0.41143520064E+03 -0.33447079537E+03 -0.14163239782E+03  0.54882544894E+03  0.00000000000E+00 0.  1.
        -11    1    3    3    0    0  0.42174584726E+03 -0.22651130488E+03 -0.13460200824E+03  0.49728727265E+03  0.00000000000E+00 0. -1.
         22    1    1    2    0    0 -0.83318104791E+03  0.56098210025E+03  0.17681694932E+04  0.20335473764E+04  0.00000000000E+00 0. -1.
<mgrwt>
<rscale>  0 0.26941485E+04</rscale>
<asrwt>0</asrwt>
<pdfrwt beam="1">  1        2 0.35166117E+00 0.26941485E+04</pdfrwt>
<pdfrwt beam="2">  1       -2 0.12213269E+00 0.26941485E+04</pdfrwt>
<totfact> 0.20597827E+00</totfact>
</mgrwt>
</event>
<event>
 6    1  0.1528034E-005  0.1588972E+04  0.7818608E-02  0.8827352E-01
         -2   -1    0    0    0  501 -0.00000000000E+00  0.00000000000E+00  0.84358606029E+03  0.84358606029E+03  0.00000000000E+00 0.  1.
          2   -1    0    0  501    0  0.00000000000E+00 -0.00000000000E+00 -0.74824386824E+03  0.74824386824E+03  0.00000000000E+00 0. -1.
         23    2    1    2    0    0 -0.23893414519E+03  0.42719388519E+03  0.67143897693E+03  0.83587249135E+03  0.90930637096E+02 0.  0.
         11    1    3    3    0    0 -0.14183054401E+03  0.16271816153E+03  0.27805278419E+03  0.35200348593E+03  0.00000000000E+00 0.  1.
        -11    1    3    3    0    0 -0.97103601172E+02  0.26447572366E+03  0.39338619274E+03  0.48386900542E+03  0.00000000000E+00 0. -1.
         22    1    1    2    0    0  0.23893414519E+03 -0.42719388519E+03 -0.57609678488E+03  0.75595743718E+03  0.00000000000E+00 0. -1.
<mgrwt>
<rscale>  0 0.15889721E+04</rscale>
<asrwt>0</asrwt>
<pdfrwt beam="1">  1        2 0.11511444E+00 0.15889721E+04</pdfrwt>
<pdfrwt beam="2">  1       -2 0.12978247E+00 0.15889721E+04</pdfrwt>
<totfact> 0.15741188E+01</totfact>
</mgrwt>
</event>
<event>
 6    1  0.1528034E-005  0.4718028E+04  0.7818608E-02  0.7873540E-01
         -2   -1    0    0    0  501 -0.00000000000E+00  0.00000000000E+00  0.18518320911E+04  0.18518320911E+04  0.00000000000E+00 0. -1.
          2   -1    0    0  501    0  0.00000000000E+00 -0.00000000000E+00 -0.30051039179E+04  0.30051039179E+04  0.00000000000E+00 0.  1.
         23    2    1    2    0    0 -0.14475058171E+04  0.75418010599E+03  0.11752230774E+04  0.20133556528E+04  0.91602295133E+02 0.  0.
         13    1    3    3    0    0 -0.69746864692E+03  0.38502558040E+03  0.52230774427E+03  0.95263455255E+03  0.00000000000E+00 0.  1.
        -13    1    3    3    0    0 -0.75003717018E+03  0.36915452559E+03  0.65291533309E+03  0.10607211003E+04  0.00000000000E+00 0. -1.
         22    1    1    2    0    0  0.14475058171E+04 -0.75418010599E+03 -0.23284949042E+04  0.28435803561E+04  0.00000000000E+00 0. -1.
<mgrwt>
<rscale>  0 0.47180283E+04</rscale>
<asrwt>0</asrwt>
<pdfrwt beam="1">  1        2 0.46232368E+00 0.47180283E+04</pdfrwt>
<pdfrwt beam="2">  1       -2 0.28489725E+00 0.47180283E+04</pdfrwt>
<totfact> 0.50558710E-02</totfact>
</mgrwt>
</event>
<event>
 6    1  0.1528034E-005  0.3347463E+04  0.7818608E-02  0.8150922E-01
         -2   -1    0    0    0  501 -0.00000000000E+00  0.00000000000E+00  0.99565359082E+03  0.99565359082E+03  0.00000000000E+00 0. -1.
          2   -1    0    0  501    0  0.00000000000E+00 -0.00000000000E+00 -0.28136055307E+04  0.28136055307E+04  0.00000000000E+00 0.  1.
         23    2    1    2    0    0 -0.62828027953E+03 -0.10529616955E+04 -0.22040395130E+04  0.25237521959E+04  0.89836125655E+02 0.  0.
         13    1    3    3    0    0 -0.49762041283E+02 -0.13217272335E+03 -0.22588642231E+03  0.26640301300E+03  0.00000000000E+00 0. -1.
        -13    1    3    3    0    0 -0.57851823824E+03 -0.92078897211E+03 -0.19781530907E+04  0.22573491829E+04  0.00000000000E+00 0.  1.
         22    1    1    2    0    0  0.62828027953E+03  0.10529616955E+04  0.38608757314E+03  0.12855069256E+04  0.00000000000E+00 0. -1.
<mgrwt>
<rscale>  0 0.33474626E+04</rscale>
<asrwt>0</asrwt>
<pdfrwt beam="1">  1        2 0.43286238E+00 0.33474626E+04</pdfrwt>
<pdfrwt beam="2">  1       -2 0.15317748E+00 0.33474626E+04</pdfrwt>
<totfact> 0.53463157E-01</totfact>
</mgrwt>
</event>
<event>
 6    1  0.1528034E-005  0.1518515E+04  0.7818608E-02  0.8872233E-01
          1   -1    0    0  501    0  0.00000000000E+00  0.00000000000E+00  0.59966683381E+03  0.59966683381E+03  0.00000000000E+00 0. -1.
         -1   -1    0    0    0  501 -0.00000000000E+00 -0.00000000000E+00 -0.96132091155E+03  0.96132091155E+03  0.00000000000E+00 0.  1.
         23    2    1    2    0    0  0.30225317807E+03  0.49397941542E+03 -0.68186920393E+03  0.89923977706E+03  0.91180693494E+02 0.  0.
         11    1    3    3    0    0  0.61748807603E+02  0.17712609629E+03 -0.24179348115E+03  0.30602394801E+03  0.00000000000E+00 0. -1.
        -11    1    3    3    0    0  0.24050437047E+03  0.31685331913E+03 -0.44007572277E+03  0.59321582905E+03  0.00000000000E+00 0.  1.
         22    1    1    2    0    0 -0.30225317807E+03 -0.49397941542E+03  0.32021512618E+03  0.66174796830E+03  0.00000000000E+00 0. -1.
<mgrwt>
<rscale>  0 0.15185154E+04</rscale>
<asrwt>0</asrwt>
<pdfrwt beam="1">  1        1 0.92256437E-01 0.15185154E+04</pdfrwt>
<pdfrwt beam="2">  1       -1 0.14789552E+00 0.15185154E+04</pdfrwt>
<totfact> 0.11999968E+01</totfact>
</mgrwt>
</event>
<event>
 6    1  0.1528034E-005  0.2913809E+04  0.7818608E-02  0.8268781E-01
          2   -1    0    0  501    0  0.00000000000E+00  0.00000000000E+00  0.22046874924E+04  0.22046874924E+04  0.00000000000E+00 0. -1.
         -2   -1    0    0    0  501 -0.00000000000E+00 -0.00000000000E+00 -0.96275360701E+03  0.96275360701E+03  0.00000000000E+00 0.  1.
         23    2    1    2    0    0 -0.51761492323E+03  0.11159285911E+04  0.14671138717E+04  0.19168700877E+04  0.93520006397E+02 0.  0.
         11    1    3    3    0    0 -0.62049063288E+02  0.86273087544E+02  0.15436267832E+03  0.18740589197E+03  0.00000000000E+00 0. -1.
        -11    1    3    3    0    0 -0.45556585995E+03  0.10296555035E+04  0.13127511933E+04  0.17294641957E+04  0.00000000000E+00 0.  1.
         22    1    1    2    0    0  0.51761492323E+03 -0.11159285911E+04 -0.22517998625E+03  0.12505710117E+04  0.00000000000E+00 0.  1.
<mgrwt>
<rscale>  0 0.29138091E+04</rscale>
<asrwt>0</asrwt>
<pdfrwt beam="1">  1        2 0.33918269E+00 0.29138091E+04</pdfrwt>
<pdfrwt beam="2">  1       -2 0.14811594E+00 0.29138091E+04</pdfrwt>
<totfact> 0.13708090E+00</totfact>
</mgrwt>
</event>
<event>
 6    1  0.1528034E-005  0.4726447E+04  0.7818608E-02  0.7872149E-01
         -2   -1    0    0    0  501 -0.00000000000E+00  0.00000000000E+00  0.16346934876E+04  0.16346934876E+04  0.00000000000E+00 0. -1.
          2   -1    0    0  501    0  0.00000000000E+00 -0.00000000000E+00 -0.34164364817E+04  0.34164364817E+04  0.00000000000E+00 0.  1.
         23    2    1    2    0    0  0.60348758322E+03 -0.21640810803E+04 -0.11081322254E+03  0.22512280983E+04  0.91127355244E+02 0.  0.
         11    1    3    3    0    0  0.41045059979E+03 -0.14479992526E+04 -0.11662959350E+03  0.15095608608E+04  0.00000000000E+00 0.  1.
        -11    1    3    3    0    0  0.19303698342E+03 -0.71608182771E+03  0.58163709685E+01  0.74166723746E+03  0.00000000000E+00 0. -1.
         22    1    1    2    0    0 -0.60348758322E+03  0.21640810803E+04 -0.16709297716E+04  0.27999018710E+04  0.00000000000E+00 0.  1.
<mgrwt>
<rscale>  0 0.47264475E+04</rscale>
<asrwt>0</asrwt>
<pdfrwt beam="1">  1        2 0.52560561E+00 0.47264475E+04</pdfrwt>
<pdfrwt beam="2">  1       -2 0.25149131E+00 0.47264475E+04</pdfrwt>
<totfact> 0.43416296E-02</totfact>
</mgrwt>
</event>
<event>
 6    1  0.1528034E-005  0.1697808E+04  0.7818608E-02  0.8762616E-01
         -1   -1    0    0    0  501 -0.00000000000E+00  0.00000000000E+00  0.26919539701E+03  0.26919539701E+03  0.00000000000E+00 0.  1.
          1   -1    0    0  501    0  0.00000000000E+00 -0.00000000000E+00 -0.26770059427E+04  0.26770059427E+04  0.00000000000E+00 0. -1.
         23    2    1    2    0    0  0.66329328320E+03 -0.13981089054E+03 -0.32580539525E+03  0.75662363815E+03  0.82614221488E+02 0.  0.
         13    1    3    3    0    0  0.29198670678E+03 -0.82587683267E+02 -0.10638335910E+03  0.32154996728E+03  0.00000000000E+00 0. -1.
        -13    1    3    3    0    0  0.37130657642E+03 -0.57223207273E+02 -0.21942203615E+03  0.43507367087E+03  0.00000000000E+00 0.  1.
         22    1    1    2    0    0 -0.66329328320E+03  0.13981089054E+03 -0.20820051504E+04  0.21895777015E+04  0.00000000000E+00 0. -1.
<mgrwt>
<rscale>  0 0.16978076E+04</rscale>
<asrwt>0</asrwt>
<pdfrwt beam="1">  1        1 0.41184707E+00 0.16978076E+04</pdfrwt>
<pdfrwt beam="2">  1       -1 0.41414677E-01 0.16978076E+04</pdfrwt>
<totfact> 0.55528701E+00</totfact>
</mgrwt>
</event>
<event>
 6    1  0.1528034E-005  0.1968857E+04  0.7818608E-02  0.8621321E-01
         -2   -1    0    0    0  501 -0.00000000000E+00  0.00000000000E+00  0.17426591044E+04  0.17426591044E+04  0.00000000000E+00 0.  1.
          2   -1    0    0  501    0  0.00000000000E+00 -0.00000000000E+00 -0.55610409342E+03  0.55610409342E+03  0.00000000000E+00 0. -1.
         23    2    1    2    0    0  0.52904001912E+03 -0.53919469196E+03 -0.13869505282E+03  0.77334457028E+03  0.90615942480E+02 0.  0.
         11    1    3    3    0    0  0.46214866854E+03 -0.43363653524E+03 -0.13694672608E+03  0.64836443634E+03  0.00000000000E+00 0. -1.
        -11    1    3    3    0    0  0.66891350583E+02 -0.10555815672E+03 -0.17483267415E+01  0.12498013393E+03  0.00000000000E+00 0.  1.
         22    1    1    2    0    0 -0.52904001912E+03  0.53919469196E+03  0.13252500638E+04  0.15254186276E+04  0.00000000000E+00 0.  1.
<mgrwt>
<rscale>  0 0.19688574E+04</rscale>
<asrwt>0</asrwt>
<pdfrwt beam="1">  1        2 0.85554477E-01 0.19688574E+04</pdfrwt>
<pdfrwt beam="2">  1       -2 0.26810140E+00 0.19688574E+04</pdfrwt>
<totfact> 0.25197135E+00</totfact>
</mgrwt>
</event>
<event>
 6    1  0.1528034E-005  0.4445493E+04  0.7818608E-02  0.7920249E-01
         -1   -1    0    0    0  501 -0.00000000000E+00  0.00000000000E+00  0.22967229485E+04  0.22967229485E+04  0.00000000000E+00 0.  1.
          1   -1    0    0  501    0  0.00000000000E+00 -0.00000000000E+00 -0.21511525688E+04  0.21511525688E+04  0.00000000000E+00 0. -1.
         23    2    1    2    0    0  0.11402475410E+04  0.39575215250E+03  0.19392110410E+04  0.22859478953E+04  0.90741929970E+02 0.  0.
         13    1    3    3    0    0  0.71162422516E+02  0.45226232004E+02  0.16000873073E+03  0.18086540949E+03  0.00000000000E+00 0. -1.
        -13    1    3    3    0    0  0.10690851185E+04  0.35052592050E+03  0.17792023102E+04  0.21050824858E+04  0.00000000000E+00 0.  1.
         22    1    1    2    0    0 -0.11402475410E+04 -0.39575215250E+03 -0.17936406612E+04  0.21619276219E+04  0.00000000000E+00 0. -1.
<mgrwt>
<rscale>  0 0.44454928E+04</rscale>
<asrwt>0</asrwt>
<pdfrwt beam="1">  1        1 0.33094655E+00 0.44454928E+04</pdfrwt>
<pdfrwt beam="2">  1       -1 0.35334199E+00 0.44454928E+04</pdfrwt>
<totfact> 0.26207459E-02</totfact>
</mgrwt>
</event>
<event>
 6    1  0.1528034E-005  0.5452560E+04  0.7818608E-02  0.7762251E-01
          1   -1    0    0  501    0  0.00000000000E+00  0.00000000000E+00  0.32402311467E+04  0.32402311467E+04  0.00000000000E+00 0. -1.
         -1   -1    0    0    0  501 -0.00000000000E+00 -0.00000000000E+00 -0.22938496463E+04  0.22938496463E+04  0.00000000000E+00 0.  1.
         23    2    1    2    0    0  0.17497214852E+04 -0.20877754607E+04  0.38270786164E+03  0.27523439936E+04  0.92738890841E+02 0.  0.
         11    1    3    3    0    0  0.57982931361E+03 -0.64712070509E+03  0.89483407518E+02  0.87348412699E+03  0.00000000000E+00 0. -1.
        -11    1    3    3    0    0  0.11698921716E+04 -0.14406547556E+04  0.29322445413E+03  0.18788598666E+04  0.00000000000E+00 0.  1.
         22    1    1    2    0    0 -0.17497214852E+04  0.20877754607E+04  0.56367363872E+03  0.27817367994E+04  0.00000000000E+00 0. -1.
<mgrwt>
<rscale>  0 0.54525602E+04</rscale>
<asrwt>0</asrwt>
<pdfrwt beam="1">  1        1 0.49849711E+00 0.54525602E+04</pdfrwt>
<pdfrwt beam="2">  1       -1 0.35289994E+00 0.54525602E+04</pdfrwt>
<totfact> 0.41042924E-03</totfact>
</mgrwt>
</event>
<event>
 6    1  0.1528034E-005  0.3014594E+04  0.7818608E-02  0.8239576E-01
         -2   -1    0    0    0  501 -0.00000000000E+00  0.00000000000E+00  0.17528049754E+04  0.17528049754E+04  0.00000000000E+00 0.  1.
          2   -1    0    0  501    0  0.00000000000E+00 -0.00000000000E+00 -0.12961759699E+04  0.12961759699E+04  0.00000000000E+00 0. -1.
         23    2    1    2    0    0  0.29838685494E+03  0.94202374688E+03  0.13779054772E+04  0.16979836129E+04  0.89896555539E+02 0.  0.
         11    1    3    3    0    0  0.14140579408E+03  0.58389209667E+03  0.80994341542E+03  0.10084314133E+04  0.00000000000E+00 0. -1.
        -11    1    3    3    0    0  0.15698106086E+03  0.35813165021E+03  0.56796206175E+03  0.68955219957E+03  0.00000000000E+00 0.  1.
         22    1    1    2    0    0 -0.29838685494E+03 -0.94202374688E+03 -0.92127647168E+03  0.13509973324E+04  0.00000000000E+00 0. -1.
<mgrwt>
<rscale>  0 0.30145936E+04</rscale>
<asrwt>0</asrwt>
<pdfrwt beam="1">  1        2 0.19941169E+00 0.30145936E+04</pdfrwt>
<pdfrwt beam="2">  1       -2 0.26966230E+00 0.30145936E+04</pdfrwt>
<totfact> 0.69184096E-01</totfact>
</mgrwt>
</event>
<event>
 6    1  0.1528034E-005  0.1499575E+04  0.7818608E-02  0.8884736E-01
         -2   -1    0    0    0  501 -0.00000000000E+00  0.00000000000E+00  0.43268986274E+03  0.43268986274E+03  0.00000000000E+00 0.  1.
          2   -1    0    0  501    0  0.00000000000E+00 -0.00000000000E+00 -0.12992704858E+04  0.12992704858E+04  0.00000000000E+00 0. -1.
         23    2    1    2    0    0 -0.62741280555E+03  0.26815629524E+03 -0.78598649890E+03  0.10449013699E+04  0.92138315603E+02 0.  0.
         11    1    3    3    0    0 -0.19020076971E+03  0.39166019956E+02 -0.24452771817E+03  0.31225648892E+03  0.00000000000E+00 0.  1.
        -11    1    3    3    0    0 -0.43721203583E+03  0.22899027528E+03 -0.54145878073E+03  0.73264488102E+03  0.00000000000E+00 0. -1.
         22    1    1    2    0    0  0.62741280555E+03 -0.26815629524E+03 -0.80594124165E+02  0.68705897861E+03  0.00000000000E+00 0.  1.
<mgrwt>
<rscale>  0 0.14995748E+04</rscale>
<asrwt>0</asrwt>
<pdfrwt beam="1">  1        2 0.19988776E+00 0.14995748E+04</pdfrwt>
<pdfrwt beam="2">  1       -2 0.66567672E-01 0.14995748E+04</pdfrwt>
<totfact> 0.33156033E+01</totfact>
</mgrwt>
</event>
<event>
 6    1  0.1528034E-005  0.5453248E+03  0.7818608E-02  0.1002582E+00
         -1   -1    0    0    0  501 -0.00000000000E+00  0.00000000000E+00  0.61325656697E+03  0.61325656697E+03  0.00000000000E+00 0.  1.
          1   -1    0    0  501    0  0.00000000000E+00 -0.00000000000E+00 -0.12122949308E+03  0.12122949308E+03  0.00000000000E+00 0. -1.
         23    2    1    2    0    0  0.24030635231E+03  0.14616183384E+02  0.10574304875E+03  0.27932002017E+03  0.94219454113E+02 0.  0.
         11    1    3    3    0    0  0.92329583853E+02 -0.39110223427E+02  0.30308575644E+02  0.10475195172E+03  0.00000000000E+00 0. -1.
        -11    1    3    3    0    0  0.14797676845E+03  0.53726406810E+02  0.75434473105E+02  0.17456806845E+03  0.00000000000E+00 0.  1.
         22    1    1    2    0    0 -0.24030635231E+03 -0.14616183384E+02  0.38628402514E+03  0.45516603988E+03  0.00000000000E+00 0.  1.
<mgrwt>
<rscale>  0 0.54532479E+03</rscale>
<asrwt>0</asrwt>
<pdfrwt beam="1">  1        1 0.18650692E-01 0.54532479E+03</pdfrwt>
<pdfrwt beam="2">  1       -1 0.94347163E-01 0.54532479E+03</pdfrwt>
<totfact> 0.31834511E+02</totfact>
</mgrwt>
</event>
<event>
 6    1  0.1528034E-005  0.1931037E+04  0.7818608E-02  0.8639560E-01
          2   -1    0    0  501    0  0.00000000000E+00  0.00000000000E+00  0.24337721761E+04  0.24337721761E+04  0.00000000000E+00 0. -1.
         -2   -1    0    0    0  501 -0.00000000000E+00 -0.00000000000E+00 -0.38303757629E+03  0.38303757629E+03  0.00000000000E+00 0.  1.
         23    2    1    2    0    0  0.53796287469E+03 -0.78089452037E+03  0.12755180554E+04  0.15919991559E+04  0.91184956939E+02 0.  0.
         13    1    3    3    0    0  0.26660426755E+03 -0.32525811167E+03  0.51643725988E+03  0.66601660495E+03  0.00000000000E+00 0.  1.
        -13    1    3    3    0    0  0.27135860714E+03 -0.45563640869E+03  0.75908079551E+03  0.92598255097E+03  0.00000000000E+00 0. -1.
         22    1    1    2    0    0 -0.53796287469E+03  0.78089452037E+03  0.77521654443E+03  0.12248105965E+04  0.00000000000E+00 0. -1.
<mgrwt>
<rscale>  0 0.19310372E+04</rscale>
<asrwt>0</asrwt>
<pdfrwt beam="1">  1        2 0.37442648E+00 0.19310372E+04</pdfrwt>
<pdfrwt beam="2">  1       -2 0.58928859E-01 0.19310372E+04</pdfrwt>
<totfact> 0.95611519E+00</totfact>
</mgrwt>
</event>
<event>
 6    1  0.1528034E-005  0.1993169E+04  0.7818608E-02  0.8609821E-01
          1   -1    0    0  501    0  0.00000000000E+00  0.00000000000E+00  0.71610807690E+03  0.71610807690E+03  0.00000000000E+00 0. -1.
         -1   -1    0    0    0  501 -0.00000000000E+00 -0.00000000000E+00 -0.13869144321E+04  0.13869144321E+04  0.00000000000E+00 0.  1.
         23    2    1    2    0    0 -0.28762272557E+03 -0.74145633034E+03  0.29432144656E+03  0.85244024628E+03  0.86861599717E+02 0.  0.
         13    1    3    3    0    0 -0.61771597219E+02 -0.18179362372E+03  0.11060744025E+03  0.22158216916E+03  0.00000000000E+00 0.  1.
        -13    1    3    3    0    0 -0.22585112836E+03 -0.55966270662E+03  0.18371400631E+03  0.63085807713E+03  0.00000000000E+00 0. -1.
         22    1    1    2    0    0  0.28762272557E+03  0.74145633034E+03 -0.96512780176E+03  0.12505822627E+04  0.00000000000E+00 0.  1.
<mgrwt>
<rscale>  0 0.19931690E+04</rscale>
<asrwt>0</asrwt>
<pdfrwt beam="1">  1        1 0.11017047E+00 0.19931690E+04</pdfrwt>
<pdfrwt beam="2">  1       -1 0.21337145E+00 0.19931690E+04</pdfrwt>
<totfact> 0.29783217E+00</totfact>
</mgrwt>
</event>
<event>
 6    1  0.1528034E-005  0.3002267E+04  0.7818608E-02  0.8243084E-01
         -2   -1    0    0    0  501 -0.00000000000E+00  0.00000000000E+00  0.14276192718E+04  0.14276192718E+04  0.00000000000E+00 0.  1.
          2   -1    0    0  501    0  0.00000000000E+00 -0.00000000000E+00 -0.15784336867E+04  0.15784336867E+04  0.00000000000E+00 0. -1.
         23    2    1    2    0    0 -0.97241750391E+03 -0.42816778965E+03 -0.11352532874E+04  0.15575905490E+04  0.91459465198E+02 0.  0.
         13    1    3    3    0    0 -0.38963642375E+03 -0.21578385190E+03 -0.50370029256E+03  0.67237876095E+03  0.00000000000E+00 0.  1.
        -13    1    3    3    0    0 -0.58278108016E+03 -0.21238393775E+03 -0.63155299481E+03  0.88521178803E+03  0.00000000000E+00 0. -1.
         22    1    1    2    0    0  0.97241750391E+03  0.42816778965E+03  0.98443887255E+03  0.14484624095E+04  0.00000000000E+00 0.  1.
<mgrwt>
<rscale>  0 0.30022674E+04</rscale>
<asrwt>0</asrwt>
<pdfrwt beam="1">  1        2 0.24283595E+00 0.30022674E+04</pdfrwt>
<pdfrwt beam="2">  1       -2 0.21963373E+00 0.30022674E+04</pdfrwt>
<totfact> 0.97522933E-01</totfact>
</mgrwt>
</event>
<event>
 6    1  0.1528034E-005  0.4471323E+04  0.7818608E-02  0.7915677E-01
          2   -1    0    0  501    0  0.00000000000E+00  0.00000000000E+00  0.24627865305E+04  0.24627865305E+04  0.00000000000E+00 0. -1.
         -2   -1    0    0    0  501 -0.00000000000E+00 -0.00000000000E+00 -0.20294826543E+04  0.20294826543E+04  0.00000000000E+00 0.  1.
         23    2    1    2    0    0 -0.11118445710E+04 -0.33075831538E+03 -0.17022840387E+04  0.20619739033E+04  0.91465928792E+02 0.  0.
         13    1    3    3    0    0 -0.10288906723E+04 -0.28037270470E+03 -0.15688244667E+04  0.18969541576E+04  0.00000000000E+00 0. -1.
        -13    1    3    3    0    0 -0.82953898710E+02 -0.50385610687E+02 -0.13345957204E+03  0.16501974562E+03  0.00000000000E+00 0.  1.
         22    1    1    2    0    0  0.11118445710E+04  0.33075831538E+03  0.21355879149E+04  0.24302952815E+04  0.00000000000E+00 0. -1.
<mgrwt>
<rscale>  0 0.44713231E+04</rscale>
<asrwt>0</asrwt>
<pdfrwt beam="1">  1        2 0.37889024E+00 0.44713231E+04</pdfrwt>
<pdfrwt beam="2">  1       -2 0.31222810E+00 0.44713231E+04</pdfrwt>
<totfact> 0.74283945E-02</totfact>
</mgrwt>
</event>
<event>
 6    1  0.1528034E-005  0.3661001E+04  0.7818608E-02  0.8076660E-01
         -3   -1    0    0    0  501 -0.00000000000E+00  0.00000000000E+00  0.33915535241E+04  0.33915535241E+04  0.00000000000E+00 0.  1.
          3   -1    0    0  501    0  0.00000000000E+00 -0.00000000000E+00 -0.98796382172E+03  0.98796382172E+03  0.00000000000E+00 0. -1.
         23    2    1    2    0    0  0.17193499345E+04  0.22935971808E+02  0.45511259443E+03  0.17808151127E+04  0.86514369165E+02 0.  0.
         13    1    3    3    0    0  0.68554249275E+03 -0.31059612908E+02  0.16763810661E+03  0.70642461998E+03  0.00000000000E+00 0.  1.
        -13    1    3    3    0    0  0.10338074417E+04  0.53995584716E+02  0.28747448782E+03  0.10743904928E+04  0.00000000000E+00 0. -1.
         22    1    1    2    0    0 -0.17193499345E+04 -0.22935971808E+02  0.19484771080E+04  0.25987022331E+04  0.00000000000E+00 0.  1.
<mgrwt>
<rscale>  0 0.36610011E+04</rscale>
<asrwt>0</asrwt>
<pdfrwt beam="1">  1        3 0.15199444E+00 0.36610011E+04</pdfrwt>
<pdfrwt beam="2">  1       -3 0.52177746E+00 0.36610011E+04</pdfrwt>
<totfact> 0.15268612E-03</totfact>
</mgrwt>
</event>
<event>
 6    1  0.1528034E-005  0.1491385E+04  0.7818608E-02  0.8890202E-01
         -2   -1    0    0    0  501 -0.00000000000E+00  0.00000000000E+00  0.25540039949E+03  0.25540039949E+03  0.00000000000E+00 0.  1.
          2   -1    0    0  501    0  0.00000000000E+00 -0.00000000000E+00 -0.21771996366E+04  0.21771996366E+04  0.00000000000E+00 0. -1.
         23    2    1    2    0    0 -0.31798126315E+03 -0.27654202068E+03 -0.19624989984E+04  0.20092278080E+04  0.89479006337E+02 0.  0.
         11    1    3    3    0    0 -0.31386877853E+03 -0.24795578747E+03 -0.18710030509E+04  0.19132820229E+04  0.00000000000E+00 0. -1.
        -11    1    3    3    0    0 -0.41124846167E+01 -0.28586233207E+02 -0.91495947558E+02  0.95945785099E+02  0.00000000000E+00 0.  1.
         22    1    1    2    0    0  0.31798126315E+03  0.27654202068E+03  0.40699761376E+02  0.42337222806E+03  0.00000000000E+00 0.  1.
<mgrwt>
<rscale>  0 0.14913855E+04</rscale>
<asrwt>0</asrwt>
<pdfrwt beam="1">  1        2 0.33495378E+00 0.14913855E+04</pdfrwt>
<pdfrwt beam="2">  1       -2 0.39292370E-01 0.14913855E+04</pdfrwt>
<totfact> 0.31525224E+01</totfact>
</mgrwt>
</event>
<event>
 6    1  0.1528034E-005  0.6158125E+03  0.7818608E-02  0.9873133E-01
          2   -1    0    0  501    0  0.00000000000E+00  0.00000000000E+00  0.14098809837E+04  0.14098809837E+04  0.00000000000E+00 0.  1.
         -2   -1    0    0    0  501 -0.00000000000E+00 -0.00000000000E+00 -0.67244150910E+02  0.67244150910E+02  0.00000000000E+00 0. -1.
         23    2    1    2    0    0  0.14539149234E+03  0.21227534359E+03  0.10619890643E+04  0.10963854893E+04  0.89670847775E+02 0.  0.
         11    1    3    3    0    0  0.12799070784E+03  0.11346239524E+03  0.62081046715E+03  0.64394174624E+03  0.00000000000E+00 0. -1.
        -11    1    3    3    0    0  0.17400784504E+02  0.98812948346E+02  0.44117859718E+03  0.45244374310E+03  0.00000000000E+00 0.  1.
         22    1    1    2    0    0 -0.14539149234E+03 -0.21227534359E+03  0.28064776847E+03  0.38073964528E+03  0.00000000000E+00 0. -1.
<mgrwt>
<rscale>  0 0.61581247E+03</rscale>
<asrwt>0</asrwt>
<pdfrwt beam="1">  1        2 0.21690474E+00 0.61581247E+03</pdfrwt>
<pdfrwt beam="2">  1       -2 0.10345255E-01 0.61581247E+03</pdfrwt>
<totfact> 0.94254816E+02</totfact>
</mgrwt>
</event>
<event>
 6    1  0.1528034E-005  0.4341500E+04  0.7818608E-02  0.7938989E-01
         -1   -1    0    0    0  501 -0.00000000000E+00  0.00000000000E+00  0.21958749238E+04  0.21958749238E+04  0.00000000000E+00 0.  1.
          1   -1    0    0  501    0  0.00000000000E+00 -0.00000000000E+00 -0.21459127319E+04  0.21459127319E+04  0.00000000000E+00 0. -1.
         23    2    1    2    0    0  0.17376112335E+04  0.74605226971E+03  0.10889012758E+04  0.21841775872E+04  0.95073425819E+02 0.  0.
         13    1    3    3    0    0  0.73412741787E+03  0.26479367247E+03  0.44115174666E+03  0.89647845386E+03  0.00000000000E+00 0.  1.
        -13    1    3    3    0    0  0.10034838156E+04  0.48125859724E+03  0.64774952910E+03  0.12876991334E+04  0.00000000000E+00 0. -1.
         22    1    1    2    0    0 -0.17376112335E+04 -0.74605226971E+03 -0.10389390838E+04  0.21576100685E+04  0.00000000000E+00 0. -1.
<mgrwt>
<rscale>  0 0.43415002E+04</rscale>
<asrwt>0</asrwt>
<pdfrwt beam="1">  1        1 0.33014042E+00 0.43415002E+04</pdfrwt>
<pdfrwt beam="2">  1       -1 0.33782691E+00 0.43415002E+04</pdfrwt>
<totfact> 0.33754107E-02</totfact>
</mgrwt>
</event>
<event>
 6    1  0.1528034E-005  0.1840740E+04  0.7818608E-02  0.8684929E-01
          1   -1    0    0  501    0  0.00000000000E+00  0.00000000000E+00  0.26247952412E+04  0.26247952412E+04  0.00000000000E+00 0. -1.
         -1   -1    0    0    0  501 -0.00000000000E+00 -0.00000000000E+00 -0.32272279062E+03  0.32272279062E+03  0.00000000000E+00 0.  1.
         23    2    1    2    0    0  0.84621485564E+03 -0.30589467684E+03  0.86228313467E+03  0.12496828191E+04  0.92324476242E+02 0.  0.
         11    1    3    3    0    0  0.21063321977E+03 -0.96239574101E+02  0.27267269740E+03  0.35774125957E+03  0.00000000000E+00 0. -1.
        -11    1    3    3    0    0  0.63558163587E+03 -0.20965510274E+03  0.58961043727E+03  0.89194155958E+03  0.00000000000E+00 0.  1.
         22    1    1    2    0    0 -0.84621485564E+03  0.30589467684E+03  0.14397893159E+04  0.16978352127E+04  0.00000000000E+00 0.  1.
<mgrwt>
<rscale>  0 0.18407403E+04</rscale>
<asrwt>0</asrwt>
<pdfrwt beam="1">  1        1 0.40381464E+00 0.18407403E+04</pdfrwt>
<pdfrwt beam="2">  1       -1 0.49649662E-01 0.18407403E+04</pdfrwt>
<totfact> 0.42462236E+00</totfact>
</mgrwt>
</event>
<event>
 6    1  0.1528034E-005  0.3210052E+04  0.7818608E-02  0.8186168E-01
          2   -1    0    0  501    0  0.00000000000E+00  0.00000000000E+00  0.29080848212E+04  0.29080848212E+04  0.00000000000E+00 0. -1.
         -2   -1    0    0    0  501 -0.00000000000E+00 -0.00000000000E+00 -0.88584347542E+03  0.88584347542E+03  0.00000000000E+00 0.  1.
         23    2    1    2    0    0 -0.11975183416E+04  0.15311009479E+03 -0.23564839895E+03  0.12335457121E+04  0.92800734188E+02 0.  0.
         13    1    3    3    0    0 -0.72780285541E+03  0.13849279909E+03 -0.14049820013E+03  0.75406697049E+03  0.00000000000E+00 0. -1.
        -13    1    3    3    0    0 -0.46971548623E+03  0.14617295696E+02 -0.95150198818E+02  0.47947874163E+03  0.00000000000E+00 0.  1.
         22    1    1    2    0    0  0.11975183416E+04 -0.15311009479E+03  0.22578897447E+04  0.25603825845E+04  0.00000000000E+00 0. -1.
<mgrwt>
<rscale>  0 0.32100517E+04</rscale>
<asrwt>0</asrwt>
<pdfrwt beam="1">  1        2 0.44739766E+00 0.32100517E+04</pdfrwt>
<pdfrwt beam="2">  1       -2 0.13628361E+00 0.32100517E+04</pdfrwt>
<totfact> 0.64308594E-01</totfact>
</mgrwt>
</event>
<event>
 6    1  0.1528034E-005  0.1303939E+04  0.7818608E-02  0.9026447E-01
         -1   -1    0    0    0  501 -0.00000000000E+00  0.00000000000E+00  0.65061114748E+03  0.65061114748E+03  0.00000000000E+00 0.  1.
          1   -1    0    0  501    0  0.00000000000E+00 -0.00000000000E+00 -0.65333097576E+03  0.65333097576E+03  0.00000000000E+00 0. -1.
         23    2    1    2    0    0  0.28430396342E+03 -0.52741011267E+03  0.24771338551E+03  0.65455243658E+03  0.89926638487E+02 0.  0.
         13    1    3    3    0    0  0.12418677120E+03 -0.21837815416E+03  0.15183309066E+03  0.29353817431E+03  0.00000000000E+00 0. -1.
        -13    1    3    3    0    0  0.16011719222E+03 -0.30903195851E+03  0.95880294849E+02  0.36101426227E+03  0.00000000000E+00 0.  1.
         22    1    1    2    0    0 -0.28430396342E+03  0.52741011267E+03 -0.25043321379E+03  0.64938968665E+03  0.00000000000E+00 0. -1.
<mgrwt>
<rscale>  0 0.13039393E+04</rscale>
<asrwt>0</asrwt>
<pdfrwt beam="1">  1        1 0.10051246E+00 0.13039393E+04</pdfrwt>
<pdfrwt beam="2">  1       -1 0.10009402E+00 0.13039393E+04</pdfrwt>
<totfact> 0.28250882E+01</totfact>
</mgrwt>
</event>
<event>
 6    1  0.1528034E-005  0.3203479E+04  0.7818608E-02  0.8187899E-01
          1   -1    0    0  501    0  0.00000000000E+00  0.00000000000E+00  0.21258185244E+04  0.21258185244E+04  0.00000000000E+00 0. -1.
         -1   -1    0    0    0  501 -0.00000000000E+00 -0.00000000000E+00 -0.12068622626E+04  0.12068622626E+04  0.00000000000E+00 0.  1.
         23    2    1    2    0    0 -0.46472927557E+02  0.15884290107E+04  0.26229633215E+03  0.16132422977E+04  0.92113463558E+02 0.  0.
         11    1    3    3    0    0  0.62054284226E+01  0.45816013073E+03  0.11308427391E+03  0.47195049077E+03  0.00000000000E+00 0. -1.
        -11    1    3    3    0    0 -0.52678355979E+02  0.11302688800E+04  0.14921205823E+03  0.11412918070E+04  0.00000000000E+00 0.  1.
         22    1    1    2    0    0  0.46472927557E+02 -0.15884290107E+04  0.65665992971E+03  0.17194384893E+04  0.00000000000E+00 0.  1.
<mgrwt>
<rscale>  0 0.32034795E+04</rscale>
<asrwt>0</asrwt>
<pdfrwt beam="1">  1        1 0.32704900E+00 0.32034795E+04</pdfrwt>
<pdfrwt beam="2">  1       -1 0.18567112E+00 0.32034795E+04</pdfrwt>
<totfact> 0.38807311E-01</totfact>
</mgrwt>
</event>
<event>
 6    1  0.1528034E-005  0.2811973E+04  0.7818608E-02  0.8299561E-01
         -2   -1    0    0    0  501 -0.00000000000E+00  0.00000000000E+00  0.65638425441E+03  0.65638425441E+03  0.00000000000E+00 0.  1.
          2   -1    0    0  501    0  0.00000000000E+00 -0.00000000000E+00 -0.30116471731E+04  0.30116471731E+04  0.00000000000E+00 0. -1.
         23    2    1    2    0    0  0.33501378261E+03 -0.48327979808E+03  0.48498389217E+03  0.76754947715E+03  0.90162222880E+02 0.  0.
         11    1    3    3    0    0  0.10341255570E+03 -0.94800493294E+02  0.14481684909E+03  0.20162641193E+03  0.00000000000E+00 0. -1.
        -11    1    3    3    0    0  0.23160122690E+03 -0.38847930479E+03  0.34016704308E+03  0.56592306522E+03  0.00000000000E+00 0.  1.
         22    1    1    2    0    0 -0.33501378261E+03  0.48327979808E+03 -0.28402468108E+04  0.29004819503E+04  0.00000000000E+00 0. -1.
<mgrwt>
<rscale>  0 0.28119728E+04</rscale>
<asrwt>0</asrwt>
<pdfrwt beam="1">  1        2 0.46333033E+00 0.28119728E+04</pdfrwt>
<pdfrwt beam="2">  1       -2 0.10098219E+00 0.28119728E+04</pdfrwt>
<totfact> 0.12005900E+00</totfact>
</mgrwt>
</event>
<event>
 6    1  0.1528034E-005  0.3139443E+04  0.7818608E-02  0.8204996E-01
         -1   -1    0    0    0  501 -0.00000000000E+00  0.00000000000E+00  0.92719718673E+03  0.92719718673E+03  0.00000000000E+00 0.  1.
          1   -1    0    0  501    0  0.00000000000E+00 -0.00000000000E+00 -0.26574990488E+04  0.26574990488E+04  0.00000000000E+00 0. -1.
         23    2    1    2    0    0  0.10937144968E+04  0.40603884589E+03  0.33104702512E+03  0.12161020998E+04  0.90737200309E+02 0.  0.
         13    1    3    3    0    0  0.86944764736E+03  0.29070003968E+03  0.28237138225E+03  0.95925977820E+03  0.00000000000E+00 0. -1.
        -13    1    3    3    0    0  0.22426684945E+03  0.11533880621E+03  0.48675642873E+02  0.25684232165E+03  0.00000000000E+00 0.  1.
         22    1    1    2    0    0 -0.10937144968E+04 -0.40603884589E+03 -0.20613488872E+04  0.23685941357E+04  0.00000000000E+00 0. -1.
<mgrwt>
<rscale>  0 0.31394430E+04</rscale>
<asrwt>0</asrwt>
<pdfrwt beam="1">  1        1 0.40884600E+00 0.31394430E+04</pdfrwt>
<pdfrwt beam="2">  1       -1 0.14264572E+00 0.31394430E+04</pdfrwt>
<totfact> 0.35266918E-01</totfact>
</mgrwt>
</event>
<event>
 6    1  0.1528034E-005  0.1761582E+04  0.7818608E-02  0.8727001E-01
         -2   -1    0    0    0  501 -0.00000000000E+00  0.00000000000E+00  0.74575956998E+03  0.74575956998E+03  0.00000000000E+00 0.  1.
          2   -1    0    0  501    0  0.00000000000E+00 -0.00000000000E+00 -0.10402718548E+04  0.10402718548E+04  0.00000000000E+00 0. -1.
         23    2    1    2    0    0 -0.38721094693E+02  0.42252886286E+03  0.63225424052E+03  0.76675415355E+03  0.90202794912E+02 0.  0.
         11    1    3    3    0    0 -0.53619828928E+02  0.23909550519E+03  0.41587976705E+03  0.48269838128E+03  0.00000000000E+00 0. -1.
        -11    1    3    3    0    0  0.14898734235E+02  0.18343335767E+03  0.21637447348E+03  0.28405577227E+03  0.00000000000E+00 0.  1.
         22    1    1    2    0    0  0.38721094693E+02 -0.42252886286E+03 -0.92676652531E+03  0.10192772712E+04  0.00000000000E+00 0. -1.
<mgrwt>
<rscale>  0 0.17615819E+04</rscale>
<asrwt>0</asrwt>
<pdfrwt beam="1">  1        2 0.16004182E+00 0.17615819E+04</pdfrwt>
<pdfrwt beam="2">  1       -2 0.11473224E+00 0.17615819E+04</pdfrwt>
<totfact> 0.13333919E+01</totfact>
</mgrwt>
</event>
<event>
 6    1  0.1528034E-005  0.2853247E+04  0.7818608E-02  0.8286925E-01
         -2   -1    0    0    0  501 -0.00000000000E+00  0.00000000000E+00  0.28315895625E+04  0.28315895625E+04  0.00000000000E+00 0.  1.
          2   -1    0    0  501    0  0.00000000000E+00 -0.00000000000E+00 -0.71876737898E+03  0.71876737898E+03  0.00000000000E+00 0. -1.
         23    2    1    2    0    0  0.11640446677E+04 -0.53355906902E+03  0.18361166911E+04  0.22402992336E+04  0.89055512599E+02 0.  0.
         13    1    3    3    0    0  0.41537232922E+03 -0.22854243153E+03  0.72346933384E+03  0.86497034163E+03  0.00000000000E+00 0.  1.
        -13    1    3    3    0    0  0.74867233844E+03 -0.30501663749E+03  0.11126473573E+04  0.13753288920E+04  0.00000000000E+00 0. -1.
         22    1    1    2    0    0 -0.11640446677E+04  0.53355906902E+03  0.27670549244E+03  0.13100577079E+04  0.00000000000E+00 0. -1.
<mgrwt>
<rscale>  0 0.28532467E+04</rscale>
<asrwt>0</asrwt>
<pdfrwt beam="1">  1        2 0.11057960E+00 0.28532467E+04</pdfrwt>
<pdfrwt beam="2">  1       -2 0.43562916E+00 0.28532467E+04</pdfrwt>
<totfact> 0.14813979E-01</totfact>
</mgrwt>
</event>
<event>
 6    1  0.1528034E-005  0.5066712E+04  0.7818608E-02  0.7818298E-01
         -1   -1    0    0    0  501 -0.00000000000E+00  0.00000000000E+00  0.20191234578E+04  0.20191234578E+04  0.00000000000E+00 0. -1.
          1   -1    0    0  501    0  0.00000000000E+00 -0.00000000000E+00 -0.31785533432E+04  0.31785533432E+04  0.00000000000E+00 0.  1.
         23    2    1    2    0    0  0.12551758357E+04  0.17113282469E+04 -0.19975184496E+04  0.29159004779E+04  0.91021391211E+02 0.  0.
         11    1    3    3    0    0  0.23723016404E+03  0.32588997318E+03 -0.33153148327E+03  0.52191527066E+03  0.00000000000E+00 0.  1.
        -11    1    3    3    0    0  0.10179456716E+04  0.13854382737E+04 -0.16659869663E+04  0.23939852073E+04  0.00000000000E+00 0. -1.
         22    1    1    2    0    0 -0.12551758357E+04 -0.17113282469E+04  0.83808856426E+03  0.22817763231E+04  0.00000000000E+00 0. -1.
<mgrwt>
<rscale>  0 0.50667116E+04</rscale>
<asrwt>0</asrwt>
<pdfrwt beam="1">  1        1 0.48900821E+00 0.50667116E+04</pdfrwt>
<pdfrwt beam="2">  1       -1 0.31063438E+00 0.50667116E+04</pdfrwt>
<totfact> 0.89201856E-03</totfact>
</mgrwt>
</event>
<event>
 6    1  0.1528034E-005  0.1470527E+04  0.7818608E-02  0.8904292E-01
         -2   -1    0    0    0  501 -0.00000000000E+00  0.00000000000E+00  0.19106824422E+03  0.19106824422E+03  0.00000000000E+00 0. -1.
          2   -1    0    0  501    0  0.00000000000E+00 -0.00000000000E+00 -0.28294187806E+04  0.28294187806E+04  0.00000000000E+00 0.  1.
         23    2    1    2    0    0 -0.70513646359E+03  0.14794963986E+03 -0.15811715703E+04  0.17411380128E+04  0.11113737745E+03 0.  0.
         11    1    3    3    0    0 -0.48127073541E+03  0.61160258476E+02 -0.97167366493E+03  0.10860533178E+04  0.00000000000E+00 0. -1.
        -11    1    3    3    0    0 -0.22386572819E+03  0.86789381388E+02 -0.60949790539E+03  0.65508469502E+03  0.00000000000E+00 0.  1.
         22    1    1    2    0    0  0.70513646359E+03 -0.14794963986E+03 -0.10571789660E+04  0.12793490120E+04  0.00000000000E+00 0. -1.
<mgrwt>
<rscale>  0 0.14705265E+04</rscale>
<asrwt>0</asrwt>
<pdfrwt beam="1">  1        2 0.43529522E+00 0.14705265E+04</pdfrwt>
<pdfrwt beam="2">  1       -2 0.29395113E-01 0.14705265E+04</pdfrwt>
<totfact> 0.23025948E+01</totfact>
</mgrwt>
</event>
<event>
 6    1  0.1528034E-005  0.2916697E+04  0.7818608E-02  0.8267927E-01
          1   -1    0    0  501    0  0.00000000000E+00  0.00000000000E+00  0.16966550111E+04  0.16966550111E+04  0.00000000000E+00 0. -1.
         -1   -1    0    0    0  501 -0.00000000000E+00 -0.00000000000E+00 -0.12535133772E+04  0.12535133772E+04  0.00000000000E+00 0.  1.
         23    2    1    2    0    0 -0.69249378929E+03  0.37843191876E+03  0.14605719516E+04  0.16625648715E+04  0.89961996777E+02 0.  0.
         11    1    3    3    0    0 -0.25072006299E+03  0.18310796888E+03  0.53609548229E+03  0.61950580658E+03  0.00000000000E+00 0.  1.
        -11    1    3    3    0    0 -0.44177372630E+03  0.19532394988E+03  0.92447646926E+03  0.10430590649E+04  0.00000000000E+00 0. -1.
         22    1    1    2    0    0  0.69249378929E+03 -0.37843191876E+03 -0.10174303177E+04  0.12876035169E+04  0.00000000000E+00 0.  1.
<mgrwt>
<rscale>  0 0.29166966E+04</rscale>
<asrwt>0</asrwt>
<pdfrwt beam="1">  1        1 0.26102385E+00 0.29166966E+04</pdfrwt>
<pdfrwt beam="2">  1       -1 0.19284821E+00 0.29166966E+04</pdfrwt>
<totfact> 0.69306952E-01</totfact>
</mgrwt>
</event>
<event>
 6    1  0.1528034E-005  0.3037397E+04  0.7818608E-02  0.8233132E-01
         -2   -1    0    0    0  501 -0.00000000000E+00  0.00000000000E+00  0.76904695062E+03  0.76904695062E+03  0.00000000000E+00 0. -1.
          2   -1    0    0  501    0  0.00000000000E+00 -0.00000000000E+00 -0.29990949437E+04  0.29990949437E+04  0.00000000000E+00 0.  1.
         23    2    1    2    0    0  0.12173060002E+04  0.74517577627E+03 -0.47737539730E+03  0.15078361487E+04  0.92529702833E+02 0.  0.
         13    1    3    3    0    0  0.53081407378E+03  0.29390027652E+03 -0.16356987039E+03  0.62840755562E+03  0.00000000000E+00 0.  1.
        -13    1    3    3    0    0  0.68649192638E+03  0.45127549975E+03 -0.31380552691E+03  0.87942859311E+03  0.00000000000E+00 0. -1.
         22    1    1    2    0    0 -0.12173060002E+04 -0.74517577627E+03 -0.17526725958E+04  0.22603057456E+04  0.00000000000E+00 0.  1.
<mgrwt>
<rscale>  0 0.30373968E+04</rscale>
<asrwt>0</asrwt>
<pdfrwt beam="1">  1        2 0.46139922E+00 0.30373968E+04</pdfrwt>
<pdfrwt beam="2">  1       -2 0.11831492E+00 0.30373968E+04</pdfrwt>
<totfact> 0.81777081E-01</totfact>
</mgrwt>
</event>
<event>
 6    1  0.1528034E-005  0.1398411E+04  0.7818608E-02  0.8954970E-01
         -2   -1    0    0    0  501 -0.00000000000E+00  0.00000000000E+00  0.49202025027E+03  0.49202025027E+03  0.00000000000E+00 0. -1.
          2   -1    0    0  501    0  0.00000000000E+00 -0.00000000000E+00 -0.99363410763E+03  0.99363410763E+03  0.00000000000E+00 0.  1.
         23    2    1    2    0    0 -0.61265195305E+03 -0.13070040507E+03  0.71105760110E+02  0.63687124561E+03  0.90132918028E+02 0.  0.
         13    1    3    3    0    0 -0.25419630663E+03 -0.32898372194E+02 -0.10207031118E+02  0.25651948987E+03  0.00000000000E+00 0. -1.
        -13    1    3    3    0    0 -0.35845564641E+03 -0.97802032876E+02  0.81312791228E+02  0.38035175574E+03  0.00000000000E+00 0.  1.
         22    1    1    2    0    0  0.61265195305E+03  0.13070040507E+03 -0.57271961747E+03  0.84878311228E+03  0.00000000000E+00 0.  1.
<mgrwt>
<rscale>  0 0.13984107E+04</rscale>
<asrwt>0</asrwt>
<pdfrwt beam="1">  1        2 0.15286678E+00 0.13984107E+04</pdfrwt>
<pdfrwt beam="2">  1       -2 0.75695424E-01 0.13984107E+04</pdfrwt>
<totfact> 0.38731539E+01</totfact>
</mgrwt>
</event>
<event>
 6    1  0.1528034E-005  0.2769018E+04  0.7818608E-02  0.8312952E-01
         -1   -1    0    0    0  501 -0.00000000000E+00  0.00000000000E+00  0.13832802009E+04  0.13832802009E+04  0.00000000000E+00 0.  1.
          1   -1    0    0  501    0  0.00000000000E+00 -0.00000000000E+00 -0.13857384435E+04  0.13857384435E+04  0.00000000000E+00 0. -1.
         23    2    1    2    0    0 -0.12793031135E+04 -0.52171111050E+03 -0.64062276299E+02  0.13860529918E+04  0.90774344991E+02 0.  0.
         11    1    3    3    0    0 -0.63926862377E+03 -0.22814982015E+03 -0.65405799720E+02  0.68190514913E+03  0.00000000000E+00 0.  1.
        -11    1    3    3    0    0 -0.64003448978E+03 -0.29356129035E+03  0.13435234211E+01  0.70414784268E+03  0.00000000000E+00 0. -1.
         22    1    1    2    0    0  0.12793031135E+04  0.52171111050E+03  0.61604033753E+02  0.13829656525E+04  0.00000000000E+00 0.  1.
<mgrwt>
<rscale>  0 0.27690176E+04</rscale>
<asrwt>0</asrwt>
<pdfrwt beam="1">  1        1 0.21319053E+00 0.27690176E+04</pdfrwt>
<pdfrwt beam="2">  1       -1 0.21281234E+00 0.27690176E+04</pdfrwt>
<totfact> 0.83971136E-01</totfact>
</mgrwt>
</event>
<event>
 6    1  0.1528034E-005  0.3172342E+04  0.7818608E-02  0.8196160E-01
         -1   -1    0    0    0  501 -0.00000000000E+00  0.00000000000E+00  0.12552775361E+04  0.12552775361E+04  0.00000000000E+00 0.  1.
          1   -1    0    0  501    0  0.00000000000E+00 -0.00000000000E+00 -0.20042888205E+04  0.20042888205E+04  0.00000000000E+00 0. -1.
         23    2    1    2    0    0  0.10173252356E+04 -0.69538322464E+03  0.64932098790E+03  0.13957418992E+04  0.89270598770E+02 0.  0.
         13    1    3    3    0    0  0.68187283363E+03 -0.45800162798E+03  0.47920308386E+03  0.95097405225E+03  0.00000000000E+00 0. -1.
        -13    1    3    3    0    0  0.33545240193E+03 -0.23738159666E+03  0.17011790404E+03  0.44476784694E+03  0.00000000000E+00 0.  1.
         22    1    1    2    0    0 -0.10173252356E+04  0.69538322464E+03 -0.13983322723E+04  0.18638244573E+04  0.00000000000E+00 0. -1.
<mgrwt>
<rscale>  0 0.31723422E+04</rscale>
<asrwt>0</asrwt>
<pdfrwt beam="1">  1        1 0.30835212E+00 0.31723422E+04</pdfrwt>
<pdfrwt beam="2">  1       -1 0.19311962E+00 0.31723422E+04</pdfrwt>
<totfact> 0.41711340E-01</totfact>
</mgrwt>
</event>
<event>
 6    1  0.1528034E-005  0.3329252E+04  0.7818608E-02  0.8155492E-01
          2   -1    0    0  501    0  0.00000000000E+00  0.00000000000E+00  0.28502738816E+04  0.28502738816E+04  0.00000000000E+00 0. -1.
         -2   -1    0    0    0  501 -0.00000000000E+00 -0.00000000000E+00 -0.97218011777E+03  0.97218011777E+03  0.00000000000E+00 0.  1.
         23    2    1    2    0    0  0.77505151969E+03 -0.46674194602E+03 -0.66319077622E+03  0.11249217909E+04  0.84107833046E+02 0.  0.
         11    1    3    3    0    0  0.19903592721E+03 -0.78971813991E+02 -0.16451888115E+03  0.27003390524E+03  0.00000000000E+00 0.  1.
        -11    1    3    3    0    0  0.57601559248E+03 -0.38777013203E+03 -0.49867189507E+03  0.85488788563E+03  0.00000000000E+00 0. -1.
         22    1    1    2    0    0 -0.77505151969E+03  0.46674194602E+03  0.25412845400E+04  0.26975322085E+04  0.00000000000E+00 0. -1.
<mgrwt>
<rscale>  0 0.33292519E+04</rscale>
<asrwt>0</asrwt>
<pdfrwt beam="1">  1        2 0.43850367E+00 0.33292519E+04</pdfrwt>
<pdfrwt beam="2">  1       -2 0.14956617E+00 0.33292519E+04</pdfrwt>
<totfact> 0.54190967E-01</totfact>
</mgrwt>
</event>
<event>
 6    1  0.1528034E-005  0.4677665E+04  0.7818608E-02  0.7880250E-01
         -2   -1    0    0    0  501 -0.00000000000E+00  0.00000000000E+00  0.12320765230E+04  0.12320765230E+04  0.00000000000E+00 0.  1.
          2   -1    0    0  501    0  0.00000000000E+00 -0.00000000000E+00 -0.44397701324E+04  0.44397701324E+04  0.00000000000E+00 0. -1.
         23    2    1    2    0    0  0.14811466642E+04 -0.18018029494E+04 -0.17983495674E+04  0.29466787821E+04  0.92549280275E+02 0.  0.
         11    1    3    3    0    0  0.11707349489E+04 -0.14731535471E+04 -0.14740525140E+04  0.23903205868E+04  0.00000000000E+00 0. -1.
        -11    1    3    3    0    0  0.31041171534E+03 -0.32864940226E+03 -0.32429705340E+03  0.55635819530E+03  0.00000000000E+00 0.  1.
         22    1    1    2    0    0 -0.14811466642E+04  0.18018029494E+04 -0.14093440420E+04  0.27251678733E+04  0.00000000000E+00 0. -1.
<mgrwt>
<rscale>  0 0.46776646E+04</rscale>
<asrwt>0</asrwt>
<pdfrwt beam="1">  1        2 0.68304157E+00 0.46776646E+04</pdfrwt>
<pdfrwt beam="2">  1       -2 0.18955023E+00 0.46776646E+04</pdfrwt>
<totfact> 0.16269992E-02</totfact>
</mgrwt>
</event>
<event>
 6    1  0.1528034E-005  0.2850145E+04  0.7818608E-02  0.8287867E-01
          1   -1    0    0  501    0  0.00000000000E+00  0.00000000000E+00  0.19568656024E+04  0.19568656024E+04  0.00000000000E+00 0. -1.
         -1   -1    0    0    0  501 -0.00000000000E+00 -0.00000000000E+00 -0.10377981887E+04  0.10377981887E+04  0.00000000000E+00 0.  1.
         23    2    1    2    0    0  0.19620686353E+03 -0.13672717890E+04  0.82375015960E+03  0.16101008068E+04  0.77013013150E+02 0.  0.
         11    1    3    3    0    0  0.19306399204E+03 -0.11474251366E+04  0.69312563550E+03  0.13543564138E+04  0.00000000000E+00 0.  1.
        -11    1    3    3    0    0  0.31428714874E+01 -0.21984665243E+03  0.13062452411E+03  0.25574439295E+03  0.00000000000E+00 0. -1.
         22    1    1    2    0    0 -0.19620686353E+03  0.13672717890E+04  0.95317254095E+02  0.13845629842E+04  0.00000000000E+00 0.  1.
<mgrwt>
<rscale>  0 0.28501450E+04</rscale>
<asrwt>0</asrwt>
<pdfrwt beam="1">  1        1 0.30105625E+00 0.28501450E+04</pdfrwt>
<pdfrwt beam="2">  1       -1 0.15966126E+00 0.28501450E+04</pdfrwt>
<totfact> 0.80779586E-01</totfact>
</mgrwt>
</event>
<event>
 6    1  0.1528034E-005  0.1521400E+04  0.7818608E-02  0.8870346E-01
         -1   -1    0    0    0  501 -0.00000000000E+00  0.00000000000E+00  0.34089661930E+03  0.34089661930E+03  0.00000000000E+00 0.  1.
          1   -1    0    0  501    0  0.00000000000E+00 -0.00000000000E+00 -0.16974773021E+04  0.16974773021E+04  0.00000000000E+00 0. -1.
         23    2    1    2    0    0  0.16489491523E+03 -0.73860499088E+03 -0.73851246172E+03  0.10612679949E+04  0.90340662752E+02 0.  0.
         13    1    3    3    0    0  0.43909631298E+02 -0.40168169546E+03 -0.38303718406E+03  0.55677080074E+03  0.00000000000E+00 0. -1.
        -13    1    3    3    0    0  0.12098528393E+03 -0.33692329543E+03 -0.35547527766E+03  0.50449719420E+03  0.00000000000E+00 0.  1.
         22    1    1    2    0    0 -0.16489491523E+03  0.73860499088E+03 -0.61806822110E+03  0.97710592648E+03  0.00000000000E+00 0. -1.
<mgrwt>
<rscale>  0 0.15213997E+04</rscale>
<asrwt>0</asrwt>
<pdfrwt beam="1">  1        1 0.26115035E+00 0.15213997E+04</pdfrwt>
<pdfrwt beam="2">  1       -1 0.52445634E-01 0.15213997E+04</pdfrwt>
<totfact> 0.16926235E+01</totfact>
</mgrwt>
</event>
<event>
 6    1  0.1528034E-005  0.2679156E+04  0.7818608E-02  0.8341800E-01
         -1   -1    0    0    0  501 -0.00000000000E+00  0.00000000000E+00  0.76264660810E+03  0.76264660810E+03  0.00000000000E+00 0.  1.
          1   -1    0    0  501    0  0.00000000000E+00 -0.00000000000E+00 -0.23529496342E+04  0.23529496342E+04  0.00000000000E+00 0. -1.
         23    2    1    2    0    0  0.49094233396E+03  0.12252022371E+03 -0.22365058546E+04  0.22948565296E+04  0.91501220717E+02 0.  0.
         11    1    3    3    0    0  0.24020965272E+03  0.68283186244E+02 -0.13046286828E+04  0.13283144473E+04  0.00000000000E+00 0. -1.
        -11    1    3    3    0    0  0.25073268125E+03  0.54237037462E+02 -0.93187717179E+03  0.96654208236E+03  0.00000000000E+00 0.  1.
         22    1    1    2    0    0 -0.49094233396E+03 -0.12252022371E+03  0.64620282847E+03  0.82073971271E+03  0.00000000000E+00 0.  1.
<mgrwt>
<rscale>  0 0.26791559E+04</rscale>
<asrwt>0</asrwt>
<pdfrwt beam="1">  1        1 0.36199225E+00 0.26791559E+04</pdfrwt>
<pdfrwt beam="2">  1       -1 0.11733025E+00 0.26791559E+04</pdfrwt>
<totfact> 0.97885798E-01</totfact>
</mgrwt>
</event>
<event>
 6    1  0.1528034E-005  0.2303184E+04  0.7818608E-02  0.8476667E-01
          1   -1    0    0  501    0  0.00000000000E+00  0.00000000000E+00  0.20246211674E+04  0.20246211674E+04  0.00000000000E+00 0. -1.
         -1   -1    0    0    0  501 -0.00000000000E+00 -0.00000000000E+00 -0.65501856770E+03  0.65501856770E+03  0.00000000000E+00 0.  1.
         23    2    1    2    0    0 -0.94578248803E+03 -0.37925149312E+03  0.13048984029E+04  0.16585996562E+04  0.99281256429E+02 0.  0.
         13    1    3    3    0    0 -0.20421554891E+03 -0.41398971060E+02  0.28784378630E+03  0.35534759115E+03  0.00000000000E+00 0.  1.
        -13    1    3    3    0    0 -0.74156693912E+03 -0.33785252206E+03  0.10170546166E+04  0.13032520650E+04  0.00000000000E+00 0. -1.
         22    1    1    2    0    0  0.94578248803E+03  0.37925149312E+03  0.64704196813E+02  0.10210400789E+04  0.00000000000E+00 0.  1.
<mgrwt>
<rscale>  0 0.23031843E+04</rscale>
<asrwt>0</asrwt>
<pdfrwt beam="1">  1        1 0.31148018E+00 0.23031843E+04</pdfrwt>
<pdfrwt beam="2">  1       -1 0.10077209E+00 0.23031843E+04</pdfrwt>
<totfact> 0.24259633E+00</totfact>
</mgrwt>
</event>
<event>
 6    1  0.1528034E-005  0.2520243E+04  0.7818608E-02  0.8395809E-01
          2   -1    0    0  501    0  0.00000000000E+00  0.00000000000E+00  0.22806395112E+04  0.22806395112E+04  0.00000000000E+00 0.  1.
         -2   -1    0    0    0  501 -0.00000000000E+00 -0.00000000000E+00 -0.69625458805E+03  0.69625458805E+03  0.00000000000E+00 0. -1.
         23    2    1    2    0    0 -0.58070878316E+03 -0.11106056691E+04  0.66069475798E+03  0.14200154385E+04  0.96221822654E+02 0.  0.
         13    1    3    3    0    0 -0.31253607130E+03 -0.61520024191E+03  0.31025628266E+03  0.75657722305E+03  0.00000000000E+00 0. -1.
        -13    1    3    3    0    0 -0.26817271186E+03 -0.49540542722E+03  0.35043847532E+03  0.66343821543E+03  0.00000000000E+00 0.  1.
         22    1    1    2    0    0  0.58070878316E+03  0.11106056691E+04  0.92369016522E+03  0.15568786608E+04  0.00000000000E+00 0. -1.
<mgrwt>
<rscale>  0 0.25202426E+04</rscale>
<asrwt>0</asrwt>
<pdfrwt beam="1">  1        2 0.35086761E+00 0.25202426E+04</pdfrwt>
<pdfrwt beam="2">  1       -2 0.10711609E+00 0.25202426E+04</pdfrwt>
<totfact> 0.29001386E+00</totfact>
</mgrwt>
</event>
<event>
 6    1  0.1528034E-005  0.8752508E+03  0.7818608E-02  0.9457059E-01
          2   -1    0    0  501    0  0.00000000000E+00  0.00000000000E+00  0.51666871443E+03  0.51666871443E+03  0.00000000000E+00 0. -1.
         -2   -1    0    0    0  501 -0.00000000000E+00 -0.00000000000E+00 -0.37067463366E+03  0.37067463366E+03  0.00000000000E+00 0.  1.
         23    2    1    2    0    0  0.22264297865E+03 -0.34423890762E+03  0.21391675529E+03  0.47179093122E+03  0.93573410359E+02 0.  0.
         13    1    3    3    0    0  0.13221328535E+03 -0.16871062863E+03  0.15888948073E+03  0.26681359808E+03  0.00000000000E+00 0.  1.
        -13    1    3    3    0    0  0.90429693306E+02 -0.17552827898E+03  0.55027274568E+02  0.20497733314E+03  0.00000000000E+00 0. -1.
         22    1    1    2    0    0 -0.22264297865E+03  0.34423890762E+03 -0.67922674520E+02  0.41555241688E+03  0.00000000000E+00 0.  1.
<mgrwt>
<rscale>  0 0.87525079E+03</rscale>
<asrwt>0</asrwt>
<pdfrwt beam="1">  1        2 0.79487494E-01 0.87525079E+03</pdfrwt>
<pdfrwt beam="2">  1       -2 0.57026867E-01 0.87525079E+03</pdfrwt>
<totfact> 0.17165854E+02</totfact>
</mgrwt>
</event>
<event>
 6    1  0.1528034E-005  0.4177140E+04  0.7818608E-02  0.7969735E-01
         -1   -1    0    0    0  501 -0.00000000000E+00  0.00000000000E+00  0.14562109786E+04  0.14562109786E+04  0.00000000000E+00 0.  1.
          1   -1    0    0  501    0  0.00000000000E+00 -0.00000000000E+00 -0.29955311616E+04  0.29955311616E+04  0.00000000000E+00 0. -1.
         23    2    1    2    0    0  0.90156198057E+03 -0.18259651010E+04 -0.12597936129E+04  0.23962379056E+04  0.88958409221E+02 0.  0.
         11    1    3    3    0    0  0.47050414678E+03 -0.85618069355E+03 -0.61776946352E+03  0.11558800293E+04  0.00000000000E+00 0. -1.
        -11    1    3    3    0    0  0.43105783379E+03 -0.96978440744E+03 -0.64202414935E+03  0.12403578763E+04  0.00000000000E+00 0.  1.
         22    1    1    2    0    0 -0.90156198057E+03  0.18259651010E+04 -0.27952657009E+03  0.20555042345E+04  0.00000000000E+00 0. -1.
<mgrwt>
<rscale>  0 0.41771403E+04</rscale>
<asrwt>0</asrwt>
<pdfrwt beam="1">  1        1 0.46085094E+00 0.41771403E+04</pdfrwt>
<pdfrwt beam="2">  1       -1 0.22403246E+00 0.41771403E+04</pdfrwt>
<totfact> 0.48030135E-02</totfact>
</mgrwt>
</event>
<event>
 6    1  0.1528034E-005  0.2984439E+04  0.7818608E-02  0.8248188E-01
         -2   -1    0    0    0  501 -0.00000000000E+00  0.00000000000E+00  0.19342103827E+04  0.19342103827E+04  0.00000000000E+00 0.  1.
          2   -1    0    0  501    0  0.00000000000E+00 -0.00000000000E+00 -0.11512291635E+04  0.11512291635E+04  0.00000000000E+00 0. -1.
         23    2    1    2    0    0  0.16397836588E+02  0.57215994286E+03 -0.10313477727E+04  0.11829607474E+04  0.89900012968E+02 0.  0.
         11    1    3    3    0    0  0.33976049631E+02  0.12337863237E+03 -0.27495367912E+03  0.30327575659E+03  0.00000000000E+00 0. -1.
        -11    1    3    3    0    0 -0.17578213044E+02  0.44878131048E+03 -0.75639409357E+03  0.87968499078E+03  0.00000000000E+00 0.  1.
         22    1    1    2    0    0 -0.16397836588E+02 -0.57215994286E+03  0.18143289919E+04  0.19024787989E+04  0.00000000000E+00 0.  1.
<mgrwt>
<rscale>  0 0.29844392E+04</rscale>
<asrwt>0</asrwt>
<pdfrwt beam="1">  1        2 0.17711218E+00 0.29844392E+04</pdfrwt>
<pdfrwt beam="2">  1       -2 0.29757083E+00 0.29844392E+04</pdfrwt>
<totfact> 0.57132325E-01</totfact>
</mgrwt>
</event>
<event>
 6    1  0.1528034E-005  0.1887269E+04  0.7818608E-02  0.8661219E-01
          1   -1    0    0  501    0  0.00000000000E+00  0.00000000000E+00  0.12618060441E+04  0.12618060441E+04  0.00000000000E+00 0. -1.
         -1   -1    0    0    0  501 -0.00000000000E+00 -0.00000000000E+00 -0.70569190312E+03  0.70569190312E+03  0.00000000000E+00 0.  1.
         23    2    1    2    0    0 -0.60262411891E+03 -0.70731155467E+03  0.43554345085E+03  0.10304906071E+04  0.93634020002E+02 0.  0.
         13    1    3    3    0    0 -0.31960017157E+03 -0.30333885810E+03  0.20086725271E+03  0.48425859384E+03  0.00000000000E+00 0. -1.
        -13    1    3    3    0    0 -0.28302394733E+03 -0.40397269657E+03  0.23467619814E+03  0.54623201326E+03  0.00000000000E+00 0.  1.
         22    1    1    2    0    0  0.60262411891E+03  0.70731155467E+03  0.12057069010E+03  0.93700734008E+03  0.00000000000E+00 0.  1.
<mgrwt>
<rscale>  0 0.18872693E+04</rscale>
<asrwt>0</asrwt>
<pdfrwt beam="1">  1        1 0.19412401E+00 0.18872693E+04</pdfrwt>
<pdfrwt beam="2">  1       -1 0.10856799E+00 0.18872693E+04</pdfrwt>
<totfact> 0.71049172E+00</totfact>
</mgrwt>
</event>
<event>
 6    1  0.1528034E-005  0.1896737E+04  0.7818608E-02  0.8656482E-01
         -2   -1    0    0    0  501 -0.00000000000E+00  0.00000000000E+00  0.89117744458E+03  0.89117744458E+03  0.00000000000E+00 0.  1.
          2   -1    0    0  501    0  0.00000000000E+00 -0.00000000000E+00 -0.10092295747E+04  0.10092295747E+04  0.00000000000E+00 0. -1.
         23    2    1    2    0    0  0.19560206718E+03 -0.28577191277E+01 -0.98778124681E+03  0.10089491843E+04  0.63232347473E+02 0.  0.
         13    1    3    3    0    0  0.13565703327E+03 -0.22754595205E+02 -0.56655158871E+03  0.58301055303E+03  0.00000000000E+00 0.  1.
        -13    1    3    3    0    0  0.59945033916E+02  0.19896876077E+02 -0.42122965810E+03  0.42593863130E+03  0.00000000000E+00 0. -1.
         22    1    1    2    0    0 -0.19560206718E+03  0.28577191277E+01  0.86972911664E+03  0.89145783500E+03  0.00000000000E+00 0.  1.
<mgrwt>
<rscale>  0 0.18967368E+04</rscale>
<asrwt>0</asrwt>
<pdfrwt beam="1">  1        2 0.15526609E+00 0.18967368E+04</pdfrwt>
<pdfrwt beam="2">  1       -2 0.13710422E+00 0.18967368E+04</pdfrwt>
<totfact> 0.88254854E+00</totfact>
</mgrwt>
</event>
<event>
 6    1  0.1528034E-005  0.2713270E+04  0.7818608E-02  0.8330712E-01
          2   -1    0    0  501    0  0.00000000000E+00  0.00000000000E+00  0.26569955546E+04  0.26569955546E+04  0.00000000000E+00 0. -1.
         -2   -1    0    0    0  501 -0.00000000000E+00 -0.00000000000E+00 -0.69268413097E+03  0.69268413097E+03  0.00000000000E+00 0.  1.
         23    2    1    2    0    0  0.54987176965E+03  0.87153328946E+03  0.20697082685E+04  0.23138043395E+04  0.89827429885E+02 0.  0.
         13    1    3    3    0    0  0.14622149457E+03  0.31096675908E+03  0.68446027320E+03  0.76587656728E+03  0.00000000000E+00 0.  1.
        -13    1    3    3    0    0  0.40365027508E+03  0.56056653038E+03  0.13852479953E+04  0.15479277722E+04  0.00000000000E+00 0. -1.
         22    1    1    2    0    0 -0.54987176965E+03 -0.87153328946E+03 -0.10539684485E+03  0.10358753461E+04  0.00000000000E+00 0.  1.
<mgrwt>
<rscale>  0 0.27132701E+04</rscale>
<asrwt>0</asrwt>
<pdfrwt beam="1">  1        2 0.40876854E+00 0.27132701E+04</pdfrwt>
<pdfrwt beam="2">  1       -2 0.10656679E+00 0.27132701E+04</pdfrwt>
<totfact> 0.17502869E+00</totfact>
</mgrwt>
</event>
<event>
 6    1  0.1528034E-005  0.1862841E+04  0.7818608E-02  0.8673577E-01
         -1   -1    0    0    0  501 -0.00000000000E+00  0.00000000000E+00  0.59547710831E+03  0.59547710831E+03  0.00000000000E+00 0.  1.
          1   -1    0    0  501    0  0.00000000000E+00 -0.00000000000E+00 -0.14568885736E+04  0.14568885736E+04  0.00000000000E+00 0. -1.
         23    2    1    2    0    0 -0.89750187501E+03  0.39154338512E+02 -0.17013175700E+03  0.91882683699E+03  0.90858481985E+02 0.  0.
         11    1    3    3    0    0 -0.40082880970E+03  0.31730958549E+02 -0.11982345056E+03  0.41955720435E+03  0.00000000000E+00 0. -1.
        -11    1    3    3    0    0 -0.49667306531E+03  0.74233799630E+01 -0.50308306438E+02  0.49926963263E+03  0.00000000000E+00 0.  1.
         22    1    1    2    0    0  0.89750187501E+03 -0.39154338512E+02 -0.69127970831E+03  0.11335388449E+04  0.00000000000E+00 0. -1.
<mgrwt>
<rscale>  0 0.18628406E+04</rscale>
<asrwt>0</asrwt>
<pdfrwt beam="1">  1        1 0.22413670E+00 0.18628406E+04</pdfrwt>
<pdfrwt beam="2">  1       -1 0.91611864E-01 0.18628406E+04</pdfrwt>
<totfact> 0.76400668E+00</totfact>
</mgrwt>
</event>
<event>
 6    1  0.1528034E-005  0.1925434E+04  0.7818608E-02  0.8642299E-01
         -2   -1    0    0    0  501 -0.00000000000E+00  0.00000000000E+00  0.75120554538E+03  0.75120554538E+03  0.00000000000E+00 0. -1.
          2   -1    0    0  501    0  0.00000000000E+00 -0.00000000000E+00 -0.12337817535E+04  0.12337817535E+04  0.00000000000E+00 0.  1.
         23    2    1    2    0    0  0.83378110487E+03  0.37442851820E+02 -0.73207379202E+03  0.11138719550E+04  0.90475396087E+02 0.  0.
         13    1    3    3    0    0  0.13489294199E+03 -0.22575640640E+02 -0.14296190167E+03  0.19784810001E+03  0.00000000000E+00 0. -1.
        -13    1    3    3    0    0  0.69888816288E+03  0.60018492460E+02 -0.58911189035E+03  0.91602385504E+03  0.00000000000E+00 0.  1.
         22    1    1    2    0    0 -0.83378110487E+03 -0.37442851820E+02  0.24949758385E+03  0.87111534388E+03  0.00000000000E+00 0.  1.
<mgrwt>
<rscale>  0 0.19254337E+04</rscale>
<asrwt>0</asrwt>
<pdfrwt beam="1">  1        2 0.18981257E+00 0.19254337E+04</pdfrwt>
<pdfrwt beam="2">  1       -2 0.11557009E+00 0.19254337E+04</pdfrwt>
<totfact> 0.98478539E+00</totfact>
</mgrwt>
</event>
<event>
 6    1  0.1528034E-005  0.2047907E+04  0.7818608E-02  0.8584544E-01
         -1   -1    0    0    0  501 -0.00000000000E+00  0.00000000000E+00  0.85791186956E+03  0.85791186956E+03  0.00000000000E+00 0.  1.
          1   -1    0    0  501    0  0.00000000000E+00 -0.00000000000E+00 -0.12221312844E+04  0.12221312844E+04  0.00000000000E+00 0. -1.
         23    2    1    2    0    0  0.86767800834E+03 -0.30157702990E+03  0.27247029724E+03  0.96237253136E+03  0.90038853308E+02 0.  0.
         13    1    3    3    0    0  0.44703936786E+03 -0.19842641988E+03  0.16443210814E+03  0.51599918480E+03  0.00000000000E+00 0.  1.
        -13    1    3    3    0    0  0.42063864048E+03 -0.10315061002E+03  0.10803818910E+03  0.44637334656E+03  0.00000000000E+00 0. -1.
         22    1    1    2    0    0 -0.86767800834E+03  0.30157702990E+03 -0.63668971204E+03  0.11176706226E+04  0.00000000000E+00 0. -1.
<mgrwt>
<rscale>  0 0.20479072E+04</rscale>
<asrwt>0</asrwt>
<pdfrwt beam="1">  1        1 0.18802020E+00 0.20479072E+04</pdfrwt>
<pdfrwt beam="2">  1       -1 0.13198644E+00 0.20479072E+04</pdfrwt>
<totfact> 0.46418612E+00</totfact>
</mgrwt>
</event>
<event>
 6    1  0.1528034E-005  0.1025304E+04  0.7818608E-02  0.9281219E-01
          1   -1    0    0  501    0  0.00000000000E+00  0.00000000000E+00  0.26149111597E+04  0.26149111597E+04  0.00000000000E+00 0. -1.
         -1   -1    0    0    0  501 -0.00000000000E+00 -0.00000000000E+00 -0.10050517530E+03  0.10050517530E+03  0.00000000000E+00 0.  1.
         23    2    1    2    0    0 -0.16641629247E+03  0.12911049383E+03  0.24933552363E+04  0.25037396097E+04  0.86762878316E+02 0.  0.
         13    1    3    3    0    0 -0.80223030743E+02  0.11319869392E+03  0.16598448954E+04  0.16656334398E+04  0.00000000000E+00 0. -1.
        -13    1    3    3    0    0 -0.86193261723E+02  0.15911799917E+02  0.83351034085E+03  0.83810616991E+03  0.00000000000E+00 0.  1.
         22    1    1    2    0    0  0.16641629247E+03 -0.12911049383E+03  0.21050748098E+02  0.21167672525E+03  0.00000000000E+00 0.  1.
<mgrwt>
<rscale>  0 0.10253041E+04</rscale>
<asrwt>0</asrwt>
<pdfrwt beam="1">  1        1 0.40229397E+00 0.10253041E+04</pdfrwt>
<pdfrwt beam="2">  1       -1 0.15462337E-01 0.10253041E+04</pdfrwt>
<totfact> 0.35794890E+01</totfact>
</mgrwt>
</event>
<event>
 6    1  0.1528034E-005  0.2460082E+04  0.7818608E-02  0.8417346E-01
          1   -1    0    0  501    0  0.00000000000E+00  0.00000000000E+00  0.92002230810E+03  0.92002230810E+03  0.00000000000E+00 0. -1.
         -1   -1    0    0    0  501 -0.00000000000E+00 -0.00000000000E+00 -0.16445261694E+04  0.16445261694E+04  0.00000000000E+00 0.  1.
         23    2    1    2    0    0 -0.88056426104E+03 -0.84575077984E+03 -0.22262645399E+03  0.12444845656E+04  0.92149317018E+02 0.  0.
         13    1    3    3    0    0 -0.81633016534E+03 -0.81097615946E+03 -0.21908069266E+03  0.11713554627E+04  0.00000000000E+00 0. -1.
        -13    1    3    3    0    0 -0.64234095700E+02 -0.34774620379E+02 -0.35457613257E+01  0.73129102937E+02  0.00000000000E+00 0.  1.
         22    1    1    2    0    0  0.88056426104E+03  0.84575077984E+03 -0.50187740726E+03  0.13200639118E+04  0.00000000000E+00 0. -1.
<mgrwt>
<rscale>  0 0.24600819E+04</rscale>
<asrwt>0</asrwt>
<pdfrwt beam="1">  1        1 0.14154189E+00 0.24600819E+04</pdfrwt>
<pdfrwt beam="2">  1       -1 0.25300403E+00 0.24600819E+04</pdfrwt>
<totfact> 0.10410018E+00</totfact>
</mgrwt>
</event>
<event>
 6    1  0.1528034E-005  0.1885251E+04  0.7818608E-02  0.8662233E-01
          1   -1    0    0  501    0  0.00000000000E+00  0.00000000000E+00  0.23144444571E+04  0.23144444571E+04  0.00000000000E+00 0. -1.
         -1   -1    0    0    0  501 -0.00000000000E+00 -0.00000000000E+00 -0.38391203558E+03  0.38391203558E+03  0.00000000000E+00 0.  1.
         23    2    1    2    0    0  0.10962854027E+03 -0.61744265353E+03  0.19700358351E+04  0.20700139373E+04  0.10326016600E+03 0.  0.
         13    1    3    3    0    0  0.68552521935E+02 -0.17510100628E+03  0.68574634941E+03  0.71106108486E+03  0.00000000000E+00 0. -1.
        -13    1    3    3    0    0  0.41076018334E+02 -0.44234164724E+03  0.12842894857E+04  0.13589528524E+04  0.00000000000E+00 0.  1.
         22    1    1    2    0    0 -0.10962854027E+03  0.61744265353E+03 -0.39503413539E+02  0.62834255539E+03  0.00000000000E+00 0.  1.
<mgrwt>
<rscale>  0 0.18852513E+04</rscale>
<asrwt>0</asrwt>
<pdfrwt beam="1">  1        1 0.35606837E+00 0.18852513E+04</pdfrwt>
<pdfrwt beam="2">  1       -1 0.59063392E-01 0.18852513E+04</pdfrwt>
<totfact> 0.49537586E+00</totfact>
</mgrwt>
</event>
<event>
 6    1  0.1528034E-005  0.2635300E+04  0.7818608E-02  0.8356309E-01
          1   -1    0    0  501    0  0.00000000000E+00  0.00000000000E+00  0.80452617226E+03  0.80452617226E+03  0.00000000000E+00 0. -1.
         -1   -1    0    0    0  501 -0.00000000000E+00 -0.00000000000E+00 -0.21580418415E+04  0.21580418415E+04  0.00000000000E+00 0.  1.
         23    2    1    2    0    0  0.21838187524E+03 -0.11146935849E+04 -0.14248293051E+04  0.18244476044E+04  0.90763873568E+02 0.  0.
         13    1    3    3    0    0  0.15838536570E+03 -0.57266453472E+03 -0.74432466713E+03  0.95239162297E+03  0.00000000000E+00 0. -1.
        -13    1    3    3    0    0  0.59996509536E+02 -0.54202905014E+03 -0.68050463800E+03  0.87205598140E+03  0.00000000000E+00 0.  1.
         22    1    1    2    0    0 -0.21838187524E+03  0.11146935849E+04  0.71313635914E+02  0.11381204094E+04  0.00000000000E+00 0. -1.
<mgrwt>
<rscale>  0 0.26352997E+04</rscale>
<asrwt>0</asrwt>
<pdfrwt beam="1">  1        1 0.12377326E+00 0.26352997E+04</pdfrwt>
<pdfrwt beam="2">  1       -1 0.33200643E+00 0.26352997E+04</pdfrwt>
<totfact> 0.39290929E-01</totfact>
</mgrwt>
</event>
<event>
 6    1  0.1528034E-005  0.2560826E+04  0.7818608E-02  0.8381631E-01
          2   -1    0    0  501    0  0.00000000000E+00  0.00000000000E+00  0.17106248044E+04  0.17106248044E+04  0.00000000000E+00 0. -1.
         -2   -1    0    0    0  501 -0.00000000000E+00 -0.00000000000E+00 -0.95839665242E+03  0.95839665242E+03  0.00000000000E+00 0.  1.
         23    2    1    2    0    0  0.79681564794E+03 -0.13600523381E+03 -0.65619250670E+03  0.10451183340E+04  0.90945730311E+02 0.  0.
         13    1    3    3    0    0  0.46728292703E+03 -0.79682614298E+02 -0.44165275624E+03  0.64788873274E+03  0.00000000000E+00 0. -1.
        -13    1    3    3    0    0  0.32953272091E+03 -0.56322619509E+02 -0.21453975046E+03  0.39722960129E+03  0.00000000000E+00 0.  1.
         22    1    1    2    0    0 -0.79681564794E+03  0.13600523381E+03  0.14084206587E+04  0.16239031228E+04  0.00000000000E+00 0. -1.
<mgrwt>
<rscale>  0 0.25608257E+04</rscale>
<asrwt>0</asrwt>
<pdfrwt beam="1">  1        2 0.26317305E+00 0.25608257E+04</pdfrwt>
<pdfrwt beam="2">  1       -2 0.14744564E+00 0.25608257E+04</pdfrwt>
<totfact> 0.26923404E+00</totfact>
</mgrwt>
</event>
<event>
 6    1  0.1528034E-005  0.1082585E+04  0.7818608E-02  0.9222334E-01
         -1   -1    0    0    0  501 -0.00000000000E+00  0.00000000000E+00  0.22913855877E+03  0.22913855877E+03  0.00000000000E+00 0.  1.
          1   -1    0    0  501    0  0.00000000000E+00 -0.00000000000E+00 -0.12786908252E+04  0.12786908252E+04  0.00000000000E+00 0. -1.
         23    2    1    2    0    0  0.38112064558E+03 -0.37827388285E+03 -0.49562412405E+03  0.73634998448E+03  0.90685998704E+02 0.  0.
         11    1    3    3    0    0  0.19745879025E+03 -0.15365101504E+03 -0.27546687087E+03  0.37212982307E+03  0.00000000000E+00 0.  1.
        -11    1    3    3    0    0  0.18366185533E+03 -0.22462286781E+03 -0.22015725318E+03  0.36422016141E+03  0.00000000000E+00 0. -1.
         22    1    1    2    0    0 -0.38112064558E+03  0.37827388285E+03 -0.55392814240E+03  0.77147939952E+03  0.00000000000E+00 0. -1.
<mgrwt>
<rscale>  0 0.10825846E+04</rscale>
<asrwt>0</asrwt>
<pdfrwt beam="1">  1        1 0.19672167E+00 0.10825846E+04</pdfrwt>
<pdfrwt beam="2">  1       -1 0.35252085E-01 0.10825846E+04</pdfrwt>
<totfact> 0.71549429E+01</totfact>
</mgrwt>
</event>
<event>
 6    1  0.1528034E-005  0.1160894E+04  0.7818608E-02  0.9147791E-01
          1   -1    0    0  501    0  0.00000000000E+00  0.00000000000E+00  0.10423537549E+04  0.10423537549E+04  0.00000000000E+00 0. -1.
         -1   -1    0    0    0  501 -0.00000000000E+00 -0.00000000000E+00 -0.32322900768E+03  0.32322900768E+03  0.00000000000E+00 0.  1.
         23    2    1    2    0    0  0.76895072272E+02 -0.43656592849E+03  0.79609502763E+03  0.91566378529E+03  0.90389228455E+02 0.  0.
         11    1    3    3    0    0  0.46716956419E+02 -0.19778612166E+03  0.27768703191E+03  0.34411031898E+03  0.00000000000E+00 0. -1.
        -11    1    3    3    0    0  0.30178115852E+02 -0.23877980683E+03  0.51840799572E+03  0.57155346631E+03  0.00000000000E+00 0.  1.
         22    1    1    2    0    0 -0.76895072272E+02  0.43656592849E+03 -0.76970280397E+02  0.44991897729E+03  0.00000000000E+00 0.  1.
<mgrwt>
<rscale>  0 0.11608944E+04</rscale>
<asrwt>0</asrwt>
<pdfrwt beam="1">  1        1 0.16036211E+00 0.11608944E+04</pdfrwt>
<pdfrwt beam="2">  1       -1 0.49727540E-01 0.11608944E+04</pdfrwt>
<totfact> 0.56446157E+01</totfact>
</mgrwt>
</event>
<event>
 6    1  0.1528034E-005  0.2800162E+04  0.7818608E-02  0.8303218E-01
          2   -1    0    0  501    0  0.00000000000E+00  0.00000000000E+00  0.26041479735E+04  0.26041479735E+04  0.00000000000E+00 0.  1.
         -2   -1    0    0    0  501 -0.00000000000E+00 -0.00000000000E+00 -0.75273258101E+03  0.75273258101E+03  0.00000000000E+00 0. -1.
         23    2    1    2    0    0  0.47655294140E+03  0.58211714892E+03  0.23401682696E+04  0.24597504325E+04  0.89563269859E+02 0.  0.
         13    1    3    3    0    0  0.28586585648E+03  0.38822374557E+03  0.16074312919E+04  0.16781752956E+04  0.00000000000E+00 0. -1.
        -13    1    3    3    0    0  0.19068708492E+03  0.19389340334E+03  0.73273697765E+03  0.78157513690E+03  0.00000000000E+00 0.  1.
         22    1    1    2    0    0 -0.47655294140E+03 -0.58211714892E+03 -0.48875287705E+03  0.89713012202E+03  0.00000000000E+00 0. -1.
<mgrwt>
<rscale>  0 0.28001622E+04</rscale>
<asrwt>0</asrwt>
<pdfrwt beam="1">  1        2 0.40063815E+00 0.28001622E+04</pdfrwt>
<pdfrwt beam="2">  1       -2 0.11580501E+00 0.28001622E+04</pdfrwt>
<totfact> 0.15259779E+00</totfact>
</mgrwt>
</event>
<event>
 6    1  0.1528034E-005  0.3045146E+04  0.7818608E-02  0.8230955E-01
         -2   -1    0    0    0  501 -0.00000000000E+00  0.00000000000E+00  0.11624325404E+04  0.11624325404E+04  0.00000000000E+00 0.  1.
          2   -1    0    0  501    0  0.00000000000E+00 -0.00000000000E+00 -0.19942913797E+04  0.19942913797E+04  0.00000000000E+00 0. -1.
         23    2    1    2    0    0  0.75104616677E+03  0.41224293066E+03  0.88670073814E+03  0.12364474818E+04  0.92464034855E+02 0.  0.
         13    1    3    3    0    0  0.11026014291E+03  0.99718247525E+02  0.16090716284E+03  0.21907109133E+03  0.00000000000E+00 0. -1.
        -13    1    3    3    0    0  0.64078602387E+03  0.31252468314E+03  0.72579357530E+03  0.10173763905E+04  0.00000000000E+00 0.  1.
         22    1    1    2    0    0 -0.75104616677E+03 -0.41224293066E+03 -0.17185595774E+04  0.19202764383E+04  0.00000000000E+00 0. -1.
<mgrwt>
<rscale>  0 0.30451464E+04</rscale>
<asrwt>0</asrwt>
<pdfrwt beam="1">  1        2 0.30681406E+00 0.30451464E+04</pdfrwt>
<pdfrwt beam="2">  1       -2 0.17883578E+00 0.30451464E+04</pdfrwt>
<totfact> 0.10604073E+00</totfact>
</mgrwt>
</event>
<event>
 6    1  0.1528034E-005  0.2604989E+04  0.7818608E-02  0.8366509E-01
          2   -1    0    0  501    0  0.00000000000E+00  0.00000000000E+00  0.29287942898E+04  0.29287942898E+04  0.00000000000E+00 0. -1.
         -2   -1    0    0    0  501 -0.00000000000E+00 -0.00000000000E+00 -0.57924567080E+03  0.57924567080E+03  0.00000000000E+00 0.  1.
         23    2    1    2    0    0  0.41115852949E+03  0.10814304808E+04  0.19771783122E+04  0.22926376130E+04  0.91705642975E+02 0.  0.
         13    1    3    3    0    0  0.77906734617E+02  0.22690903088E+03  0.34148204574E+03  0.41733338610E+03  0.00000000000E+00 0.  1.
        -13    1    3    3    0    0  0.33325179487E+03  0.85452144993E+03  0.16356962665E+04  0.18753042269E+04  0.00000000000E+00 0. -1.
         22    1    1    2    0    0 -0.41115852949E+03 -0.10814304808E+04  0.37237030674E+03  0.12154023476E+04  0.00000000000E+00 0.  1.
<mgrwt>
<rscale>  0 0.26049886E+04</rscale>
<asrwt>0</asrwt>
<pdfrwt beam="1">  1        2 0.45058373E+00 0.26049886E+04</pdfrwt>
<pdfrwt beam="2">  1       -2 0.89114720E-01 0.26049886E+04</pdfrwt>
<totfact> 0.18433077E+00</totfact>
</mgrwt>
</event>
<event>
 6    1  0.1528034E-005  0.3969048E+04  0.7818608E-02  0.8010820E-01
         -1   -1    0    0    0  501 -0.00000000000E+00  0.00000000000E+00  0.12330786066E+04  0.12330786066E+04  0.00000000000E+00 0.  1.
          1   -1    0    0  501    0  0.00000000000E+00 -0.00000000000E+00 -0.31939051026E+04  0.31939051026E+04  0.00000000000E+00 0. -1.
         23    2    1    2    0    0 -0.44996352801E+03 -0.15669257192E+04 -0.22410527739E+04  0.27728222440E+04  0.92207783501E+02 0.  0.
         13    1    3    3    0    0 -0.28012558763E+03 -0.11244492594E+04 -0.15773067201E+04  0.19572309448E+04  0.00000000000E+00 0. -1.
        -13    1    3    3    0    0 -0.16983794038E+03 -0.44247645990E+03 -0.66374605374E+03  0.81559129925E+03  0.00000000000E+00 0.  1.
         22    1    1    2    0    0  0.44996352801E+03  0.15669257192E+04  0.28022627782E+03  0.16541614652E+04  0.00000000000E+00 0.  1.
<mgrwt>
<rscale>  0 0.39690483E+04</rscale>
<asrwt>0</asrwt>
<pdfrwt beam="1">  1        1 0.49137001E+00 0.39690483E+04</pdfrwt>
<pdfrwt beam="2">  1       -1 0.18970440E+00 0.39690483E+04</pdfrwt>
<totfact> 0.59790545E-02</totfact>
</mgrwt>
</event>
<event>
 6    1  0.1528034E-005  0.6982720E+03  0.7818608E-02  0.9720192E-01
         -2   -1    0    0    0  501 -0.00000000000E+00  0.00000000000E+00  0.44680447623E+03  0.44680447623E+03  0.00000000000E+00 0.  1.
          2   -1    0    0  501    0  0.00000000000E+00 -0.00000000000E+00 -0.27281723872E+03  0.27281723872E+03  0.00000000000E+00 0. -1.
         23    2    1    2    0    0 -0.21540967626E+03  0.16819320482E+03 -0.12624821232E+03  0.31362712372E+03  0.87937926078E+02 0.  0.
         11    1    3    3    0    0 -0.62072985053E+02  0.66845384512E+02 -0.86211826863E+02  0.12551430195E+03  0.00000000000E+00 0.  1.
        -11    1    3    3    0    0 -0.15333669120E+03  0.10134782031E+03 -0.40036385458E+02  0.18811282176E+03  0.00000000000E+00 0. -1.
         22    1    1    2    0    0  0.21540967626E+03 -0.16819320482E+03  0.30023544983E+03  0.40599459123E+03  0.00000000000E+00 0.  1.
<mgrwt>
<rscale>  0 0.69827205E+03</rscale>
<asrwt>0</asrwt>
<pdfrwt beam="1">  1        2 0.41971883E-01 0.69827205E+03</pdfrwt>
<pdfrwt beam="2">  1       -2 0.68739150E-01 0.69827205E+03</pdfrwt>
<totfact> 0.23842444E+02</totfact>
</mgrwt>
</event>
<event>
 6    1  0.1528034E-005  0.2005713E+04  0.7818608E-02  0.8603954E-01
          1   -1    0    0  501    0  0.00000000000E+00  0.00000000000E+00  0.14789993642E+04  0.14789993642E+04  0.00000000000E+00 0. -1.
         -1   -1    0    0    0  501 -0.00000000000E+00 -0.00000000000E+00 -0.68000081635E+03  0.68000081635E+03  0.00000000000E+00 0.  1.
         23    2    1    2    0    0 -0.21067180609E+03 -0.76944953319E+03 -0.24979539284E+03  0.84127337880E+03  0.94382019447E+02 0.  0.
         13    1    3    3    0    0 -0.36623654682E+02 -0.29849613368E+03 -0.10815643557E+03  0.31959200312E+03  0.00000000000E+00 0. -1.
        -13    1    3    3    0    0 -0.17404815141E+03 -0.47095339950E+03 -0.14163895727E+03  0.52168137568E+03  0.00000000000E+00 0.  1.
         22    1    1    2    0    0  0.21067180609E+03  0.76944953319E+03  0.10487939407E+04  0.13177268017E+04  0.00000000000E+00 0. -1.
<mgrwt>
<rscale>  0 0.20057126E+04</rscale>
<asrwt>0</asrwt>
<pdfrwt beam="1">  1        1 0.22753836E+00 0.20057126E+04</pdfrwt>
<pdfrwt beam="2">  1       -1 0.10461551E+00 0.20057126E+04</pdfrwt>
<totfact> 0.53860195E+00</totfact>
</mgrwt>
</event>
<event>
 6    1  0.1528034E-005  0.2179477E+04  0.7818608E-02  0.8527019E-01
          1   -1    0    0  501    0  0.00000000000E+00  0.00000000000E+00  0.17370980044E+04  0.17370980044E+04  0.00000000000E+00 0. -1.
         -1   -1    0    0    0  501 -0.00000000000E+00 -0.00000000000E+00 -0.68362843850E+03  0.68362843850E+03  0.00000000000E+00 0.  1.
         23    2    1    2    0    0 -0.41436063232E+03  0.95859210663E+02 -0.58448082955E+03  0.72846014595E+03  0.90291872495E+02 0.  0.
         11    1    3    3    0    0 -0.26624205073E+03  0.33024208599E+02 -0.30699907467E+03  0.40770560430E+03  0.00000000000E+00 0. -1.
        -11    1    3    3    0    0 -0.14811858159E+03  0.62835002064E+02 -0.27748175488E+03  0.32075454165E+03  0.00000000000E+00 0.  1.
         22    1    1    2    0    0  0.41436063232E+03 -0.95859210663E+02  0.16379503954E+04  0.16922662969E+04  0.00000000000E+00 0. -1.
<mgrwt>
<rscale>  0 0.21794766E+04</rscale>
<asrwt>0</asrwt>
<pdfrwt beam="1">  1        1 0.26724584E+00 0.21794766E+04</pdfrwt>
<pdfrwt beam="2">  1       -1 0.10517361E+00 0.21794766E+04</pdfrwt>
<totfact> 0.34823722E+00</totfact>
</mgrwt>
</event>
<event>
 6    1  0.1528034E-005  0.2282264E+04  0.7818608E-02  0.8484947E-01
          3   -1    0    0  501    0  0.00000000000E+00  0.00000000000E+00  0.10042302052E+04  0.10042302052E+04  0.00000000000E+00 0. -1.
         -3   -1    0    0    0  501 -0.00000000000E+00 -0.00000000000E+00 -0.12966968683E+04  0.12966968683E+04  0.00000000000E+00 0.  1.
         23    2    1    2    0    0 -0.16458133505E+03  0.72383018998E+03  0.72493296433E+03  0.10415148448E+04  0.90599168337E+02 0.  0.
         11    1    3    3    0    0 -0.73724899970E+02  0.37185911271E+03  0.43130899410E+03  0.57423166838E+03  0.00000000000E+00 0.  1.
        -11    1    3    3    0    0 -0.90856435077E+02  0.35197107727E+03  0.29362397024E+03  0.46728317638E+03  0.00000000000E+00 0. -1.
         22    1    1    2    0    0  0.16458133505E+03 -0.72383018998E+03 -0.10173996274E+04  0.12594122287E+04  0.00000000000E+00 0.  1.
<mgrwt>
<rscale>  0 0.22822639E+04</rscale>
<asrwt>0</asrwt>
<pdfrwt beam="1">  1        3 0.15449696E+00 0.22822639E+04</pdfrwt>
<pdfrwt beam="2">  1       -3 0.19949183E+00 0.22822639E+04</pdfrwt>
<totfact> 0.10466431E-01</totfact>
</mgrwt>
</event>
<event>
 6    1  0.1528034E-005  0.1625774E+04  0.7818608E-02  0.8804869E-01
          2   -1    0    0  501    0  0.00000000000E+00  0.00000000000E+00  0.38800324342E+04  0.38800324342E+04  0.00000000000E+00 0. -1.
         -2   -1    0    0    0  501 -0.00000000000E+00 -0.00000000000E+00 -0.17030409672E+03  0.17030409672E+03  0.00000000000E+00 0.  1.
         23    2    1    2    0    0  0.38765473107E+03  0.58192458384E+03  0.83987695011E+03  0.10965323063E+04  0.89874332547E+02 0.  0.
         11    1    3    3    0    0  0.29314018251E+03  0.48445387699E+03  0.71506550579E+03  0.91211041168E+03  0.00000000000E+00 0. -1.
        -11    1    3    3    0    0  0.94514548556E+02  0.97470706850E+02  0.12481144432E+03  0.18442189462E+03  0.00000000000E+00 0.  1.
         22    1    1    2    0    0 -0.38765473107E+03 -0.58192458384E+03  0.28698513873E+04  0.29538042246E+04  0.00000000000E+00 0. -1.
<mgrwt>
<rscale>  0 0.16257742E+04</rscale>
<asrwt>0</asrwt>
<pdfrwt beam="1">  1        2 0.59692800E+00 0.16257742E+04</pdfrwt>
<pdfrwt beam="2">  1       -2 0.26200633E-01 0.16257742E+04</pdfrwt>
<totfact> 0.54648735E+00</totfact>
</mgrwt>
</event>
<event>
 6    1  0.1528034E-005  0.2146582E+04  0.7818608E-02  0.8540997E-01
          2   -1    0    0  501    0  0.00000000000E+00  0.00000000000E+00  0.65099446781E+03  0.65099446781E+03  0.00000000000E+00 0.  1.
         -2   -1    0    0    0  501 -0.00000000000E+00 -0.00000000000E+00 -0.17695288030E+04  0.17695288030E+04  0.00000000000E+00 0. -1.
         23    2    1    2    0    0 -0.55296046771E+02 -0.79359410989E+03 -0.13694030914E+04  0.15863863535E+04  0.92236499014E+02 0.  0.
         13    1    3    3    0    0 -0.65325025757E+02 -0.50588804209E+03 -0.93855214738E+03  0.10682088763E+04  0.00000000000E+00 0. -1.
        -13    1    3    3    0    0  0.10028978987E+02 -0.28770606779E+03 -0.43085094401E+03  0.51817747714E+03  0.00000000000E+00 0.  1.
         22    1    1    2    0    0  0.55296046771E+02  0.79359410989E+03  0.25086875620E+03  0.83413691734E+03  0.00000000000E+00 0.  1.
<mgrwt>
<rscale>  0 0.21465819E+04</rscale>
<asrwt>0</asrwt>
<pdfrwt beam="1">  1        2 0.10015300E+00 0.21465819E+04</pdfrwt>
<pdfrwt beam="2">  1       -2 0.27223519E+00 0.21465819E+04</pdfrwt>
<totfact> 0.19352718E+00</totfact>
</mgrwt>
</event>
<event>
 6    1  0.1528034E-005  0.1438256E+04  0.7818608E-02  0.8926583E-01
          1   -1    0    0  501    0  0.00000000000E+00  0.00000000000E+00  0.76116147652E+03  0.76116147652E+03  0.00000000000E+00 0. -1.
         -1   -1    0    0    0  501 -0.00000000000E+00 -0.00000000000E+00 -0.67941527524E+03  0.67941527524E+03  0.00000000000E+00 0.  1.
         23    2    1    2    0    0  0.37543346870E+02 -0.43501305743E+03 -0.53011861482E+03  0.68889569160E+03  0.53904221601E+02 0.  0.
         13    1    3    3    0    0  0.30969759062E+02 -0.18872880967E+03 -0.26707513200E+03  0.32849172853E+03  0.00000000000E+00 0. -1.
        -13    1    3    3    0    0  0.65735878082E+01 -0.24628424776E+03 -0.26304348281E+03  0.36040396308E+03  0.00000000000E+00 0.  1.
         22    1    1    2    0    0 -0.37543346870E+02  0.43501305743E+03  0.61186481609E+03  0.75168106016E+03  0.00000000000E+00 0. -1.
<mgrwt>
<rscale>  0 0.14382555E+04</rscale>
<asrwt>0</asrwt>
<pdfrwt beam="1">  1        1 0.11710177E+00 0.14382555E+04</pdfrwt>
<pdfrwt beam="2">  1       -1 0.10452543E+00 0.14382555E+04</pdfrwt>
<totfact> 0.20025044E+01</totfact>
</mgrwt>
</event>
<event>
 6    1  0.1528034E-005  0.4004926E+04  0.7818608E-02  0.8003554E-01
         -1   -1    0    0    0  501 -0.00000000000E+00  0.00000000000E+00  0.28743534540E+04  0.28743534540E+04  0.00000000000E+00 0.  1.
          1   -1    0    0  501    0  0.00000000000E+00 -0.00000000000E+00 -0.13950468622E+04  0.13950468622E+04  0.00000000000E+00 0. -1.
         23    2    1    2    0    0  0.10409313877E+04 -0.15942836098E+04  0.13966467171E+04  0.23635905048E+04  0.10324552989E+03 0.  0.
         13    1    3    3    0    0  0.70661850261E+03 -0.11428752402E+04  0.94304326721E+03  0.16415858572E+04  0.00000000000E+00 0.  1.
        -13    1    3    3    0    0  0.33431288513E+03 -0.45140836966E+03  0.45360344988E+03  0.72200464757E+03  0.00000000000E+00 0. -1.
         22    1    1    2    0    0 -0.10409313877E+04  0.15942836098E+04  0.82659874673E+02  0.19058098115E+04  0.00000000000E+00 0. -1.
<mgrwt>
<rscale>  0 0.40049259E+04</rscale>
<asrwt>0</asrwt>
<pdfrwt beam="1">  1        1 0.21462259E+00 0.40049259E+04</pdfrwt>
<pdfrwt beam="2">  1       -1 0.44220822E+00 0.40049259E+04</pdfrwt>
<totfact> 0.22183955E-02</totfact>
</mgrwt>
</event>
<event>
 6    1  0.1528034E-005  0.5799540E+03  0.7818608E-02  0.9947891E-01
         -1   -1    0    0    0  501 -0.00000000000E+00  0.00000000000E+00  0.38932108467E+03  0.38932108467E+03  0.00000000000E+00 0.  1.
          1   -1    0    0  501    0  0.00000000000E+00 -0.00000000000E+00 -0.21598282030E+03  0.21598282030E+03  0.00000000000E+00 0. -1.
         23    2    1    2    0    0  0.27934501237E+03 -0.29962931965E+02  0.12291683129E+03  0.31986786285E+03  0.90969714956E+02 0.  0.
         13    1    3    3    0    0  0.16415314942E+03 -0.62073819205E+02  0.66932870492E+02  0.18782817853E+03  0.00000000000E+00 0.  1.
        -13    1    3    3    0    0  0.11519186295E+03  0.32110887240E+02  0.55983960799E+02  0.13203968432E+03  0.00000000000E+00 0. -1.
         22    1    1    2    0    0 -0.27934501237E+03  0.29962931965E+02  0.50421433078E+02  0.28543604212E+03  0.00000000000E+00 0. -1.
<mgrwt>
<rscale>  0 0.57995402E+03</rscale>
<asrwt>0</asrwt>
<pdfrwt beam="1">  1        1 0.33228126E-01 0.57995402E+03</pdfrwt>
<pdfrwt beam="2">  1       -1 0.59895551E-01 0.57995402E+03</pdfrwt>
<totfact> 0.38542769E+02</totfact>
</mgrwt>
</event>
<event>
 6    1  0.1528034E-005  0.1110649E+04  0.7818608E-02  0.9194875E-01
          2   -1    0    0  501    0  0.00000000000E+00  0.00000000000E+00  0.14866820938E+04  0.14866820938E+04  0.00000000000E+00 0. -1.
         -2   -1    0    0    0  501 -0.00000000000E+00 -0.00000000000E+00 -0.20743174418E+03  0.20743174418E+03  0.00000000000E+00 0.  1.
         23    2    1    2    0    0  0.38808023119E+03 -0.36692070642E+03  0.85443653937E+03  0.10116888648E+04  0.90639333085E+02 0.  0.
         11    1    3    3    0    0  0.44391882223E+02 -0.62949132615E+02  0.18201372382E+03  0.19764166606E+03  0.00000000000E+00 0. -1.
        -11    1    3    3    0    0  0.34368834897E+03 -0.30397157380E+03  0.67242281555E+03  0.81404719874E+03  0.00000000000E+00 0.  1.
         22    1    1    2    0    0 -0.38808023119E+03  0.36692070642E+03  0.42481381027E+03  0.68242497319E+03  0.00000000000E+00 0.  1.
<mgrwt>
<rscale>  0 0.11106486E+04</rscale>
<asrwt>0</asrwt>
<pdfrwt beam="1">  1        2 0.22872032E+00 0.11106486E+04</pdfrwt>
<pdfrwt beam="2">  1       -2 0.31912577E-01 0.11106486E+04</pdfrwt>
<totfact> 0.11693057E+02</totfact>
</mgrwt>
</event>
<event>
 6    1  0.1528034E-005  0.4438490E+04  0.7818608E-02  0.7921495E-01
         -1   -1    0    0    0  501 -0.00000000000E+00  0.00000000000E+00  0.28020413878E+04  0.28020413878E+04  0.00000000000E+00 0.  1.
          1   -1    0    0  501    0  0.00000000000E+00 -0.00000000000E+00 -0.17576645486E+04  0.17576645486E+04  0.00000000000E+00 0. -1.
         23    2    1    2    0    0 -0.10201417296E+04 -0.77269855362E+03 -0.13390040808E+04  0.18544782541E+04  0.91681314120E+02 0.  0.
         13    1    3    3    0    0 -0.94506503500E+03 -0.68324570902E+03 -0.12116984518E+04  0.16817210701E+04  0.00000000000E+00 0.  1.
        -13    1    3    3    0    0 -0.75076694573E+02 -0.89452844604E+02 -0.12730562900E+03  0.17275718408E+03  0.00000000000E+00 0. -1.
         22    1    1    2    0    0  0.10201417296E+04  0.77269855362E+03  0.23833809200E+04  0.27052276823E+04  0.00000000000E+00 0.  1.
<mgrwt>
<rscale>  0 0.44384902E+04</rscale>
<asrwt>0</asrwt>
<pdfrwt beam="1">  1        1 0.27040993E+00 0.44384902E+04</pdfrwt>
<pdfrwt beam="2">  1       -1 0.43108329E+00 0.44384902E+04</pdfrwt>
<totfact> 0.14376321E-02</totfact>
</mgrwt>
</event>
<event>
 6    1  0.1528034E-005  0.2035277E+04  0.7818608E-02  0.8590303E-01
          2   -1    0    0  501    0  0.00000000000E+00  0.00000000000E+00  0.26330123039E+04  0.26330123039E+04  0.00000000000E+00 0. -1.
         -2   -1    0    0    0  501 -0.00000000000E+00 -0.00000000000E+00 -0.39330937845E+03  0.39330937845E+03  0.00000000000E+00 0.  1.
         23    2    1    2    0    0 -0.96111579316E+03 -0.88175508639E+02  0.65299551419E+03  0.11691305513E+04  0.94575981656E+02 0.  0.
         13    1    3    3    0    0 -0.65570017748E+03 -0.16585864032E+02  0.43141873394E+03  0.78507320527E+03  0.00000000000E+00 0. -1.
        -13    1    3    3    0    0 -0.30541561567E+03 -0.71589644607E+02  0.22157678025E+03  0.38405734606E+03  0.00000000000E+00 0.  1.
         22    1    1    2    0    0  0.96111579316E+03  0.88175508639E+02  0.15867074112E+04  0.18571911310E+04  0.00000000000E+00 0. -1.
<mgrwt>
<rscale>  0 0.20352773E+04</rscale>
<asrwt>0</asrwt>
<pdfrwt beam="1">  1        2 0.40507880E+00 0.20352773E+04</pdfrwt>
<pdfrwt beam="2">  1       -2 0.60509137E-01 0.20352773E+04</pdfrwt>
<totfact> 0.68636363E+00</totfact>
</mgrwt>
</event>
<event>
 6    1  0.1528034E-005  0.1853601E+04  0.7818608E-02  0.8678303E-01
         -1   -1    0    0    0  501 -0.00000000000E+00  0.00000000000E+00  0.11479268216E+04  0.11479268216E+04  0.00000000000E+00 0.  1.
          1   -1    0    0  501    0  0.00000000000E+00 -0.00000000000E+00 -0.74827023700E+03  0.74827023700E+03  0.00000000000E+00 0. -1.
         23    2    1    2    0    0  0.70209403682E+03 -0.27531288738E+02 -0.41368720156E+03  0.82138445963E+03  0.99203434402E+02 0.  0.
         11    1    3    3    0    0  0.34953210564E+03 -0.56574328933E+02 -0.17798878588E+03  0.39629957793E+03  0.00000000000E+00 0. -1.
        -11    1    3    3    0    0  0.35256193118E+03  0.29043040195E+02 -0.23569841568E+03  0.42508488170E+03  0.00000000000E+00 0.  1.
         22    1    1    2    0    0 -0.70209403682E+03  0.27531288738E+02  0.81334378615E+03  0.10748125990E+04  0.00000000000E+00 0.  1.
<mgrwt>
<rscale>  0 0.18536013E+04</rscale>
<asrwt>0</asrwt>
<pdfrwt beam="1">  1        1 0.11511850E+00 0.18536013E+04</pdfrwt>
<pdfrwt beam="2">  1       -1 0.17660413E+00 0.18536013E+04</pdfrwt>
<totfact> 0.50838796E+00</totfact>
</mgrwt>
</event>
<event>
 6    1  0.1528034E-005  0.5423575E+04  0.7818608E-02  0.7766294E-01
          2   -1    0    0  501    0  0.00000000000E+00  0.00000000000E+00  0.31890648686E+04  0.31890648686E+04  0.00000000000E+00 0. -1.
         -2   -1    0    0    0  501 -0.00000000000E+00 -0.00000000000E+00 -0.23059396190E+04  0.23059396190E+04  0.00000000000E+00 0.  1.
         23    2    1    2    0    0 -0.23085468597E+04  0.60590878352E+02  0.18805037270E+04  0.29794879034E+04  0.89409401660E+02 0.  0.
         11    1    3    3    0    0 -0.14372412352E+04  0.23227849180E+02  0.12227670562E+04  0.18871569026E+04  0.00000000000E+00 0. -1.
        -11    1    3    3    0    0 -0.87130562451E+03  0.37363029172E+02  0.65773667088E+03  0.10923310009E+04  0.00000000000E+00 0.  1.
         22    1    1    2    0    0  0.23085468597E+04 -0.60590878352E+02 -0.99737847738E+03  0.25155165842E+04  0.00000000000E+00 0.  1.
<mgrwt>
<rscale>  0 0.54235748E+04</rscale>
<asrwt>0</asrwt>
<pdfrwt beam="1">  1        2 0.49062537E+00 0.54235748E+04</pdfrwt>
<pdfrwt beam="2">  1       -2 0.35475994E+00 0.54235748E+04</pdfrwt>
<totfact> 0.13463088E-02</totfact>
</mgrwt>
</event>
<event>
 6    1  0.1528034E-005  0.1490753E+04  0.7818608E-02  0.8890625E-01
          2   -1    0    0  501    0  0.00000000000E+00  0.00000000000E+00  0.34053593094E+04  0.34053593094E+04  0.00000000000E+00 0. -1.
         -2   -1    0    0    0  501 -0.00000000000E+00 -0.00000000000E+00 -0.16315062231E+03  0.16315062231E+03  0.00000000000E+00 0.  1.
         23    2    1    2    0    0 -0.48362454266E+03  0.25441061961E+03  0.42369355798E+03  0.69750923601E+03  0.91572056951E+02 0.  0.
         13    1    3    3    0    0 -0.11552851214E+03  0.10143497910E+03  0.14314783747E+03  0.21006474115E+03  0.00000000000E+00 0. -1.
        -13    1    3    3    0    0 -0.36809603052E+03  0.15297564050E+03  0.28054572052E+03  0.48744449487E+03  0.00000000000E+00 0.  1.
         22    1    1    2    0    0  0.48362454266E+03 -0.25441061961E+03  0.28185151291E+04  0.28710006957E+04  0.00000000000E+00 0. -1.
<mgrwt>
<rscale>  0 0.14907535E+04</rscale>
<asrwt>0</asrwt>
<pdfrwt beam="1">  1        2 0.52390138E+00 0.14907535E+04</pdfrwt>
<pdfrwt beam="2">  1       -2 0.25100098E-01 0.14907535E+04</pdfrwt>
<totfact> 0.13188126E+01</totfact>
</mgrwt>
</event>
<event>
 6    1  0.1943650E-005  0.4702065E+04  0.7818608E-02  0.7876186E-01
         -1   -1    0    0    0  501 -0.00000000000E+00  0.00000000000E+00  0.21650058928E+04  0.21650058928E+04  0.00000000000E+00 0.  1.
          1   -1    0    0  501    0  0.00000000000E+00 -0.00000000000E+00 -0.25530430738E+04  0.25530430738E+04  0.00000000000E+00 0. -1.
         23    2    1    2    0    0 -0.18775618201E+02  0.39218692747E+03 -0.25191729393E+04  0.25510457985E+04  0.86251134049E+02 0.  0.
         11    1    3    3    0    0 -0.19945011312E+02  0.59205494487E+02 -0.59528503380E+03  0.59855439646E+03  0.00000000000E+00 0. -1.
        -11    1    3    3    0    0  0.11693931111E+01  0.33298143299E+03 -0.19238879055E+04  0.19524914021E+04  0.00000000000E+00 0.  1.
         22    1    1    2    0    0  0.18775618201E+02 -0.39218692747E+03  0.21311357583E+04  0.21670031681E+04  0.00000000000E+00 0.  1.
<mgrwt>
<rscale>  0 0.47020648E+04</rscale>
<asrwt>0</asrwt>
<pdfrwt beam="1">  1        1 0.39277586E+00 0.47020648E+04</pdfrwt>
<pdfrwt beam="2">  1       -1 0.33307783E+00 0.47020648E+04</pdfrwt>
<totfact> 0.18485689E-02</totfact>
</mgrwt>
</event>
<event>
 6    1  0.1528034E-005  0.1878536E+04  0.7818608E-02  0.8665615E-01
          2   -1    0    0  501    0  0.00000000000E+00  0.00000000000E+00  0.36375579071E+04  0.36375579071E+04  0.00000000000E+00 0. -1.
         -2   -1    0    0    0  501 -0.00000000000E+00 -0.00000000000E+00 -0.24253204021E+03  0.24253204021E+03  0.00000000000E+00 0.  1.
         23    2    1    2    0    0  0.54383386413E+03  0.75312222807E+03  0.19558494684E+04  0.21671459704E+04  0.90698134751E+02 0.  0.
         13    1    3    3    0    0  0.27364439155E+03  0.40886949689E+03  0.11315920787E+04  0.12339190213E+04  0.00000000000E+00 0. -1.
        -13    1    3    3    0    0  0.27018947258E+03  0.34425273117E+03  0.82425738974E+03  0.93322694912E+03  0.00000000000E+00 0.  1.
         22    1    1    2    0    0 -0.54383386413E+03 -0.75312222807E+03  0.14391763985E+04  0.17129439769E+04  0.00000000000E+00 0. -1.
<mgrwt>
<rscale>  0 0.18785360E+04</rscale>
<asrwt>0</asrwt>
<pdfrwt beam="1">  1        2 0.55962425E+00 0.18785360E+04</pdfrwt>
<pdfrwt beam="2">  1       -2 0.37312624E-01 0.18785360E+04</pdfrwt>
<totfact> 0.41560232E+00</totfact>
</mgrwt>
</event>
<event>
 6    1  0.1528034E-005  0.1623558E+04  0.7818608E-02  0.8806205E-01
          1   -1    0    0  501    0  0.00000000000E+00  0.00000000000E+00  0.11374066668E+04  0.11374066668E+04  0.00000000000E+00 0. -1.
         -1   -1    0    0    0  501 -0.00000000000E+00 -0.00000000000E+00 -0.57937530923E+03  0.57937530923E+03  0.00000000000E+00 0.  1.
         23    2    1    2    0    0 -0.31897225834E+03 -0.60189064936E+03  0.74158694885E+03  0.10112975251E+04  0.93572571782E+02 0.  0.
         11    1    3    3    0    0 -0.30533920741E+03 -0.50799948643E+03  0.63777709447E+03  0.87066361589E+03  0.00000000000E+00 0. -1.
        -11    1    3    3    0    0 -0.13633050922E+02 -0.93891162934E+02  0.10380985438E+03  0.14063390921E+03  0.00000000000E+00 0.  1.
         22    1    1    2    0    0  0.31897225834E+03  0.60189064936E+03 -0.18355559131E+03  0.70548445091E+03  0.00000000000E+00 0.  1.
<mgrwt>
<rscale>  0 0.16235582E+04</rscale>
<asrwt>0</asrwt>
<pdfrwt beam="1">  1        1 0.17498564E+00 0.16235582E+04</pdfrwt>
<pdfrwt beam="2">  1       -1 0.89134663E-01 0.16235582E+04</pdfrwt>
<totfact> 0.14048268E+01</totfact>
</mgrwt>
</event>
<event>
 6    1  0.1528034E-005  0.3080127E+04  0.7818608E-02  0.8221213E-01
         -2   -1    0    0    0  501 -0.00000000000E+00  0.00000000000E+00  0.82705934926E+03  0.82705934926E+03  0.00000000000E+00 0.  1.
          2   -1    0    0  501    0  0.00000000000E+00 -0.00000000000E+00 -0.28677444558E+04  0.28677444558E+04  0.00000000000E+00 0. -1.
         23    2    1    2    0    0  0.99048003000E+02  0.13420620208E+04 -0.12615586689E+03  0.13546407372E+04  0.90527618145E+02 0.  0.
         11    1    3    3    0    0  0.69496435776E+01  0.30513498995E+03  0.60245697371E+01  0.30527357415E+03  0.00000000000E+00 0. -1.
        -11    1    3    3    0    0  0.92098359422E+02  0.10369270308E+04 -0.13218043663E+03  0.10493671631E+04  0.00000000000E+00 0.  1.
         22    1    1    2    0    0 -0.99048003000E+02 -0.13420620208E+04 -0.19145292396E+04  0.23401630678E+04  0.00000000000E+00 0. -1.
<mgrwt>
<rscale>  0 0.30801265E+04</rscale>
<asrwt>0</asrwt>
<pdfrwt beam="1">  1        2 0.44119145E+00 0.30801265E+04</pdfrwt>
<pdfrwt beam="2">  1       -2 0.12723990E+00 0.30801265E+04</pdfrwt>
<totfact> 0.81951536E-01</totfact>
</mgrwt>
</event>
<event>
 6    1  0.1528034E-005  0.4934233E+04  0.7818608E-02  0.7838733E-01
          2   -1    0    0  501    0  0.00000000000E+00  0.00000000000E+00  0.34874739575E+04  0.34874739575E+04  0.00000000000E+00 0.  1.
         -2   -1    0    0    0  501 -0.00000000000E+00 -0.00000000000E+00 -0.17452932968E+04  0.17452932968E+04  0.00000000000E+00 0. -1.
         23    2    1    2    0    0  0.30507192560E+03  0.17477824546E+04 -0.94571009975E+03  0.20121199391E+04  0.80291147033E+02 0.  0.
         13    1    3    3    0    0  0.31337917049E+02  0.36865750603E+03 -0.19457922499E+03  0.41803288937E+03  0.00000000000E+00 0.  1.
        -13    1    3    3    0    0  0.27373400855E+03  0.13791249486E+04 -0.75113087476E+03  0.15940870498E+04  0.00000000000E+00 0. -1.
         22    1    1    2    0    0 -0.30507192560E+03 -0.17477824546E+04  0.26878907605E+04  0.32206473152E+04  0.00000000000E+00 0.  1.
<mgrwt>
<rscale>  0 0.49342334E+04</rscale>
<asrwt>0</asrwt>
<pdfrwt beam="1">  1        2 0.53653445E+00 0.49342334E+04</pdfrwt>
<pdfrwt beam="2">  1       -2 0.26850666E+00 0.49342334E+04</pdfrwt>
<totfact> 0.29990536E-02</totfact>
</mgrwt>
</event>
<event>
 6    1  0.1528034E-005  0.3987084E+04  0.7818608E-02  0.8007157E-01
         -1   -1    0    0    0  501 -0.00000000000E+00  0.00000000000E+00  0.54426114278E+04  0.54426114278E+04  0.00000000000E+00 0.  1.
          1   -1    0    0  501    0  0.00000000000E+00 -0.00000000000E+00 -0.73020286293E+03  0.73020286293E+03  0.00000000000E+00 0. -1.
         23    2    1    2    0    0  0.35054886561E+03  0.10136186704E+04 -0.24256849468E+03  0.11030899415E+04  0.87525015881E+02 0.  0.
         11    1    3    3    0    0  0.34917325296E+03  0.95165676454E+03 -0.22132226350E+03  0.10375722155E+04  0.00000000000E+00 0.  1.
        -11    1    3    3    0    0  0.13756126484E+01  0.61961905842E+02 -0.21246231181E+02  0.65517726038E+02  0.00000000000E+00 0. -1.
         22    1    1    2    0    0 -0.35054886561E+03 -0.10136186704E+04  0.49549770596E+04  0.50697243492E+04  0.00000000000E+00 0.  1.
<mgrwt>
<rscale>  0 0.39870844E+04</rscale>
<asrwt>0</asrwt>
<pdfrwt beam="1">  1        1 0.11233891E+00 0.39870844E+04</pdfrwt>
<pdfrwt beam="2">  1       -1 0.83732481E+00 0.39870844E+04</pdfrwt>
<totfact> 0.75931103E-04</totfact>
</mgrwt>
</event>
<event>
 6    1  0.1528034E-005  0.5704483E+03  0.7818608E-02  0.9968687E-01
         -1   -1    0    0    0  501 -0.00000000000E+00  0.00000000000E+00  0.84312490356E+03  0.84312490356E+03  0.00000000000E+00 0.  1.
          1   -1    0    0  501    0  0.00000000000E+00 -0.00000000000E+00 -0.96489646394E+02  0.96489646394E+02  0.00000000000E+00 0. -1.
         23    2    1    2    0    0 -0.13783687896E+03  0.21315759238E+03  0.56865490990E+03  0.62959492412E+03  0.92661737187E+02 0.  0.
         11    1    3    3    0    0 -0.10393870604E+03  0.10088008219E+03  0.38854178933E+03  0.41466223321E+03  0.00000000000E+00 0.  1.
        -11    1    3    3    0    0 -0.33898172923E+02  0.11227751019E+03  0.18011312057E+03  0.21493269091E+03  0.00000000000E+00 0. -1.
         22    1    1    2    0    0  0.13783687896E+03 -0.21315759238E+03  0.17798034727E+03  0.31001962583E+03  0.00000000000E+00 0.  1.
<mgrwt>
<rscale>  0 0.57044833E+03</rscale>
<asrwt>0</asrwt>
<pdfrwt beam="1">  1        1 0.14844562E-01 0.57044833E+03</pdfrwt>
<pdfrwt beam="2">  1       -1 0.12971152E+00 0.57044833E+03</pdfrwt>
<totfact> 0.20379795E+02</totfact>
</mgrwt>
</event>
<event>
 6    1  0.1528034E-005  0.2233526E+04  0.7818608E-02  0.8504602E-01
         -1   -1    0    0    0  501 -0.00000000000E+00  0.00000000000E+00  0.50813594442E+03  0.50813594442E+03  0.00000000000E+00 0.  1.
          1   -1    0    0  501    0  0.00000000000E+00 -0.00000000000E+00 -0.24543811552E+04  0.24543811552E+04  0.00000000000E+00 0. -1.
         23    2    1    2    0    0  0.25944120216E+03  0.83046743912E+03 -0.18993557085E+04  0.20912051404E+04  0.92741182017E+02 0.  0.
         13    1    3    3    0    0  0.13231983251E+03  0.28845598016E+03 -0.64449099935E+03  0.71838989331E+03  0.00000000000E+00 0.  1.
        -13    1    3    3    0    0  0.12712136965E+03  0.54201145896E+03 -0.12548647092E+04  0.13728152471E+04  0.00000000000E+00 0. -1.
         22    1    1    2    0    0 -0.25944120216E+03 -0.83046743912E+03 -0.46889502223E+02  0.87131195920E+03  0.00000000000E+00 0.  1.
<mgrwt>
<rscale>  0 0.22335257E+04</rscale>
<asrwt>0</asrwt>
<pdfrwt beam="1">  1        1 0.37759711E+00 0.22335257E+04</pdfrwt>
<pdfrwt beam="2">  1       -1 0.78174759E-01 0.22335257E+04</pdfrwt>
<totfact> 0.21699768E+00</totfact>
</mgrwt>
</event>
<event>
 6    1  0.1528034E-005  0.1518250E+04  0.7818608E-02  0.8872407E-01
          2   -1    0    0  501    0  0.00000000000E+00  0.00000000000E+00  0.12688795076E+04  0.12688795076E+04  0.00000000000E+00 0. -1.
         -2   -1    0    0    0  501 -0.00000000000E+00 -0.00000000000E+00 -0.45415734396E+03  0.45415734396E+03  0.00000000000E+00 0.  1.
         23    2    1    2    0    0 -0.36328660575E+03  0.11786970810E+03  0.11496697431E+04  0.12150404865E+04  0.93340449320E+02 0.  0.
         13    1    3    3    0    0 -0.19782036138E+03  0.11033632776E+03  0.70685306691E+03  0.74225888934E+03  0.00000000000E+00 0.  1.
        -13    1    3    3    0    0 -0.16546624437E+03  0.75333803334E+01  0.44281667622E+03  0.47278159713E+03  0.00000000000E+00 0. -1.
         22    1    1    2    0    0  0.36328660575E+03 -0.11786970810E+03 -0.33494757945E+03  0.50799636513E+03  0.00000000000E+00 0.  1.
<mgrwt>
<rscale>  0 0.15182502E+04</rscale>
<asrwt>0</asrwt>
<pdfrwt beam="1">  1        2 0.19521223E+00 0.15182502E+04</pdfrwt>
<pdfrwt beam="2">  1       -2 0.69870361E-01 0.15182502E+04</pdfrwt>
<totfact> 0.31049373E+01</totfact>
</mgrwt>
</event>
<event>
 6    1  0.1528034E-005  0.2480750E+04  0.7818608E-02  0.8409876E-01
          1   -1    0    0  501    0  0.00000000000E+00  0.00000000000E+00  0.27307311458E+04  0.27307311458E+04  0.00000000000E+00 0. -1.
         -1   -1    0    0    0  501 -0.00000000000E+00 -0.00000000000E+00 -0.56341319730E+03  0.56341319730E+03  0.00000000000E+00 0.  1.
         23    2    1    2    0    0  0.66259746611E+03  0.91720611841E+03  0.41626522755E+03  0.12093210659E+04  0.94224385903E+02 0.  0.
         11    1    3    3    0    0  0.65001520720E+03  0.87604408957E+03  0.41199633821E+03  0.11660677507E+04  0.00000000000E+00 0. -1.
        -11    1    3    3    0    0  0.12582258915E+02  0.41162028843E+02  0.42688893313E+01  0.43253315180E+02  0.00000000000E+00 0.  1.
         22    1    1    2    0    0 -0.66259746611E+03 -0.91720611841E+03  0.17510527209E+04  0.20848232772E+04  0.00000000000E+00 0.  1.
<mgrwt>
<rscale>  0 0.24807499E+04</rscale>
<asrwt>0</asrwt>
<pdfrwt beam="1">  1        1 0.42011248E+00 0.24807499E+04</pdfrwt>
<pdfrwt beam="2">  1       -1 0.86678955E-01 0.24807499E+04</pdfrwt>
<totfact> 0.10895984E+00</totfact>
</mgrwt>
</event>
<event>
 6    1  0.1528034E-005  0.1948069E+04  0.7818608E-02  0.8631293E-01
          1   -1    0    0  501    0  0.00000000000E+00  0.00000000000E+00  0.88884734646E+03  0.88884734646E+03  0.00000000000E+00 0. -1.
         -1   -1    0    0    0  501 -0.00000000000E+00 -0.00000000000E+00 -0.10673856082E+04  0.10673856082E+04  0.00000000000E+00 0.  1.
         23    2    1    2    0    0  0.62558030113E+03 -0.72834088181E+03  0.62007977809E+02  0.96643820490E+03  0.91250541484E+02 0.  0.
         13    1    3    3    0    0  0.28690239558E+03 -0.31150303038E+03  0.70319649884E+02  0.42929241280E+03  0.00000000000E+00 0.  1.
        -13    1    3    3    0    0  0.33867790554E+03 -0.41683785142E+03 -0.83116720744E+01  0.53714579210E+03  0.00000000000E+00 0. -1.
         22    1    1    2    0    0 -0.62558030113E+03  0.72834088181E+03 -0.24054623953E+03  0.98979474974E+03  0.00000000000E+00 0.  1.
<mgrwt>
<rscale>  0 0.19480686E+04</rscale>
<asrwt>0</asrwt>
<pdfrwt beam="1">  1        1 0.13674575E+00 0.19480686E+04</pdfrwt>
<pdfrwt beam="2">  1       -1 0.16421317E+00 0.19480686E+04</pdfrwt>
<totfact> 0.47043849E+00</totfact>
</mgrwt>
</event>
<event>
 6    1  0.1528034E-005  0.1045657E+04  0.7818608E-02  0.9259839E-01
         -2   -1    0    0    0  501 -0.00000000000E+00  0.00000000000E+00  0.49341714722E+03  0.49341714722E+03  0.00000000000E+00 0.  1.
          2   -1    0    0  501    0  0.00000000000E+00 -0.00000000000E+00 -0.55399323873E+03  0.55399323873E+03  0.00000000000E+00 0. -1.
         23    2    1    2    0    0 -0.40844383972E+03 -0.14704568312E+03 -0.31505165400E+03  0.54421398789E+03  0.91991938774E+02 0.  0.
         13    1    3    3    0    0 -0.16681403967E+03 -0.86540897011E+02 -0.18290561673E+03  0.26224171163E+03  0.00000000000E+00 0. -1.
        -13    1    3    3    0    0 -0.24162980005E+03 -0.60504786108E+02 -0.13214603726E+03  0.28197227626E+03  0.00000000000E+00 0.  1.
         22    1    1    2    0    0  0.40844383972E+03  0.14704568312E+03  0.25447556249E+03  0.50319639807E+03  0.00000000000E+00 0.  1.
<mgrwt>
<rscale>  0 0.10456572E+04</rscale>
<asrwt>0</asrwt>
<pdfrwt beam="1">  1        2 0.85229729E-01 0.10456572E+04</pdfrwt>
<pdfrwt beam="2">  1       -2 0.75910330E-01 0.10456572E+04</pdfrwt>
<totfact> 0.84566320E+01</totfact>
</mgrwt>
</event>
<event>
 6    1  0.1528034E-005  0.2831754E+04  0.7818608E-02  0.8293477E-01
         -1   -1    0    0    0  501 -0.00000000000E+00  0.00000000000E+00  0.10686218392E+04  0.10686218392E+04  0.00000000000E+00 0.  1.
          1   -1    0    0  501    0  0.00000000000E+00 -0.00000000000E+00 -0.18759751933E+04  0.18759751933E+04  0.00000000000E+00 0. -1.
         23    2    1    2    0    0  0.40799798958E+03  0.13045168670E+04 -0.25692082342E+02  0.13700428228E+04  0.90170047538E+02 0.  0.
         13    1    3    3    0    0  0.31048728723E+03  0.91193029588E+03  0.15273367705E+02  0.96345861138E+03  0.00000000000E+00 0. -1.
        -13    1    3    3    0    0  0.97510702349E+02  0.39258657107E+03 -0.40965450048E+02  0.40658421140E+03  0.00000000000E+00 0.  1.
         22    1    1    2    0    0 -0.40799798958E+03 -0.13045168670E+04 -0.78166127168E+03  0.15745542097E+04  0.00000000000E+00 0. -1.
<mgrwt>
<rscale>  0 0.28317543E+04</rscale>
<asrwt>0</asrwt>
<pdfrwt beam="1">  1        1 0.28861157E+00 0.28317543E+04</pdfrwt>
<pdfrwt beam="2">  1       -1 0.16440336E+00 0.28317543E+04</pdfrwt>
<totfact> 0.84560497E-01</totfact>
</mgrwt>
</event>
<event>
 6    1  0.1528034E-005  0.3114974E+04  0.7818608E-02  0.8211640E-01
         -2   -1    0    0    0  501 -0.00000000000E+00  0.00000000000E+00  0.10803738699E+04  0.10803738699E+04  0.00000000000E+00 0.  1.
          2   -1    0    0  501    0  0.00000000000E+00 -0.00000000000E+00 -0.22453021384E+04  0.22453021384E+04  0.00000000000E+00 0. -1.
         23    2    1    2    0    0  0.11343116494E+04 -0.99017240147E+03 -0.10020447709E+04  0.18112007406E+04  0.96177426761E+02 0.  0.
         13    1    3    3    0    0  0.22382455239E+03 -0.19919342519E+03 -0.15459975465E+03  0.33715950977E+03  0.00000000000E+00 0.  1.
        -13    1    3    3    0    0  0.91048709699E+03 -0.79097897628E+03 -0.84744501628E+03  0.14740412309E+04  0.00000000000E+00 0. -1.
         22    1    1    2    0    0 -0.11343116494E+04  0.99017240147E+03 -0.16288349765E+03  0.15144752677E+04  0.00000000000E+00 0.  1.
<mgrwt>
<rscale>  0 0.31149740E+04</rscale>
<asrwt>0</asrwt>
<pdfrwt beam="1">  1        2 0.34543110E+00 0.31149740E+04</pdfrwt>
<pdfrwt beam="2">  1       -2 0.16621137E+00 0.31149740E+04</pdfrwt>
<totfact> 0.93671490E-01</totfact>
</mgrwt>
</event>
<event>
 6    1  0.1528034E-005  0.1868974E+04  0.7818608E-02  0.8670456E-01
          2   -1    0    0  501    0  0.00000000000E+00  0.00000000000E+00  0.14760782753E+04  0.14760782753E+04  0.00000000000E+00 0.  1.
         -2   -1    0    0    0  501 -0.00000000000E+00 -0.00000000000E+00 -0.59161252971E+03  0.59161252971E+03  0.00000000000E+00 0. -1.
         23    2    1    2    0    0 -0.92921781732E+03  0.69696495675E+02  0.41222915404E+03  0.10230326064E+04  0.91430218107E+02 0.  0.
         13    1    3    3    0    0 -0.71832276749E+03  0.21066989335E+02  0.29429196452E+03  0.77655597139E+03  0.00000000000E+00 0. -1.
        -13    1    3    3    0    0 -0.21089504983E+03  0.48629506340E+02  0.11793718952E+03  0.24647663500E+03  0.00000000000E+00 0.  1.
         22    1    1    2    0    0  0.92921781732E+03 -0.69696495675E+02  0.47223659157E+03  0.10446581986E+04  0.00000000000E+00 0.  1.
<mgrwt>
<rscale>  0 0.18689745E+04</rscale>
<asrwt>0</asrwt>
<pdfrwt beam="1">  1        2 0.22708896E+00 0.18689745E+04</pdfrwt>
<pdfrwt beam="2">  1       -2 0.91017313E-01 0.18689745E+04</pdfrwt>
<totfact> 0.12661438E+01</totfact>
</mgrwt>
</event>
<event>
 6    1  0.1528034E-005  0.1404352E+04  0.7818608E-02  0.8950675E-01
         -2   -1    0    0    0  501 -0.00000000000E+00  0.00000000000E+00  0.42667708855E+03  0.42667708855E+03  0.00000000000E+00 0.  1.
          2   -1    0    0  501    0  0.00000000000E+00 -0.00000000000E+00 -0.11555599932E+04  0.11555599932E+04  0.00000000000E+00 0. -1.
         23    2    1    2    0    0  0.66882639517E+03 -0.17719424842E+03 -0.47910630938E+03  0.84663195937E+03  0.92283641031E+02 0.  0.
         11    1    3    3    0    0  0.42912839590E+03 -0.15527542125E+03 -0.33470918968E+03  0.56594335253E+03  0.00000000000E+00 0.  1.
        -11    1    3    3    0    0  0.23969799927E+03 -0.21918827174E+02 -0.14439711969E+03  0.28068860685E+03  0.00000000000E+00 0. -1.
         22    1    1    2    0    0 -0.66882639517E+03  0.17719424842E+03 -0.24977659530E+03  0.73560512240E+03  0.00000000000E+00 0. -1.
<mgrwt>
<rscale>  0 0.14043518E+04</rscale>
<asrwt>0</asrwt>
<pdfrwt beam="1">  1        2 0.17777846E+00 0.14043518E+04</pdfrwt>
<pdfrwt beam="2">  1       -2 0.65642630E-01 0.14043518E+04</pdfrwt>
<totfact> 0.41898627E+01</totfact>
</mgrwt>
</event>
<event>
 6    1  0.1528034E-005  0.3428767E+04  0.7818608E-02  0.8130882E-01
         -2   -1    0    0    0  501 -0.00000000000E+00  0.00000000000E+00  0.12779385046E+04  0.12779385046E+04  0.00000000000E+00 0.  1.
          2   -1    0    0  501    0  0.00000000000E+00 -0.00000000000E+00 -0.22998846759E+04  0.22998846759E+04  0.00000000000E+00 0. -1.
         23    2    1    2    0    0  0.42280982503E+03  0.11860847934E+04  0.70105537820E+03  0.14437426701E+04  0.85726126875E+02 0.  0.
         11    1    3    3    0    0  0.18630596155E+03  0.40697677447E+03  0.23366638484E+03  0.50491582038E+03  0.00000000000E+00 0. -1.
        -11    1    3    3    0    0  0.23650386348E+03  0.77910801889E+03  0.46738899336E+03  0.93882684967E+03  0.00000000000E+00 0.  1.
         22    1    1    2    0    0 -0.42280982503E+03 -0.11860847934E+04 -0.17230015495E+04  0.21340805104E+04  0.00000000000E+00 0.  1.
<mgrwt>
<rscale>  0 0.34287672E+04</rscale>
<asrwt>0</asrwt>
<pdfrwt beam="1">  1        2 0.35382841E+00 0.34287672E+04</pdfrwt>
<pdfrwt beam="2">  1       -2 0.19660593E+00 0.34287672E+04</pdfrwt>
<totfact> 0.52479712E-01</totfact>
</mgrwt>
</event>
<event>
 6    1  0.1528034E-005  0.2539493E+04  0.7818608E-02  0.8389050E-01
          1   -1    0    0  501    0  0.00000000000E+00  0.00000000000E+00  0.19586983184E+04  0.19586983184E+04  0.00000000000E+00 0. -1.
         -1   -1    0    0    0  501 -0.00000000000E+00 -0.00000000000E+00 -0.82312602021E+03  0.82312602021E+03  0.00000000000E+00 0.  1.
         23    2    1    2    0    0 -0.87976231911E+03  0.80707678957E+03  0.10364759841E+04  0.15838365416E+04  0.94345335385E+02 0.  0.
         11    1    3    3    0    0 -0.48152602919E+03  0.40020178675E+03  0.49539383239E+03  0.79840079915E+03  0.00000000000E+00 0. -1.
        -11    1    3    3    0    0 -0.39823628992E+03  0.40687500282E+03  0.54108215173E+03  0.78543574241E+03  0.00000000000E+00 0.  1.
         22    1    1    2    0    0  0.87976231911E+03 -0.80707678957E+03  0.99096314044E+02  0.11979877970E+04  0.00000000000E+00 0. -1.
<mgrwt>
<rscale>  0 0.25394925E+04</rscale>
<asrwt>0</asrwt>
<pdfrwt beam="1">  1        1 0.30133820E+00 0.25394925E+04</pdfrwt>
<pdfrwt beam="2">  1       -1 0.12663477E+00 0.25394925E+04</pdfrwt>
<totfact> 0.15244487E+00</totfact>
</mgrwt>
</event>
<event>
 6    1  0.1528034E-005  0.2740956E+04  0.7818608E-02  0.8321837E-01
         -2   -1    0    0    0  501 -0.00000000000E+00  0.00000000000E+00  0.20220778850E+04  0.20220778850E+04  0.00000000000E+00 0.  1.
          2   -1    0    0  501    0  0.00000000000E+00 -0.00000000000E+00 -0.92885166886E+03  0.92885166886E+03  0.00000000000E+00 0. -1.
         23    2    1    2    0    0 -0.68114642729E+03 -0.11778429836E+04  0.70952813054E+03  0.15372468559E+04  0.91777876789E+02 0.  0.
         11    1    3    3    0    0 -0.44752312368E+03 -0.83977284527E+03  0.46578046858E+03  0.10594559088E+04  0.00000000000E+00 0. -1.
        -11    1    3    3    0    0 -0.23362330361E+03 -0.33807013834E+03  0.24374766196E+03  0.47779094711E+03  0.00000000000E+00 0.  1.
         22    1    1    2    0    0  0.68114642729E+03  0.11778429836E+04  0.38369808558E+03  0.14136826979E+04  0.00000000000E+00 0.  1.
<mgrwt>
<rscale>  0 0.27409563E+04</rscale>
<asrwt>0</asrwt>
<pdfrwt beam="1">  1        2 0.14290026E+00 0.27409563E+04</pdfrwt>
<pdfrwt beam="2">  1       -2 0.31108890E+00 0.27409563E+04</pdfrwt>
<totfact> 0.66624555E-01</totfact>
</mgrwt>
</event>
<event>
 6    1  0.1528034E-005  0.1456646E+04  0.7818608E-02  0.8913806E-01
         -2   -1    0    0    0  501 -0.00000000000E+00  0.00000000000E+00  0.16735947674E+03  0.16735947674E+03  0.00000000000E+00 0.  1.
          2   -1    0    0  501    0  0.00000000000E+00 -0.00000000000E+00 -0.31695529923E+04  0.31695529923E+04  0.00000000000E+00 0. -1.
         23    2    1    2    0    0 -0.59259015220E+03 -0.12007435676E+03 -0.24253085388E+04  0.25012228041E+04  0.91722777306E+02 0.  0.
         11    1    3    3    0    0 -0.13515297643E+03 -0.54709995950E+02 -0.47231951641E+03  0.49431289309E+03  0.00000000000E+00 0.  1.
        -11    1    3    3    0    0 -0.45743717577E+03 -0.65364360811E+02 -0.19529890224E+04  0.20069099110E+04  0.00000000000E+00 0. -1.
         22    1    1    2    0    0  0.59259015220E+03  0.12007435676E+03 -0.57688497679E+03  0.83568966494E+03  0.00000000000E+00 0.  1.
<mgrwt>
<rscale>  0 0.14566465E+04</rscale>
<asrwt>0</asrwt>
<pdfrwt beam="1">  1        2 0.48762349E+00 0.14566465E+04</pdfrwt>
<pdfrwt beam="2">  1       -2 0.25747614E-01 0.14566465E+04</pdfrwt>
<totfact> 0.18074275E+01</totfact>
</mgrwt>
</event>
<event>
 6    1  0.1528034E-005  0.1313977E+04  0.7818608E-02  0.9018554E-01
         -1   -1    0    0    0  501 -0.00000000000E+00  0.00000000000E+00  0.43759512937E+03  0.43759512937E+03  0.00000000000E+00 0.  1.
          1   -1    0    0  501    0  0.00000000000E+00 -0.00000000000E+00 -0.98637729268E+03  0.98637729268E+03  0.00000000000E+00 0. -1.
         23    2    1    2    0    0  0.40325309061E+03  0.42131828897E+03  0.44392768204E+02  0.59211987797E+03  0.92266333632E+02 0.  0.
         13    1    3    3    0    0  0.16415036278E+03  0.23655740193E+03  0.31873813291E+02  0.28969067293E+03  0.00000000000E+00 0.  1.
        -13    1    3    3    0    0  0.23910272782E+03  0.18476088704E+03  0.12518954913E+02  0.30242920504E+03  0.00000000000E+00 0. -1.
         22    1    1    2    0    0 -0.40325309061E+03 -0.42131828897E+03 -0.59317493151E+03  0.83185254407E+03  0.00000000000E+00 0. -1.
<mgrwt>
<rscale>  0 0.13139770E+04</rscale>
<asrwt>0</asrwt>
<pdfrwt beam="1">  1        1 0.15175035E+00 0.13139770E+04</pdfrwt>
<pdfrwt beam="2">  1       -1 0.67322328E-01 0.13139770E+04</pdfrwt>
<totfact> 0.34020768E+01</totfact>
</mgrwt>
</event>
<event>
 6    1  0.1528034E-005  0.2051732E+04  0.7818608E-02  0.8582809E-01
         -2   -1    0    0    0  501 -0.00000000000E+00  0.00000000000E+00  0.36045968335E+03  0.36045968335E+03  0.00000000000E+00 0.  1.
          2   -1    0    0  501    0  0.00000000000E+00 -0.00000000000E+00 -0.29196087966E+04  0.29196087966E+04  0.00000000000E+00 0. -1.
         23    2    1    2    0    0  0.51480183107E+03 -0.40386470361E+03 -0.23605333666E+02  0.66146009337E+03  0.94045835906E+02 0.  0.
         11    1    3    3    0    0  0.36416325229E+03 -0.25728809821E+03 -0.53808982997E+02  0.44911852161E+03  0.00000000000E+00 0.  1.
        -11    1    3    3    0    0  0.15063857878E+03 -0.14657660539E+03  0.30203649330E+02  0.21234157176E+03  0.00000000000E+00 0. -1.
         22    1    1    2    0    0 -0.51480183107E+03  0.40386470361E+03 -0.25355437796E+04  0.26186083866E+04  0.00000000000E+00 0. -1.
<mgrwt>
<rscale>  0 0.20517322E+04</rscale>
<asrwt>0</asrwt>
<pdfrwt beam="1">  1        2 0.44917058E+00 0.20517322E+04</pdfrwt>
<pdfrwt beam="2">  1       -2 0.55455337E-01 0.20517322E+04</pdfrwt>
<totfact> 0.55338164E+00</totfact>
</mgrwt>
</event>
<event>
 6    1  0.1528034E-005  0.5779544E+04  0.7818608E-02  0.7718353E-01
          1   -1    0    0  501    0  0.00000000000E+00  0.00000000000E+00  0.29043692737E+04  0.29043692737E+04  0.00000000000E+00 0. -1.
         -1   -1    0    0    0  501 -0.00000000000E+00 -0.00000000000E+00 -0.28752482479E+04  0.28752482479E+04  0.00000000000E+00 0.  1.
         23    2    1    2    0    0  0.20516775075E+02  0.23415578156E+04 -0.16775861295E+04  0.28820041491E+04  0.91316765390E+02 0.  0.
         11    1    3    3    0    0  0.26305190516E+02  0.18676443218E+04 -0.12939093133E+04  0.22722210691E+04  0.00000000000E+00 0. -1.
        -11    1    3    3    0    0 -0.57884154409E+01  0.47391349383E+03 -0.38367681625E+03  0.60978308005E+03  0.00000000000E+00 0.  1.
         22    1    1    2    0    0 -0.20516775075E+02 -0.23415578156E+04  0.17067071554E+04  0.28976133724E+04  0.00000000000E+00 0. -1.
<mgrwt>
<rscale>  0 0.57795442E+04</rscale>
<asrwt>0</asrwt>
<pdfrwt beam="1">  1        1 0.44682604E+00 0.57795442E+04</pdfrwt>
<pdfrwt beam="2">  1       -1 0.44234588E+00 0.57795442E+04</pdfrwt>
<totfact> 0.17464781E-03</totfact>
</mgrwt>
</event>
<event>
 6    1  0.1708290E-005  0.3864215E+04  0.7818608E-02  0.8032513E-01
         -2   -1    0    0    0  501 -0.00000000000E+00  0.00000000000E+00  0.22445317628E+04  0.22445317628E+04  0.00000000000E+00 0.  1.
          2   -1    0    0  501    0  0.00000000000E+00 -0.00000000000E+00 -0.16631704715E+04  0.16631704715E+04  0.00000000000E+00 0. -1.
         23    2    1    2    0    0  0.71753559105E+03 -0.40817426212E+03 -0.14744652360E+04  0.16923272630E+04  0.91979781308E+02 0.  0.
         11    1    3    3    0    0  0.16744389123E+03 -0.53831367263E+02 -0.33404745828E+03  0.37752215457E+03  0.00000000000E+00 0. -1.
        -11    1    3    3    0    0  0.55009169982E+03 -0.35434289485E+03 -0.11404177777E+04  0.13148051084E+04  0.00000000000E+00 0.  1.
         22    1    1    2    0    0 -0.71753559105E+03  0.40817426212E+03  0.20558265274E+04  0.22153749712E+04  0.00000000000E+00 0.  1.
<mgrwt>
<rscale>  0 0.38642148E+04</rscale>
<asrwt>0</asrwt>
<pdfrwt beam="1">  1        2 0.25587238E+00 0.38642148E+04</pdfrwt>
<pdfrwt beam="2">  1       -2 0.34531258E+00 0.38642148E+04</pdfrwt>
<totfact> 0.13651954E-01</totfact>
</mgrwt>
</event>
<event>
 6    1  0.1528034E-005  0.2596094E+04  0.7818608E-02  0.8369529E-01
          1   -1    0    0  501    0  0.00000000000E+00  0.00000000000E+00  0.32369072948E+04  0.32369072948E+04  0.00000000000E+00 0. -1.
         -1   -1    0    0    0  501 -0.00000000000E+00 -0.00000000000E+00 -0.52053572385E+03  0.52053572385E+03  0.00000000000E+00 0.  1.
         23    2    1    2    0    0 -0.65038172379E+03  0.11024827130E+04  0.10626484466E+04  0.16662078116E+04  0.92532325026E+02 0.  0.
         13    1    3    3    0    0 -0.33207907875E+03  0.65154711962E+03  0.59465363585E+03  0.94255138335E+03  0.00000000000E+00 0. -1.
        -13    1    3    3    0    0 -0.31830264504E+03  0.45093559341E+03  0.46799481073E+03  0.72365642823E+03  0.00000000000E+00 0.  1.
         22    1    1    2    0    0  0.65038172379E+03 -0.11024827130E+04  0.16537231243E+04  0.20912352070E+04  0.00000000000E+00 0.  1.
<mgrwt>
<rscale>  0 0.25960939E+04</rscale>
<asrwt>0</asrwt>
<pdfrwt beam="1">  1        1 0.49798572E+00 0.25960939E+04</pdfrwt>
<pdfrwt beam="2">  1       -1 0.80082421E-01 0.25960939E+04</pdfrwt>
<totfact> 0.54679107E-01</totfact>
</mgrwt>
</event>
<event>
 6    1  0.1528034E-005  0.2555019E+04  0.7818608E-02  0.8383643E-01
          2   -1    0    0  501    0  0.00000000000E+00  0.00000000000E+00  0.16283691756E+04  0.16283691756E+04  0.00000000000E+00 0. -1.
         -2   -1    0    0    0  501 -0.00000000000E+00 -0.00000000000E+00 -0.10022482432E+04  0.10022482432E+04  0.00000000000E+00 0.  1.
         23    2    1    2    0    0 -0.45821767766E+03 -0.39336419668E+03 -0.84374210721E+03  0.10415308301E+04  0.90481462841E+02 0.  0.
         13    1    3    3    0    0 -0.29595123525E+03 -0.19896517308E+03 -0.51957979136E+03  0.63018841098E+03  0.00000000000E+00 0. -1.
        -13    1    3    3    0    0 -0.16226644241E+03 -0.19439902360E+03 -0.32416231585E+03  0.41134241907E+03  0.00000000000E+00 0.  1.
         22    1    1    2    0    0  0.45821767766E+03  0.39336419668E+03  0.14698630396E+04  0.15890865887E+04  0.00000000000E+00 0. -1.
<mgrwt>
<rscale>  0 0.25550187E+04</rscale>
<asrwt>0</asrwt>
<pdfrwt beam="1">  1        2 0.25051833E+00 0.25550187E+04</pdfrwt>
<pdfrwt beam="2">  1       -2 0.15419204E+00 0.25550187E+04</pdfrwt>
<totfact> 0.26579965E+00</totfact>
</mgrwt>
</event>
<event>
 6    1  0.1528034E-005  0.1781273E+04  0.7818608E-02  0.8716322E-01
         -1   -1    0    0    0  501 -0.00000000000E+00  0.00000000000E+00  0.14014193270E+04  0.14014193270E+04  0.00000000000E+00 0.  1.
          1   -1    0    0  501    0  0.00000000000E+00 -0.00000000000E+00 -0.56602173815E+03  0.56602173815E+03  0.00000000000E+00 0. -1.
         23    2    1    2    0    0  0.85729983569E+02  0.23615269420E+03 -0.52173073490E+03  0.58725447914E+03  0.97709459467E+02 0.  0.
         13    1    3    3    0    0  0.34865395774E+02  0.20858140382E+03 -0.39938274860E+03  0.45191633929E+03  0.00000000000E+00 0. -1.
        -13    1    3    3    0    0  0.50864587795E+02  0.27571290375E+02 -0.12234798630E+03  0.13533813984E+03  0.00000000000E+00 0.  1.
         22    1    1    2    0    0 -0.85729983569E+02 -0.23615269420E+03  0.13571283237E+04  0.13801865860E+04  0.00000000000E+00 0.  1.
<mgrwt>
<rscale>  0 0.17812735E+04</rscale>
<asrwt>0</asrwt>
<pdfrwt beam="1">  1        1 0.87080268E-01 0.17812735E+04</pdfrwt>
<pdfrwt beam="2">  1       -1 0.21560297E+00 0.17812735E+04</pdfrwt>
<totfact> 0.41456353E+00</totfact>
</mgrwt>
</event>
<event>
 6    1  0.1528034E-005  0.4619930E+04  0.7818608E-02  0.7889971E-01
          2   -1    0    0  501    0  0.00000000000E+00  0.00000000000E+00  0.35182027900E+04  0.35182027900E+04  0.00000000000E+00 0. -1.
         -2   -1    0    0    0  501 -0.00000000000E+00 -0.00000000000E+00 -0.15166659872E+04  0.15166659872E+04  0.00000000000E+00 0.  1.
         23    2    1    2    0    0 -0.39622072444E+03  0.12696975199E+04 -0.10560392136E+04  0.17005182031E+04  0.86143391914E+02 0.  0.
         11    1    3    3    0    0 -0.14799839631E+03  0.57522403388E+03 -0.43232627073E+03  0.73463747442E+03  0.00000000000E+00 0. -1.
        -11    1    3    3    0    0 -0.24822232814E+03  0.69447348604E+03 -0.62371294288E+03  0.96588072872E+03  0.00000000000E+00 0.  1.
         22    1    1    2    0    0  0.39622072444E+03 -0.12696975199E+04  0.30575760165E+04  0.33343505741E+04  0.00000000000E+00 0. -1.
<mgrwt>
<rscale>  0 0.46199301E+04</rscale>
<asrwt>0</asrwt>
<pdfrwt beam="1">  1        2 0.54126196E+00 0.46199301E+04</pdfrwt>
<pdfrwt beam="2">  1       -2 0.23333323E+00 0.46199301E+04</pdfrwt>
<totfact> 0.48177854E-02</totfact>
</mgrwt>
</event>
<event>
 6    1  0.1528034E-005  0.3069255E+04  0.7818608E-02  0.8224227E-01
          2   -1    0    0  501    0  0.00000000000E+00  0.00000000000E+00  0.31107441811E+04  0.31107441811E+04  0.00000000000E+00 0. -1.
         -2   -1    0    0    0  501 -0.00000000000E+00 -0.00000000000E+00 -0.75707970738E+03  0.75707970738E+03  0.00000000000E+00 0.  1.
         23    2    1    2    0    0 -0.13545663981E+04 -0.42800042546E+03  0.45089660695E+03  0.14932586555E+04  0.92082413608E+02 0.  0.
         11    1    3    3    0    0 -0.11283818643E+04 -0.38577826959E+03  0.35757154256E+03  0.12449610086E+04  0.00000000000E+00 0.  1.
        -11    1    3    3    0    0 -0.22618453383E+03 -0.42222155863E+02  0.93325064384E+02  0.24829764685E+03  0.00000000000E+00 0. -1.
         22    1    1    2    0    0  0.13545663981E+04  0.42800042546E+03  0.19027678668E+04  0.23745652330E+04  0.00000000000E+00 0. -1.
<mgrwt>
<rscale>  0 0.30692548E+04</rscale>
<asrwt>0</asrwt>
<pdfrwt beam="1">  1        2 0.47857602E+00 0.30692548E+04</pdfrwt>
<pdfrwt beam="2">  1       -2 0.11647380E+00 0.30692548E+04</pdfrwt>
<totfact> 0.72005906E-01</totfact>
</mgrwt>
</event>
<event>
 6    1  0.1528034E-005  0.1916419E+04  0.7818608E-02  0.8646727E-01
         -2   -1    0    0    0  501 -0.00000000000E+00  0.00000000000E+00  0.92189807519E+03  0.92189807519E+03  0.00000000000E+00 0.  1.
          2   -1    0    0  501    0  0.00000000000E+00 -0.00000000000E+00 -0.99595084383E+03  0.99595084383E+03  0.00000000000E+00 0. -1.
         23    2    1    2    0    0 -0.66854789964E+03  0.54538717193E+03  0.37552929080E+03  0.94495247561E+03  0.86657206746E+02 0.  0.
         11    1    3    3    0    0 -0.44972693967E+03  0.36276060903E+03  0.20653845684E+03  0.61360224403E+03  0.00000000000E+00 0.  1.
        -11    1    3    3    0    0 -0.21882095997E+03  0.18262656290E+03  0.16899083396E+03  0.33135023157E+03  0.00000000000E+00 0. -1.
         22    1    1    2    0    0  0.66854789964E+03 -0.54538717193E+03 -0.44958205944E+03  0.97289644341E+03  0.00000000000E+00 0. -1.
<mgrwt>
<rscale>  0 0.19164187E+04</rscale>
<asrwt>0</asrwt>
<pdfrwt beam="1">  1        2 0.15322321E+00 0.19164187E+04</pdfrwt>
<pdfrwt beam="2">  1       -2 0.14183047E+00 0.19164187E+04</pdfrwt>
<totfact> 0.82287425E+00</totfact>
</mgrwt>
</event>
<event>
 6    1  0.1528034E-005  0.7588559E+04  0.7818608E-02  0.7519606E-01
         -1   -1    0    0    0  501 -0.00000000000E+00  0.00000000000E+00  0.52819445963E+04  0.52819445963E+04  0.00000000000E+00 0.  1.
          1   -1    0    0  501    0  0.00000000000E+00 -0.00000000000E+00 -0.27256169590E+04  0.27256169590E+04  0.00000000000E+00 0. -1.
         23    2    1    2    0    0  0.26176837286E+04  0.12792229858E+03 -0.16159878221E+04  0.30804073553E+04  0.94130844353E+02 0.  0.
         13    1    3    3    0    0  0.11205619323E+04  0.11583158276E+02 -0.71124608115E+03  0.13272769875E+04  0.00000000000E+00 0. -1.
        -13    1    3    3    0    0  0.14971217963E+04  0.11633914030E+03 -0.90474174099E+03  0.17531303678E+04  0.00000000000E+00 0.  1.
         22    1    1    2    0    0 -0.26176837286E+04 -0.12792229858E+03  0.41723154595E+04  0.49271542000E+04  0.00000000000E+00 0.  1.
<mgrwt>
<rscale>  0 0.75885592E+04</rscale>
<asrwt>0</asrwt>
<pdfrwt beam="1">  1        1 0.41932569E+00 0.75885592E+04</pdfrwt>
<pdfrwt beam="2">  1       -1 0.81260685E+00 0.75885592E+04</pdfrwt>
<totfact> 0.32605827E-05</totfact>
</mgrwt>
</event>
<event>
 6    1  0.1528034E-005  0.1116056E+04  0.7818608E-02  0.9189682E-01
          2   -1    0    0  501    0  0.00000000000E+00  0.00000000000E+00  0.21907063496E+04  0.21907063496E+04  0.00000000000E+00 0.  1.
         -2   -1    0    0    0  501 -0.00000000000E+00 -0.00000000000E+00 -0.14214386647E+03  0.14214386647E+03  0.00000000000E+00 0. -1.
         23    2    1    2    0    0 -0.67748178326E+02 -0.34382125732E+03  0.19288482738E+04  0.19625336426E+04  0.90993200517E+02 0.  0.
         11    1    3    3    0    0 -0.88159351685E+02 -0.23086238855E+03  0.12911479613E+04  0.13145845624E+04  0.00000000000E+00 0.  1.
        -11    1    3    3    0    0  0.20411173359E+02 -0.11295886878E+03  0.63770031247E+03  0.64794908022E+03  0.00000000000E+00 0. -1.
         22    1    1    2    0    0  0.67748178326E+02  0.34382125732E+03  0.11971420938E+03  0.37031657346E+03  0.00000000000E+00 0. -1.
<mgrwt>
<rscale>  0 0.11160564E+04</rscale>
<asrwt>0</asrwt>
<pdfrwt beam="1">  1        2 0.33703172E+00 0.11160564E+04</pdfrwt>
<pdfrwt beam="2">  1       -2 0.21868289E-01 0.11160564E+04</pdfrwt>
<totfact> 0.94989650E+01</totfact>
</mgrwt>
</event>
<event>
 6    1  0.1528034E-005  0.1812190E+04  0.7818608E-02  0.8699844E-01
         -2   -1    0    0    0  501 -0.00000000000E+00  0.00000000000E+00  0.78165604834E+03  0.78165604834E+03  0.00000000000E+00 0. -1.
          2   -1    0    0  501    0  0.00000000000E+00 -0.00000000000E+00 -0.10503443455E+04  0.10503443455E+04  0.00000000000E+00 0.  1.
         23    2    1    2    0    0 -0.31921027997E+03 -0.72364746166E+03  0.30755465913E+03  0.85342142600E+03  0.90429035197E+02 0.  0.
         11    1    3    3    0    0 -0.24055665701E+03 -0.53061800843E+03  0.26790168601E+03  0.64124432900E+03  0.00000000000E+00 0.  1.
        -11    1    3    3    0    0 -0.78653622956E+02 -0.19302945322E+03  0.39652973128E+02  0.21217709701E+03  0.00000000000E+00 0. -1.
         22    1    1    2    0    0  0.31921027997E+03  0.72364746166E+03 -0.57624295626E+03  0.97857896781E+03  0.00000000000E+00 0.  1.
<mgrwt>
<rscale>  0 0.18121898E+04</rscale>
<asrwt>0</asrwt>
<pdfrwt beam="1">  1        2 0.16159144E+00 0.18121898E+04</pdfrwt>
<pdfrwt beam="2">  1       -2 0.12025478E+00 0.18121898E+04</pdfrwt>
<totfact> 0.11656835E+01</totfact>
</mgrwt>
</event>
<event>
 6    1  0.1528034E-005  0.1507460E+04  0.7818608E-02  0.8879507E-01
         -1   -1    0    0    0  501 -0.00000000000E+00  0.00000000000E+00  0.15134012727E+03  0.15134012727E+03  0.00000000000E+00 0.  1.
          1   -1    0    0  501    0  0.00000000000E+00 -0.00000000000E+00 -0.37538562841E+04  0.37538562841E+04  0.00000000000E+00 0. -1.
         23    2    1    2    0    0  0.50684742396E+03  0.53550304211E+03 -0.21770633133E+04  0.23003370317E+04  0.91038289660E+02 0.  0.
         13    1    3    3    0    0  0.37543343109E+02  0.76044059890E+02 -0.20775636441E+03  0.22439899422E+03  0.00000000000E+00 0.  1.
        -13    1    3    3    0    0  0.46930408085E+03  0.45945898222E+03 -0.19693069489E+04  0.20759380375E+04  0.00000000000E+00 0. -1.
         22    1    1    2    0    0 -0.50684742396E+03 -0.53550304211E+03 -0.14254528436E+04  0.16048593797E+04  0.00000000000E+00 0.  1.
<mgrwt>
<rscale>  0 0.15074602E+04</rscale>
<asrwt>0</asrwt>
<pdfrwt beam="1">  1        1 0.57751640E+00 0.15074602E+04</pdfrwt>
<pdfrwt beam="2">  1       -1 0.23283095E-01 0.15074602E+04</pdfrwt>
<totfact> 0.24183957E+00</totfact>
</mgrwt>
</event>
<event>
 6    1  0.1528034E-005  0.2459424E+04  0.7818608E-02  0.8417585E-01
         -2   -1    0    0    0  501 -0.00000000000E+00  0.00000000000E+00  0.40490852466E+03  0.40490852466E+03  0.00000000000E+00 0.  1.
          2   -1    0    0  501    0  0.00000000000E+00 -0.00000000000E+00 -0.37346492618E+04  0.37346492618E+04  0.00000000000E+00 0. -1.
         23    2    1    2    0    0 -0.21220463548E+03  0.52929807046E+03 -0.34977523549E+04  0.35450704793E+04  0.89810426101E+02 0.  0.
         11    1    3    3    0    0 -0.31438940826E+02  0.50055386953E+02 -0.54798702370E+03  0.55116578895E+03  0.00000000000E+00 0. -1.
        -11    1    3    3    0    0 -0.18076569465E+03  0.47924268351E+03 -0.29497653312E+04  0.29939046904E+04  0.00000000000E+00 0.  1.
         22    1    1    2    0    0  0.21220463548E+03 -0.52929807046E+03  0.16801161769E+03  0.59448730717E+03  0.00000000000E+00 0.  1.
<mgrwt>
<rscale>  0 0.24594238E+04</rscale>
<asrwt>0</asrwt>
<pdfrwt beam="1">  1        2 0.57456147E+00 0.24594238E+04</pdfrwt>
<pdfrwt beam="2">  1       -2 0.62293614E-01 0.24594238E+04</pdfrwt>
<totfact> 0.11802230E+00</totfact>
</mgrwt>
</event>
<event>
 6    1  0.1528034E-005  0.1432862E+04  0.7818608E-02  0.8930369E-01
         -1   -1    0    0    0  501 -0.00000000000E+00  0.00000000000E+00  0.57285415010E+03  0.57285415010E+03  0.00000000000E+00 0.  1.
          1   -1    0    0  501    0  0.00000000000E+00 -0.00000000000E+00 -0.89599309279E+03  0.89599309279E+03  0.00000000000E+00 0. -1.
         23    2    1    2    0    0  0.43086536046E+03 -0.54755059784E+03 -0.38411845591E+01  0.70242198601E+03  0.89024017506E+02 0.  0.
         11    1    3    3    0    0  0.31334795528E+03 -0.45468015893E+03 -0.13102046689E+02  0.55235192733E+03  0.00000000000E+00 0. -1.
        -11    1    3    3    0    0  0.11751740518E+03 -0.92870438909E+02  0.92608621302E+01  0.15007005868E+03  0.00000000000E+00 0.  1.
         22    1    1    2    0    0 -0.43086536046E+03  0.54755059784E+03 -0.31929775813E+03  0.76642525688E+03  0.00000000000E+00 0. -1.
<mgrwt>
<rscale>  0 0.14328620E+04</rscale>
<asrwt>0</asrwt>
<pdfrwt beam="1">  1        1 0.13784509E+00 0.14328620E+04</pdfrwt>
<pdfrwt beam="2">  1       -1 0.88131407E-01 0.14328620E+04</pdfrwt>
<totfact> 0.22566505E+01</totfact>
</mgrwt>
</event>
<event>
 6    1  0.1528034E-005  0.3602126E+04  0.7818608E-02  0.8090005E-01
         -1   -1    0    0    0  501 -0.00000000000E+00  0.00000000000E+00  0.45164135652E+04  0.45164135652E+04  0.00000000000E+00 0.  1.
          1   -1    0    0  501    0  0.00000000000E+00 -0.00000000000E+00 -0.71823089748E+03  0.71823089748E+03  0.00000000000E+00 0. -1.
         23    2    1    2    0    0  0.41112622900E+03  0.32847131574E+02  0.44463548822E+04  0.44663795802E+04  0.91493747794E+02 0.  0.
         13    1    3    3    0    0  0.34119009710E+03  0.60122849836E+02  0.37627443668E+04  0.37786598959E+04  0.00000000000E+00 0.  1.
        -13    1    3    3    0    0  0.69936131897E+02 -0.27275718262E+02  0.68361051539E+03  0.68771968425E+03  0.00000000000E+00 0. -1.
         22    1    1    2    0    0 -0.41112622900E+03 -0.32847131574E+02 -0.64817221441E+03  0.76826488254E+03  0.00000000000E+00 0. -1.
<mgrwt>
<rscale>  0 0.36021259E+04</rscale>
<asrwt>0</asrwt>
<pdfrwt beam="1">  1        1 0.11049706E+00 0.36021259E+04</pdfrwt>
<pdfrwt beam="2">  1       -1 0.69483284E+00 0.36021259E+04</pdfrwt>
<totfact> 0.44052889E-03</totfact>
</mgrwt>
</event>
<event>
 6    1  0.1528034E-005  0.1802665E+04  0.7818608E-02  0.8704883E-01
         -3   -1    0    0    0  501 -0.00000000000E+00  0.00000000000E+00  0.36394232915E+03  0.36394232915E+03  0.00000000000E+00 0.  1.
          3   -1    0    0  501    0  0.00000000000E+00 -0.00000000000E+00 -0.22322229879E+04  0.22322229879E+04  0.00000000000E+00 0. -1.
         23    2    1    2    0    0  0.27832667553E+03 -0.82859840737E+03 -0.63380558896E+03  0.10835616819E+04  0.91407521432E+02 0.  0.
         11    1    3    3    0    0  0.16650980504E+03 -0.61709671184E+03 -0.44553219334E+03  0.77912309826E+03  0.00000000000E+00 0.  1.
        -11    1    3    3    0    0  0.11181687049E+03 -0.21150169552E+03 -0.18827339562E+03  0.30443858368E+03  0.00000000000E+00 0. -1.
         22    1    1    2    0    0 -0.27832667553E+03  0.82859840737E+03 -0.12344750698E+04  0.15126036351E+04  0.00000000000E+00 0. -1.
<mgrwt>
<rscale>  0 0.18026652E+04</rscale>
<asrwt>0</asrwt>
<pdfrwt beam="1">  1        3 0.34341892E+00 0.18026652E+04</pdfrwt>
<pdfrwt beam="2">  1       -3 0.55991128E-01 0.18026652E+04</pdfrwt>
<totfact> 0.17421971E-01</totfact>
</mgrwt>
</event>
<event>
 6    1  0.1528034E-005  0.2632047E+04  0.7818608E-02  0.8357396E-01
          1   -1    0    0  501    0  0.00000000000E+00  0.00000000000E+00  0.10428107674E+04  0.10428107674E+04  0.00000000000E+00 0. -1.
         -1   -1    0    0    0  501 -0.00000000000E+00 -0.00000000000E+00 -0.16608169361E+04  0.16608169361E+04  0.00000000000E+00 0.  1.
         23    2    1    2    0    0  0.71126734726E+03  0.80407917586E+03 -0.10885873602E+04  0.15314966450E+04  0.89526379941E+02 0.  0.
         11    1    3    3    0    0  0.96143236134E+02  0.15390990607E+03 -0.16281859127E+03  0.24380663384E+03  0.00000000000E+00 0. -1.
        -11    1    3    3    0    0  0.61512411112E+03  0.65016926979E+03 -0.92576876890E+03  0.12876900112E+04  0.00000000000E+00 0.  1.
         22    1    1    2    0    0 -0.71126734726E+03 -0.80407917586E+03  0.47058119147E+03  0.11721310584E+04  0.00000000000E+00 0. -1.
<mgrwt>
<rscale>  0 0.26320469E+04</rscale>
<asrwt>0</asrwt>
<pdfrwt beam="1">  1        1 0.16043243E+00 0.26320469E+04</pdfrwt>
<pdfrwt beam="2">  1       -1 0.25551030E+00 0.26320469E+04</pdfrwt>
<totfact> 0.79003110E-01</totfact>
</mgrwt>
</event>
<event>
 6    1  0.1528034E-005  0.2080247E+04  0.7818608E-02  0.8569995E-01
          1   -1    0    0  501    0  0.00000000000E+00  0.00000000000E+00  0.97612407598E+03  0.97612407598E+03  0.00000000000E+00 0. -1.
         -1   -1    0    0    0  501 -0.00000000000E+00 -0.00000000000E+00 -0.11083192458E+04  0.11083192458E+04  0.00000000000E+00 0.  1.
         23    2    1    2    0    0 -0.23792781759E+03  0.44861721014E+03 -0.97351632860E+03  0.11017488933E+04  0.90826946395E+02 0.  0.
         11    1    3    3    0    0 -0.15088828100E+03  0.35723108276E+03 -0.77309336722E+03  0.86490154022E+03  0.00000000000E+00 0.  1.
        -11    1    3    3    0    0 -0.87039536591E+02  0.91386127383E+02 -0.20042296138E+03  0.23684735307E+03  0.00000000000E+00 0. -1.
         22    1    1    2    0    0  0.23792781759E+03 -0.44861721014E+03  0.84132115877E+03  0.98269442850E+03  0.00000000000E+00 0. -1.
<mgrwt>
<rscale>  0 0.20802472E+04</rscale>
<asrwt>0</asrwt>
<pdfrwt beam="1">  1        1 0.15017293E+00 0.20802472E+04</pdfrwt>
<pdfrwt beam="2">  1       -1 0.17051065E+00 0.20802472E+04</pdfrwt>
<totfact> 0.35508855E+00</totfact>
</mgrwt>
</event>
<event>
 6    1  0.1528034E-005  0.9478770E+03  0.7818608E-02  0.9367636E-01
          2   -1    0    0  501    0  0.00000000000E+00  0.00000000000E+00  0.26216307186E+03  0.26216307186E+03  0.00000000000E+00 0. -1.
         -2   -1    0    0    0  501 -0.00000000000E+00 -0.00000000000E+00 -0.85678613353E+03  0.85678613353E+03  0.00000000000E+00 0.  1.
         23    2    1    2    0    0  0.28626067748E+03 -0.22078153818E+03 -0.65362728851E+03  0.75265538636E+03  0.92584206307E+02 0.  0.
         13    1    3    3    0    0  0.81826917723E+02 -0.97433539704E+02 -0.30112270354E+03  0.32690032382E+03  0.00000000000E+00 0. -1.
        -13    1    3    3    0    0  0.20443375976E+03 -0.12334799848E+03 -0.35250458497E+03  0.42575506254E+03  0.00000000000E+00 0.  1.
         22    1    1    2    0    0 -0.28626067748E+03  0.22078153818E+03  0.59004226843E+02  0.36629381903E+03  0.00000000000E+00 0. -1.
<mgrwt>
<rscale>  0 0.94787696E+03</rscale>
<asrwt>0</asrwt>
<pdfrwt beam="1">  1        2 0.40332781E-01 0.94787696E+03</pdfrwt>
<pdfrwt beam="2">  1       -2 0.13181325E+00 0.94787696E+03</pdfrwt>
<totfact> 0.53528082E+01</totfact>
</mgrwt>
</event>
<event>
 6    1  0.1528034E-005  0.2512219E+04  0.7818608E-02  0.8398645E-01
          1   -1    0    0  501    0  0.00000000000E+00  0.00000000000E+00  0.27513028847E+04  0.27513028847E+04  0.00000000000E+00 0. -1.
         -1   -1    0    0    0  501 -0.00000000000E+00 -0.00000000000E+00 -0.57347766852E+03  0.57347766852E+03  0.00000000000E+00 0.  1.
         23    2    1    2    0    0  0.71155715547E+03  0.10246243553E+04  0.12645769391E+04  0.17787562744E+04  0.93007493490E+02 0.  0.
         13    1    3    3    0    0  0.33011136224E+03  0.50301690154E+03  0.54767428505E+03  0.81360103074E+03  0.00000000000E+00 0.  1.
        -13    1    3    3    0    0  0.38144579323E+03  0.52160745381E+03  0.71690265401E+03  0.96515524366E+03  0.00000000000E+00 0. -1.
         22    1    1    2    0    0 -0.71155715547E+03 -0.10246243553E+04  0.91324827714E+03  0.15460242788E+04  0.00000000000E+00 0.  1.
<mgrwt>
<rscale>  0 0.25122188E+04</rscale>
<asrwt>0</asrwt>
<pdfrwt beam="1">  1        1 0.42327736E+00 0.25122188E+04</pdfrwt>
<pdfrwt beam="2">  1       -1 0.88227335E-01 0.25122188E+04</pdfrwt>
<totfact> 0.10107228E+00</totfact>
</mgrwt>
</event>
<event>
 6    1  0.1528034E-005  0.2674787E+04  0.7818608E-02  0.8343232E-01
          1   -1    0    0  501    0  0.00000000000E+00  0.00000000000E+00  0.88218770960E+03  0.88218770960E+03  0.00000000000E+00 0. -1.
         -1   -1    0    0    0  501 -0.00000000000E+00 -0.00000000000E+00 -0.20274844468E+04  0.20274844468E+04  0.00000000000E+00 0.  1.
         23    2    1    2    0    0 -0.11762549344E+04  0.25322746533E+03 -0.12045245251E+04  0.17050113117E+04  0.92110920169E+02 0.  0.
         13    1    3    3    0    0 -0.10702475948E+04  0.24434486022E+03 -0.11276518773E+04  0.15737639852E+04  0.00000000000E+00 0.  1.
        -13    1    3    3    0    0 -0.10600733966E+03  0.88826051070E+01 -0.76872647793E+02  0.13124732650E+03  0.00000000000E+00 0. -1.
         22    1    1    2    0    0  0.11762549344E+04 -0.25322746533E+03  0.59227787833E+02  0.12046608447E+04  0.00000000000E+00 0. -1.
<mgrwt>
<rscale>  0 0.26747874E+04</rscale>
<asrwt>0</asrwt>
<pdfrwt beam="1">  1        1 0.13572119E+00 0.26747874E+04</pdfrwt>
<pdfrwt beam="2">  1       -1 0.31192068E+00 0.26747874E+04</pdfrwt>
<totfact> 0.45509520E-01</totfact>
</mgrwt>
</event>
<event>
 6    1  0.1528034E-005  0.9017076E+03  0.7818608E-02  0.9423449E-01
         -1   -1    0    0    0  501 -0.00000000000E+00  0.00000000000E+00  0.37603710376E+03  0.37603710376E+03  0.00000000000E+00 0.  1.
          1   -1    0    0  501    0  0.00000000000E+00 -0.00000000000E+00 -0.54055603971E+03  0.54055603971E+03  0.00000000000E+00 0. -1.
         23    2    1    2    0    0 -0.14215429570E+02 -0.10056158803E+03 -0.52573241309E+03  0.54137335788E+03  0.79848800984E+02 0.  0.
         11    1    3    3    0    0 -0.12338909826E+02 -0.44889285980E+02 -0.41314300313E+03  0.41575766707E+03  0.00000000000E+00 0. -1.
        -11    1    3    3    0    0 -0.18765197437E+01 -0.55672302046E+02 -0.11258940997E+03  0.12561569081E+03  0.00000000000E+00 0.  1.
         22    1    1    2    0    0  0.14215429570E+02  0.10056158803E+03  0.36121347715E+03  0.37521978559E+03  0.00000000000E+00 0.  1.
<mgrwt>
<rscale>  0 0.90170755E+03</rscale>
<asrwt>0</asrwt>
<pdfrwt beam="1">  1        1 0.83162468E-01 0.90170755E+03</pdfrwt>
<pdfrwt beam="2">  1       -1 0.57851862E-01 0.90170755E+03</pdfrwt>
<totfact> 0.12126768E+02</totfact>
</mgrwt>
</event>
<event>
 6    1  0.1528034E-005  0.3235797E+04  0.7818608E-02  0.8179427E-01
          2   -1    0    0  501    0  0.00000000000E+00  0.00000000000E+00  0.21083495869E+04  0.21083495869E+04  0.00000000000E+00 0. -1.
         -2   -1    0    0    0  501 -0.00000000000E+00 -0.00000000000E+00 -0.12415378323E+04  0.12415378323E+04  0.00000000000E+00 0.  1.
         23    2    1    2    0    0  0.87383928850E+03 -0.13551248073E+04  0.31323129713E+03  0.16450678780E+04  0.90421967198E+02 0.  0.
         11    1    3    3    0    0  0.29206457759E+03 -0.53144839375E+03  0.10714062816E+03  0.61580697211E+03  0.00000000000E+00 0. -1.
        -11    1    3    3    0    0  0.58177471091E+03 -0.82367641354E+03  0.20609066898E+03  0.10292609059E+04  0.00000000000E+00 0.  1.
         22    1    1    2    0    0 -0.87383928850E+03  0.13551248073E+04  0.55358045740E+03  0.17048195413E+04  0.00000000000E+00 0. -1.
<mgrwt>
<rscale>  0 0.32357971E+04</rscale>
<asrwt>0</asrwt>
<pdfrwt beam="1">  1        2 0.32436147E+00 0.32357971E+04</pdfrwt>
<pdfrwt beam="2">  1       -2 0.19100582E+00 0.32357971E+04</pdfrwt>
<totfact> 0.74485526E-01</totfact>
</mgrwt>
</event>
<event>
 6    1  0.1528034E-005  0.1717767E+04  0.7818608E-02  0.8751296E-01
          1   -1    0    0  501    0  0.00000000000E+00  0.00000000000E+00  0.12368478617E+04  0.12368478617E+04  0.00000000000E+00 0. -1.
         -1   -1    0    0    0  501 -0.00000000000E+00 -0.00000000000E+00 -0.59641975236E+03  0.59641975236E+03  0.00000000000E+00 0.  1.
         23    2    1    2    0    0  0.85351377233E+03  0.56926262891E+02  0.37162071064E+03  0.93661618983E+03  0.86148566517E+02 0.  0.
         13    1    3    3    0    0  0.29627366037E+03 -0.66324662011E+01  0.16301345522E+03  0.33822397611E+03  0.00000000000E+00 0.  1.
        -13    1    3    3    0    0  0.55724011197E+03  0.63558729092E+02  0.20860725542E+03  0.59839221372E+03  0.00000000000E+00 0. -1.
         22    1    1    2    0    0 -0.85351377233E+03 -0.56926262891E+02  0.26880739871E+03  0.89665142423E+03  0.00000000000E+00 0.  1.
<mgrwt>
<rscale>  0 0.17177666E+04</rscale>
<asrwt>0</asrwt>
<pdfrwt beam="1">  1        1 0.19028429E+00 0.17177666E+04</pdfrwt>
<pdfrwt beam="2">  1       -1 0.91756885E-01 0.17177666E+04</pdfrwt>
<totfact> 0.11046465E+01</totfact>
</mgrwt>
</event>
<event>
 6    1  0.1528034E-005  0.1200430E+04  0.7818608E-02  0.9112481E-01
         -2   -1    0    0    0  501 -0.00000000000E+00  0.00000000000E+00  0.11704485960E+03  0.11704485960E+03  0.00000000000E+00 0.  1.
          2   -1    0    0  501    0  0.00000000000E+00 -0.00000000000E+00 -0.30779459967E+04  0.30779459967E+04  0.00000000000E+00 0. -1.
         23    2    1    2    0    0 -0.36125739950E+03 -0.46162802776E+03 -0.11907215926E+04  0.13302809688E+04  0.90676348732E+02 0.  0.
         13    1    3    3    0    0 -0.27498989068E+03 -0.34622923772E+03 -0.80342703631E+03  0.91705459363E+03  0.00000000000E+00 0.  1.
        -13    1    3    3    0    0 -0.86267508822E+02 -0.11539879004E+03 -0.38729455630E+03  0.41322637520E+03  0.00000000000E+00 0. -1.
         22    1    1    2    0    0  0.36125739950E+03  0.46162802776E+03 -0.17701795445E+04  0.18647098875E+04  0.00000000000E+00 0. -1.
<mgrwt>
<rscale>  0 0.12004295E+04</rscale>
<asrwt>0</asrwt>
<pdfrwt beam="1">  1        2 0.47353020E+00 0.12004295E+04</pdfrwt>
<pdfrwt beam="2">  1       -2 0.18006900E-01 0.12004295E+04</pdfrwt>
<totfact> 0.40018814E+01</totfact>
</mgrwt>
</event>
<event>
 6    1  0.1528034E-005  0.1831028E+04  0.7818608E-02  0.8689971E-01
         -1   -1    0    0    0  501 -0.00000000000E+00  0.00000000000E+00  0.44244282131E+03  0.44244282131E+03  0.00000000000E+00 0.  1.
          1   -1    0    0  501    0  0.00000000000E+00 -0.00000000000E+00 -0.18944054502E+04  0.18944054502E+04  0.00000000000E+00 0. -1.
         23    2    1    2    0    0 -0.57778354626E+03  0.49502971795E+03 -0.82716486423E+02  0.77041179127E+03  0.88340608023E+02 0.  0.
         11    1    3    3    0    0 -0.35288767337E+03  0.34095877610E+03 -0.22387337309E+02  0.49120646360E+03  0.00000000000E+00 0. -1.
        -11    1    3    3    0    0 -0.22489587289E+03  0.15407094185E+03 -0.60329149114E+02  0.27920532767E+03  0.00000000000E+00 0.  1.
         22    1    1    2    0    0  0.57778354626E+03 -0.49502971795E+03 -0.13692461425E+04  0.15664364803E+04  0.00000000000E+00 0. -1.
<mgrwt>
<rscale>  0 0.18310282E+04</rscale>
<asrwt>0</asrwt>
<pdfrwt beam="1">  1        1 0.29144698E+00 0.18310282E+04</pdfrwt>
<pdfrwt beam="2">  1       -1 0.68068128E-01 0.18310282E+04</pdfrwt>
<totfact> 0.72275419E+00</totfact>
</mgrwt>
</event>
<event>
 6    1  0.1528034E-005  0.2129262E+04  0.7818608E-02  0.8548462E-01
         -1   -1    0    0    0  501 -0.00000000000E+00  0.00000000000E+00  0.51266305790E+03  0.51266305790E+03  0.00000000000E+00 0.  1.
          1   -1    0    0  501    0  0.00000000000E+00 -0.00000000000E+00 -0.22108843534E+04  0.22108843534E+04  0.00000000000E+00 0. -1.
         23    2    1    2    0    0  0.32591379941E+03 -0.53959491140E+03 -0.19449725506E+04  0.20465919807E+04  0.90763648221E+02 0.  0.
         13    1    3    3    0    0  0.21296964962E+03 -0.27764497894E+03 -0.99653954701E+03  0.10561883709E+04  0.00000000000E+00 0.  1.
        -13    1    3    3    0    0  0.11294414979E+03 -0.26194993246E+03 -0.94843300362E+03  0.99040360987E+03  0.00000000000E+00 0. -1.
         22    1    1    2    0    0 -0.32591379941E+03  0.53959491140E+03  0.24675125513E+03  0.67695543056E+03  0.00000000000E+00 0.  1.
<mgrwt>
<rscale>  0 0.21292616E+04</rscale>
<asrwt>0</asrwt>
<pdfrwt beam="1">  1        1 0.34013605E+00 0.21292616E+04</pdfrwt>
<pdfrwt beam="2">  1       -1 0.78871241E-01 0.21292616E+04</pdfrwt>
<totfact> 0.31584183E+00</totfact>
</mgrwt>
</event>
<event>
 6    1  0.1528034E-005  0.2315041E+04  0.7818608E-02  0.8472014E-01
         -1   -1    0    0    0  501 -0.00000000000E+00  0.00000000000E+00  0.14370206461E+04  0.14370206461E+04  0.00000000000E+00 0. -1.
          1   -1    0    0  501    0  0.00000000000E+00 -0.00000000000E+00 -0.93238309315E+03  0.93238309315E+03  0.00000000000E+00 0.  1.
         23    2    1    2    0    0  0.10080196856E+04 -0.47721862153E+03 -0.57490098344E+02  0.11204726781E+04  0.91173524636E+02 0.  0.
         11    1    3    3    0    0  0.91220458134E+03 -0.41085302715E+03 -0.30962621727E+02  0.10009376065E+04  0.00000000000E+00 0. -1.
        -11    1    3    3    0    0  0.95815104250E+02 -0.66365594377E+02 -0.26527476617E+02  0.11953507157E+03  0.00000000000E+00 0.  1.
         22    1    1    2    0    0 -0.10080196856E+04  0.47721862153E+03  0.56212765129E+03  0.12489310612E+04  0.00000000000E+00 0. -1.
<mgrwt>
<rscale>  0 0.23150410E+04</rscale>
<asrwt>0</asrwt>
<pdfrwt beam="1">  1        1 0.14344355E+00 0.23150410E+04</pdfrwt>
<pdfrwt beam="2">  1       -1 0.22108010E+00 0.23150410E+04</pdfrwt>
<totfact> 0.16729904E+00</totfact>
</mgrwt>
</event>
<event>
 6    1  0.1528034E-005  0.2668420E+04  0.7818608E-02  0.8345325E-01
          2   -1    0    0  501    0  0.00000000000E+00  0.00000000000E+00  0.92035465947E+03  0.92035465947E+03  0.00000000000E+00 0. -1.
         -2   -1    0    0    0  501 -0.00000000000E+00 -0.00000000000E+00 -0.19341629700E+04  0.19341629700E+04  0.00000000000E+00 0.  1.
         23    2    1    2    0    0  0.56499096702E+03 -0.10536003873E+04 -0.11359165003E+04  0.16527693285E+04  0.10977972739E+03 0.  0.
         13    1    3    3    0    0  0.43755288475E+03 -0.88758077230E+03 -0.96993199007E+03  0.13856479422E+04  0.00000000000E+00 0. -1.
        -13    1    3    3    0    0  0.12743808227E+03 -0.16601961503E+03 -0.16598451023E+03  0.26712138631E+03  0.00000000000E+00 0.  1.
         22    1    1    2    0    0 -0.56499096702E+03  0.10536003873E+04  0.12210818973E+03  0.12017483010E+04  0.00000000000E+00 0. -1.
<mgrwt>
<rscale>  0 0.26684197E+04</rscale>
<asrwt>0</asrwt>
<pdfrwt beam="1">  1        2 0.14159303E+00 0.26684197E+04</pdfrwt>
<pdfrwt beam="2">  1       -2 0.29756353E+00 0.26684197E+04</pdfrwt>
<totfact> 0.82201057E-01</totfact>
</mgrwt>
</event>
<event>
 6    1  0.1528034E-005  0.2183470E+04  0.7818608E-02  0.8525340E-01
         -2   -1    0    0    0  501 -0.00000000000E+00  0.00000000000E+00  0.30461224378E+03  0.30461224378E+03  0.00000000000E+00 0.  1.
          2   -1    0    0  501    0  0.00000000000E+00 -0.00000000000E+00 -0.39127964003E+04  0.39127964003E+04  0.00000000000E+00 0. -1.
         23    2    1    2    0    0  0.53190518814E+03 -0.12522802364E+03 -0.36285593961E+04  0.36705811233E+04  0.90096087120E+02 0.  0.
         13    1    3    3    0    0  0.84951620131E+02 -0.40609780528E+02 -0.82517039853E+03  0.83052520651E+03  0.00000000000E+00 0. -1.
        -13    1    3    3    0    0  0.44695356801E+03 -0.84618243109E+02 -0.28033889975E+04  0.28400559168E+04  0.00000000000E+00 0.  1.
         22    1    1    2    0    0 -0.53190518814E+03  0.12522802364E+03  0.20375239551E+02  0.54682752076E+03  0.00000000000E+00 0.  1.
<mgrwt>
<rscale>  0 0.21834703E+04</rscale>
<asrwt>0</asrwt>
<pdfrwt beam="1">  1        2 0.60196868E+00 0.21834703E+04</pdfrwt>
<pdfrwt beam="2">  1       -2 0.46863422E-01 0.21834703E+04</pdfrwt>
<totfact> 0.15974412E+00</totfact>
</mgrwt>
</event>
<event>
 6    1  0.1528034E-005  0.4353075E+04  0.7818608E-02  0.7936876E-01
          2   -1    0    0  501    0  0.00000000000E+00  0.00000000000E+00  0.28794873632E+04  0.28794873632E+04  0.00000000000E+00 0. -1.
         -2   -1    0    0    0  501 -0.00000000000E+00 -0.00000000000E+00 -0.16451939294E+04  0.16451939294E+04  0.00000000000E+00 0.  1.
         23    2    1    2    0    0  0.27304109079E+03 -0.20413551932E+04 -0.11131543834E+03  0.20645297325E+04  0.90605890048E+02 0.  0.
         13    1    3    3    0    0  0.25701380449E+03 -0.19270125380E+04 -0.84044129271E+02  0.19458922974E+04  0.00000000000E+00 0.  1.
        -13    1    3    3    0    0  0.16027286298E+02 -0.11434265518E+03 -0.27271309072E+02  0.11863743507E+03  0.00000000000E+00 0. -1.
         22    1    1    2    0    0 -0.27304109079E+03  0.20413551932E+04  0.13456088721E+04  0.24601515601E+04  0.00000000000E+00 0. -1.
<mgrwt>
<rscale>  0 0.43530748E+04</rscale>
<asrwt>0</asrwt>
<pdfrwt beam="1">  1        2 0.44299806E+00 0.43530748E+04</pdfrwt>
<pdfrwt beam="2">  1       -2 0.25310676E+00 0.43530748E+04</pdfrwt>
<totfact> 0.97488503E-02</totfact>
</mgrwt>
</event>
<event>
 6    1  0.1528034E-005  0.2478601E+04  0.7818608E-02  0.8410649E-01
         -1   -1    0    0    0  501 -0.00000000000E+00  0.00000000000E+00  0.14817775958E+04  0.14817775958E+04  0.00000000000E+00 0.  1.
          1   -1    0    0  501    0  0.00000000000E+00 -0.00000000000E+00 -0.10365024115E+04  0.10365024115E+04  0.00000000000E+00 0. -1.
         23    2    1    2    0    0 -0.96517876800E+03 -0.11640050725E+03  0.10011254048E+04  0.13984190338E+04  0.90579168191E+02 0.  0.
         11    1    3    3    0    0 -0.69988879070E+03 -0.43788333154E+02  0.71110347266E+03  0.99871411640E+03  0.00000000000E+00 0.  1.
        -11    1    3    3    0    0 -0.26528997730E+03 -0.72612174093E+02  0.29002193212E+03  0.39970491740E+03  0.00000000000E+00 0. -1.
         22    1    1    2    0    0  0.96517876800E+03  0.11640050725E+03 -0.55585022057E+03  0.11198609735E+04  0.00000000000E+00 0.  1.
<mgrwt>
<rscale>  0 0.24786013E+04</rscale>
<asrwt>0</asrwt>
<pdfrwt beam="1">  1        1 0.15946191E+00 0.24786013E+04</pdfrwt>
<pdfrwt beam="2">  1       -1 0.22796578E+00 0.24786013E+04</pdfrwt>
<totfact> 0.12284094E+00</totfact>
</mgrwt>
</event>
<event>
 6    1  0.1528034E-005  0.1084585E+04  0.7818608E-02  0.9220348E-01
          2   -1    0    0  501    0  0.00000000000E+00  0.00000000000E+00  0.37925025618E+03  0.37925025618E+03  0.00000000000E+00 0. -1.
         -2   -1    0    0    0  501 -0.00000000000E+00 -0.00000000000E+00 -0.77542803384E+03  0.77542803384E+03  0.00000000000E+00 0.  1.
         23    2    1    2    0    0  0.13686990692E+03  0.12546038744E+03  0.34194157305E+03  0.39356472680E+03  0.59122538522E+02 0.  0.
         11    1    3    3    0    0  0.78694788609E+02  0.59472958454E+02  0.12337995986E+03  0.15796365733E+03  0.00000000000E+00 0.  1.
        -11    1    3    3    0    0  0.58175118314E+02  0.65987428990E+02  0.21856161318E+03  0.23560106947E+03  0.00000000000E+00 0. -1.
         22    1    1    2    0    0 -0.13686990692E+03 -0.12546038744E+03 -0.73811935071E+03  0.76111356323E+03  0.00000000000E+00 0.  1.
<mgrwt>
<rscale>  0 0.10845852E+04</rscale>
<asrwt>0</asrwt>
<pdfrwt beam="1">  1        2 0.58346194E-01 0.10845852E+04</pdfrwt>
<pdfrwt beam="2">  1       -2 0.11929662E+00 0.10845852E+04</pdfrwt>
<totfact> 0.45197735E+01</totfact>
</mgrwt>
</event>
<event>
 6    1  0.1528034E-005  0.3115327E+04  0.7818608E-02  0.8211544E-01
          2   -1    0    0  501    0  0.00000000000E+00  0.00000000000E+00  0.34698173172E+04  0.34698173172E+04  0.00000000000E+00 0. -1.
         -2   -1    0    0    0  501 -0.00000000000E+00 -0.00000000000E+00 -0.69926317486E+03  0.69926317486E+03  0.00000000000E+00 0.  1.
         23    2    1    2    0    0  0.75722533413E+03 -0.74771667929E+03 -0.13322037773E+03  0.10764478106E+04  0.92313491686E+02 0.  0.
         11    1    3    3    0    0  0.10878517778E+03 -0.13496785902E+03  0.62292082975E+01  0.17346279402E+03  0.00000000000E+00 0. -1.
        -11    1    3    3    0    0  0.64844015635E+03 -0.61274882027E+03 -0.13944958602E+03  0.90298501658E+03  0.00000000000E+00 0.  1.
         22    1    1    2    0    0 -0.75722533413E+03  0.74771667929E+03  0.29037745200E+04  0.30926326815E+04  0.00000000000E+00 0. -1.
<mgrwt>
<rscale>  0 0.31153269E+04</rscale>
<asrwt>0</asrwt>
<pdfrwt beam="1">  1        2 0.53381804E+00 0.31153269E+04</pdfrwt>
<pdfrwt beam="2">  1       -2 0.10757895E+00 0.31153269E+04</pdfrwt>
<totfact> 0.50119140E-01</totfact>
</mgrwt>
</event>
<event>
 6    1  0.1528034E-005  0.3790644E+04  0.7818608E-02  0.8048166E-01
          2   -1    0    0  501    0  0.00000000000E+00  0.00000000000E+00  0.40952166462E+04  0.40952166462E+04  0.00000000000E+00 0.  1.
         -2   -1    0    0    0  501 -0.00000000000E+00 -0.00000000000E+00 -0.87718100413E+03  0.87718100413E+03  0.00000000000E+00 0. -1.
         23    2    1    2    0    0  0.19490849860E+03 -0.18840298361E+04  0.15817855770E+04  0.24694250134E+04  0.91959442569E+02 0.  0.
         11    1    3    3    0    0  0.18046444056E+03 -0.16220676720E+04  0.13996069082E+04  0.21500163823E+04  0.00000000000E+00 0. -1.
        -11    1    3    3    0    0  0.14444058040E+02 -0.26196216407E+03  0.18217866880E+03  0.31940863103E+03  0.00000000000E+00 0.  1.
         22    1    1    2    0    0 -0.19490849860E+03  0.18840298361E+04  0.16362500651E+04  0.25029726370E+04  0.00000000000E+00 0.  1.
<mgrwt>
<rscale>  0 0.37906444E+04</rscale>
<asrwt>0</asrwt>
<pdfrwt beam="1">  1        2 0.63003332E+00 0.37906444E+04</pdfrwt>
<pdfrwt beam="2">  1       -2 0.13495093E+00 0.37906444E+04</pdfrwt>
<totfact> 0.90162097E-02</totfact>
</mgrwt>
</event>
<event>
 6    1  0.1528034E-005  0.1558798E+04  0.7818608E-02  0.8846268E-01
          3   -1    0    0  501    0  0.00000000000E+00  0.00000000000E+00  0.29041039226E+03  0.29041039226E+03  0.00000000000E+00 0. -1.
         -3   -1    0    0    0  501 -0.00000000000E+00 -0.00000000000E+00 -0.20917390897E+04  0.20917390897E+04  0.00000000000E+00 0.  1.
         23    2    1    2    0    0  0.10897785660E+03 -0.29507235883E+03 -0.19889730888E+04  0.20158786971E+04  0.93856822852E+02 0.  0.
         13    1    3    3    0    0 -0.14194826608E+02 -0.72494423215E+02 -0.44762711304E+03  0.45368156986E+03  0.00000000000E+00 0.  1.
        -13    1    3    3    0    0  0.12317268321E+03 -0.22257793561E+03 -0.15413459758E+04  0.15621971273E+04  0.00000000000E+00 0. -1.
         22    1    1    2    0    0 -0.10897785660E+03  0.29507235883E+03  0.18764439142E+03  0.36627078481E+03  0.00000000000E+00 0. -1.
<mgrwt>
<rscale>  0 0.15587980E+04</rscale>
<asrwt>0</asrwt>
<pdfrwt beam="1">  1        3 0.44678523E-01 0.15587980E+04</pdfrwt>
<pdfrwt beam="2">  1       -3 0.32180601E+00 0.15587980E+04</pdfrwt>
<totfact> 0.36241831E-01</totfact>
</mgrwt>
</event>
<event>
 6    1  0.1528034E-005  0.3183669E+04  0.7818608E-02  0.8193143E-01
          1   -1    0    0  501    0  0.00000000000E+00  0.00000000000E+00  0.25055526153E+04  0.25055526153E+04  0.00000000000E+00 0. -1.
         -1   -1    0    0    0  501 -0.00000000000E+00 -0.00000000000E+00 -0.10113287490E+04  0.10113287490E+04  0.00000000000E+00 0.  1.
         23    2    1    2    0    0  0.42617159481E+03  0.14118419761E+04  0.91706470024E+02  0.14816970875E+04  0.10998267424E+03 0.  0.
         11    1    3    3    0    0  0.28790652258E+03  0.78222443119E+03  0.74476422965E+02  0.83684643996E+03  0.00000000000E+00 0. -1.
        -11    1    3    3    0    0  0.13826507223E+03  0.62961754490E+03  0.17230047059E+02  0.64485064749E+03  0.00000000000E+00 0.  1.
         22    1    1    2    0    0 -0.42617159481E+03 -0.14118419761E+04  0.14025173962E+04  0.20351842768E+04  0.00000000000E+00 0. -1.
<mgrwt>
<rscale>  0 0.31836692E+04</rscale>
<asrwt>0</asrwt>
<pdfrwt beam="1">  1        1 0.38546963E+00 0.31836692E+04</pdfrwt>
<pdfrwt beam="2">  1       -1 0.15558904E+00 0.31836692E+04</pdfrwt>
<totfact> 0.35516893E-01</totfact>
</mgrwt>
</event>
<event>
 6    1  0.1621218E-005  0.2633389E+04  0.7818608E-02  0.8356947E-01
         -2   -1    0    0    0  501 -0.00000000000E+00  0.00000000000E+00  0.17272049776E+04  0.17272049776E+04  0.00000000000E+00 0. -1.
          2   -1    0    0  501    0  0.00000000000E+00 -0.00000000000E+00 -0.10037514184E+04  0.10037514184E+04  0.00000000000E+00 0.  1.
         23    2    1    2    0    0  0.32767124834E+03 -0.57310471527E+03 -0.81731475955E+03  0.10547152219E+04  0.92754090907E+02 0.  0.
         13    1    3    3    0    0  0.20772976121E+03 -0.34805017272E+03 -0.42945523173E+03  0.59052719876E+03  0.00000000000E+00 0. -1.
        -13    1    3    3    0    0  0.11994148713E+03 -0.22505454255E+03 -0.38785952782E+03  0.46418802309E+03  0.00000000000E+00 0.  1.
         22    1    1    2    0    0 -0.32767124834E+03  0.57310471527E+03  0.15407683188E+04  0.16762411741E+04  0.00000000000E+00 0. -1.
<mgrwt>
<rscale>  0 0.26333890E+04</rscale>
<asrwt>0</asrwt>
<pdfrwt beam="1">  1        2 0.15442329E+00 0.26333890E+04</pdfrwt>
<pdfrwt beam="2">  1       -2 0.26572384E+00 0.26333890E+04</pdfrwt>
<totfact> 0.11373040E+00</totfact>
</mgrwt>
</event>
<event>
 6    1  0.1528034E-005  0.4282205E+03  0.7818608E-02  0.1034424E+00
         -1   -1    0    0    0  501 -0.00000000000E+00  0.00000000000E+00  0.88670747464E+02  0.88670747464E+02  0.00000000000E+00 0.  1.
          1   -1    0    0  501    0  0.00000000000E+00 -0.00000000000E+00 -0.51700480653E+03  0.51700480653E+03  0.00000000000E+00 0. -1.
         23    2    1    2    0    0  0.27477278011E+02 -0.14489386072E+03 -0.23627220707E+02  0.17493565952E+03  0.91076933038E+02 0.  0.
         11    1    3    3    0    0 -0.13286113929E+02 -0.52682928958E+02  0.28591110868E+02  0.61395956280E+02  0.00000000000E+00 0.  1.
        -11    1    3    3    0    0  0.40763391940E+02 -0.92210931759E+02 -0.52218331576E+02  0.11353970324E+03  0.00000000000E+00 0. -1.
         22    1    1    2    0    0 -0.27477278011E+02  0.14489386072E+03 -0.40470683836E+03  0.43073989448E+03  0.00000000000E+00 0. -1.
<mgrwt>
<rscale>  0 0.42822052E+03</rscale>
<asrwt>0</asrwt>
<pdfrwt beam="1">  1        1 0.79539203E-01 0.42822052E+03</pdfrwt>
<pdfrwt beam="2">  1       -1 0.13641653E-01 0.42822052E+03</pdfrwt>
<totfact> 0.16203108E+03</totfact>
</mgrwt>
</event>
<event>
 6    1  0.2037791E-005  0.3146469E+04  0.7818608E-02  0.8203099E-01
         -2   -1    0    0    0  501 -0.00000000000E+00  0.00000000000E+00  0.11340594573E+04  0.11340594573E+04  0.00000000000E+00 0.  1.
          2   -1    0    0  501    0  0.00000000000E+00 -0.00000000000E+00 -0.21824842516E+04  0.21824842516E+04  0.00000000000E+00 0. -1.
         23    2    1    2    0    0 -0.74119714183E+03  0.33202091268E+03 -0.19432321985E+04  0.21081185436E+04  0.91658753711E+02 0.  0.
         11    1    3    3    0    0 -0.30189777480E+03  0.13491531490E+03 -0.67728011874E+03  0.75369275429E+03  0.00000000000E+00 0. -1.
        -11    1    3    3    0    0 -0.43929936703E+03  0.19710559778E+03 -0.12659520797E+04  0.13544257893E+04  0.00000000000E+00 0.  1.
         22    1    1    2    0    0  0.74119714183E+03 -0.33202091268E+03  0.89480740421E+03  0.12084251653E+04  0.00000000000E+00 0.  1.
<mgrwt>
<rscale>  0 0.31464691E+04</rscale>
<asrwt>0</asrwt>
<pdfrwt beam="1">  1        2 0.33576680E+00 0.31464691E+04</pdfrwt>
<pdfrwt beam="2">  1       -2 0.17447069E+00 0.31464691E+04</pdfrwt>
<totfact> 0.88536757E-01</totfact>
</mgrwt>
</event>
<event>
 6    1  0.1528034E-005  0.1520476E+04  0.7818608E-02  0.8870950E-01
          2   -1    0    0  501    0  0.00000000000E+00  0.00000000000E+00  0.47278268848E+04  0.47278268848E+04  0.00000000000E+00 0. -1.
         -2   -1    0    0    0  501 -0.00000000000E+00 -0.00000000000E+00 -0.12224680619E+03  0.12224680619E+03  0.00000000000E+00 0.  1.
         23    2    1    2    0    0  0.38951480478E+03 -0.45851997799E+03  0.37794466228E+04  0.38280860002E+04  0.89795861449E+02 0.  0.
         11    1    3    3    0    0  0.21101413489E+03 -0.24767178707E+03  0.23222393130E+04  0.23449229638E+04  0.00000000000E+00 0.  1.
        -11    1    3    3    0    0  0.17850066989E+03 -0.21084819092E+03  0.14572073098E+04  0.14831630363E+04  0.00000000000E+00 0. -1.
         22    1    1    2    0    0 -0.38951480478E+03  0.45851997799E+03  0.82613345577E+03  0.10219876908E+04  0.00000000000E+00 0.  1.
<mgrwt>
<rscale>  0 0.15204759E+04</rscale>
<asrwt>0</asrwt>
<pdfrwt beam="1">  1        2 0.72735784E+00 0.15204759E+04</pdfrwt>
<pdfrwt beam="2">  1       -2 0.18807205E-01 0.15204759E+04</pdfrwt>
<totfact> 0.17131740E+00</totfact>
</mgrwt>
</event>
<event>
 6    1  0.1528034E-005  0.1351495E+04  0.7818608E-02  0.8989697E-01
          1   -1    0    0  501    0  0.00000000000E+00  0.00000000000E+00  0.53360840923E+03  0.53360840923E+03  0.00000000000E+00 0. -1.
         -1   -1    0    0    0  501 -0.00000000000E+00 -0.00000000000E+00 -0.85574915278E+03  0.85574915278E+03  0.00000000000E+00 0.  1.
         23    2    1    2    0    0  0.32745247333E+03 -0.37754347748E+03  0.30103251540E+03  0.59054024225E+03  0.91394763042E+02 0.  0.
         11    1    3    3    0    0  0.13362478001E+03 -0.18885779054E+03  0.93206776006E+02  0.24942002722E+03  0.00000000000E+00 0.  1.
        -11    1    3    3    0    0  0.19382769332E+03 -0.18868568694E+03  0.20782573939E+03  0.34112021503E+03  0.00000000000E+00 0. -1.
         22    1    1    2    0    0 -0.32745247333E+03  0.37754347748E+03 -0.62317325895E+03  0.79881731976E+03  0.00000000000E+00 0.  1.
<mgrwt>
<rscale>  0 0.13514954E+04</rscale>
<asrwt>0</asrwt>
<pdfrwt beam="1">  1        1 0.82093602E-01 0.13514954E+04</pdfrwt>
<pdfrwt beam="2">  1       -1 0.13165371E+00 0.13514954E+04</pdfrwt>
<totfact> 0.19464056E+01</totfact>
</mgrwt>
</event>
<event>
 6    1  0.1528034E-005  0.4067534E+04  0.7818608E-02  0.7991060E-01
         -1   -1    0    0    0  501 -0.00000000000E+00  0.00000000000E+00  0.91950604126E+03  0.91950604126E+03  0.00000000000E+00 0.  1.
          1   -1    0    0  501    0  0.00000000000E+00 -0.00000000000E+00 -0.44982925928E+04  0.44982925928E+04  0.00000000000E+00 0. -1.
         23    2    1    2    0    0  0.69781774931E+03  0.38661680282E+03 -0.42806201905E+04  0.43552579900E+04  0.90226271980E+02 0.  0.
         11    1    3    3    0    0  0.90589829200E+02  0.42846167856E+02 -0.39724632890E+03  0.40969129485E+03  0.00000000000E+00 0.  1.
        -11    1    3    3    0    0  0.60722792011E+03  0.34377063496E+03 -0.38833738616E+04  0.39455666951E+04  0.00000000000E+00 0. -1.
         22    1    1    2    0    0 -0.69781774931E+03 -0.38661680282E+03  0.70183363901E+03  0.10625406441E+04  0.00000000000E+00 0.  1.
<mgrwt>
<rscale>  0 0.40675335E+04</rscale>
<asrwt>0</asrwt>
<pdfrwt beam="1">  1        1 0.69204503E+00 0.40675335E+04</pdfrwt>
<pdfrwt beam="2">  1       -1 0.14146247E+00 0.40675335E+04</pdfrwt>
<totfact> 0.10205929E-02</totfact>
</mgrwt>
</event>
<event>
 6    1  0.1528034E-005  0.1720672E+04  0.7818608E-02  0.8749661E-01
         -2   -1    0    0    0  501 -0.00000000000E+00  0.00000000000E+00  0.43483572473E+03  0.43483572473E+03  0.00000000000E+00 0.  1.
          2   -1    0    0  501    0  0.00000000000E+00 -0.00000000000E+00 -0.17022015372E+04  0.17022015372E+04  0.00000000000E+00 0. -1.
         23    2    1    2    0    0  0.71444888976E+03 -0.42597098989E+03 -0.37390223383E+03  0.91631384255E+03  0.89104866693E+02 0.  0.
         11    1    3    3    0    0  0.55236128804E+03 -0.36762166817E+03 -0.31258690375E+03  0.73345705793E+03  0.00000000000E+00 0. -1.
        -11    1    3    3    0    0  0.16208760172E+03 -0.58349321726E+02 -0.61315330078E+02  0.18285678462E+03  0.00000000000E+00 0.  1.
         22    1    1    2    0    0 -0.71444888976E+03  0.42597098989E+03 -0.89346357868E+03  0.12207234194E+04  0.00000000000E+00 0.  1.
<mgrwt>
<rscale>  0 0.17206720E+04</rscale>
<asrwt>0</asrwt>
<pdfrwt beam="1">  1        2 0.26187716E+00 0.17206720E+04</pdfrwt>
<pdfrwt beam="2">  1       -2 0.66897804E-01 0.17206720E+04</pdfrwt>
<totfact> 0.19058419E+01</totfact>
</mgrwt>
</event>
<event>
 6    1  0.1528034E-005  0.5456082E+04  0.7818608E-02  0.7761761E-01
         -2   -1    0    0    0  501 -0.00000000000E+00  0.00000000000E+00  0.40005778561E+04  0.40005778561E+04  0.00000000000E+00 0.  1.
          2   -1    0    0  501    0  0.00000000000E+00 -0.00000000000E+00 -0.18602834026E+04  0.18602834026E+04  0.00000000000E+00 0. -1.
         23    2    1    2    0    0  0.14189862846E+04  0.17498727316E+04 -0.58065028808E+03  0.23282818980E+04  0.90361423502E+02 0.  0.
         11    1    3    3    0    0  0.64942802210E+03  0.79234188725E+03 -0.31021415999E+03  0.10704182581E+04  0.00000000000E+00 0. -1.
        -11    1    3    3    0    0  0.76955826249E+03  0.95753084440E+03 -0.27043612809E+03  0.12578636400E+04  0.00000000000E+00 0.  1.
         22    1    1    2    0    0 -0.14189862846E+04 -0.17498727316E+04  0.27209447415E+04  0.35325793606E+04  0.00000000000E+00 0. -1.
<mgrwt>
<rscale>  0 0.54560823E+04</rscale>
<asrwt>0</asrwt>
<pdfrwt beam="1">  1        2 0.28619745E+00 0.54560823E+04</pdfrwt>
<pdfrwt beam="2">  1       -2 0.61547352E+00 0.54560823E+04</pdfrwt>
<totfact> 0.25261960E-03</totfact>
</mgrwt>
</event>
<event>
 6    1  0.1528034E-005  0.3565787E+04  0.7818608E-02  0.8098374E-01
          2   -1    0    0  501    0  0.00000000000E+00  0.00000000000E+00  0.24937768167E+04  0.24937768167E+04  0.00000000000E+00 0. -1.
         -2   -1    0    0    0  501 -0.00000000000E+00 -0.00000000000E+00 -0.12746566412E+04  0.12746566412E+04  0.00000000000E+00 0.  1.
         23    2    1    2    0    0  0.40236665688E+03 -0.11823833803E+04 -0.73299461641E+03  0.14509603631E+04  0.89863691108E+02 0.  0.
         11    1    3    3    0    0  0.15482936434E+03 -0.40090143376E+03 -0.29776606162E+03  0.52283718221E+03  0.00000000000E+00 0. -1.
        -11    1    3    3    0    0  0.24753729254E+03 -0.78148194653E+03 -0.43522855479E+03  0.92812318087E+03  0.00000000000E+00 0.  1.
         22    1    1    2    0    0 -0.40236665688E+03  0.11823833803E+04  0.19521147919E+04  0.23174730948E+04  0.00000000000E+00 0. -1.
<mgrwt>
<rscale>  0 0.35657870E+04</rscale>
<asrwt>0</asrwt>
<pdfrwt beam="1">  1        2 0.38365797E+00 0.35657870E+04</pdfrwt>
<pdfrwt beam="2">  1       -2 0.19610102E+00 0.35657870E+04</pdfrwt>
<totfact> 0.40482674E-01</totfact>
</mgrwt>
</event>
<event>
 6    1  0.1528034E-005  0.1008289E+04  0.7818608E-02  0.9299500E-01
         -2   -1    0    0    0  501 -0.00000000000E+00  0.00000000000E+00  0.79992070598E+03  0.79992070598E+03  0.00000000000E+00 0.  1.
          2   -1    0    0  501    0  0.00000000000E+00 -0.00000000000E+00 -0.31773358831E+03  0.31773358831E+03  0.00000000000E+00 0. -1.
         23    2    1    2    0    0 -0.28943628042E+03  0.36598939303E+03  0.43335119721E+02  0.47709776100E+03  0.89569775713E+02 0.  0.
         11    1    3    3    0    0 -0.19120629679E+03  0.18352771547E+03  0.50273485003E+02  0.26975858387E+03  0.00000000000E+00 0. -1.
        -11    1    3    3    0    0 -0.98229983630E+02  0.18246167756E+03 -0.69383652821E+01  0.20733917713E+03  0.00000000000E+00 0.  1.
         22    1    1    2    0    0  0.28943628042E+03 -0.36598939303E+03  0.43885199795E+03  0.64055653329E+03  0.00000000000E+00 0. -1.
<mgrwt>
<rscale>  0 0.10082890E+04</rscale>
<asrwt>0</asrwt>
<pdfrwt beam="1">  1        2 0.48882091E-01 0.10082890E+04</pdfrwt>
<pdfrwt beam="2">  1       -2 0.12306472E+00 0.10082890E+04</pdfrwt>
<totfact> 0.51212314E+01</totfact>
</mgrwt>
</event>
<event>
 6    1  0.1528034E-005  0.1907444E+04  0.7818608E-02  0.8651160E-01
         -2   -1    0    0    0  501 -0.00000000000E+00  0.00000000000E+00  0.94194228903E+03  0.94194228903E+03  0.00000000000E+00 0.  1.
          2   -1    0    0  501    0  0.00000000000E+00 -0.00000000000E+00 -0.96564868113E+03  0.96564868113E+03  0.00000000000E+00 0. -1.
         23    2    1    2    0    0  0.48081488480E+03  0.80273852570E+03 -0.18484467535E+03  0.95809761029E+03  0.90616680302E+02 0.  0.
         11    1    3    3    0    0  0.41575735415E+03  0.67170193693E+03 -0.18696569156E+03  0.81178435525E+03  0.00000000000E+00 0. -1.
        -11    1    3    3    0    0  0.65057530654E+02  0.13103658877E+03  0.21210162134E+01  0.14631325505E+03  0.00000000000E+00 0.  1.
         22    1    1    2    0    0 -0.48081488480E+03 -0.80273852570E+03  0.16113828326E+03  0.94949335986E+03  0.00000000000E+00 0.  1.
<mgrwt>
<rscale>  0 0.19074437E+04</rscale>
<asrwt>0</asrwt>
<pdfrwt beam="1">  1        2 0.14856134E+00 0.19074437E+04</pdfrwt>
<pdfrwt beam="2">  1       -2 0.14491420E+00 0.19074437E+04</pdfrwt>
<totfact> 0.81440116E+00</totfact>
</mgrwt>
</event>
<event>
 6    1  0.1528034E-005  0.2174668E+04  0.7818608E-02  0.8529046E-01
          2   -1    0    0  501    0  0.00000000000E+00  0.00000000000E+00  0.12219015590E+04  0.12219015590E+04  0.00000000000E+00 0. -1.
         -2   -1    0    0    0  501 -0.00000000000E+00 -0.00000000000E+00 -0.96758611531E+03  0.96758611531E+03  0.00000000000E+00 0.  1.
         23    2    1    2    0    0 -0.52756458894E+03  0.79466974495E+03 -0.39412142236E+03  0.10361036236E+04  0.91403634028E+02 0.  0.
         11    1    3    3    0    0 -0.46838395736E+03  0.65257947881E+03 -0.34806677144E+03  0.87543930975E+03  0.00000000000E+00 0. -1.
        -11    1    3    3    0    0 -0.59180631582E+02  0.14209026614E+03 -0.46054650920E+02  0.16066431389E+03  0.00000000000E+00 0.  1.
         22    1    1    2    0    0  0.52756458894E+03 -0.79466974495E+03  0.64843686604E+03  0.11533840507E+04  0.00000000000E+00 0.  1.
<mgrwt>
<rscale>  0 0.21746678E+04</rscale>
<asrwt>0</asrwt>
<pdfrwt beam="1">  1        2 0.18798486E+00 0.21746678E+04</pdfrwt>
<pdfrwt beam="2">  1       -2 0.14885940E+00 0.21746678E+04</pdfrwt>
<totfact> 0.51474946E+00</totfact>
</mgrwt>
</event>
<event>
 6    1  0.1528034E-005  0.5307683E+04  0.7818608E-02  0.7782721E-01
          2   -1    0    0  501    0  0.00000000000E+00  0.00000000000E+00  0.28655775172E+04  0.28655775172E+04  0.00000000000E+00 0.  1.
         -2   -1    0    0    0  501 -0.00000000000E+00 -0.00000000000E+00 -0.24577503420E+04  0.24577503420E+04  0.00000000000E+00 0. -1.
         23    2    1    2    0    0 -0.12419205217E+04 -0.16700113294E+04 -0.14463176879E+04  0.25360069958E+04  0.90510807801E+02 0.  0.
         13    1    3    3    0    0 -0.89975822511E+03 -0.12200176516E+04 -0.11013262046E+04  0.18737468727E+04  0.00000000000E+00 0.  1.
        -13    1    3    3    0    0 -0.34216229654E+03 -0.44999367777E+03 -0.34499148324E+03  0.66226012315E+03  0.00000000000E+00 0. -1.
         22    1    1    2    0    0  0.12419205217E+04  0.16700113294E+04  0.18541448630E+04  0.27873208634E+04  0.00000000000E+00 0.  1.
<mgrwt>
<rscale>  0 0.53076828E+04</rscale>
<asrwt>0</asrwt>
<pdfrwt beam="1">  1        2 0.44085808E+00 0.53076828E+04</pdfrwt>
<pdfrwt beam="2">  1       -2 0.37811544E+00 0.53076828E+04</pdfrwt>
<totfact> 0.15433794E-02</totfact>
</mgrwt>
</event>
<event>
 6    1  0.1528034E-005  0.4274621E+04  0.7818608E-02  0.7951328E-01
          2   -1    0    0  501    0  0.00000000000E+00  0.00000000000E+00  0.39572105049E+04  0.39572105049E+04  0.00000000000E+00 0. -1.
         -2   -1    0    0    0  501 -0.00000000000E+00 -0.00000000000E+00 -0.11543726205E+04  0.11543726205E+04  0.00000000000E+00 0.  1.
         23    2    1    2    0    0  0.99656040500E+03 -0.55942290280E+03  0.35604328150E+04  0.37404388208E+04  0.90078397502E+02 0.  0.
         11    1    3    3    0    0  0.73214686654E+03 -0.44769500144E+03  0.25933597296E+04  0.27316633277E+04  0.00000000000E+00 0.  1.
        -11    1    3    3    0    0  0.26441353846E+03 -0.11172790136E+03  0.96707308531E+03  0.10087754932E+04  0.00000000000E+00 0. -1.
         22    1    1    2    0    0 -0.99656040500E+03  0.55942290280E+03 -0.75759493063E+03  0.13711443046E+04  0.00000000000E+00 0.  1.
<mgrwt>
<rscale>  0 0.42746207E+04</rscale>
<asrwt>0</asrwt>
<pdfrwt beam="1">  1        2 0.60880161E+00 0.42746207E+04</pdfrwt>
<pdfrwt beam="2">  1       -2 0.17759579E+00 0.42746207E+04</pdfrwt>
<totfact> 0.53645159E-02</totfact>
</mgrwt>
</event>
<event>
 6    1  0.2316053E-005  0.2969891E+04  0.7818608E-02  0.8252381E-01
         -2   -1    0    0    0  501 -0.00000000000E+00  0.00000000000E+00  0.12179544352E+04  0.12179544352E+04  0.00000000000E+00 0. -1.
          2   -1    0    0  501    0  0.00000000000E+00 -0.00000000000E+00 -0.18104639857E+04  0.18104639857E+04  0.00000000000E+00 0.  1.
         23    2    1    2    0    0 -0.74478322456E+03  0.33094685753E+02 -0.16044331499E+04  0.17715227686E+04  0.91048764547E+02 0.  0.
         13    1    3    3    0    0 -0.28182686663E+03  0.56625510817E+02 -0.62347268205E+03  0.68655008302E+03  0.00000000000E+00 0. -1.
        -13    1    3    3    0    0 -0.46295635793E+03 -0.23530825063E+02 -0.98096046785E+03  0.10849726856E+04  0.00000000000E+00 0.  1.
         22    1    1    2    0    0  0.74478322456E+03 -0.33094685753E+02  0.10119235993E+04  0.12568956523E+04  0.00000000000E+00 0. -1.
<mgrwt>
<rscale>  0 0.29698907E+04</rscale>
<asrwt>0</asrwt>
<pdfrwt beam="1">  1        2 0.27853292E+00 0.29698907E+04</pdfrwt>
<pdfrwt beam="2">  1       -2 0.18737760E+00 0.29698907E+04</pdfrwt>
<totfact> 0.11796668E+00</totfact>
</mgrwt>
</event>
<event>
 6    1  0.1528034E-005  0.3853634E+04  0.7818608E-02  0.8034742E-01
          1   -1    0    0  501    0  0.00000000000E+00  0.00000000000E+00  0.18021970794E+04  0.18021970794E+04  0.00000000000E+00 0. -1.
         -1   -1    0    0    0  501 -0.00000000000E+00 -0.00000000000E+00 -0.20600537764E+04  0.20600537764E+04  0.00000000000E+00 0.  1.
         23    2    1    2    0    0  0.20702385037E+03 -0.17411451284E+04 -0.92706270788E+03  0.19854765174E+04  0.90700077203E+02 0.  0.
         13    1    3    3    0    0  0.53007804837E+02 -0.55433473808E+03 -0.24929405294E+03  0.61011831152E+03  0.00000000000E+00 0. -1.
        -13    1    3    3    0    0  0.15401604553E+03 -0.11868103903E+04 -0.67776865494E+03  0.13753582059E+04  0.00000000000E+00 0.  1.
         22    1    1    2    0    0 -0.20702385037E+03  0.17411451284E+04  0.66920601086E+03  0.18767743385E+04  0.00000000000E+00 0. -1.
<mgrwt>
<rscale>  0 0.38536336E+04</rscale>
<asrwt>0</asrwt>
<pdfrwt beam="1">  1        1 0.27726109E+00 0.38536336E+04</pdfrwt>
<pdfrwt beam="2">  1       -1 0.31693135E+00 0.38536336E+04</pdfrwt>
<totfact> 0.82413669E-02</totfact>
</mgrwt>
</event>
<event>
 6    1  0.1528034E-005  0.7754640E+03  0.7818608E-02  0.9596227E-01
          1   -1    0    0  501    0  0.00000000000E+00  0.00000000000E+00  0.20344251671E+03  0.20344251671E+03  0.00000000000E+00 0. -1.
         -1   -1    0    0    0  501 -0.00000000000E+00 -0.00000000000E+00 -0.73896100261E+03  0.73896100261E+03  0.00000000000E+00 0.  1.
         23    2    1    2    0    0  0.17299807546E+03  0.32930325707E+03 -0.37953805950E+03  0.53904404856E+03  0.90279446421E+02 0.  0.
         11    1    3    3    0    0  0.58001136359E+02  0.13687662676E+03 -0.93453553746E+02  0.17559302230E+03  0.00000000000E+00 0. -1.
        -11    1    3    3    0    0  0.11499693910E+03  0.19242663031E+03 -0.28608450576E+03  0.36345102626E+03  0.00000000000E+00 0.  1.
         22    1    1    2    0    0 -0.17299807546E+03 -0.32930325707E+03 -0.15598042640E+03  0.40335947076E+03  0.00000000000E+00 0.  1.
<mgrwt>
<rscale>  0 0.77546395E+03</rscale>
<asrwt>0</asrwt>
<pdfrwt beam="1">  1        1 0.31298848E-01 0.77546395E+03</pdfrwt>
<pdfrwt beam="2">  1       -1 0.11368631E+00 0.77546395E+03</pdfrwt>
<totfact> 0.10408542E+02</totfact>
</mgrwt>
</event>
<event>
 6    1  0.1528034E-005  0.1308188E+04  0.7818608E-02  0.9023097E-01
         -1   -1    0    0    0  501 -0.00000000000E+00  0.00000000000E+00  0.51954709574E+03  0.51954709574E+03  0.00000000000E+00 0.  1.
          1   -1    0    0  501    0  0.00000000000E+00 -0.00000000000E+00 -0.82348454601E+03  0.82348454601E+03  0.00000000000E+00 0. -1.
         23    2    1    2    0    0  0.50859980407E+03  0.20183346125E+02  0.26213401648E+03  0.58177082336E+03  0.10325657438E+03 0.  0.
         13    1    3    3    0    0  0.15648332799E+03 -0.40560942501E+02  0.71211453183E+02  0.17664453872E+03  0.00000000000E+00 0. -1.
        -13    1    3    3    0    0  0.35211647608E+03  0.60744288626E+02  0.19092256330E+03  0.40512628463E+03  0.00000000000E+00 0.  1.
         22    1    1    2    0    0 -0.50859980407E+03 -0.20183346125E+02 -0.56607146675E+03  0.76126081840E+03  0.00000000000E+00 0. -1.
<mgrwt>
<rscale>  0 0.13081881E+04</rscale>
<asrwt>0</asrwt>
<pdfrwt beam="1">  1        1 0.12668993E+00 0.13081881E+04</pdfrwt>
<pdfrwt beam="2">  1       -1 0.79930323E-01 0.13081881E+04</pdfrwt>
<totfact> 0.32387748E+01</totfact>
</mgrwt>
</event>
<event>
 6    1  0.1528034E-005  0.1993710E+04  0.7818608E-02  0.8609567E-01
         -1   -1    0    0    0  501 -0.00000000000E+00  0.00000000000E+00  0.56591882790E+03  0.56591882790E+03  0.00000000000E+00 0.  1.
          1   -1    0    0  501    0  0.00000000000E+00 -0.00000000000E+00 -0.17559405449E+04  0.17559405449E+04  0.00000000000E+00 0. -1.
         23    2    1    2    0    0  0.51919120961E+03 -0.67152783025E+03 -0.12003189630E+04  0.14729688191E+04  0.91446104617E+02 0.  0.
         13    1    3    3    0    0  0.25473773218E+03 -0.40365392923E+03 -0.66821967156E+03  0.82118532393E+03  0.00000000000E+00 0. -1.
        -13    1    3    3    0    0  0.26445347743E+03 -0.26787390102E+03 -0.53209929145E+03  0.65178349514E+03  0.00000000000E+00 0.  1.
         22    1    1    2    0    0 -0.51919120961E+03  0.67152783025E+03  0.10297246025E+02  0.84889055373E+03  0.00000000000E+00 0. -1.
<mgrwt>
<rscale>  0 0.19937099E+04</rscale>
<asrwt>0</asrwt>
<pdfrwt beam="1">  1        1 0.27014470E+00 0.19937099E+04</pdfrwt>
<pdfrwt beam="2">  1       -1 0.87064436E-01 0.19937099E+04</pdfrwt>
<totfact> 0.52637460E+00</totfact>
</mgrwt>
</event>
<event>
 6    1  0.1528034E-005  0.5672229E+04  0.7818608E-02  0.7732425E-01
          2   -1    0    0  501    0  0.00000000000E+00  0.00000000000E+00  0.22942573377E+04  0.22942573377E+04  0.00000000000E+00 0. -1.
         -2   -1    0    0    0  501 -0.00000000000E+00 -0.00000000000E+00 -0.35059471142E+04  0.35059471142E+04  0.00000000000E+00 0.  1.
         23    2    1    2    0    0 -0.10994782593E+04  0.19384936805E+03  0.20591326311E+04  0.23440925842E+04  0.91174725264E+02 0.  0.
         13    1    3    3    0    0 -0.19404020321E+03  0.11822338298E-01  0.34200265288E+03  0.39321421030E+03  0.00000000000E+00 0.  1.
        -13    1    3    3    0    0 -0.90543805609E+03  0.19383754571E+03  0.17171299782E+04  0.19508783739E+04  0.00000000000E+00 0. -1.
         22    1    1    2    0    0  0.10994782593E+04 -0.19384936805E+03 -0.32708224076E+04  0.34561118677E+04  0.00000000000E+00 0.  1.
<mgrwt>
<rscale>  0 0.56722288E+04</rscale>
<asrwt>0</asrwt>
<pdfrwt beam="1">  1        2 0.35296267E+00 0.56722288E+04</pdfrwt>
<pdfrwt beam="2">  1       -2 0.53937648E+00 0.56722288E+04</pdfrwt>
<totfact> 0.31092472E-03</totfact>
</mgrwt>
</event>
<event>
 6    1  0.1528034E-005  0.2177839E+04  0.7818608E-02  0.8527709E-01
         -1   -1    0    0    0  501 -0.00000000000E+00  0.00000000000E+00  0.91773738118E+03  0.91773738118E+03  0.00000000000E+00 0.  1.
          1   -1    0    0  501    0  0.00000000000E+00 -0.00000000000E+00 -0.12920313997E+04  0.12920313997E+04  0.00000000000E+00 0. -1.
         23    2    1    2    0    0  0.57122119396E+03 -0.49739789985E+03  0.60387960645E+03  0.97262611981E+03  0.87365134012E+02 0.  0.
         13    1    3    3    0    0  0.43824144182E+03 -0.41463048848E+03  0.44626030786E+03  0.75041472912E+03  0.00000000000E+00 0.  1.
        -13    1    3    3    0    0  0.13297975214E+03 -0.82767411373E+02  0.15761929860E+03  0.22221139069E+03  0.00000000000E+00 0. -1.
         22    1    1    2    0    0 -0.57122119396E+03  0.49739789985E+03 -0.97817362493E+03  0.12371426610E+04  0.00000000000E+00 0. -1.
<mgrwt>
<rscale>  0 0.21778388E+04</rscale>
<asrwt>0</asrwt>
<pdfrwt beam="1">  1        1 0.19877406E+00 0.21778388E+04</pdfrwt>
<pdfrwt beam="2">  1       -1 0.14119037E+00 0.21778388E+04</pdfrwt>
<totfact> 0.34325016E+00</totfact>
</mgrwt>
</event>
<event>
 6    1  0.1528034E-005  0.7509552E+03  0.7818608E-02  0.9633853E-01
         -2   -1    0    0    0  501 -0.00000000000E+00  0.00000000000E+00  0.18417347422E+03  0.18417347422E+03  0.00000000000E+00 0.  1.
          2   -1    0    0  501    0  0.00000000000E+00 -0.00000000000E+00 -0.76549264893E+03  0.76549264893E+03  0.00000000000E+00 0. -1.
         23    2    1    2    0    0  0.56804771796E+02 -0.36570122511E+03 -0.28634363352E+03  0.47640642906E+03  0.89477600829E+02 0.  0.
         13    1    3    3    0    0 -0.24239560459E+02 -0.98057472941E+02 -0.80733132654E+02  0.12930840266E+03  0.00000000000E+00 0.  1.
        -13    1    3    3    0    0  0.81044332255E+02 -0.26764375217E+03 -0.20561050087E+03  0.34709802640E+03  0.00000000000E+00 0. -1.
         22    1    1    2    0    0 -0.56804771796E+02  0.36570122511E+03 -0.29497554119E+03  0.47325969408E+03  0.00000000000E+00 0.  1.
<mgrwt>
<rscale>  0 0.75095523E+03</rscale>
<asrwt>0</asrwt>
<pdfrwt beam="1">  1        2 0.11776810E+00 0.75095523E+03</pdfrwt>
<pdfrwt beam="2">  1       -2 0.28334381E-01 0.75095523E+03</pdfrwt>
<totfact> 0.41849054E+02</totfact>
</mgrwt>
</event>
<event>
 6    1  0.1528034E-005  0.1547246E+04  0.7818608E-02  0.8853629E-01
         -2   -1    0    0    0  501 -0.00000000000E+00  0.00000000000E+00  0.67931245684E+03  0.67931245684E+03  0.00000000000E+00 0.  1.
          2   -1    0    0  501    0  0.00000000000E+00 -0.00000000000E+00 -0.88102650904E+03  0.88102650904E+03  0.00000000000E+00 0. -1.
         23    2    1    2    0    0  0.30788674685E+03  0.20603389914E+03  0.58053954880E+03  0.69479583422E+03  0.92037313377E+02 0.  0.
         13    1    3    3    0    0  0.23366242271E+03  0.12566580419E+03  0.46716313338E+03  0.53724427900E+03  0.00000000000E+00 0. -1.
        -13    1    3    3    0    0  0.74224324145E+02  0.80368094944E+02  0.11337641541E+03  0.15755155522E+03  0.00000000000E+00 0.  1.
         22    1    1    2    0    0 -0.30788674685E+03 -0.20603389914E+03 -0.78225360100E+03  0.86554313166E+03  0.00000000000E+00 0. -1.
<mgrwt>
<rscale>  0 0.15472457E+04</rscale>
<asrwt>0</asrwt>
<pdfrwt beam="1">  1        2 0.13554254E+00 0.15472457E+04</pdfrwt>
<pdfrwt beam="2">  1       -2 0.10450961E+00 0.15472457E+04</pdfrwt>
<totfact> 0.21623926E+01</totfact>
</mgrwt>
</event>
<event>
 6    1  0.1528034E-005  0.4629213E+04  0.7818608E-02  0.7888398E-01
          2   -1    0    0  501    0  0.00000000000E+00  0.00000000000E+00  0.40084624289E+04  0.40084624289E+04  0.00000000000E+00 0. -1.
         -2   -1    0    0    0  501 -0.00000000000E+00 -0.00000000000E+00 -0.13365234182E+04  0.13365234182E+04  0.00000000000E+00 0.  1.
         23    2    1    2    0    0 -0.11650551996E+04  0.17511349252E+04  0.22353184170E+03  0.21172118759E+04  0.93768324935E+02 0.  0.
         13    1    3    3    0    0 -0.52768198752E+03  0.87389526365E+03  0.94361652066E+02  0.10252050201E+04  0.00000000000E+00 0. -1.
        -13    1    3    3    0    0 -0.63737321203E+03  0.87723966158E+03  0.12917018964E+03  0.10920068558E+04  0.00000000000E+00 0.  1.
         22    1    1    2    0    0  0.11650551996E+04 -0.17511349252E+04  0.24484071690E+04  0.32277739712E+04  0.00000000000E+00 0. -1.
<mgrwt>
<rscale>  0 0.46292133E+04</rscale>
<asrwt>0</asrwt>
<pdfrwt beam="1">  1        2 0.61668652E+00 0.46292133E+04</pdfrwt>
<pdfrwt beam="2">  1       -2 0.20561899E+00 0.46292133E+04</pdfrwt>
<totfact> 0.30727367E-02</totfact>
</mgrwt>
</event>
<event>
 6    1  0.1528034E-005  0.2276513E+04  0.7818608E-02  0.8487240E-01
         -1   -1    0    0    0  501 -0.00000000000E+00  0.00000000000E+00  0.40663227572E+03  0.40663227572E+03  0.00000000000E+00 0.  1.
          1   -1    0    0  501    0  0.00000000000E+00 -0.00000000000E+00 -0.31862407453E+04  0.31862407453E+04  0.00000000000E+00 0. -1.
         23    2    1    2    0    0 -0.56116854711E+03 -0.78295802427E+03 -0.23437078742E+04  0.25355449096E+04  0.89933214835E+02 0.  0.
         13    1    3    3    0    0 -0.14411882300E+03 -0.23891012540E+03 -0.59103424098E+03  0.65358224974E+03  0.00000000000E+00 0.  1.
        -13    1    3    3    0    0 -0.41704972410E+03 -0.54404789887E+03 -0.17526736332E+04  0.18819626599E+04  0.00000000000E+00 0. -1.
         22    1    1    2    0    0  0.56116854711E+03  0.78295802427E+03 -0.43590059535E+03  0.10573281114E+04  0.00000000000E+00 0.  1.
<mgrwt>
<rscale>  0 0.22765134E+04</rscale>
<asrwt>0</asrwt>
<pdfrwt beam="1">  1        1 0.49019090E+00 0.22765134E+04</pdfrwt>
<pdfrwt beam="2">  1       -1 0.62558810E-01 0.22765134E+04</pdfrwt>
<totfact> 0.10229229E+00</totfact>
</mgrwt>
</event>
<event>
 6    1  0.1528034E-005  0.1242173E+04  0.7818608E-02  0.9076723E-01
          4   -1    0    0  501    0  0.00000000000E+00  0.00000000000E+00  0.50073439892E+03  0.50073439892E+03  0.00000000000E+00 0. -1.
         -4   -1    0    0    0  501 -0.00000000000E+00 -0.00000000000E+00 -0.77036492238E+03  0.77036492238E+03  0.00000000000E+00 0.  1.
         23    2    1    2    0    0 -0.20214654481E+03  0.44279297994E+03 -0.52524251840E+03  0.72131177995E+03  0.86499318527E+02 0.  0.
         13    1    3    3    0    0 -0.13226691097E+03  0.20840724081E+03 -0.30323348201E+03  0.39099700558E+03  0.00000000000E+00 0.  1.
        -13    1    3    3    0    0 -0.69879633844E+02  0.23438573913E+03 -0.22200903639E+03  0.33031477438E+03  0.00000000000E+00 0. -1.
         22    1    1    2    0    0  0.20214654481E+03 -0.44279297994E+03  0.25561199494E+03  0.54978754134E+03  0.00000000000E+00 0.  1.
<mgrwt>
<rscale>  0 0.12421726E+04</rscale>
<asrwt>0</asrwt>
<pdfrwt beam="1">  1        4 0.77036061E-01 0.12421726E+04</pdfrwt>
<pdfrwt beam="2">  1       -4 0.11851768E+00 0.12421726E+04</pdfrwt>
<totfact> 0.16205807E+00</totfact>
</mgrwt>
</event>
<event>
 6    1  0.1528034E-005  0.9934582E+03  0.7818608E-02  0.9315749E-01
          1   -1    0    0  501    0  0.00000000000E+00  0.00000000000E+00  0.27092867109E+03  0.27092867109E+03  0.00000000000E+00 0. -1.
         -1   -1    0    0    0  501 -0.00000000000E+00 -0.00000000000E+00 -0.91071875976E+03  0.91071875976E+03  0.00000000000E+00 0.  1.
         23    2    1    2    0    0 -0.43066888585E+03 -0.17147640135E+03 -0.12463828643E+03  0.48863861069E+03  0.91395535745E+02 0.  0.
         11    1    3    3    0    0 -0.13247016320E+03 -0.62741174956E+02 -0.83190039570E+02  0.16853896243E+03  0.00000000000E+00 0.  1.
        -11    1    3    3    0    0 -0.29819872265E+03 -0.10873522639E+03 -0.41448246858E+02  0.32009964826E+03  0.00000000000E+00 0. -1.
         22    1    1    2    0    0  0.43066888585E+03  0.17147640135E+03 -0.51515180225E+03  0.69300882016E+03  0.00000000000E+00 0.  1.
<mgrwt>
<rscale>  0 0.99345825E+03</rscale>
<asrwt>0</asrwt>
<pdfrwt beam="1">  1        1 0.41681335E-01 0.99345825E+03</pdfrwt>
<pdfrwt beam="2">  1       -1 0.14011058E+00 0.99345825E+03</pdfrwt>
<totfact> 0.42029777E+01</totfact>
</mgrwt>
</event>
<event>
 6    1  0.1528034E-005  0.1260751E+04  0.7818608E-02  0.9061282E-01
          1   -1    0    0  501    0  0.00000000000E+00  0.00000000000E+00  0.45056625881E+03  0.45056625881E+03  0.00000000000E+00 0. -1.
         -1   -1    0    0    0  501 -0.00000000000E+00 -0.00000000000E+00 -0.88194235979E+03  0.88194235979E+03  0.00000000000E+00 0.  1.
         23    2    1    2    0    0  0.60220003475E+03  0.18246812373E+02 -0.33126576788E+02  0.61030330738E+03  0.91623844591E+02 0.  0.
         11    1    3    3    0    0  0.39601690842E+03  0.51298656411E+02 -0.40378841505E+02  0.40136192488E+03  0.00000000000E+00 0. -1.
        -11    1    3    3    0    0  0.20618312633E+03 -0.33051844037E+02  0.72522647171E+01  0.20894138250E+03  0.00000000000E+00 0.  1.
         22    1    1    2    0    0 -0.60220003475E+03 -0.18246812373E+02 -0.39824952419E+03  0.72220531121E+03  0.00000000000E+00 0.  1.
<mgrwt>
<rscale>  0 0.12607513E+04</rscale>
<asrwt>0</asrwt>
<pdfrwt beam="1">  1        1 0.69317887E-01 0.12607513E+04</pdfrwt>
<pdfrwt beam="2">  1       -1 0.13568344E+00 0.12607513E+04</pdfrwt>
<totfact> 0.22907870E+01</totfact>
</mgrwt>
</event>
<event>
 6    1  0.1528034E-005  0.2232034E+04  0.7818608E-02  0.8505212E-01
          2   -1    0    0  501    0  0.00000000000E+00  0.00000000000E+00  0.10274347883E+04  0.10274347883E+04  0.00000000000E+00 0. -1.
         -2   -1    0    0    0  501 -0.00000000000E+00 -0.00000000000E+00 -0.12122362429E+04  0.12122362429E+04  0.00000000000E+00 0.  1.
         23    2    1    2    0    0 -0.94727286154E+03  0.57407298217E+03  0.27914314657E+02  0.11117820023E+04  0.91620677743E+02 0.  0.
         13    1    3    3    0    0 -0.70862993737E+03  0.38161438504E+03  0.19581740439E+02  0.80508966679E+03  0.00000000000E+00 0. -1.
        -13    1    3    3    0    0 -0.23864292417E+03  0.19245859713E+03  0.83325742183E+01  0.30669233551E+03  0.00000000000E+00 0.  1.
         22    1    1    2    0    0  0.94727286154E+03 -0.57407298217E+03 -0.21271576928E+03  0.11278890289E+04  0.00000000000E+00 0.  1.
<mgrwt>
<rscale>  0 0.22320338E+04</rscale>
<asrwt>0</asrwt>
<pdfrwt beam="1">  1        2 0.15806689E+00 0.22320338E+04</pdfrwt>
<pdfrwt beam="2">  1       -2 0.18649788E+00 0.22320338E+04</pdfrwt>
<totfact> 0.36088392E+00</totfact>
</mgrwt>
</event>
<event>
 6    1  0.1528034E-005  0.2474113E+04  0.7818608E-02  0.8412266E-01
         -1   -1    0    0    0  501 -0.00000000000E+00  0.00000000000E+00  0.15536907252E+04  0.15536907252E+04  0.00000000000E+00 0.  1.
          1   -1    0    0  501    0  0.00000000000E+00 -0.00000000000E+00 -0.98495084273E+03  0.98495084273E+03  0.00000000000E+00 0. -1.
         23    2    1    2    0    0 -0.56890585435E+03 -0.88880070644E+03  0.94386927179E+03  0.14186671818E+04  0.90037789500E+02 0.  0.
         13    1    3    3    0    0 -0.43389270634E+03 -0.67286665511E+03  0.66279018938E+03  0.10393763762E+04  0.00000000000E+00 0. -1.
        -13    1    3    3    0    0 -0.13501314801E+03 -0.21593405133E+03  0.28107908241E+03  0.37929080562E+03  0.00000000000E+00 0.  1.
         22    1    1    2    0    0  0.56890585435E+03  0.88880070644E+03 -0.37512938933E+03  0.11199743861E+04  0.00000000000E+00 0.  1.
<mgrwt>
<rscale>  0 0.24741132E+04</rscale>
<asrwt>0</asrwt>
<pdfrwt beam="1">  1        1 0.15153090E+00 0.24741132E+04</pdfrwt>
<pdfrwt beam="2">  1       -1 0.23902934E+00 0.24741132E+04</pdfrwt>
<totfact> 0.11389778E+00</totfact>
</mgrwt>
</event>
<event>
 6    1  0.1528034E-005  0.1190603E+04  0.7818608E-02  0.9121122E-01
          1   -1    0    0  501    0  0.00000000000E+00  0.00000000000E+00  0.77160262118E+03  0.77160262118E+03  0.00000000000E+00 0. -1.
         -1   -1    0    0    0  501 -0.00000000000E+00 -0.00000000000E+00 -0.45928294640E+03  0.45928294640E+03  0.00000000000E+00 0.  1.
         23    2    1    2    0    0 -0.51736594295E+03 -0.45968370203E+02  0.44785175210E+03  0.69408993238E+03  0.10681307218E+03 0.  0.
         11    1    3    3    0    0 -0.25206327184E+03 -0.65519673377E+02  0.18005187699E+03  0.31661869657E+03  0.00000000000E+00 0. -1.
        -11    1    3    3    0    0 -0.26530267111E+03  0.19551303174E+02  0.26779987512E+03  0.37747123581E+03  0.00000000000E+00 0.  1.
         22    1    1    2    0    0  0.51736594295E+03  0.45968370203E+02 -0.13553207733E+03  0.53679563520E+03  0.00000000000E+00 0.  1.
<mgrwt>
<rscale>  0 0.11906031E+04</rscale>
<asrwt>0</asrwt>
<pdfrwt beam="1">  1        1 0.11870810E+00 0.11906031E+04</pdfrwt>
<pdfrwt beam="2">  1       -1 0.70658915E-01 0.11906031E+04</pdfrwt>
<totfact> 0.46962092E+01</totfact>
</mgrwt>
</event>
<event>
 6    1  0.1528034E-005  0.2611613E+04  0.7818608E-02  0.8364267E-01
          2   -1    0    0  501    0  0.00000000000E+00  0.00000000000E+00  0.16274443469E+04  0.16274443469E+04  0.00000000000E+00 0. -1.
         -2   -1    0    0    0  501 -0.00000000000E+00 -0.00000000000E+00 -0.10477348550E+04  0.10477348550E+04  0.00000000000E+00 0.  1.
         23    2    1    2    0    0  0.50161848463E+03 -0.11971984595E+04  0.42049006048E+03  0.13674116068E+04  0.89985310204E+02 0.  0.
         13    1    3    3    0    0  0.14938964751E+03 -0.42424038100E+03  0.11014715220E+03  0.46306539796E+03  0.00000000000E+00 0. -1.
        -13    1    3    3    0    0  0.35222883712E+03 -0.77295807846E+03  0.31034290827E+03  0.90434620885E+03  0.00000000000E+00 0.  1.
         22    1    1    2    0    0 -0.50161848463E+03  0.11971984595E+04  0.15921943149E+03  0.13077675951E+04  0.00000000000E+00 0. -1.
<mgrwt>
<rscale>  0 0.26116127E+04</rscale>
<asrwt>0</asrwt>
<pdfrwt beam="1">  1        2 0.25037605E+00 0.26116127E+04</pdfrwt>
<pdfrwt beam="2">  1       -2 0.16118998E+00 0.26116127E+04</pdfrwt>
<totfact> 0.23486162E+00</totfact>
</mgrwt>
</event>
<event>
 6    1  0.1528034E-005  0.1667512E+04  0.7818608E-02  0.8780113E-01
          2   -1    0    0  501    0  0.00000000000E+00  0.00000000000E+00  0.11560024711E+04  0.11560024711E+04  0.00000000000E+00 0. -1.
         -2   -1    0    0    0  501 -0.00000000000E+00 -0.00000000000E+00 -0.60133872848E+03  0.60133872848E+03  0.00000000000E+00 0.  1.
         23    2    1    2    0    0 -0.42322056633E+03 -0.40558653918E+03 -0.34290556068E+03  0.68531193563E+03  0.91935504800E+02 0.  0.
         13    1    3    3    0    0 -0.17962132899E+03 -0.20847167519E+03 -0.11704757871E+03  0.29903912263E+03  0.00000000000E+00 0. -1.
        -13    1    3    3    0    0 -0.24359923734E+03 -0.19711486399E+03 -0.22585798197E+03  0.38627281300E+03  0.00000000000E+00 0.  1.
         22    1    1    2    0    0  0.42322056633E+03  0.40558653918E+03  0.89756930327E+03  0.10720292639E+04  0.00000000000E+00 0. -1.
<mgrwt>
<rscale>  0 0.16675120E+04</rscale>
<asrwt>0</asrwt>
<pdfrwt beam="1">  1        2 0.17784653E+00 0.16675120E+04</pdfrwt>
<pdfrwt beam="2">  1       -2 0.92513651E-01 0.16675120E+04</pdfrwt>
<totfact> 0.19045333E+01</totfact>
</mgrwt>
</event>
<event>
 6    1  0.1528034E-005  0.3428219E+04  0.7818608E-02  0.8131015E-01
          2   -1    0    0  501    0  0.00000000000E+00  0.00000000000E+00  0.38167578935E+04  0.38167578935E+04  0.00000000000E+00 0.  1.
         -2   -1    0    0    0  501 -0.00000000000E+00 -0.00000000000E+00 -0.76980797043E+03  0.76980797043E+03  0.00000000000E+00 0. -1.
         23    2    1    2    0    0  0.93612266875E+03 -0.14208870173E+03 -0.38517524001E+03  0.10262290842E+04  0.90946784443E+02 0.  0.
         13    1    3    3    0    0  0.54723236397E+03 -0.81933860887E+02 -0.17644943725E+03  0.58078466030E+03  0.00000000000E+00 0. -1.
        -13    1    3    3    0    0  0.38889030477E+03 -0.60154840840E+02 -0.20872580276E+03  0.44544442388E+03  0.00000000000E+00 0.  1.
         22    1    1    2    0    0 -0.93612266875E+03  0.14208870173E+03  0.34321251631E+04  0.35603367797E+04  0.00000000000E+00 0.  1.
<mgrwt>
<rscale>  0 0.34282186E+04</rscale>
<asrwt>0</asrwt>
<pdfrwt beam="1">  1        2 0.58719351E+00 0.34282186E+04</pdfrwt>
<pdfrwt beam="2">  1       -2 0.11843200E+00 0.34282186E+04</pdfrwt>
<totfact> 0.21579081E-01</totfact>
</mgrwt>
</event>
<event>
 6    1  0.1528034E-005  0.4342727E+04  0.7818608E-02  0.7938764E-01
          2   -1    0    0  501    0  0.00000000000E+00  0.00000000000E+00  0.41801012686E+04  0.41801012686E+04  0.00000000000E+00 0. -1.
         -2   -1    0    0    0  501 -0.00000000000E+00 -0.00000000000E+00 -0.11279196740E+04  0.11279196740E+04  0.00000000000E+00 0.  1.
         23    2    1    2    0    0  0.87034430612E+03 -0.60584961010E+03 -0.78777569125E+03  0.13243260600E+04  0.93252411152E+02 0.  0.
         13    1    3    3    0    0  0.51879838840E+02 -0.20203674867E+02 -0.63136944712E+02  0.84178262894E+02  0.00000000000E+00 0. -1.
        -13    1    3    3    0    0  0.81846446728E+03 -0.58564593523E+03 -0.72463874654E+03  0.12401477971E+04  0.00000000000E+00 0.  1.
         22    1    1    2    0    0 -0.87034430612E+03  0.60584961010E+03  0.38399572858E+04  0.39836948827E+04  0.00000000000E+00 0. -1.
<mgrwt>
<rscale>  0 0.43427265E+04</rscale>
<asrwt>0</asrwt>
<pdfrwt beam="1">  1        2 0.64309249E+00 0.43427265E+04</pdfrwt>
<pdfrwt beam="2">  1       -2 0.17352611E+00 0.43427265E+04</pdfrwt>
<totfact> 0.37163658E-02</totfact>
</mgrwt>
</event>
<event>
 6    1  0.1559843E-005  0.2270857E+04  0.7818608E-02  0.8489501E-01
          2   -1    0    0  501    0  0.00000000000E+00  0.00000000000E+00  0.15122900981E+04  0.15122900981E+04  0.00000000000E+00 0. -1.
         -2   -1    0    0    0  501 -0.00000000000E+00 -0.00000000000E+00 -0.85248029247E+03  0.85248029247E+03  0.00000000000E+00 0.  1.
         23    2    1    2    0    0 -0.58718738108E+03  0.45810641018E+03 -0.56063920431E+03  0.93503395003E+03  0.72949754920E+02 0.  0.
         11    1    3    3    0    0 -0.31133540540E+03  0.20990362794E+03 -0.25001764376E+03  0.45110762560E+03  0.00000000000E+00 0.  1.
        -11    1    3    3    0    0 -0.27585197568E+03  0.24820278224E+03 -0.31062156056E+03  0.48392632443E+03  0.00000000000E+00 0. -1.
         22    1    1    2    0    0  0.58718738108E+03 -0.45810641018E+03  0.12204490099E+04  0.14297364405E+04  0.00000000000E+00 0. -1.
<mgrwt>
<rscale>  0 0.22708567E+04</rscale>
<asrwt>0</asrwt>
<pdfrwt beam="1">  1        2 0.23266002E+00 0.22708567E+04</pdfrwt>
<pdfrwt beam="2">  1       -2 0.13115081E+00 0.22708567E+04</pdfrwt>
<totfact> 0.48223640E+00</totfact>
</mgrwt>
</event>
<event>
 6    1  0.1528034E-005  0.2027287E+04  0.7818608E-02  0.8593968E-01
          2   -1    0    0  501    0  0.00000000000E+00  0.00000000000E+00  0.75136811219E+03  0.75136811219E+03  0.00000000000E+00 0.  1.
         -2   -1    0    0    0  501 -0.00000000000E+00 -0.00000000000E+00 -0.13674698119E+04  0.13674698119E+04  0.00000000000E+00 0. -1.
         23    2    1    2    0    0  0.71183435331E+03 -0.12880111865E+03 -0.10487648735E+04  0.12759290936E+04  0.69205614489E+02 0.  0.
         11    1    3    3    0    0  0.55890360987E+02  0.39033492096E-01 -0.56307265163E+02  0.79336259585E+02  0.00000000000E+00 0. -1.
        -11    1    3    3    0    0  0.65594399233E+03 -0.12884015215E+03 -0.99245760838E+03  0.11965928340E+04  0.00000000000E+00 0.  1.
         22    1    1    2    0    0 -0.71183435331E+03  0.12880111865E+03  0.43266317379E+03  0.84290883058E+03  0.00000000000E+00 0.  1.
<mgrwt>
<rscale>  0 0.20272871E+04</rscale>
<asrwt>0</asrwt>
<pdfrwt beam="1">  1        2 0.11559509E+00 0.20272871E+04</pdfrwt>
<pdfrwt beam="2">  1       -2 0.21037997E+00 0.20272871E+04</pdfrwt>
<totfact> 0.39468247E+00</totfact>
</mgrwt>
</event>
<event>
 6    1  0.1528034E-005  0.1025875E+04  0.7818608E-02  0.9280612E-01
         -2   -1    0    0    0  501 -0.00000000000E+00  0.00000000000E+00  0.14784665526E+03  0.14784665526E+03  0.00000000000E+00 0.  1.
          2   -1    0    0  501    0  0.00000000000E+00 -0.00000000000E+00 -0.17795796915E+04  0.17795796915E+04  0.00000000000E+00 0. -1.
         23    2    1    2    0    0 -0.25308617790E+03  0.79564701606E+02 -0.16381781728E+04  0.16620498312E+04  0.91644751751E+02 0.  0.
         13    1    3    3    0    0 -0.16145746054E+03  0.95249053221E+02 -0.11283178802E+04  0.11437841284E+04  0.00000000000E+00 0. -1.
        -13    1    3    3    0    0 -0.91628717358E+02 -0.15684351615E+02 -0.50986029259E+03  0.51826570280E+03  0.00000000000E+00 0.  1.
         22    1    1    2    0    0  0.25308617790E+03 -0.79564701606E+02  0.64451365934E+01  0.26537651549E+03  0.00000000000E+00 0.  1.
<mgrwt>
<rscale>  0 0.10258751E+04</rscale>
<asrwt>0</asrwt>
<pdfrwt beam="1">  1        2 0.27378150E+00 0.10258751E+04</pdfrwt>
<pdfrwt beam="2">  1       -2 0.22745639E-01 0.10258751E+04</pdfrwt>
<totfact> 0.15035883E+02</totfact>
</mgrwt>
</event>
<event>
 6    1  0.1528034E-005  0.2305066E+04  0.7818608E-02  0.8475926E-01
          1   -1    0    0  501    0  0.00000000000E+00  0.00000000000E+00  0.84592852111E+03  0.84592852111E+03  0.00000000000E+00 0. -1.
         -1   -1    0    0    0  501 -0.00000000000E+00 -0.00000000000E+00 -0.15702659701E+04  0.15702659701E+04  0.00000000000E+00 0.  1.
         23    2    1    2    0    0 -0.65343634611E+03  0.76845568106E+03  0.21752475647E+03  0.10361192736E+04  0.93396666432E+02 0.  0.
         11    1    3    3    0    0 -0.95406645871E+02  0.88760647898E+02  0.56705697564E+02  0.14211409792E+03  0.00000000000E+00 0. -1.
        -11    1    3    3    0    0 -0.55802970024E+03  0.67969503317E+03  0.16081905890E+03  0.89400517570E+03  0.00000000000E+00 0.  1.
         22    1    1    2    0    0  0.65343634611E+03 -0.76845568106E+03 -0.94186220548E+03  0.13800752176E+04  0.00000000000E+00 0. -1.
<mgrwt>
<rscale>  0 0.23050664E+04</rscale>
<asrwt>0</asrwt>
<pdfrwt beam="1">  1        1 0.13014285E+00 0.23050664E+04</pdfrwt>
<pdfrwt beam="2">  1       -1 0.24157938E+00 0.23050664E+04</pdfrwt>
<totfact> 0.14437025E+00</totfact>
</mgrwt>
</event>
<event>
 6    1  0.3833314E-005  0.2855866E+04  0.7818608E-02  0.8286131E-01
          2   -1    0    0  501    0  0.00000000000E+00  0.00000000000E+00  0.21163974117E+04  0.21163974117E+04  0.00000000000E+00 0. -1.
         -2   -1    0    0    0  501 -0.00000000000E+00 -0.00000000000E+00 -0.96342615047E+03  0.96342615047E+03  0.00000000000E+00 0.  1.
         23    2    1    2    0    0  0.52215886622E+02  0.76184196778E+03  0.18764592685E+04  0.20278898288E+04  0.90044926156E+02 0.  0.
         13    1    3    3    0    0  0.58419034032E+02  0.30320194765E+03  0.81690749396E+03  0.87331669987E+03  0.00000000000E+00 0. -1.
        -13    1    3    3    0    0 -0.62031474098E+01  0.45864002012E+03  0.10595517746E+04  0.11545731289E+04  0.00000000000E+00 0.  1.
         22    1    1    2    0    0 -0.52215886622E+02 -0.76184196778E+03 -0.72348800728E+03  0.10519337334E+04  0.00000000000E+00 0.  1.
<mgrwt>
<rscale>  0 0.28558660E+04</rscale>
<asrwt>0</asrwt>
<pdfrwt beam="1">  1        2 0.32559960E+00 0.28558660E+04</pdfrwt>
<pdfrwt beam="2">  1       -2 0.14821941E+00 0.28558660E+04</pdfrwt>
<totfact> 0.15410695E+00</totfact>
</mgrwt>
</event>
<event>
 6    1  0.1528034E-005  0.1826393E+04  0.7818608E-02  0.8692389E-01
          1   -1    0    0  501    0  0.00000000000E+00  0.00000000000E+00  0.29875679855E+03  0.29875679855E+03  0.00000000000E+00 0. -1.
         -1   -1    0    0    0  501 -0.00000000000E+00 -0.00000000000E+00 -0.27913261953E+04  0.27913261953E+04  0.00000000000E+00 0.  1.
         23    2    1    2    0    0 -0.36101596431E+03 -0.15207573455E+02 -0.26640961012E+04  0.26901014853E+04  0.93135215887E+02 0.  0.
         11    1    3    3    0    0 -0.42700323952E+02  0.62071746464E+01 -0.59403057520E+03  0.59559564383E+03  0.00000000000E+00 0.  1.
        -11    1    3    3    0    0 -0.31831564036E+03 -0.21414748101E+02 -0.20700655260E+04  0.20945058415E+04  0.00000000000E+00 0. -1.
         22    1    1    2    0    0  0.36101596431E+03  0.15207573455E+02  0.17152670444E+03  0.39998150847E+03  0.00000000000E+00 0. -1.
<mgrwt>
<rscale>  0 0.18263928E+04</rscale>
<asrwt>0</asrwt>
<pdfrwt beam="1">  1        1 0.45962583E-01 0.18263928E+04</pdfrwt>
<pdfrwt beam="2">  1       -1 0.42943481E+00 0.18263928E+04</pdfrwt>
<totfact> 0.37342633E-01</totfact>
</mgrwt>
</event>
<event>
 6    1  0.1802673E-005  0.2193898E+04  0.7818608E-02  0.8520972E-01
          2   -1    0    0  501    0  0.00000000000E+00  0.00000000000E+00  0.17081859164E+04  0.17081859164E+04  0.00000000000E+00 0. -1.
         -2   -1    0    0    0  501 -0.00000000000E+00 -0.00000000000E+00 -0.70442970016E+03  0.70442970016E+03  0.00000000000E+00 0.  1.
         23    2    1    2    0    0 -0.47246510499E+03  0.61000328449E+03 -0.35180647018E+03  0.85284721089E+03  0.90847620448E+02 0.  0.
         13    1    3    3    0    0 -0.28981047523E+03  0.41465609028E+03 -0.26851331574E+03  0.57273832200E+03  0.00000000000E+00 0. -1.
        -13    1    3    3    0    0 -0.18265462976E+03  0.19534719421E+03 -0.83293154443E+02  0.28010888889E+03  0.00000000000E+00 0.  1.
         22    1    1    2    0    0  0.47246510499E+03 -0.61000328449E+03  0.13555626864E+04  0.15597684057E+04  0.00000000000E+00 0. -1.
<mgrwt>
<rscale>  0 0.21938978E+04</rscale>
<asrwt>0</asrwt>
<pdfrwt beam="1">  1        2 0.26279783E+00 0.21938978E+04</pdfrwt>
<pdfrwt beam="2">  1       -2 0.10837380E+00 0.21938978E+04</pdfrwt>
<totfact> 0.60453893E+00</totfact>
</mgrwt>
</event>
<event>
 6    1  0.1528034E-005  0.3223745E+04  0.7818608E-02  0.8182574E-01
          2   -1    0    0  501    0  0.00000000000E+00  0.00000000000E+00  0.17533265844E+04  0.17533265844E+04  0.00000000000E+00 0.  1.
         -2   -1    0    0    0  501 -0.00000000000E+00 -0.00000000000E+00 -0.14818308283E+04  0.14818308283E+04  0.00000000000E+00 0. -1.
         23    2    1    2    0    0 -0.15246776845E+04  0.49593666057E+03 -0.17511072135E+02  0.16060103476E+04  0.91473416062E+02 0.  0.
         11    1    3    3    0    0 -0.73709415922E+03  0.28680085513E+03 -0.18112274650E+02  0.79113246966E+03  0.00000000000E+00 0. -1.
        -11    1    3    3    0    0 -0.78758352532E+03  0.20913580544E+03  0.60120251492E+00  0.81487787791E+03  0.00000000000E+00 0.  1.
         22    1    1    2    0    0  0.15246776845E+04 -0.49593666057E+03  0.28900682828E+03  0.16291470651E+04  0.00000000000E+00 0.  1.
<mgrwt>
<rscale>  0 0.32237453E+04</rscale>
<asrwt>0</asrwt>
<pdfrwt beam="1">  1        2 0.26974255E+00 0.32237453E+04</pdfrwt>
<pdfrwt beam="2">  1       -2 0.22797398E+00 0.32237453E+04</pdfrwt>
<totfact> 0.67773529E-01</totfact>
</mgrwt>
</event>
<event>
 6    1  0.1528034E-005  0.2900804E+04  0.7818608E-02  0.8272638E-01
          1   -1    0    0  501    0  0.00000000000E+00  0.00000000000E+00  0.87180984202E+03  0.87180984202E+03  0.00000000000E+00 0. -1.
         -1   -1    0    0    0  501 -0.00000000000E+00 -0.00000000000E+00 -0.24129874498E+04  0.24129874498E+04  0.00000000000E+00 0.  1.
         23    2    1    2    0    0 -0.10086949572E+04 -0.24001509230E+03 -0.19176067229E+04  0.21817235681E+04  0.87346566013E+02 0.  0.
         11    1    3    3    0    0 -0.56018337119E+03 -0.17524029261E+03 -0.11124468819E+04  0.12577967382E+04  0.00000000000E+00 0. -1.
        -11    1    3    3    0    0 -0.44851158602E+03 -0.64774799685E+02 -0.80515984094E+03  0.92392682986E+03  0.00000000000E+00 0.  1.
         22    1    1    2    0    0  0.10086949572E+04  0.24001509230E+03  0.37642911515E+03  0.11030737237E+04  0.00000000000E+00 0. -1.
<mgrwt>
<rscale>  0 0.29008042E+04</rscale>
<asrwt>0</asrwt>
<pdfrwt beam="1">  1        1 0.13412459E+00 0.29008042E+04</pdfrwt>
<pdfrwt beam="2">  1       -1 0.37122884E+00 0.29008042E+04</pdfrwt>
<totfact> 0.18469684E-01</totfact>
</mgrwt>
</event>
<event>
 6    1  0.1528034E-005  0.7985725E+03  0.7818608E-02  0.9562086E-01
         -2   -1    0    0    0  501 -0.00000000000E+00  0.00000000000E+00  0.90726007611E+02  0.90726007611E+02  0.00000000000E+00 0.  1.
          2   -1    0    0  501    0  0.00000000000E+00 -0.00000000000E+00 -0.17572636720E+04  0.17572636720E+04  0.00000000000E+00 0. -1.
         23    2    1    2    0    0 -0.93002014664E+02 -0.25150145230E+03 -0.15126821449E+04  0.15388394311E+04  0.88978470051E+02 0.  0.
         13    1    3    3    0    0  0.70705591182E+01 -0.10198315316E+03 -0.58690271408E+03  0.59573933237E+03  0.00000000000E+00 0.  1.
        -13    1    3    3    0    0 -0.10007257378E+03 -0.14951829914E+03 -0.92577943078E+03  0.94310009874E+03  0.00000000000E+00 0. -1.
         22    1    1    2    0    0  0.93002014664E+02  0.25150145230E+03 -0.15385551948E+03  0.30915024845E+03  0.00000000000E+00 0.  1.
<mgrwt>
<rscale>  0 0.79857252E+03</rscale>
<asrwt>0</asrwt>
<pdfrwt beam="1">  1        2 0.27034827E+00 0.79857252E+03</pdfrwt>
<pdfrwt beam="2">  1       -2 0.13957847E-01 0.79857252E+03</pdfrwt>
<totfact> 0.36575901E+02</totfact>
</mgrwt>
</event>
<event>
 6    1  0.1528034E-005  0.2995907E+04  0.7818608E-02  0.8244901E-01
          2   -1    0    0  501    0  0.00000000000E+00  0.00000000000E+00  0.26075917851E+04  0.26075917851E+04  0.00000000000E+00 0.  1.
         -2   -1    0    0    0  501 -0.00000000000E+00 -0.00000000000E+00 -0.86051223310E+03  0.86051223310E+03  0.00000000000E+00 0. -1.
         23    2    1    2    0    0  0.35399859270E+03 -0.10992632175E+04 -0.22763773766E+03  0.11804845133E+04  0.89610946146E+02 0.  0.
         13    1    3    3    0    0  0.94231235272E+02 -0.19590029734E+03 -0.61779948730E+02  0.22599383679E+03  0.00000000000E+00 0.  1.
        -13    1    3    3    0    0  0.25976735743E+03 -0.90336292014E+03 -0.16585778893E+03  0.95449067655E+03  0.00000000000E+00 0. -1.
         22    1    1    2    0    0 -0.35399859270E+03  0.10992632175E+04  0.19747172896E+04  0.22876195048E+04  0.00000000000E+00 0.  1.
<mgrwt>
<rscale>  0 0.29959070E+04</rscale>
<asrwt>0</asrwt>
<pdfrwt beam="1">  1        2 0.40116796E+00 0.29959070E+04</pdfrwt>
<pdfrwt beam="2">  1       -2 0.13238650E+00 0.29959070E+04</pdfrwt>
<totfact> 0.10692903E+00</totfact>
</mgrwt>
</event>
<event>
 6    1  0.1528034E-005  0.1843135E+04  0.7818608E-02  0.8683691E-01
          1   -1    0    0  501    0  0.00000000000E+00  0.00000000000E+00  0.13742620501E+04  0.13742620501E+04  0.00000000000E+00 0. -1.
         -1   -1    0    0    0  501 -0.00000000000E+00 -0.00000000000E+00 -0.61799487493E+03  0.61799487493E+03  0.00000000000E+00 0.  1.
         23    2    1    2    0    0  0.47046843212E+03  0.75750407467E+03  0.13753991096E+03  0.90691071472E+03  0.91743384516E+02 0.  0.
         13    1    3    3    0    0  0.25439788713E+03  0.44180395489E+03  0.12109023194E+03  0.52399605324E+03  0.00000000000E+00 0. -1.
        -13    1    3    3    0    0  0.21607054499E+03  0.31570011978E+03  0.16449679021E+02  0.38291466149E+03  0.00000000000E+00 0.  1.
         22    1    1    2    0    0 -0.47046843212E+03 -0.75750407467E+03  0.61872726422E+03  0.10853462103E+04  0.00000000000E+00 0.  1.
<mgrwt>
<rscale>  0 0.18431353E+04</rscale>
<asrwt>0</asrwt>
<pdfrwt beam="1">  1        1 0.21142493E+00 0.18431353E+04</pdfrwt>
<pdfrwt beam="2">  1       -1 0.95076135E-01 0.18431353E+04</pdfrwt>
<totfact> 0.80494398E+00</totfact>
</mgrwt>
</event>
<event>
 6    1  0.1528034E-005  0.5733861E+03  0.7818608E-02  0.9962213E-01
          2   -1    0    0  501    0  0.00000000000E+00  0.00000000000E+00  0.88304477940E+03  0.88304477940E+03  0.00000000000E+00 0. -1.
         -2   -1    0    0    0  501 -0.00000000000E+00 -0.00000000000E+00 -0.93078983684E+02  0.93078983684E+02  0.00000000000E+00 0.  1.
         23    2    1    2    0    0  0.36787502708E+02  0.27491187093E+03  0.46242025467E+03  0.54691992037E+03  0.91427841715E+02 0.  0.
         13    1    3    3    0    0  0.56137457788E+02  0.10527693223E+03  0.22221375721E+03  0.25221736761E+03  0.00000000000E+00 0. -1.
        -13    1    3    3    0    0 -0.19349955080E+02  0.16963493870E+03  0.24020649746E+03  0.29470255277E+03  0.00000000000E+00 0.  1.
         22    1    1    2    0    0 -0.36787502708E+02 -0.27491187093E+03  0.32754554105E+03  0.42920384271E+03  0.00000000000E+00 0. -1.
<mgrwt>
<rscale>  0 0.57338612E+03</rscale>
<asrwt>0</asrwt>
<pdfrwt beam="1">  1        2 0.13585304E+00 0.57338612E+03</pdfrwt>
<pdfrwt beam="2">  1       -2 0.14319844E-01 0.57338612E+03</pdfrwt>
<totfact> 0.11478465E+03</totfact>
</mgrwt>
</event>
<event>
 6    1  0.1528034E-005  0.5903874E+03  0.7818608E-02  0.9925552E-01
         -3   -1    0    0    0  501 -0.00000000000E+00  0.00000000000E+00  0.50844027308E+03  0.50844027308E+03  0.00000000000E+00 0.  1.
          3   -1    0    0  501    0  0.00000000000E+00 -0.00000000000E+00 -0.17138555493E+03  0.17138555493E+03  0.00000000000E+00 0. -1.
         23    2    1    2    0    0 -0.20730954218E+03  0.51712987383E+02 -0.49864363642E+02  0.23783277921E+03  0.91795951782E+02 0.  0.
         11    1    3    3    0    0 -0.34769787574E+02  0.22577583895E+02 -0.47211849680E+02  0.62830280699E+02  0.00000000000E+00 0.  1.
        -11    1    3    3    0    0 -0.17253975460E+03  0.29135403489E+02 -0.26525139621E+01  0.17500249851E+03  0.00000000000E+00 0. -1.
         22    1    1    2    0    0  0.20730954218E+03 -0.51712987383E+02  0.38691908178E+03  0.44199304880E+03  0.00000000000E+00 0.  1.
<mgrwt>
<rscale>  0 0.59038739E+03</rscale>
<asrwt>0</asrwt>
<pdfrwt beam="1">  1        3 0.26367009E-01 0.59038739E+03</pdfrwt>
<pdfrwt beam="2">  1       -3 0.78221580E-01 0.59038739E+03</pdfrwt>
<totfact> 0.55501523E+01</totfact>
</mgrwt>
</event>
<event>
 6    1  0.1528034E-005  0.1963865E+04  0.7818608E-02  0.8623704E-01
          1   -1    0    0  501    0  0.00000000000E+00  0.00000000000E+00  0.30961785223E+04  0.30961785223E+04  0.00000000000E+00 0. -1.
         -1   -1    0    0    0  501 -0.00000000000E+00 -0.00000000000E+00 -0.31141351781E+03  0.31141351781E+03  0.00000000000E+00 0.  1.
         23    2    1    2    0    0  0.59839731943E+03 -0.36090070192E+03  0.20337755763E+03  0.73329029585E+03  0.89574318285E+02 0.  0.
         13    1    3    3    0    0  0.37931223273E+03 -0.18076912218E+03  0.13750588582E+03  0.44211210577E+03  0.00000000000E+00 0. -1.
        -13    1    3    3    0    0  0.21908508670E+03 -0.18013157973E+03  0.65871671810E+02  0.29117819008E+03  0.00000000000E+00 0.  1.
         22    1    1    2    0    0 -0.59839731943E+03  0.36090070192E+03  0.25813874469E+04  0.26743017443E+04  0.00000000000E+00 0. -1.
<mgrwt>
<rscale>  0 0.19638654E+04</rscale>
<asrwt>0</asrwt>
<pdfrwt beam="1">  1        1 0.47633514E+00 0.19638654E+04</pdfrwt>
<pdfrwt beam="2">  1       -1 0.47909774E-01 0.19638654E+04</pdfrwt>
<totfact> 0.20626951E+00</totfact>
</mgrwt>
</event>
<event>
 6    1  0.1528034E-005  0.4591126E+04  0.7818608E-02  0.7894875E-01
          1   -1    0    0  501    0  0.00000000000E+00  0.00000000000E+00  0.25976671775E+04  0.25976671775E+04  0.00000000000E+00 0. -1.
         -1   -1    0    0    0  501 -0.00000000000E+00 -0.00000000000E+00 -0.20285931179E+04  0.20285931179E+04  0.00000000000E+00 0.  1.
         23    2    1    2    0    0 -0.16956977514E+04  0.86959429024E+03 -0.10033887991E+04  0.21555874041E+04  0.90459277889E+02 0.  0.
         11    1    3    3    0    0 -0.13649294857E+04  0.67299142406E+03 -0.83128981251E+03  0.17340682541E+04  0.00000000000E+00 0.  1.
        -11    1    3    3    0    0 -0.33076826573E+03  0.19660286618E+03 -0.17209898661E+03  0.42151914997E+03  0.00000000000E+00 0. -1.
         22    1    1    2    0    0  0.16956977514E+04 -0.86959429024E+03  0.15724628587E+04  0.24706728913E+04  0.00000000000E+00 0. -1.
<mgrwt>
<rscale>  0 0.45911261E+04</rscale>
<asrwt>0</asrwt>
<pdfrwt beam="1">  1        1 0.39964111E+00 0.45911261E+04</pdfrwt>
<pdfrwt beam="2">  1       -1 0.31209125E+00 0.45911261E+04</pdfrwt>
<totfact> 0.23809868E-02</totfact>
</mgrwt>
</event>
<event>
 6    1  0.1528034E-005  0.2001037E+04  0.7818608E-02  0.8606136E-01
          2   -1    0    0  501    0  0.00000000000E+00  0.00000000000E+00  0.24479070407E+04  0.24479070407E+04  0.00000000000E+00 0. -1.
         -2   -1    0    0    0  501 -0.00000000000E+00 -0.00000000000E+00 -0.40893593937E+03  0.40893593937E+03  0.00000000000E+00 0.  1.
         23    2    1    2    0    0 -0.56276177230E+02 -0.85424077178E+03  0.17552154234E+04  0.19549496444E+04  0.90291888371E+02 0.  0.
         13    1    3    3    0    0 -0.24964699759E+02 -0.25997604204E+03  0.44618739925E+03  0.51700481034E+03  0.00000000000E+00 0.  1.
        -13    1    3    3    0    0 -0.31311477471E+02 -0.59426472974E+03  0.13090280242E+04  0.14379448340E+04  0.00000000000E+00 0. -1.
         22    1    1    2    0    0  0.56276177230E+02  0.85424077178E+03  0.28375567797E+03  0.90189333575E+03  0.00000000000E+00 0.  1.
<mgrwt>
<rscale>  0 0.20010369E+04</rscale>
<asrwt>0</asrwt>
<pdfrwt beam="1">  1        2 0.37660107E+00 0.20010369E+04</pdfrwt>
<pdfrwt beam="2">  1       -2 0.62913223E-01 0.20010369E+04</pdfrwt>
<totfact> 0.81193504E+00</totfact>
</mgrwt>
</event>
<event>
 6    1  0.1528034E-005  0.2477811E+04  0.7818608E-02  0.8410933E-01
         -2   -1    0    0    0  501 -0.00000000000E+00  0.00000000000E+00  0.39483650104E+03  0.39483650104E+03  0.00000000000E+00 0.  1.
          2   -1    0    0  501    0  0.00000000000E+00 -0.00000000000E+00 -0.38873981532E+04  0.38873981532E+04  0.00000000000E+00 0. -1.
         23    2    1    2    0    0  0.45752823938E+03  0.42787555533E+03 -0.35924987382E+04  0.36478869563E+04  0.92857318564E+02 0.  0.
         13    1    3    3    0    0  0.43165410528E+03  0.36589904303E+03 -0.31792327191E+04  0.32291992906E+04  0.00000000000E+00 0. -1.
        -13    1    3    3    0    0  0.25874134103E+02  0.61976512305E+02 -0.41326601914E+03  0.41868766577E+03  0.00000000000E+00 0.  1.
         22    1    1    2    0    0 -0.45752823938E+03 -0.42787555533E+03  0.99937086029E+02  0.63434769791E+03  0.00000000000E+00 0.  1.
<mgrwt>
<rscale>  0 0.24778109E+04</rscale>
<asrwt>0</asrwt>
<pdfrwt beam="1">  1        2 0.59806124E+00 0.24778109E+04</pdfrwt>
<pdfrwt beam="2">  1       -2 0.60744079E-01 0.24778109E+04</pdfrwt>
<totfact> 0.95099118E-01</totfact>
</mgrwt>
</event>
<event>
 6    1  0.1528034E-005  0.9572189E+03  0.7818608E-02  0.9356752E-01
          2   -1    0    0  501    0  0.00000000000E+00  0.00000000000E+00  0.40820928478E+03  0.40820928478E+03  0.00000000000E+00 0. -1.
         -2   -1    0    0    0  501 -0.00000000000E+00 -0.00000000000E+00 -0.56115084245E+03  0.56115084245E+03  0.00000000000E+00 0.  1.
         23    2    1    2    0    0 -0.36094752098E+02  0.10096286117E+03 -0.54506576568E+03  0.56284109327E+03  0.90537709811E+02 0.  0.
         13    1    3    3    0    0  0.29910480257E+01 -0.49544139910E+00 -0.22102846354E+03  0.22104925588E+03  0.00000000000E+00 0.  1.
        -13    1    3    3    0    0 -0.39085800124E+02  0.10145830257E+03 -0.32403730214E+03  0.34179183739E+03  0.00000000000E+00 0. -1.
         22    1    1    2    0    0  0.36094752098E+02 -0.10096286117E+03  0.39212420801E+03  0.40651903396E+03  0.00000000000E+00 0. -1.
<mgrwt>
<rscale>  0 0.95721885E+03</rscale>
<asrwt>0</asrwt>
<pdfrwt beam="1">  1        2 0.62801428E-01 0.95721885E+03</pdfrwt>
<pdfrwt beam="2">  1       -2 0.86330899E-01 0.95721885E+03</pdfrwt>
<totfact> 0.90478679E+01</totfact>
</mgrwt>
</event>
<event>
 6    1  0.1528034E-005  0.1114051E+04  0.7818608E-02  0.9191604E-01
          2   -1    0    0  501    0  0.00000000000E+00  0.00000000000E+00  0.10378768356E+04  0.10378768356E+04  0.00000000000E+00 0. -1.
         -2   -1    0    0    0  501 -0.00000000000E+00 -0.00000000000E+00 -0.29895384285E+03  0.29895384285E+03  0.00000000000E+00 0.  1.
         23    2    1    2    0    0 -0.24460607552E+03 -0.37464991080E+03 -0.18385902841E+02  0.45722198635E+03  0.92299596610E+02 0.  0.
         13    1    3    3    0    0 -0.18632512799E+03 -0.31990967222E+03 -0.45026883941E+02  0.37294325571E+03  0.00000000000E+00 0. -1.
        -13    1    3    3    0    0 -0.58280947532E+02 -0.54740238584E+02  0.26640981099E+02  0.84278730646E+02  0.00000000000E+00 0.  1.
         22    1    1    2    0    0  0.24460607552E+03  0.37464991080E+03  0.75730889555E+03  0.87960869205E+03  0.00000000000E+00 0.  1.
<mgrwt>
<rscale>  0 0.11140507E+04</rscale>
<asrwt>0</asrwt>
<pdfrwt beam="1">  1        2 0.15967336E+00 0.11140507E+04</pdfrwt>
<pdfrwt beam="2">  1       -2 0.45992899E-01 0.11140507E+04</pdfrwt>
<totfact> 0.10589895E+02</totfact>
</mgrwt>
</event>
<event>
 6    1  0.1528034E-005  0.3232252E+04  0.7818608E-02  0.8180351E-01
         -1   -1    0    0    0  501 -0.00000000000E+00  0.00000000000E+00  0.11854574475E+04  0.11854574475E+04  0.00000000000E+00 0.  1.
          1   -1    0    0  501    0  0.00000000000E+00 -0.00000000000E+00 -0.22032533803E+04  0.22032533803E+04  0.00000000000E+00 0. -1.
         23    2    1    2    0    0 -0.89584627710E+03  0.12477051035E+04  0.13068434147E+02  0.15388486922E+04  0.92606349501E+02 0.  0.
         11    1    3    3    0    0 -0.47626478364E+03  0.58396856996E+03  0.54549960434E+01  0.75357626808E+03  0.00000000000E+00 0. -1.
        -11    1    3    3    0    0 -0.41958149346E+03  0.66373653357E+03  0.76134381039E+01  0.78527242412E+03  0.00000000000E+00 0.  1.
         22    1    1    2    0    0  0.89584627710E+03 -0.12477051035E+04 -0.10308643669E+04  0.18498621355E+04  0.00000000000E+00 0.  1.
<mgrwt>
<rscale>  0 0.32322519E+04</rscale>
<asrwt>0</asrwt>
<pdfrwt beam="1">  1        1 0.33896206E+00 0.32322519E+04</pdfrwt>
<pdfrwt beam="2">  1       -1 0.18237807E+00 0.32322519E+04</pdfrwt>
<totfact> 0.36183833E-01</totfact>
</mgrwt>
</event>
<event>
 6    1  0.1528034E-005  0.7199330E+03  0.7818608E-02  0.9683738E-01
         -2   -1    0    0    0  501 -0.00000000000E+00  0.00000000000E+00  0.97933582294E+03  0.97933582294E+03  0.00000000000E+00 0. -1.
          2   -1    0    0  501    0  0.00000000000E+00 -0.00000000000E+00 -0.13230997412E+03  0.13230997412E+03  0.00000000000E+00 0.  1.
         23    2    1    2    0    0  0.23913973675E+03  0.10468241317E+03  0.59993199170E+02  0.28244943133E+03  0.89622965763E+02 0.  0.
         11    1    3    3    0    0  0.14199397586E+02  0.38996771331E+02  0.55234874912E+01  0.41867409522E+02  0.00000000000E+00 0. -1.
        -11    1    3    3    0    0  0.22494033916E+03  0.65685641840E+02  0.54469711679E+02  0.24058202180E+03  0.00000000000E+00 0.  1.
         22    1    1    2    0    0 -0.23913973675E+03 -0.10468241317E+03  0.78703264965E+03  0.82919636573E+03  0.00000000000E+00 0. -1.
<mgrwt>
<rscale>  0 0.71993305E+03</rscale>
<asrwt>0</asrwt>
<pdfrwt beam="1">  1        2 0.20355381E-01 0.71993305E+03</pdfrwt>
<pdfrwt beam="2">  1       -2 0.15066704E+00 0.71993305E+03</pdfrwt>
<totfact> 0.83430735E+01</totfact>
</mgrwt>
</event>
<event>
 6    1  0.1528034E-005  0.1595461E+04  0.7818608E-02  0.8823342E-01
         -1   -1    0    0    0  501 -0.00000000000E+00  0.00000000000E+00  0.93543992945E+03  0.93543992945E+03  0.00000000000E+00 0.  1.
          1   -1    0    0  501    0  0.00000000000E+00 -0.00000000000E+00 -0.68029352466E+03  0.68029352466E+03  0.00000000000E+00 0. -1.
         23    2    1    2    0    0 -0.74324742259E+03  0.42931957352E+01  0.41158173477E+03  0.85618939667E+03  0.10595091244E+03 0.  0.
         11    1    3    3    0    0 -0.58302704208E+03 -0.18800398658E+02  0.27739250572E+03  0.64592614826E+03  0.00000000000E+00 0. -1.
        -11    1    3    3    0    0 -0.16022038052E+03  0.23093594393E+02  0.13418922905E+03  0.21026324840E+03  0.00000000000E+00 0.  1.
         22    1    1    2    0    0  0.74324742259E+03 -0.42931957352E+01 -0.15643532999E+03  0.75954405744E+03  0.00000000000E+00 0. -1.
<mgrwt>
<rscale>  0 0.15954607E+04</rscale>
<asrwt>0</asrwt>
<pdfrwt beam="1">  1        1 0.10466054E+00 0.15954607E+04</pdfrwt>
<pdfrwt beam="2">  1       -1 0.14391383E+00 0.15954607E+04</pdfrwt>
<totfact> 0.10645625E+01</totfact>
</mgrwt>
</event>
<event>
 6    1  0.1528034E-005  0.9717227E+03  0.7818608E-02  0.9340114E-01
          1   -1    0    0  501    0  0.00000000000E+00  0.00000000000E+00  0.49022407341E+03  0.49022407341E+03  0.00000000000E+00 0. -1.
         -1   -1    0    0    0  501 -0.00000000000E+00 -0.00000000000E+00 -0.48153744462E+03  0.48153744462E+03  0.00000000000E+00 0.  1.
         23    2    1    2    0    0  0.39461021032E+03  0.46990480364E+02  0.27569157184E+03  0.49299543428E+03  0.95463773743E+02 0.  0.
         13    1    3    3    0    0  0.33330101705E+03  0.31310053926E+01  0.22585269184E+03  0.40262738304E+03  0.00000000000E+00 0.  1.
        -13    1    3    3    0    0  0.61309193266E+02  0.43859474972E+02  0.49838880009E+02  0.90368051236E+02  0.00000000000E+00 0. -1.
         22    1    1    2    0    0 -0.39461021032E+03 -0.46990480364E+02 -0.26700494306E+03  0.47876608375E+03  0.00000000000E+00 0.  1.
<mgrwt>
<rscale>  0 0.97172269E+03</rscale>
<asrwt>0</asrwt>
<pdfrwt beam="1">  1        1 0.75419088E-01 0.97172269E+03</pdfrwt>
<pdfrwt beam="2">  1       -1 0.74082684E-01 0.97172269E+03</pdfrwt>
<totfact> 0.83955632E+01</totfact>
</mgrwt>
</event>
<event>
 6    1  0.1528034E-005  0.2174772E+04  0.7818608E-02  0.8529002E-01
         -2   -1    0    0    0  501 -0.00000000000E+00  0.00000000000E+00  0.48251639903E+03  0.48251639903E+03  0.00000000000E+00 0. -1.
          2   -1    0    0  501    0  0.00000000000E+00 -0.00000000000E+00 -0.24505049970E+04  0.24505049970E+04  0.00000000000E+00 0.  1.
         23    2    1    2    0    0  0.64335251057E+03  0.87434369021E+03 -0.10084470457E+04  0.14841945147E+04  0.86536535794E+02 0.  0.
         11    1    3    3    0    0  0.13265998065E+03  0.16704814002E+03 -0.15426281092E+03  0.26325038724E+03  0.00000000000E+00 0.  1.
        -11    1    3    3    0    0  0.51069252993E+03  0.70729555019E+03 -0.85418423478E+03  0.12209441275E+04  0.00000000000E+00 0. -1.
         22    1    1    2    0    0 -0.64335251057E+03 -0.87434369021E+03 -0.95954155224E+03  0.14488268813E+04  0.00000000000E+00 0. -1.
<mgrwt>
<rscale>  0 0.21747725E+04</rscale>
<asrwt>0</asrwt>
<pdfrwt beam="1">  1        2 0.37700077E+00 0.21747725E+04</pdfrwt>
<pdfrwt beam="2">  1       -2 0.74233293E-01 0.21747725E+04</pdfrwt>
<totfact> 0.55640767E+00</totfact>
</mgrwt>
</event>
<event>
 6    1  0.1528034E-005  0.1803833E+04  0.7818608E-02  0.8704264E-01
          1   -1    0    0  501    0  0.00000000000E+00  0.00000000000E+00  0.10048755740E+04  0.10048755740E+04  0.00000000000E+00 0. -1.
         -1   -1    0    0    0  501 -0.00000000000E+00 -0.00000000000E+00 -0.80950636697E+03  0.80950636697E+03  0.00000000000E+00 0.  1.
         23    2    1    2    0    0  0.64243762700E+03 -0.61830794752E+03  0.21843716171E+03  0.92243858340E+03  0.90262528027E+02 0.  0.
         11    1    3    3    0    0  0.54212651954E+03 -0.55798313173E+03  0.17372456841E+03  0.79713647775E+03  0.00000000000E+00 0.  1.
        -11    1    3    3    0    0  0.10031110746E+03 -0.60324815789E+02  0.44712593304E+02  0.12530210565E+03  0.00000000000E+00 0. -1.
         22    1    1    2    0    0 -0.64243762700E+03  0.61830794752E+03 -0.23067954697E+02  0.89194335756E+03  0.00000000000E+00 0.  1.
<mgrwt>
<rscale>  0 0.18038328E+04</rscale>
<asrwt>0</asrwt>
<pdfrwt beam="1">  1        1 0.15459624E+00 0.18038328E+04</pdfrwt>
<pdfrwt beam="2">  1       -1 0.12453944E+00 0.18038328E+04</pdfrwt>
<totfact> 0.79922475E+00</totfact>
</mgrwt>
</event>
<event>
 6    1  0.1528034E-005  0.2912037E+04  0.7818608E-02  0.8269305E-01
          1   -1    0    0  501    0  0.00000000000E+00  0.00000000000E+00  0.22231387414E+04  0.22231387414E+04  0.00000000000E+00 0. -1.
         -1   -1    0    0    0  501 -0.00000000000E+00 -0.00000000000E+00 -0.95360245503E+03  0.95360245503E+03  0.00000000000E+00 0.  1.
         23    2    1    2    0    0  0.62906429929E+03  0.55869685028E+03 -0.65890498901E+03  0.10727569247E+04  0.93742049129E+02 0.  0.
         11    1    3    3    0    0  0.49786049885E+03  0.39155249958E+03 -0.47451232816E+03  0.79141669544E+03  0.00000000000E+00 0. -1.
        -11    1    3    3    0    0  0.13120380044E+03  0.16714435070E+03 -0.18439266085E+03  0.28134022925E+03  0.00000000000E+00 0.  1.
         22    1    1    2    0    0 -0.62906429929E+03 -0.55869685028E+03  0.19284412753E+04  0.21039842717E+04  0.00000000000E+00 0. -1.
<mgrwt>
<rscale>  0 0.29120375E+04</rscale>
<asrwt>0</asrwt>
<pdfrwt beam="1">  1        1 0.34202134E+00 0.29120375E+04</pdfrwt>
<pdfrwt beam="2">  1       -1 0.14670807E+00 0.29120375E+04</pdfrwt>
<totfact> 0.66695442E-01</totfact>
</mgrwt>
</event>
<event>
 6    1  0.1528034E-005  0.1996525E+04  0.7818608E-02  0.8608247E-01
         -2   -1    0    0    0  501 -0.00000000000E+00  0.00000000000E+00  0.80880986833E+03  0.80880986833E+03  0.00000000000E+00 0.  1.
          2   -1    0    0  501    0  0.00000000000E+00 -0.00000000000E+00 -0.12320918074E+04  0.12320918074E+04  0.00000000000E+00 0. -1.
         23    2    1    2    0    0  0.48016442144E+03  0.81037966196E+03  0.11953710255E+03  0.95373766784E+03  0.89740470399E+02 0.  0.
         11    1    3    3    0    0  0.39059575203E+03  0.62106374848E+03  0.60652406570E+02  0.73618199896E+03  0.00000000000E+00 0. -1.
        -11    1    3    3    0    0  0.89568669417E+02  0.18931591348E+03  0.58884695979E+02  0.21755566887E+03  0.00000000000E+00 0.  1.
         22    1    1    2    0    0 -0.48016442144E+03 -0.81037966196E+03 -0.54281904165E+03  0.10871640079E+04  0.00000000000E+00 0. -1.
<mgrwt>
<rscale>  0 0.19965250E+04</rscale>
<asrwt>0</asrwt>
<pdfrwt beam="1">  1        2 0.18955259E+00 0.19965250E+04</pdfrwt>
<pdfrwt beam="2">  1       -2 0.12443229E+00 0.19965250E+04</pdfrwt>
<totfact> 0.81704390E+00</totfact>
</mgrwt>
</event>
<event>
 6    1  0.1528034E-005  0.3312717E+04  0.7818608E-02  0.8159667E-01
          2   -1    0    0  501    0  0.00000000000E+00  0.00000000000E+00  0.32304389861E+04  0.32304389861E+04  0.00000000000E+00 0. -1.
         -2   -1    0    0    0  501 -0.00000000000E+00 -0.00000000000E+00 -0.84927263905E+03  0.84927263905E+03  0.00000000000E+00 0.  1.
         23    2    1    2    0    0  0.81749001115E+03  0.71236804629E+03  0.27314565127E+04  0.29402111416E+04  0.90712320089E+02 0.  0.
         13    1    3    3    0    0  0.26726890936E+03  0.27182418532E+03  0.10462935137E+04  0.11135758503E+04  0.00000000000E+00 0. -1.
        -13    1    3    3    0    0  0.55022110178E+03  0.44054386097E+03  0.16851629990E+04  0.18266352913E+04  0.00000000000E+00 0.  1.
         22    1    1    2    0    0 -0.81749001115E+03 -0.71236804629E+03 -0.35029016566E+03  0.11395004835E+04  0.00000000000E+00 0.  1.
<mgrwt>
<rscale>  0 0.33127170E+04</rscale>
<asrwt>0</asrwt>
<pdfrwt beam="1">  1        2 0.49699061E+00 0.33127170E+04</pdfrwt>
<pdfrwt beam="2">  1       -2 0.13065733E+00 0.33127170E+04</pdfrwt>
<totfact> 0.44262984E-01</totfact>
</mgrwt>
</event>
<event>
 6    1  0.1528034E-005  0.1095242E+04  0.7818608E-02  0.9209842E-01
          1   -1    0    0  501    0  0.00000000000E+00  0.00000000000E+00  0.10241651131E+04  0.10241651131E+04  0.00000000000E+00 0. -1.
         -1   -1    0    0    0  501 -0.00000000000E+00 -0.00000000000E+00 -0.29281285627E+03  0.29281285627E+03  0.00000000000E+00 0.  1.
         23    2    1    2    0    0  0.88797115678E+02  0.35069940541E+03 -0.12015843363E+03  0.39180476576E+03  0.90542391136E+02 0.  0.
         13    1    3    3    0    0 -0.10681830366E+02  0.66893187806E+02  0.56429359643E+00  0.67743032868E+02  0.00000000000E+00 0. -1.
        -13    1    3    3    0    0  0.99478946044E+02  0.28380621761E+03 -0.12072272723E+03  0.32406173290E+03  0.00000000000E+00 0.  1.
         22    1    1    2    0    0 -0.88797115678E+02 -0.35069940541E+03  0.85151069042E+03  0.92517320357E+03  0.00000000000E+00 0. -1.
<mgrwt>
<rscale>  0 0.10952419E+04</rscale>
<asrwt>0</asrwt>
<pdfrwt beam="1">  1        1 0.15756386E+00 0.10952419E+04</pdfrwt>
<pdfrwt beam="2">  1       -1 0.45048132E-01 0.10952419E+04</pdfrwt>
<totfact> 0.70550107E+01</totfact>
</mgrwt>
</event>
<event>
 6    1  0.1528034E-005  0.3392788E+04  0.7818608E-02  0.8139679E-01
         -2   -1    0    0    0  501 -0.00000000000E+00  0.00000000000E+00  0.17921920992E+04  0.17921920992E+04  0.00000000000E+00 0.  1.
          2   -1    0    0  501    0  0.00000000000E+00 -0.00000000000E+00 -0.16057165943E+04  0.16057165943E+04  0.00000000000E+00 0. -1.
         23    2    1    2    0    0 -0.32245207309E+03  0.10119045239E+04 -0.12299127824E+04  0.16275748590E+04  0.91588015604E+02 0.  0.
         11    1    3    3    0    0 -0.76804984345E+02  0.32952081919E+03 -0.44285062281E+03  0.55731467774E+03  0.00000000000E+00 0.  1.
        -11    1    3    3    0    0 -0.24564708875E+03  0.68238370466E+03 -0.78706215958E+03  0.10702601813E+04  0.00000000000E+00 0. -1.
         22    1    1    2    0    0  0.32245207309E+03 -0.10119045239E+04  0.14163882873E+04  0.17703338344E+04  0.00000000000E+00 0.  1.
<mgrwt>
<rscale>  0 0.33927880E+04</rscale>
<asrwt>0</asrwt>
<pdfrwt beam="1">  1        2 0.24703332E+00 0.33927880E+04</pdfrwt>
<pdfrwt beam="2">  1       -2 0.27572186E+00 0.33927880E+04</pdfrwt>
<totfact> 0.41036264E-01</totfact>
</mgrwt>
</event>
<event>
 6    1  0.1528034E-005  0.4301310E+04  0.7818608E-02  0.7946376E-01
         -1   -1    0    0    0  501 -0.00000000000E+00  0.00000000000E+00  0.20131696583E+04  0.20131696583E+04  0.00000000000E+00 0.  1.
          1   -1    0    0  501    0  0.00000000000E+00 -0.00000000000E+00 -0.22975300632E+04  0.22975300632E+04  0.00000000000E+00 0. -1.
         23    2    1    2    0    0 -0.17129847393E+04 -0.12912231188E+04 -0.28240441876E+03  0.21655708943E+04  0.91494169757E+02 0.  0.
         11    1    3    3    0    0 -0.22020897660E+03 -0.18156866788E+03 -0.66469733675E+02  0.29304846020E+03  0.00000000000E+00 0.  1.
        -11    1    3    3    0    0 -0.14927757627E+04 -0.11096544509E+04 -0.21593468508E+03  0.18725224341E+04  0.00000000000E+00 0. -1.
         22    1    1    2    0    0  0.17129847393E+04  0.12912231188E+04 -0.19559861577E+01  0.21451288272E+04  0.00000000000E+00 0.  1.
<mgrwt>
<rscale>  0 0.43013104E+04</rscale>
<asrwt>0</asrwt>
<pdfrwt beam="1">  1        1 0.35346616E+00 0.43013104E+04</pdfrwt>
<pdfrwt beam="2">  1       -1 0.30971841E+00 0.43013104E+04</pdfrwt>
<totfact> 0.40747252E-02</totfact>
</mgrwt>
</event>
<event>
 6    1  0.1528034E-005  0.1110190E+04  0.7818608E-02  0.9195316E-01
          2   -1    0    0  501    0  0.00000000000E+00  0.00000000000E+00  0.69342518670E+03  0.69342518670E+03  0.00000000000E+00 0.  1.
         -2   -1    0    0    0  501 -0.00000000000E+00 -0.00000000000E+00 -0.44436025806E+03  0.44436025806E+03  0.00000000000E+00 0. -1.
         23    2    1    2    0    0 -0.25659177492E+03  0.95005731848E+02 -0.36526055306E+03  0.46528174551E+03  0.90589199363E+02 0.  0.
         11    1    3    3    0    0 -0.68877253431E+02  0.55496224682E+02 -0.16955897182E+03  0.19124369772E+03  0.00000000000E+00 0. -1.
        -11    1    3    3    0    0 -0.18771452149E+03  0.39509507166E+02 -0.19570158124E+03  0.27403804779E+03  0.00000000000E+00 0.  1.
         22    1    1    2    0    0  0.25659177492E+03 -0.95005731848E+02  0.61432548170E+03  0.67250369925E+03  0.00000000000E+00 0.  1.
<mgrwt>
<rscale>  0 0.11101902E+04</rscale>
<asrwt>0</asrwt>
<pdfrwt beam="1">  1        2 0.10668080E+00 0.11101902E+04</pdfrwt>
<pdfrwt beam="2">  1       -2 0.68363116E-01 0.11101902E+04</pdfrwt>
<totfact> 0.80582612E+01</totfact>
</mgrwt>
</event>
<event>
 6    1  0.1528034E-005  0.4160202E+04  0.7818608E-02  0.7972986E-01
         -2   -1    0    0    0  501 -0.00000000000E+00  0.00000000000E+00  0.30245136691E+04  0.30245136691E+04  0.00000000000E+00 0.  1.
          2   -1    0    0  501    0  0.00000000000E+00 -0.00000000000E+00 -0.14305839130E+04  0.14305839130E+04  0.00000000000E+00 0. -1.
         23    2    1    2    0    0  0.13382439918E+04  0.15671038152E+04  0.10926815650E+04  0.23342578668E+04  0.89974646056E+02 0.  0.
         11    1    3    3    0    0  0.10600319585E+04  0.12548870449E+04  0.91011031566E+03  0.18779536829E+04  0.00000000000E+00 0. -1.
        -11    1    3    3    0    0  0.27821203336E+03  0.31221677025E+03  0.18257124938E+03  0.45630418388E+03  0.00000000000E+00 0.  1.
         22    1    1    2    0    0 -0.13382439918E+04 -0.15671038152E+04  0.50124819106E+03  0.21208397154E+04  0.00000000000E+00 0. -1.
<mgrwt>
<rscale>  0 0.41602022E+04</rscale>
<asrwt>0</asrwt>
<pdfrwt beam="1">  1        2 0.22008983E+00 0.41602022E+04</pdfrwt>
<pdfrwt beam="2">  1       -2 0.46530980E+00 0.41602022E+04</pdfrwt>
<totfact> 0.29810319E-02</totfact>
</mgrwt>
</event>
<event>
 6    1  0.1528034E-005  0.2415070E+04  0.7818608E-02  0.8433883E-01
          1   -1    0    0  501    0  0.00000000000E+00  0.00000000000E+00  0.26649148351E+04  0.26649148351E+04  0.00000000000E+00 0. -1.
         -1   -1    0    0    0  501 -0.00000000000E+00 -0.00000000000E+00 -0.54716222974E+03  0.54716222974E+03  0.00000000000E+00 0.  1.
         23    2    1    2    0    0 -0.11352658038E+04 -0.35478473118E+03  0.79814874836E+03  0.14355481486E+04  0.95165182105E+02 0.  0.
         13    1    3    3    0    0 -0.36811948214E+03 -0.10232826486E+03  0.30861894955E+03  0.49115036693E+03  0.00000000000E+00 0. -1.
        -13    1    3    3    0    0 -0.76714632162E+03 -0.25245646632E+03  0.48952979882E+03  0.94439778171E+03  0.00000000000E+00 0.  1.
         22    1    1    2    0    0  0.11352658038E+04  0.35478473118E+03  0.13196038570E+04  0.17765289162E+04  0.00000000000E+00 0. -1.
<mgrwt>
<rscale>  0 0.24150700E+04</rscale>
<asrwt>0</asrwt>
<pdfrwt beam="1">  1        1 0.40998689E+00 0.24150700E+04</pdfrwt>
<pdfrwt beam="2">  1       -1 0.84178806E-01 0.24150700E+04</pdfrwt>
<totfact> 0.12998339E+00</totfact>
</mgrwt>
</event>
<event>
 6    1  0.1528034E-005  0.3289688E+04  0.7818608E-02  0.8165524E-01
          2   -1    0    0  501    0  0.00000000000E+00  0.00000000000E+00  0.17825225441E+04  0.17825225441E+04  0.00000000000E+00 0. -1.
         -2   -1    0    0    0  501 -0.00000000000E+00 -0.00000000000E+00 -0.15177996536E+04  0.15177996536E+04  0.00000000000E+00 0.  1.
         23    2    1    2    0    0  0.15071070942E+04  0.18030827242E+02 -0.52525849737E+03  0.15986267205E+04  0.89520938998E+02 0.  0.
         13    1    3    3    0    0  0.13942845354E+04  0.16368744351E+02 -0.46009507547E+03  0.14683272046E+04  0.00000000000E+00 0. -1.
        -13    1    3    3    0    0  0.11282255882E+03  0.16620828907E+01 -0.65163421895E+02  0.13029951593E+03  0.00000000000E+00 0.  1.
         22    1    1    2    0    0 -0.15071070942E+04 -0.18030827242E+02  0.78998138789E+03  0.17016954772E+04  0.00000000000E+00 0. -1.
<mgrwt>
<rscale>  0 0.32896882E+04</rscale>
<asrwt>0</asrwt>
<pdfrwt beam="1">  1        2 0.27423424E+00 0.32896882E+04</pdfrwt>
<pdfrwt beam="2">  1       -2 0.23350764E+00 0.32896882E+04</pdfrwt>
<totfact> 0.59962349E-01</totfact>
</mgrwt>
</event>
<event>
 6    1  0.1528034E-005  0.8526143E+03  0.7818608E-02  0.9486835E-01
          1   -1    0    0  501    0  0.00000000000E+00  0.00000000000E+00  0.64780303155E+03  0.64780303155E+03  0.00000000000E+00 0. -1.
         -1   -1    0    0    0  501 -0.00000000000E+00 -0.00000000000E+00 -0.28054479031E+03  0.28054479031E+03  0.00000000000E+00 0.  1.
         23    2    1    2    0    0 -0.41266471282E+03  0.72644909583E+00  0.92467481037E+02  0.43256293421E+03  0.90927246032E+02 0.  0.
         13    1    3    3    0    0 -0.33133459005E+03  0.37172414399E+02  0.74990320207E+02  0.34174251576E+03  0.00000000000E+00 0.  1.
        -13    1    3    3    0    0 -0.81330122770E+02 -0.36445965304E+02  0.17477160829E+02  0.90820418450E+02  0.00000000000E+00 0. -1.
         22    1    1    2    0    0  0.41266471282E+03 -0.72644909583E+00  0.27479076020E+03  0.49578488765E+03  0.00000000000E+00 0. -1.
<mgrwt>
<rscale>  0 0.85261425E+03</rscale>
<asrwt>0</asrwt>
<pdfrwt beam="1">  1        1 0.99662004E-01 0.85261425E+03</pdfrwt>
<pdfrwt beam="2">  1       -1 0.43160737E-01 0.85261425E+03</pdfrwt>
<totfact> 0.16350147E+02</totfact>
</mgrwt>
</event>
<event>
 6    1  0.1528034E-005  0.3296875E+04  0.7818608E-02  0.8163691E-01
          2   -1    0    0  501    0  0.00000000000E+00  0.00000000000E+00  0.22064851779E+04  0.22064851779E+04  0.00000000000E+00 0.  1.
         -2   -1    0    0    0  501 -0.00000000000E+00 -0.00000000000E+00 -0.12315271430E+04  0.12315271430E+04  0.00000000000E+00 0. -1.
         23    2    1    2    0    0 -0.61176881917E+03  0.31665513891E+03  0.20481242598E+04  0.21627800631E+04  0.90956321636E+02 0.  0.
         11    1    3    3    0    0 -0.48645943485E+03  0.25559353228E+03  0.15095688422E+04  0.16064771784E+04  0.00000000000E+00 0.  1.
        -11    1    3    3    0    0 -0.12530938431E+03  0.61061606630E+02  0.53855541764E+03  0.55630288465E+03  0.00000000000E+00 0. -1.
         22    1    1    2    0    0  0.61176881917E+03 -0.31665513891E+03 -0.10731662249E+04  0.12752322578E+04  0.00000000000E+00 0. -1.
<mgrwt>
<rscale>  0 0.32968751E+04</rscale>
<asrwt>0</asrwt>
<pdfrwt beam="1">  1        2 0.33945926E+00 0.32968751E+04</pdfrwt>
<pdfrwt beam="2">  1       -2 0.18946571E+00 0.32968751E+04</pdfrwt>
<totfact> 0.66857929E-01</totfact>
</mgrwt>
</event>
<event>
 6    1  0.1528034E-005  0.1400690E+04  0.7818608E-02  0.8953319E-01
         -2   -1    0    0    0  501 -0.00000000000E+00  0.00000000000E+00  0.57920813225E+03  0.57920813225E+03  0.00000000000E+00 0.  1.
          2   -1    0    0  501    0  0.00000000000E+00 -0.00000000000E+00 -0.84681702780E+03  0.84681702780E+03  0.00000000000E+00 0. -1.
         23    2    1    2    0    0  0.22161114011E+03 -0.11275597169E+03  0.52885362366E+03  0.59165237101E+03  0.92417348430E+02 0.  0.
         11    1    3    3    0    0  0.16812960933E+03 -0.48444639097E+02  0.41499568653E+03  0.45037303252E+03  0.00000000000E+00 0.  1.
        -11    1    3    3    0    0  0.53481530786E+02 -0.64311332590E+02  0.11385793713E+03  0.14127933848E+03  0.00000000000E+00 0. -1.
         22    1    1    2    0    0 -0.22161114011E+03  0.11275597169E+03 -0.79646251921E+03  0.83437278903E+03  0.00000000000E+00 0. -1.
<mgrwt>
<rscale>  0 0.14006903E+04</rscale>
<asrwt>0</asrwt>
<pdfrwt beam="1">  1        2 0.13027954E+00 0.14006903E+04</pdfrwt>
<pdfrwt beam="2">  1       -2 0.89108944E-01 0.14006903E+04</pdfrwt>
<totfact> 0.33585333E+01</totfact>
</mgrwt>
</event>
<event>
 6    1  0.1528034E-005  0.2321746E+04  0.7818608E-02  0.8469396E-01
         -2   -1    0    0    0  501 -0.00000000000E+00  0.00000000000E+00  0.16882338770E+04  0.16882338770E+04  0.00000000000E+00 0.  1.
          2   -1    0    0  501    0  0.00000000000E+00 -0.00000000000E+00 -0.79824616851E+03  0.79824616851E+03  0.00000000000E+00 0. -1.
         23    2    1    2    0    0 -0.73033666923E+03 -0.56841304143E+03  0.11930886826E+04  0.15126447223E+04  0.90268573176E+02 0.  0.
         13    1    3    3    0    0 -0.62169935845E+03 -0.45337904374E+03  0.10267325668E+04  0.12830597856E+04  0.00000000000E+00 0. -1.
        -13    1    3    3    0    0 -0.10863731078E+03 -0.11503399770E+03  0.16635611579E+03  0.22958493675E+03  0.00000000000E+00 0.  1.
         22    1    1    2    0    0  0.73033666923E+03  0.56841304143E+03 -0.30310097415E+03  0.97383532316E+03  0.00000000000E+00 0. -1.
<mgrwt>
<rscale>  0 0.23217461E+04</rscale>
<asrwt>0</asrwt>
<pdfrwt beam="1">  1        2 0.12280710E+00 0.23217461E+04</pdfrwt>
<pdfrwt beam="2">  1       -2 0.25972829E+00 0.23217461E+04</pdfrwt>
<totfact> 0.17508953E+00</totfact>
</mgrwt>
</event>
<event>
 6    1  0.1528034E-005  0.4450587E+04  0.7818608E-02  0.7919345E-01
         -1   -1    0    0    0  501 -0.00000000000E+00  0.00000000000E+00  0.30316244506E+04  0.30316244506E+04  0.00000000000E+00 0.  1.
          1   -1    0    0  501    0  0.00000000000E+00 -0.00000000000E+00 -0.16334252420E+04  0.16334252420E+04  0.00000000000E+00 0. -1.
         23    2    1    2    0    0  0.97170184793E+03  0.18698928784E+04 -0.47360499461E+02  0.21095953832E+04  0.86289081764E+02 0.  0.
         13    1    3    3    0    0  0.18683291580E+03  0.32823563691E+03  0.21294574693E+02  0.37828379648E+03  0.00000000000E+00 0.  1.
        -13    1    3    3    0    0  0.78486893213E+03  0.15416572415E+04 -0.68655074154E+02  0.17313115867E+04  0.00000000000E+00 0. -1.
         22    1    1    2    0    0 -0.97170184793E+03 -0.18698928784E+04  0.14455597081E+04  0.25554543095E+04  0.00000000000E+00 0.  1.
<mgrwt>
<rscale>  0 0.44505873E+04</rscale>
<asrwt>0</asrwt>
<pdfrwt beam="1">  1        1 0.25129619E+00 0.44505873E+04</pdfrwt>
<pdfrwt beam="2">  1       -1 0.46640376E+00 0.44505873E+04</pdfrwt>
<totfact> 0.99856783E-03</totfact>
</mgrwt>
</event>
<event>
 6    1  0.1528034E-005  0.3051567E+04  0.7818608E-02  0.8229157E-01
          2   -1    0    0  501    0  0.00000000000E+00  0.00000000000E+00  0.20206038430E+04  0.20206038430E+04  0.00000000000E+00 0. -1.
         -2   -1    0    0    0  501 -0.00000000000E+00 -0.00000000000E+00 -0.11521384272E+04  0.11521384272E+04  0.00000000000E+00 0.  1.
         23    2    1    2    0    0 -0.14195949370E+03 -0.58583285568E+03  0.18903969217E+04  0.19862783494E+04  0.91370275788E+02 0.  0.
         11    1    3    3    0    0 -0.49630262516E+02 -0.32483980036E+03  0.90866107321E+03  0.96625514478E+03  0.00000000000E+00 0. -1.
        -11    1    3    3    0    0 -0.92329231189E+02 -0.26099305531E+03  0.98173584848E+03  0.10200232047E+04  0.00000000000E+00 0.  1.
         22    1    1    2    0    0  0.14195949370E+03  0.58583285568E+03 -0.10219315058E+04  0.11864639208E+04  0.00000000000E+00 0.  1.
<mgrwt>
<rscale>  0 0.30515670E+04</rscale>
<asrwt>0</asrwt>
<pdfrwt beam="1">  1        2 0.31086213E+00 0.30515670E+04</pdfrwt>
<pdfrwt beam="2">  1       -2 0.17725207E+00 0.30515670E+04</pdfrwt>
<totfact> 0.10510160E+00</totfact>
</mgrwt>
</event>
<event>
 6    1  0.1528034E-005  0.5365769E+03  0.7818608E-02  0.1004649E+00
         -2   -1    0    0    0  501 -0.00000000000E+00  0.00000000000E+00  0.10274937428E+03  0.10274937428E+03  0.00000000000E+00 0.  1.
          2   -1    0    0  501    0  0.00000000000E+00 -0.00000000000E+00 -0.70052676651E+03  0.70052676651E+03  0.00000000000E+00 0. -1.
         23    2    1    2    0    0 -0.78229407972E+02 -0.18425545982E+03 -0.55694754572E+03  0.59897980918E+03  0.92283955151E+02 0.  0.
         13    1    3    3    0    0 -0.44044351736E+02 -0.71116966703E+02 -0.35738316856E+03  0.36704258206E+03  0.00000000000E+00 0.  1.
        -13    1    3    3    0    0 -0.34185056236E+02 -0.11313849312E+03 -0.19956437715E+03  0.23193722712E+03  0.00000000000E+00 0. -1.
         22    1    1    2    0    0  0.78229407972E+02  0.18425545982E+03 -0.40829846517E+02  0.20429633162E+03  0.00000000000E+00 0.  1.
<mgrwt>
<rscale>  0 0.53657688E+03</rscale>
<asrwt>0</asrwt>
<pdfrwt beam="1">  1        2 0.10777335E+00 0.53657688E+03</pdfrwt>
<pdfrwt beam="2">  1       -2 0.15807596E-01 0.53657688E+03</pdfrwt>
<totfact> 0.13154613E+03</totfact>
</mgrwt>
</event>
<event>
 6    1  0.1528034E-005  0.1845025E+04  0.7818608E-02  0.8682715E-01
         -2   -1    0    0    0  501 -0.00000000000E+00  0.00000000000E+00  0.16530874981E+04  0.16530874981E+04  0.00000000000E+00 0.  1.
          2   -1    0    0  501    0  0.00000000000E+00 -0.00000000000E+00 -0.51481220730E+03  0.51481220730E+03  0.00000000000E+00 0. -1.
         23    2    1    2    0    0  0.65821164998E+03  0.22541103128E+03  0.12776350131E+04  0.14583407992E+04  0.10175436439E+03 0.  0.
         11    1    3    3    0    0  0.27512782808E+03  0.64673683379E+02  0.43315555892E+03  0.51720570891E+03  0.00000000000E+00 0. -1.
        -11    1    3    3    0    0  0.38308382190E+03  0.16073734790E+03  0.84447945421E+03  0.94113509030E+03  0.00000000000E+00 0.  1.
         22    1    1    2    0    0 -0.65821164998E+03 -0.22541103128E+03 -0.13935972230E+03  0.70955890622E+03  0.00000000000E+00 0. -1.
<mgrwt>
<rscale>  0 0.18450253E+04</rscale>
<asrwt>0</asrwt>
<pdfrwt beam="1">  1        2 0.79201879E-01 0.18450253E+04</pdfrwt>
<pdfrwt beam="2">  1       -2 0.25432115E+00 0.18450253E+04</pdfrwt>
<totfact> 0.33841887E+00</totfact>
</mgrwt>
</event>
<event>
 6    1  0.1528034E-005  0.4109146E+04  0.7818608E-02  0.7982883E-01
          1   -1    0    0  501    0  0.00000000000E+00  0.00000000000E+00  0.36024510266E+04  0.36024510266E+04  0.00000000000E+00 0. -1.
         -1   -1    0    0    0  501 -0.00000000000E+00 -0.00000000000E+00 -0.11717771495E+04  0.11717771495E+04  0.00000000000E+00 0.  1.
         23    2    1    2    0    0  0.57329528948E+03 -0.13389807004E+04 -0.46602974944E+03  0.15319406033E+04  0.90119252361E+02 0.  0.
         11    1    3    3    0    0  0.24632947370E+03 -0.46544526889E+03 -0.16970669335E+03  0.55327919689E+03  0.00000000000E+00 0.  1.
        -11    1    3    3    0    0  0.32696581578E+03 -0.87353543154E+03 -0.29632305609E+03  0.97866140642E+03  0.00000000000E+00 0. -1.
         22    1    1    2    0    0 -0.57329528948E+03  0.13389807004E+04  0.28967036265E+04  0.32422875728E+04  0.00000000000E+00 0. -1.
<mgrwt>
<rscale>  0 0.41091458E+04</rscale>
<asrwt>0</asrwt>
<pdfrwt beam="1">  1        1 0.55422323E+00 0.41091458E+04</pdfrwt>
<pdfrwt beam="2">  1       -1 0.18027341E+00 0.41091458E+04</pdfrwt>
<totfact> 0.33216853E-02</totfact>
</mgrwt>
</event>
<event>
 6    1  0.1528034E-005  0.1506010E+04  0.7818608E-02  0.8880466E-01
          2   -1    0    0  501    0  0.00000000000E+00  0.00000000000E+00  0.11313181361E+04  0.11313181361E+04  0.00000000000E+00 0. -1.
         -2   -1    0    0    0  501 -0.00000000000E+00 -0.00000000000E+00 -0.50120017655E+03  0.50120017655E+03  0.00000000000E+00 0.  1.
         23    2    1    2    0    0 -0.45405480935E+03 -0.39518319749E+03 -0.16930848400E+03  0.63180947980E+03  0.90456213386E+02 0.  0.
         13    1    3    3    0    0 -0.15081150569E+03 -0.15607680710E+03 -0.20658080267E+02  0.21801567889E+03  0.00000000000E+00 0. -1.
        -13    1    3    3    0    0 -0.30324330367E+03 -0.23910639039E+03 -0.14865040373E+03  0.41379380091E+03  0.00000000000E+00 0.  1.
         22    1    1    2    0    0  0.45405480935E+03  0.39518319749E+03  0.79942644353E+03  0.10007088328E+04  0.00000000000E+00 0. -1.
<mgrwt>
<rscale>  0 0.15060104E+04</rscale>
<asrwt>0</asrwt>
<pdfrwt beam="1">  1        2 0.17404894E+00 0.15060104E+04</pdfrwt>
<pdfrwt beam="2">  1       -2 0.77107720E-01 0.15060104E+04</pdfrwt>
<totfact> 0.30222424E+01</totfact>
</mgrwt>
</event>
<event>
 6    1  0.1528034E-005  0.9079983E+03  0.7818608E-02  0.9415638E-01
          1   -1    0    0  501    0  0.00000000000E+00  0.00000000000E+00  0.29107316251E+03  0.29107316251E+03  0.00000000000E+00 0. -1.
         -1   -1    0    0    0  501 -0.00000000000E+00 -0.00000000000E+00 -0.70812167004E+03  0.70812167004E+03  0.00000000000E+00 0.  1.
         23    2    1    2    0    0  0.53631994076E+02  0.44461347467E+03 -0.17188433979E+03  0.48864316838E+03  0.93114913387E+02 0.  0.
         13    1    3    3    0    0 -0.22932501738E+02  0.18180779859E+03 -0.79393608825E+02  0.19970808794E+03  0.00000000000E+00 0. -1.
        -13    1    3    3    0    0  0.76564495814E+02  0.26280567608E+03 -0.92490730965E+02  0.28893508044E+03  0.00000000000E+00 0.  1.
         22    1    1    2    0    0 -0.53631994076E+02 -0.44461347467E+03 -0.24516416773E+03  0.51055166417E+03  0.00000000000E+00 0.  1.
<mgrwt>
<rscale>  0 0.90799827E+03</rscale>
<asrwt>0</asrwt>
<pdfrwt beam="1">  1        1 0.44780487E-01 0.90799827E+03</pdfrwt>
<pdfrwt beam="2">  1       -1 0.10894179E+00 0.90799827E+03</pdfrwt>
<totfact> 0.71789395E+01</totfact>
</mgrwt>
</event>
<event>
 6    1  0.1528034E-005  0.2421204E+04  0.7818608E-02  0.8431608E-01
          1   -1    0    0  501    0  0.00000000000E+00  0.00000000000E+00  0.35822526279E+04  0.35822526279E+04  0.00000000000E+00 0. -1.
         -1   -1    0    0    0  501 -0.00000000000E+00 -0.00000000000E+00 -0.40911610064E+03  0.40911610064E+03  0.00000000000E+00 0.  1.
         23    2    1    2    0    0  0.10882410236E+04 -0.10190945478E+03  0.24405873370E+04  0.26755866878E+04  0.87427181382E+02 0.  0.
         11    1    3    3    0    0  0.79649844402E+03 -0.78270698610E+02  0.18775847377E+04  0.20410439782E+04  0.00000000000E+00 0. -1.
        -11    1    3    3    0    0  0.29174257961E+03 -0.23638756173E+02  0.56300259926E+03  0.63454270961E+03  0.00000000000E+00 0.  1.
         22    1    1    2    0    0 -0.10882410236E+04  0.10190945478E+03  0.73254919022E+03  0.13157820407E+04  0.00000000000E+00 0. -1.
<mgrwt>
<rscale>  0 0.24212040E+04</rscale>
<asrwt>0</asrwt>
<pdfrwt beam="1">  1        1 0.55111577E+00 0.24212040E+04</pdfrwt>
<pdfrwt beam="2">  1       -1 0.62940941E-01 0.24212040E+04</pdfrwt>
<totfact> 0.49307035E-01</totfact>
</mgrwt>
</event>
<event>
 6    1  0.2759497E-005  0.4288849E+04  0.7818608E-02  0.7948683E-01
         -1   -1    0    0    0  501 -0.00000000000E+00  0.00000000000E+00  0.17648472148E+04  0.17648472148E+04  0.00000000000E+00 0.  1.
          1   -1    0    0  501    0  0.00000000000E+00 -0.00000000000E+00 -0.26056394168E+04  0.26056394168E+04  0.00000000000E+00 0. -1.
         23    2    1    2    0    0 -0.42944967195E+03  0.75870625644E+03 -0.24159864713E+04  0.25701257815E+04  0.92161268081E+02 0.  0.
         11    1    3    3    0    0 -0.23651232596E+03  0.32503678714E+03 -0.10951950203E+04  0.11666358154E+04  0.00000000000E+00 0. -1.
        -11    1    3    3    0    0 -0.19293734599E+03  0.43366946930E+03 -0.13207914510E+04  0.14034899661E+04  0.00000000000E+00 0.  1.
         22    1    1    2    0    0  0.42944967195E+03 -0.75870625644E+03  0.15751942693E+04  0.18003608500E+04  0.00000000000E+00 0.  1.
<mgrwt>
<rscale>  0 0.42888485E+04</rscale>
<asrwt>0</asrwt>
<pdfrwt beam="1">  1        1 0.40086760E+00 0.42888485E+04</pdfrwt>
<pdfrwt beam="2">  1       -1 0.27151496E+00 0.42888485E+04</pdfrwt>
<totfact> 0.44152205E-02</totfact>
</mgrwt>
</event>
<event>
 6    1  0.1528034E-005  0.5381467E+03  0.7818608E-02  0.1004275E+00
         -3   -1    0    0    0  501 -0.00000000000E+00  0.00000000000E+00  0.19831826826E+03  0.19831826826E+03  0.00000000000E+00 0.  1.
          3   -1    0    0  501    0  0.00000000000E+00 -0.00000000000E+00 -0.36507214950E+03  0.36507214950E+03  0.00000000000E+00 0. -1.
         23    2    1    2    0    0 -0.86193408143E+02 -0.14261756754E+03 -0.29557679871E+03  0.35276179140E+03  0.96468457860E+02 0.  0.
         13    1    3    3    0    0 -0.34413867639E+02 -0.10655304099E+03 -0.25291197613E+03  0.27659055027E+03  0.00000000000E+00 0.  1.
        -13    1    3    3    0    0 -0.51779540504E+02 -0.36064526546E+02 -0.42664822579E+02  0.76171241131E+02  0.00000000000E+00 0. -1.
         22    1    1    2    0    0  0.86193408143E+02  0.14261756754E+03  0.12882291746E+03  0.21062862636E+03  0.00000000000E+00 0.  1.
<mgrwt>
<rscale>  0 0.53814673E+03</rscale>
<asrwt>0</asrwt>
<pdfrwt beam="1">  1        3 0.56164946E-01 0.53814673E+03</pdfrwt>
<pdfrwt beam="2">  1       -3 0.30510503E-01 0.53814673E+03</pdfrwt>
<totfact> 0.85719651E+01</totfact>
</mgrwt>
</event>
<event>
 6    1  0.1528034E-005  0.2141221E+04  0.7818608E-02  0.8543300E-01
          2   -1    0    0  501    0  0.00000000000E+00  0.00000000000E+00  0.35589289773E+04  0.35589289773E+04  0.00000000000E+00 0. -1.
         -2   -1    0    0    0  501 -0.00000000000E+00 -0.00000000000E+00 -0.32206502032E+03  0.32206502032E+03  0.00000000000E+00 0.  1.
         23    2    1    2    0    0 -0.69611933950E+03 -0.14805371813E+02  0.30903784824E+04  0.31694749690E+04  0.10164192295E+03 0.  0.
         11    1    3    3    0    0 -0.44318757870E+03  0.36320021651E+02  0.20332533412E+04  0.20813105303E+04  0.00000000000E+00 0. -1.
        -11    1    3    3    0    0 -0.25293176079E+03 -0.51125393464E+02  0.10571251412E+04  0.10881644387E+04  0.00000000000E+00 0.  1.
         22    1    1    2    0    0  0.69611933950E+03  0.14805371813E+02  0.14648547456E+03  0.71151902864E+03  0.00000000000E+00 0.  1.
<mgrwt>
<rscale>  0 0.21412207E+04</rscale>
<asrwt>0</asrwt>
<pdfrwt beam="1">  1        2 0.54752751E+00 0.21412207E+04</pdfrwt>
<pdfrwt beam="2">  1       -2 0.49548467E-01 0.21412207E+04</pdfrwt>
<totfact> 0.26273046E+00</totfact>
</mgrwt>
</event>
<event>
 6    1  0.1528034E-005  0.1179581E+04  0.7818608E-02  0.9130920E-01
          2   -1    0    0  501    0  0.00000000000E+00  0.00000000000E+00  0.13177607798E+04  0.13177607798E+04  0.00000000000E+00 0. -1.
         -2   -1    0    0    0  501 -0.00000000000E+00 -0.00000000000E+00 -0.26397247244E+03  0.26397247244E+03  0.00000000000E+00 0.  1.
         23    2    1    2    0    0  0.19716698004E+03  0.29428125463E+03  0.11564754040E+04  0.12129231186E+04  0.90944250488E+02 0.  0.
         13    1    3    3    0    0  0.78432112195E+02  0.12183293421E+03  0.62767344545E+03  0.64418073101E+03  0.00000000000E+00 0. -1.
        -13    1    3    3    0    0  0.11873486785E+03  0.17244832042E+03  0.52880195855E+03  0.56874238758E+03  0.00000000000E+00 0.  1.
         22    1    1    2    0    0 -0.19716698004E+03 -0.29428125463E+03 -0.10268709667E+03  0.36881013363E+03  0.00000000000E+00 0.  1.
<mgrwt>
<rscale>  0 0.11795806E+04</rscale>
<asrwt>0</asrwt>
<pdfrwt beam="1">  1        2 0.20273242E+00 0.11795806E+04</pdfrwt>
<pdfrwt beam="2">  1       -2 0.40611151E-01 0.11795806E+04</pdfrwt>
<totfact> 0.91500655E+01</totfact>
</mgrwt>
</event>
<event>
 6    1  0.1528034E-005  0.2110419E+04  0.7818608E-02  0.8556668E-01
         -1   -1    0    0    0  501 -0.00000000000E+00  0.00000000000E+00  0.12805587186E+04  0.12805587186E+04  0.00000000000E+00 0.  1.
          1   -1    0    0  501    0  0.00000000000E+00 -0.00000000000E+00 -0.86951625667E+03  0.86951625667E+03  0.00000000000E+00 0. -1.
         23    2    1    2    0    0 -0.51509750393E+03 -0.18168040333E+03 -0.71156478434E+03  0.90164386509E+03  0.91126338884E+02 0.  0.
         11    1    3    3    0    0 -0.42186291662E+03 -0.11086542412E+03 -0.57600147357E+03  0.72252139086E+03  0.00000000000E+00 0. -1.
        -11    1    3    3    0    0 -0.93234587306E+02 -0.70814979207E+02 -0.13556331077E+03  0.17912247424E+03  0.00000000000E+00 0.  1.
         22    1    1    2    0    0  0.51509750393E+03  0.18168040333E+03  0.11226072463E+04  0.12484311102E+04  0.00000000000E+00 0.  1.
<mgrwt>
<rscale>  0 0.21104186E+04</rscale>
<asrwt>0</asrwt>
<pdfrwt beam="1">  1        1 0.13377173E+00 0.21104186E+04</pdfrwt>
<pdfrwt beam="2">  1       -1 0.19700903E+00 0.21104186E+04</pdfrwt>
<totfact> 0.27971017E+00</totfact>
</mgrwt>
</event>
<event>
 6    1  0.1528034E-005  0.3006801E+04  0.7818608E-02  0.8241792E-01
          1   -1    0    0  501    0  0.00000000000E+00  0.00000000000E+00  0.41223290689E+04  0.41223290689E+04  0.00000000000E+00 0. -1.
         -1   -1    0    0    0  501 -0.00000000000E+00 -0.00000000000E+00 -0.54828540564E+03  0.54828540564E+03  0.00000000000E+00 0.  1.
         23    2    1    2    0    0  0.52539019500E+03  0.74509959318E+03 -0.65532095715E+02  0.91858569452E+03  0.91087660246E+02 0.  0.
         11    1    3    3    0    0  0.23807977498E+03  0.41616255381E+03 -0.29575839955E+02  0.48036234320E+03  0.00000000000E+00 0. -1.
        -11    1    3    3    0    0  0.28731042001E+03  0.32893703937E+03 -0.35956255760E+02  0.43822335133E+03  0.00000000000E+00 0.  1.
         22    1    1    2    0    0 -0.52539019500E+03 -0.74509959318E+03  0.36395757590E+04  0.37520287800E+04  0.00000000000E+00 0. -1.
<mgrwt>
<rscale>  0 0.30068009E+04</rscale>
<asrwt>0</asrwt>
<pdfrwt beam="1">  1        1 0.63420445E+00 0.30068009E+04</pdfrwt>
<pdfrwt beam="2">  1       -1 0.84351603E-01 0.30068009E+04</pdfrwt>
<totfact> 0.88224442E-02</totfact>
</mgrwt>
</event>
<event>
 6    1  0.1528034E-005  0.1913786E+04  0.7818608E-02  0.8648025E-01
          1   -1    0    0  501    0  0.00000000000E+00  0.00000000000E+00  0.96747204245E+03  0.96747204245E+03  0.00000000000E+00 0. -1.
         -1   -1    0    0    0  501 -0.00000000000E+00 -0.00000000000E+00 -0.94642915792E+03  0.94642915792E+03  0.00000000000E+00 0.  1.
         23    2    1    2    0    0 -0.83515990906E+03  0.37454069756E+02  0.47186129728E+03  0.96409483994E+03  0.89055575191E+02 0.  0.
         13    1    3    3    0    0 -0.48617864213E+03 -0.13708009701E+02  0.30313032287E+03  0.57310171369E+03  0.00000000000E+00 0. -1.
        -13    1    3    3    0    0 -0.34898126694E+03  0.51162079457E+02  0.16873097441E+03  0.39099312625E+03  0.00000000000E+00 0.  1.
         22    1    1    2    0    0  0.83515990906E+03 -0.37454069756E+02 -0.45081841275E+03  0.94980636043E+03  0.00000000000E+00 0.  1.
<mgrwt>
<rscale>  0 0.19137855E+04</rscale>
<asrwt>0</asrwt>
<pdfrwt beam="1">  1        1 0.14884185E+00 0.19137855E+04</pdfrwt>
<pdfrwt beam="2">  1       -1 0.14560449E+00 0.19137855E+04</pdfrwt>
<totfact> 0.56687855E+00</totfact>
</mgrwt>
</event>
<event>
 6    1  0.1528034E-005  0.1478755E+04  0.7818608E-02  0.8898705E-01
         -2   -1    0    0    0  501 -0.00000000000E+00  0.00000000000E+00  0.29725038254E+03  0.29725038254E+03  0.00000000000E+00 0.  1.
          2   -1    0    0  501    0  0.00000000000E+00 -0.00000000000E+00 -0.18391192415E+04  0.18391192415E+04  0.00000000000E+00 0. -1.
         23    2    1    2    0    0  0.66213463277E+03 -0.32184887097E+03 -0.74241936990E+03  0.10495722864E+04  0.91686944741E+02 0.  0.
         11    1    3    3    0    0  0.38584505569E+03 -0.22431036887E+03 -0.40478344962E+03  0.60252899488E+03  0.00000000000E+00 0. -1.
        -11    1    3    3    0    0  0.27628957707E+03 -0.97538502091E+02 -0.33763592028E+03  0.44704329148E+03  0.00000000000E+00 0.  1.
         22    1    1    2    0    0 -0.66213463277E+03  0.32184887097E+03 -0.79944948907E+03  0.10867973377E+04  0.00000000000E+00 0.  1.
<mgrwt>
<rscale>  0 0.14787547E+04</rscale>
<asrwt>0</asrwt>
<pdfrwt beam="1">  1        2 0.28294141E+00 0.14787547E+04</pdfrwt>
<pdfrwt beam="2">  1       -2 0.45730830E-01 0.14787547E+04</pdfrwt>
<totfact> 0.36017437E+01</totfact>
</mgrwt>
</event>
<event>
 6    1  0.1528034E-005  0.1533118E+04  0.7818608E-02  0.8862724E-01
         -2   -1    0    0    0  501 -0.00000000000E+00  0.00000000000E+00  0.16050493188E+04  0.16050493188E+04  0.00000000000E+00 0.  1.
          2   -1    0    0  501    0  0.00000000000E+00 -0.00000000000E+00 -0.36610261954E+03  0.36610261954E+03  0.00000000000E+00 0. -1.
         23    2    1    2    0    0 -0.63637825016E+03 -0.24296864680E+03  0.10663322083E+04  0.12684380541E+04  0.88654824844E+02 0.  0.
         11    1    3    3    0    0 -0.30331874445E+03 -0.14410731743E+03  0.45851849691E+03  0.56833827223E+03  0.00000000000E+00 0. -1.
        -11    1    3    3    0    0 -0.33305950571E+03 -0.98861329368E+02  0.60781371142E+03  0.70009978188E+03  0.00000000000E+00 0.  1.
         22    1    1    2    0    0  0.63637825016E+03  0.24296864680E+03  0.17261449091E+03  0.70271388422E+03  0.00000000000E+00 0. -1.
<mgrwt>
<rscale>  0 0.15331181E+04</rscale>
<asrwt>0</asrwt>
<pdfrwt beam="1">  1        2 0.56323481E-01 0.15331181E+04</pdfrwt>
<pdfrwt beam="2">  1       -2 0.24693066E+00 0.15331181E+04</pdfrwt>
<totfact> 0.56857970E+00</totfact>
</mgrwt>
</event>
<event>
 6    1  0.1528034E-005  0.2599276E+04  0.7818608E-02  0.8368447E-01
          3   -1    0    0  501    0  0.00000000000E+00  0.00000000000E+00  0.19841539347E+04  0.19841539347E+04  0.00000000000E+00 0. -1.
         -3   -1    0    0    0  501 -0.00000000000E+00 -0.00000000000E+00 -0.85127430894E+03  0.85127430894E+03  0.00000000000E+00 0.  1.
         23    2    1    2    0    0  0.29805997042E+03 -0.10018630874E+03  0.19409285216E+04  0.19683526641E+04  0.91277827343E+02 0.  0.
         11    1    3    3    0    0  0.85545811891E+02 -0.45797810579E+02  0.38514759670E+03  0.39718282520E+03  0.00000000000E+00 0. -1.
        -11    1    3    3    0    0  0.21251415853E+03 -0.54388498160E+02  0.15557809249E+04  0.15711698389E+04  0.00000000000E+00 0.  1.
         22    1    1    2    0    0 -0.29805997042E+03  0.10018630874E+03 -0.80804889589E+03  0.86707557951E+03  0.00000000000E+00 0.  1.
<mgrwt>
<rscale>  0 0.25992763E+04</rscale>
<asrwt>0</asrwt>
<pdfrwt beam="1">  1        3 0.30525445E+00 0.25992763E+04</pdfrwt>
<pdfrwt beam="2">  1       -3 0.13096528E+00 0.25992763E+04</pdfrwt>
<totfact> 0.37962572E-02</totfact>
</mgrwt>
</event>
<event>
 6    1  0.1528034E-005  0.5199681E+04  0.7818608E-02  0.7798422E-01
          2   -1    0    0  501    0  0.00000000000E+00  0.00000000000E+00  0.32979600039E+04  0.32979600039E+04  0.00000000000E+00 0. -1.
         -2   -1    0    0    0  501 -0.00000000000E+00 -0.00000000000E+00 -0.20495002676E+04  0.20495002676E+04  0.00000000000E+00 0.  1.
         23    2    1    2    0    0 -0.23429245415E+03  0.13955016436E+04 -0.16176023189E+04  0.21511139987E+04  0.91303790418E+02 0.  0.
         11    1    3    3    0    0 -0.16858119298E+03  0.11551317995E+04 -0.12953665897E+04  0.17437670988E+04  0.00000000000E+00 0.  1.
        -11    1    3    3    0    0 -0.65711261175E+02  0.24036984409E+03 -0.32223572915E+03  0.40734689999E+03  0.00000000000E+00 0. -1.
         22    1    1    2    0    0  0.23429245415E+03 -0.13955016436E+04  0.28660620552E+04  0.31963462728E+04  0.00000000000E+00 0. -1.
<mgrwt>
<rscale>  0 0.51996807E+04</rscale>
<asrwt>0</asrwt>
<pdfrwt beam="1">  1        2 0.50737846E+00 0.51996807E+04</pdfrwt>
<pdfrwt beam="2">  1       -2 0.31530773E+00 0.51996807E+04</pdfrwt>
<totfact> 0.20468300E-02</totfact>
</mgrwt>
</event>
<event>
 6    1  0.1528034E-005  0.2142353E+04  0.7818608E-02  0.8542813E-01
         -1   -1    0    0    0  501 -0.00000000000E+00  0.00000000000E+00  0.33407505202E+04  0.33407505202E+04  0.00000000000E+00 0.  1.
          1   -1    0    0  501    0  0.00000000000E+00 -0.00000000000E+00 -0.34346157369E+03  0.34346157369E+03  0.00000000000E+00 0. -1.
         23    2    1    2    0    0 -0.99606857327E+03  0.32838952041E+03  0.11435376493E+04  0.15543327190E+04  0.90992121478E+02 0.  0.
         11    1    3    3    0    0 -0.30913351966E+03  0.84036797097E+02  0.40705381171E+03  0.51799471221E+03  0.00000000000E+00 0.  1.
        -11    1    3    3    0    0 -0.68693505360E+03  0.24435272331E+03  0.73648383758E+03  0.10363380068E+04  0.00000000000E+00 0. -1.
         22    1    1    2    0    0  0.99606857327E+03 -0.32838952041E+03  0.18537512972E+04  0.21298793749E+04  0.00000000000E+00 0. -1.
<mgrwt>
<rscale>  0 0.21423533E+04</rscale>
<asrwt>0</asrwt>
<pdfrwt beam="1">  1        1 0.52840244E-01 0.21423533E+04</pdfrwt>
<pdfrwt beam="2">  1       -1 0.51396160E+00 0.21423533E+04</pdfrwt>
<totfact> 0.81228162E-02</totfact>
</mgrwt>
</event>
<event>
 6    1  0.1528034E-005  0.2839360E+04  0.7818608E-02  0.8291152E-01
         -1   -1    0    0    0  501 -0.00000000000E+00  0.00000000000E+00  0.78981723242E+03  0.78981723242E+03  0.00000000000E+00 0.  1.
          1   -1    0    0  501    0  0.00000000000E+00 -0.00000000000E+00 -0.25518459509E+04  0.25518459509E+04  0.00000000000E+00 0. -1.
         23    2    1    2    0    0 -0.70078892087E+03  0.12314511535E+04 -0.81093993691E+03  0.16351618134E+04  0.92485239513E+02 0.  0.
         13    1    3    3    0    0 -0.19437526305E+03  0.41539834208E+03 -0.23558185662E+03  0.51559318911E+03  0.00000000000E+00 0.  1.
        -13    1    3    3    0    0 -0.50641365782E+03  0.81605281145E+03 -0.57535808029E+03  0.11195686243E+04  0.00000000000E+00 0. -1.
         22    1    1    2    0    0  0.70078892087E+03 -0.12314511535E+04 -0.95108878154E+03  0.17065013699E+04  0.00000000000E+00 0. -1.
<mgrwt>
<rscale>  0 0.28393604E+04</rscale>
<asrwt>0</asrwt>
<pdfrwt beam="1">  1        1 0.39259169E+00 0.28393604E+04</pdfrwt>
<pdfrwt beam="2">  1       -1 0.12151034E+00 0.28393604E+04</pdfrwt>
<totfact> 0.64549137E-01</totfact>
</mgrwt>
</event>
<event>
 6    1  0.1528034E-005  0.2027486E+04  0.7818608E-02  0.8593877E-01
          2   -1    0    0  501    0  0.00000000000E+00  0.00000000000E+00  0.90439573636E+03  0.90439573636E+03  0.00000000000E+00 0. -1.
         -2   -1    0    0    0  501 -0.00000000000E+00 -0.00000000000E+00 -0.11363115314E+04  0.11363115314E+04  0.00000000000E+00 0.  1.
         23    2    1    2    0    0 -0.43693635413E+03  0.81989298922E+03 -0.51925191279E+03  0.10682362214E+04  0.91477781468E+02 0.  0.
         13    1    3    3    0    0 -0.35633048959E+03  0.63089847639E+03 -0.36500656031E+03  0.81131627273E+03  0.00000000000E+00 0. -1.
        -13    1    3    3    0    0 -0.80605864533E+02  0.18899451283E+03 -0.15424535248E+03  0.25691994870E+03  0.00000000000E+00 0.  1.
         22    1    1    2    0    0  0.43693635413E+03 -0.81989298922E+03  0.28733611778E+03  0.97247104630E+03  0.00000000000E+00 0. -1.
<mgrwt>
<rscale>  0 0.20274864E+04</rscale>
<asrwt>0</asrwt>
<pdfrwt beam="1">  1        2 0.13913781E+00 0.20274864E+04</pdfrwt>
<pdfrwt beam="2">  1       -2 0.17481716E+00 0.20274864E+04</pdfrwt>
<totfact> 0.53179481E+00</totfact>
</mgrwt>
</event>
<event>
 6    1  0.1528034E-005  0.1411799E+04  0.7818608E-02  0.8945322E-01
         -2   -1    0    0    0  501 -0.00000000000E+00  0.00000000000E+00  0.38359715136E+03  0.38359715136E+03  0.00000000000E+00 0.  1.
          2   -1    0    0  501    0  0.00000000000E+00 -0.00000000000E+00 -0.12990040781E+04  0.12990040781E+04  0.00000000000E+00 0. -1.
         23    2    1    2    0    0  0.36257117445E+03 -0.43539814113E+03 -0.95555333706E+03  0.11145861486E+04  0.90502512790E+02 0.  0.
         13    1    3    3    0    0  0.21410251063E+03 -0.20537611491E+03 -0.55656508455E+03  0.63070113919E+03  0.00000000000E+00 0.  1.
        -13    1    3    3    0    0  0.14846866383E+03 -0.23002202622E+03 -0.39898825251E+03  0.48388500940E+03  0.00000000000E+00 0. -1.
         22    1    1    2    0    0 -0.36257117445E+03  0.43539814113E+03  0.40146410308E+02  0.56801508088E+03  0.00000000000E+00 0.  1.
<mgrwt>
<rscale>  0 0.14117992E+04</rscale>
<asrwt>0</asrwt>
<pdfrwt beam="1">  1        2 0.19984678E+00 0.14117992E+04</pdfrwt>
<pdfrwt beam="2">  1       -2 0.59014947E-01 0.14117992E+04</pdfrwt>
<totfact> 0.43174162E+01</totfact>
</mgrwt>
</event>
<event>
 6    1  0.1528034E-005  0.5319846E+03  0.7818608E-02  0.1005752E+00
         -1   -1    0    0    0  501 -0.00000000000E+00  0.00000000000E+00  0.27680682201E+04  0.27680682201E+04  0.00000000000E+00 0.  1.
          1   -1    0    0  501    0  0.00000000000E+00 -0.00000000000E+00 -0.25560027816E+02  0.25560027816E+02  0.00000000000E+00 0. -1.
         23    2    1    2    0    0  0.55253881238E+02 -0.24723353764E+03  0.16689315226E+04  0.16905669263E+04  0.92231728220E+02 0.  0.
         11    1    3    3    0    0  0.62837728659E+02 -0.15592892372E+03  0.84529613490E+03  0.86185147506E+03  0.00000000000E+00 0. -1.
        -11    1    3    3    0    0 -0.75838474204E+01 -0.91304613917E+02  0.82363538773E+03  0.82871545128E+03  0.00000000000E+00 0.  1.
         22    1    1    2    0    0 -0.55253881238E+02  0.24723353764E+03  0.10735766696E+04  0.11030613215E+04  0.00000000000E+00 0.  1.
<mgrwt>
<rscale>  0 0.53198459E+03</rscale>
<asrwt>0</asrwt>
<pdfrwt beam="1">  1        1 0.39323142E-02 0.53198459E+03</pdfrwt>
<pdfrwt beam="2">  1       -1 0.42585641E+00 0.53198459E+03</pdfrwt>
<totfact> 0.13003663E+01</totfact>
</mgrwt>
</event>
<event>
 6    1  0.1528034E-005  0.1282770E+04  0.7818608E-02  0.9043342E-01
          2   -1    0    0  501    0  0.00000000000E+00  0.00000000000E+00  0.47105875236E+03  0.47105875236E+03  0.00000000000E+00 0. -1.
         -2   -1    0    0    0  501 -0.00000000000E+00 -0.00000000000E+00 -0.87329746823E+03  0.87329746823E+03  0.00000000000E+00 0.  1.
         23    2    1    2    0    0 -0.53797066418E+03  0.11414075392E+03 -0.54069300070E+03  0.77724940860E+03  0.96577300336E+02 0.  0.
         11    1    3    3    0    0 -0.36976240971E+03  0.40258905505E+02 -0.32513603297E+03  0.49402273130E+03  0.00000000000E+00 0. -1.
        -11    1    3    3    0    0 -0.16820825447E+03  0.73881848411E+02 -0.21555696773E+03  0.28322667729E+03  0.00000000000E+00 0.  1.
         22    1    1    2    0    0  0.53797066418E+03 -0.11414075392E+03  0.13845428482E+03  0.56710681199E+03  0.00000000000E+00 0. -1.
<mgrwt>
<rscale>  0 0.12827695E+04</rscale>
<asrwt>0</asrwt>
<pdfrwt beam="1">  1        2 0.72470578E-01 0.12827695E+04</pdfrwt>
<pdfrwt beam="2">  1       -2 0.13435346E+00 0.12827695E+04</pdfrwt>
<totfact> 0.25844627E+01</totfact>
</mgrwt>
</event>
<event>
 6    1  0.1528034E-005  0.3955502E+04  0.7818608E-02  0.8013584E-01
         -1   -1    0    0    0  501 -0.00000000000E+00  0.00000000000E+00  0.87081256570E+03  0.87081256570E+03  0.00000000000E+00 0.  1.
          1   -1    0    0  501    0  0.00000000000E+00 -0.00000000000E+00 -0.44917811255E+04  0.44917811255E+04  0.00000000000E+00 0. -1.
         23    2    1    2    0    0  0.18176857871E+03  0.16328397732E+04 -0.32137232027E+03  0.16766011674E+04  0.92226705545E+02 0.  0.
         13    1    3    3    0    0  0.11803654496E+03  0.88533097644E+03 -0.13218012697E+03  0.90289265683E+03  0.00000000000E+00 0. -1.
        -13    1    3    3    0    0  0.63732033757E+02  0.74750879678E+03 -0.18919219330E+03  0.77370851062E+03  0.00000000000E+00 0.  1.
         22    1    1    2    0    0 -0.18176857871E+03 -0.16328397732E+04 -0.32995962395E+04  0.36859925237E+04  0.00000000000E+00 0. -1.
<mgrwt>
<rscale>  0 0.39555022E+04</rscale>
<asrwt>0</asrwt>
<pdfrwt beam="1">  1        1 0.69104325E+00 0.39555022E+04</pdfrwt>
<pdfrwt beam="2">  1       -1 0.13397116E+00 0.39555022E+04</pdfrwt>
<totfact> 0.12050342E-02</totfact>
</mgrwt>
</event>
<event>
 6    1  0.3090322E-005  0.4136269E+04  0.7818608E-02  0.7977607E-01
         -2   -1    0    0    0  501 -0.00000000000E+00  0.00000000000E+00  0.15000088897E+04  0.15000088897E+04  0.00000000000E+00 0.  1.
          2   -1    0    0  501    0  0.00000000000E+00 -0.00000000000E+00 -0.28514372912E+04  0.28514372912E+04  0.00000000000E+00 0. -1.
         23    2    1    2    0    0  0.18869591219E+02 -0.36549720894E+03 -0.28163367495E+04  0.28415121627E+04  0.92165141153E+02 0.  0.
         11    1    3    3    0    0  0.38532394399E+02 -0.18541431571E+03 -0.17082965790E+04  0.17187613027E+04  0.00000000000E+00 0.  1.
        -11    1    3    3    0    0 -0.19662803179E+02 -0.18008289322E+03 -0.11080401705E+04  0.11227508600E+04  0.00000000000E+00 0. -1.
         22    1    1    2    0    0 -0.18869591219E+02  0.36549720894E+03  0.14649083480E+04  0.15099340182E+04  0.00000000000E+00 0.  1.
<mgrwt>
<rscale>  0 0.41362695E+04</rscale>
<asrwt>0</asrwt>
<pdfrwt beam="1">  1        2 0.43868266E+00 0.41362695E+04</pdfrwt>
<pdfrwt beam="2">  1       -2 0.23077060E+00 0.41362695E+04</pdfrwt>
<totfact> 0.14191083E-01</totfact>
</mgrwt>
</event>
<event>
 6    1  0.1528034E-005  0.2656675E+04  0.7818608E-02  0.8349201E-01
          2   -1    0    0  501    0  0.00000000000E+00  0.00000000000E+00  0.23517553051E+04  0.23517553051E+04  0.00000000000E+00 0.  1.
         -2   -1    0    0    0  501 -0.00000000000E+00 -0.00000000000E+00 -0.75028241884E+03  0.75028241884E+03  0.00000000000E+00 0. -1.
         23    2    1    2    0    0  0.12472116711E+04 -0.30884943636E+03  0.41545769194E+03  0.13534505891E+04  0.91095974616E+02 0.  0.
         13    1    3    3    0    0  0.57306432553E+03 -0.18867289616E+03  0.19711895234E+03  0.63470943298E+03  0.00000000000E+00 0. -1.
        -13    1    3    3    0    0  0.67414734557E+03 -0.12017654020E+03  0.21833873960E+03  0.71874115616E+03  0.00000000000E+00 0.  1.
         22    1    1    2    0    0 -0.12472116711E+04  0.30884943636E+03  0.11860151943E+04  0.17485871348E+04  0.00000000000E+00 0.  1.
<mgrwt>
<rscale>  0 0.26566751E+04</rscale>
<asrwt>0</asrwt>
<pdfrwt beam="1">  1        2 0.36180851E+00 0.26566751E+04</pdfrwt>
<pdfrwt beam="2">  1       -2 0.11542807E+00 0.26566751E+04</pdfrwt>
<totfact> 0.21789993E+00</totfact>
</mgrwt>
</event>
<event>
 6    1  0.1528034E-005  0.2456043E+04  0.7818608E-02  0.8418815E-01
          2   -1    0    0  501    0  0.00000000000E+00  0.00000000000E+00  0.14440555887E+04  0.14440555887E+04  0.00000000000E+00 0. -1.
         -2   -1    0    0    0  501 -0.00000000000E+00 -0.00000000000E+00 -0.10443063806E+04  0.10443063806E+04  0.00000000000E+00 0.  1.
         23    2    1    2    0    0 -0.11030664417E+04 -0.51999035285E+03  0.68955179473E+02  0.12248073677E+04  0.90844532785E+02 0.  0.
         11    1    3    3    0    0 -0.69363362666E+03 -0.37371830256E+03  0.34262827286E+02  0.78864879321E+03  0.00000000000E+00 0. -1.
        -11    1    3    3    0    0 -0.40943281508E+03 -0.14627205029E+03  0.34692352187E+02  0.43615857444E+03  0.00000000000E+00 0.  1.
         22    1    1    2    0    0  0.11030664417E+04  0.51999035285E+03  0.33079402869E+03  0.12635546017E+04  0.00000000000E+00 0. -1.
<mgrwt>
<rscale>  0 0.24560427E+04</rscale>
<asrwt>0</asrwt>
<pdfrwt beam="1">  1        2 0.22216240E+00 0.24560427E+04</pdfrwt>
<pdfrwt beam="2">  1       -2 0.16066252E+00 0.24560427E+04</pdfrwt>
<totfact> 0.30449836E+00</totfact>
</mgrwt>
</event>
<event>
 6    1  0.1528034E-005  0.2764819E+04  0.7818608E-02  0.8314275E-01
          2   -1    0    0  501    0  0.00000000000E+00  0.00000000000E+00  0.14012721273E+04  0.14012721273E+04  0.00000000000E+00 0. -1.
         -2   -1    0    0    0  501 -0.00000000000E+00 -0.00000000000E+00 -0.13638009720E+04  0.13638009720E+04  0.00000000000E+00 0.  1.
         23    2    1    2    0    0 -0.76491000188E+03 -0.55323622097E+03 -0.98917158079E+03  0.13703857025E+04  0.91317742476E+02 0.  0.
         11    1    3    3    0    0 -0.22689103684E+03 -0.21708015317E+03 -0.32547626971E+03  0.45225892765E+03  0.00000000000E+00 0. -1.
        -11    1    3    3    0    0 -0.53801896504E+03 -0.33615606780E+03 -0.66369531108E+03  0.91812677481E+03  0.00000000000E+00 0.  1.
         22    1    1    2    0    0  0.76491000188E+03  0.55323622097E+03  0.10266427361E+04  0.13946873968E+04  0.00000000000E+00 0. -1.
<mgrwt>
<rscale>  0 0.27648192E+04</rscale>
<asrwt>0</asrwt>
<pdfrwt beam="1">  1        2 0.21558033E+00 0.27648192E+04</pdfrwt>
<pdfrwt beam="2">  1       -2 0.20981553E+00 0.27648192E+04</pdfrwt>
<totfact> 0.14476512E+00</totfact>
</mgrwt>
</event>
<event>
 6    1  0.1528034E-005  0.2060418E+04  0.7818608E-02  0.8578883E-01
          1   -1    0    0  501    0  0.00000000000E+00  0.00000000000E+00  0.28843513472E+04  0.28843513472E+04  0.00000000000E+00 0. -1.
         -1   -1    0    0    0  501 -0.00000000000E+00 -0.00000000000E+00 -0.36796161437E+03  0.36796161437E+03  0.00000000000E+00 0.  1.
         23    2    1    2    0    0 -0.23517291052E+03  0.55898079076E+03 -0.50054816758E+02  0.61519266694E+03  0.90502544164E+02 0.  0.
         13    1    3    3    0    0 -0.12957162933E+03  0.40111793097E+03 -0.13263577468E+02  0.42173489797E+03  0.00000000000E+00 0. -1.
        -13    1    3    3    0    0 -0.10560128119E+03  0.15786285978E+03 -0.36791239290E+02  0.19345776897E+03  0.00000000000E+00 0.  1.
         22    1    1    2    0    0  0.23517291052E+03 -0.55898079076E+03  0.25664445496E+04  0.26371202947E+04  0.00000000000E+00 0. -1.
<mgrwt>
<rscale>  0 0.20604180E+04</rscale>
<asrwt>0</asrwt>
<pdfrwt beam="1">  1        1 0.44374635E+00 0.20604180E+04</pdfrwt>
<pdfrwt beam="2">  1       -1 0.56609481E-01 0.20604180E+04</pdfrwt>
<totfact> 0.21159179E+00</totfact>
</mgrwt>
</event>
<event>
 6    1  0.1528034E-005  0.1073888E+04  0.7818608E-02  0.9231023E-01
          1   -1    0    0  501    0  0.00000000000E+00  0.00000000000E+00  0.81649529723E+03  0.81649529723E+03  0.00000000000E+00 0. -1.
         -1   -1    0    0    0  501 -0.00000000000E+00 -0.00000000000E+00 -0.35310518309E+03  0.35310518309E+03  0.00000000000E+00 0.  1.
         23    2    1    2    0    0  0.22408739620E+03 -0.37194165830E+03  0.57009476609E+03  0.72245213686E+03  0.91505679704E+02 0.  0.
         11    1    3    3    0    0  0.48100139247E+02 -0.94906263951E+02  0.20875326272E+03  0.23430481648E+03  0.00000000000E+00 0.  1.
        -11    1    3    3    0    0  0.17598725695E+03 -0.27703539435E+03  0.36134150337E+03  0.48814732037E+03  0.00000000000E+00 0. -1.
         22    1    1    2    0    0 -0.22408739620E+03  0.37194165830E+03 -0.10670465195E+03  0.44714834346E+03  0.00000000000E+00 0.  1.
<mgrwt>
<rscale>  0 0.10738877E+04</rscale>
<asrwt>0</asrwt>
<pdfrwt beam="1">  1        1 0.12561466E+00 0.10738877E+04</pdfrwt>
<pdfrwt beam="2">  1       -1 0.54323875E-01 0.10738877E+04</pdfrwt>
<totfact> 0.73063869E+01</totfact>
</mgrwt>
</event>
<event>
 6    1  0.1528034E-005  0.4376431E+04  0.7818608E-02  0.7932635E-01
          2   -1    0    0  501    0  0.00000000000E+00  0.00000000000E+00  0.29561771631E+04  0.29561771631E+04  0.00000000000E+00 0. -1.
         -2   -1    0    0    0  501 -0.00000000000E+00 -0.00000000000E+00 -0.16197563682E+04  0.16197563682E+04  0.00000000000E+00 0.  1.
         23    2    1    2    0    0  0.10575610473E+03  0.20756483785E+04 -0.44536382711E+02  0.20806292870E+04  0.86799744902E+02 0.  0.
         13    1    3    3    0    0  0.92295317935E+02  0.18715435582E+04 -0.65842796874E+02  0.18749743972E+04  0.00000000000E+00 0. -1.
        -13    1    3    3    0    0  0.13460786795E+02  0.20410482029E+03  0.21306414163E+02  0.20565488988E+03  0.00000000000E+00 0.  1.
         22    1    1    2    0    0 -0.10575610473E+03 -0.20756483785E+04  0.13809571776E+04  0.24953042443E+04  0.00000000000E+00 0. -1.
<mgrwt>
<rscale>  0 0.43764309E+04</rscale>
<asrwt>0</asrwt>
<pdfrwt beam="1">  1        2 0.45479649E+00 0.43764309E+04</pdfrwt>
<pdfrwt beam="2">  1       -2 0.24919329E+00 0.43764309E+04</pdfrwt>
<totfact> 0.92206988E-02</totfact>
</mgrwt>
</event>
<event>
 6    1  0.1528034E-005  0.6133486E+03  0.7818608E-02  0.9878092E-01
          2   -1    0    0  501    0  0.00000000000E+00  0.00000000000E+00  0.24137726147E+04  0.24137726147E+04  0.00000000000E+00 0.  1.
         -2   -1    0    0    0  501 -0.00000000000E+00 -0.00000000000E+00 -0.38963542962E+02  0.38963542962E+02  0.00000000000E+00 0. -1.
         23    2    1    2    0    0 -0.22613185500E+03 -0.15800832214E+03  0.75326295866E+03  0.80789147121E+03  0.95819093378E+02 0.  0.
         11    1    3    3    0    0 -0.13686106315E+03 -0.13964436383E+03  0.43680848510E+03  0.47857408163E+03  0.00000000000E+00 0. -1.
        -11    1    3    3    0    0 -0.89270791856E+02 -0.18363958309E+02  0.31645447357E+03  0.32931738958E+03  0.00000000000E+00 0.  1.
         22    1    1    2    0    0  0.22613185500E+03  0.15800832214E+03  0.16215461131E+04  0.16448446865E+04  0.00000000000E+00 0. -1.
<mgrwt>
<rscale>  0 0.61334862E+03</rscale>
<asrwt>0</asrwt>
<pdfrwt beam="1">  1        2 0.37134952E+00 0.61334862E+03</pdfrwt>
<pdfrwt beam="2">  1       -2 0.59943931E-02 0.61334862E+03</pdfrwt>
<totfact> 0.63542274E+02</totfact>
</mgrwt>
</event>
<event>
 6    1  0.1528034E-005  0.9016701E+03  0.7818608E-02  0.9423496E-01
         -1   -1    0    0    0  501 -0.00000000000E+00  0.00000000000E+00  0.39406336413E+03  0.39406336413E+03  0.00000000000E+00 0.  1.
          1   -1    0    0  501    0  0.00000000000E+00 -0.00000000000E+00 -0.51578564959E+03  0.51578564959E+03  0.00000000000E+00 0. -1.
         23    2    1    2    0    0 -0.43354492387E+03  0.30094806251E+02 -0.16301546801E+03  0.47330345447E+03  0.92602477431E+02 0.  0.
         13    1    3    3    0    0 -0.98077713856E+02  0.45635972938E+02 -0.47757351994E+02  0.11824823318E+03  0.00000000000E+00 0. -1.
        -13    1    3    3    0    0 -0.33546721001E+03 -0.15541166687E+02 -0.11525811601E+03  0.35505522129E+03  0.00000000000E+00 0.  1.
         22    1    1    2    0    0  0.43354492387E+03 -0.30094806251E+02  0.41293182547E+02  0.43654555925E+03  0.00000000000E+00 0.  1.
<mgrwt>
<rscale>  0 0.90167007E+03</rscale>
<asrwt>0</asrwt>
<pdfrwt beam="1">  1        1 0.79351638E-01 0.90167007E+03</pdfrwt>
<pdfrwt beam="2">  1       -1 0.60625133E-01 0.90167007E+03</pdfrwt>
<totfact> 0.11806726E+02</totfact>
</mgrwt>
</event>
<event>
 6    1  0.1528034E-005  0.6633841E+04  0.7818608E-02  0.7616423E-01
         -2   -1    0    0    0  501 -0.00000000000E+00  0.00000000000E+00  0.26743412199E+04  0.26743412199E+04  0.00000000000E+00 0.  1.
          2   -1    0    0  501    0  0.00000000000E+00 -0.00000000000E+00 -0.41138960868E+04  0.41138960868E+04  0.00000000000E+00 0. -1.
         23    2    1    2    0    0 -0.76225994360E+03  0.32104828152E+04 -0.38084554030E+03  0.33228216654E+04  0.88658706063E+02 0.  0.
         11    1    3    3    0    0 -0.77191746773E+02  0.30300014029E+03 -0.61839551741E+02  0.31873465601E+03  0.00000000000E+00 0. -1.
        -11    1    3    3    0    0 -0.68506819683E+03  0.29074826749E+04 -0.31900598856E+03  0.30040870094E+04  0.00000000000E+00 0.  1.
         22    1    1    2    0    0  0.76225994360E+03 -0.32104828152E+04 -0.10587093267E+04  0.34654156413E+04  0.00000000000E+00 0.  1.
<mgrwt>
<rscale>  0 0.66338411E+04</rscale>
<asrwt>0</asrwt>
<pdfrwt beam="1">  1        2 0.63290709E+00 0.66338411E+04</pdfrwt>
<pdfrwt beam="2">  1       -2 0.41143711E+00 0.66338411E+04</pdfrwt>
<totfact> 0.10976744E-03</totfact>
</mgrwt>
</event>
<event>
 6    1  0.1528034E-005  0.2337422E+04  0.7818608E-02  0.8463311E-01
          1   -1    0    0  501    0  0.00000000000E+00  0.00000000000E+00  0.15925778802E+04  0.15925778802E+04  0.00000000000E+00 0. -1.
         -1   -1    0    0    0  501 -0.00000000000E+00 -0.00000000000E+00 -0.85765688368E+03  0.85765688368E+03  0.00000000000E+00 0.  1.
         23    2    1    2    0    0 -0.84283706575E+03 -0.78789488249E+03  0.55102639313E+03  0.12819155051E+04  0.92328820022E+02 0.  0.
         11    1    3    3    0    0 -0.45109107893E+03 -0.47224298512E+03  0.28122477020E+03  0.71104428122E+03  0.00000000000E+00 0. -1.
        -11    1    3    3    0    0 -0.39174598683E+03 -0.31565189737E+03  0.26980162293E+03  0.57087122387E+03  0.00000000000E+00 0.  1.
         22    1    1    2    0    0  0.84283706575E+03  0.78789488249E+03  0.18389460337E+03  0.11683192588E+04  0.00000000000E+00 0. -1.
<mgrwt>
<rscale>  0 0.23374220E+04</rscale>
<asrwt>0</asrwt>
<pdfrwt beam="1">  1        1 0.24501198E+00 0.23374220E+04</pdfrwt>
<pdfrwt beam="2">  1       -1 0.13194721E+00 0.23374220E+04</pdfrwt>
<totfact> 0.24843036E+00</totfact>
</mgrwt>
</event>
<event>
 6    1  0.1528034E-005  0.1143978E+04  0.7818608E-02  0.9163357E-01
         -1   -1    0    0    0  501 -0.00000000000E+00  0.00000000000E+00  0.12893715633E+03  0.12893715633E+03  0.00000000000E+00 0.  1.
          1   -1    0    0  501    0  0.00000000000E+00 -0.00000000000E+00 -0.25374498952E+04  0.25374498952E+04  0.00000000000E+00 0. -1.
         23    2    1    2    0    0 -0.55302500491E+03 -0.75516093569E+02 -0.14614933012E+04  0.15671213185E+04  0.91472515086E+02 0.  0.
         11    1    3    3    0    0 -0.31015105232E+03 -0.96327123285E+01 -0.71762476469E+03  0.78183870926E+03  0.00000000000E+00 0.  1.
        -11    1    3    3    0    0 -0.24287395259E+03 -0.65883381240E+02 -0.74386853656E+03  0.78528260929E+03  0.00000000000E+00 0. -1.
         22    1    1    2    0    0  0.55302500491E+03  0.75516093569E+02 -0.94701943761E+03  0.10992657330E+04  0.00000000000E+00 0. -1.
<mgrwt>
<rscale>  0 0.11439783E+04</rscale>
<asrwt>0</asrwt>
<pdfrwt beam="1">  1        1 0.39037687E+00 0.11439783E+04</pdfrwt>
<pdfrwt beam="2">  1       -1 0.19836487E-01 0.11439783E+04</pdfrwt>
<totfact> 0.26504659E+01</totfact>
</mgrwt>
</event>
<event>
 6    1  0.1528034E-005  0.1634945E+04  0.7818608E-02  0.8799363E-01
          1   -1    0    0  501    0  0.00000000000E+00  0.00000000000E+00  0.25520489163E+03  0.25520489163E+03  0.00000000000E+00 0. -1.
         -1   -1    0    0    0  501 -0.00000000000E+00 -0.00000000000E+00 -0.26185292178E+04  0.26185292178E+04  0.00000000000E+00 0.  1.
         23    2    1    2    0    0  0.41195949954E+03  0.24268476812E+03 -0.23452482511E+04  0.23952643920E+04  0.92171701693E+02 0.  0.
         11    1    3    3    0    0  0.31089305133E+03  0.14878097694E+03 -0.15219689072E+04  0.15605062072E+04  0.00000000000E+00 0. -1.
        -11    1    3    3    0    0  0.10106644821E+03  0.93903791185E+02 -0.82327934394E+03  0.83475818481E+03  0.00000000000E+00 0.  1.
         22    1    1    2    0    0 -0.41195949954E+03 -0.24268476812E+03 -0.18076075046E+02  0.47846971736E+03  0.00000000000E+00 0. -1.
<mgrwt>
<rscale>  0 0.16349452E+04</rscale>
<asrwt>0</asrwt>
<pdfrwt beam="1">  1        1 0.39262292E-01 0.16349452E+04</pdfrwt>
<pdfrwt beam="2">  1       -1 0.40285064E+00 0.16349452E+04</pdfrwt>
<totfact> 0.71191972E-01</totfact>
</mgrwt>
</event>
<event>
 6    1  0.1528034E-005  0.3608633E+03  0.7818608E-02  0.1058243E+00
          2   -1    0    0  501    0  0.00000000000E+00  0.00000000000E+00  0.23577691089E+03  0.23577691089E+03  0.00000000000E+00 0. -1.
         -2   -1    0    0    0  501 -0.00000000000E+00 -0.00000000000E+00 -0.13807787007E+03  0.13807787007E+03  0.00000000000E+00 0.  1.
         23    2    1    2    0    0 -0.48948647731E+02 -0.96998063032E+02 -0.82026657663E+02  0.16384068371E+03  0.91163604159E+02 0.  0.
         11    1    3    3    0    0  0.17635888460E+02 -0.62562373148E+02 -0.24958188940E+02  0.69627482296E+02  0.00000000000E+00 0. -1.
        -11    1    3    3    0    0 -0.66584536191E+02 -0.34435689884E+02 -0.57068468723E+02  0.94213201410E+02  0.00000000000E+00 0.  1.
         22    1    1    2    0    0  0.48948647731E+02  0.96998063032E+02  0.17972569849E+03  0.21001409725E+03  0.00000000000E+00 0. -1.
<mgrwt>
<rscale>  0 0.36086326E+03</rscale>
<asrwt>0</asrwt>
<pdfrwt beam="1">  1        2 0.36273371E-01 0.36086326E+03</pdfrwt>
<pdfrwt beam="2">  1       -2 0.21242749E-01 0.36086326E+03</pdfrwt>
<totfact> 0.27052882E+03</totfact>
</mgrwt>
</event>
<event>
 6    1  0.1528034E-005  0.3114005E+04  0.7818608E-02  0.8211905E-01
          2   -1    0    0  501    0  0.00000000000E+00  0.00000000000E+00  0.18620292385E+04  0.18620292385E+04  0.00000000000E+00 0. -1.
         -2   -1    0    0    0  501 -0.00000000000E+00 -0.00000000000E+00 -0.13019432770E+04  0.13019432770E+04  0.00000000000E+00 0.  1.
         23    2    1    2    0    0  0.63972427411E+03  0.14036339204E+04  0.75797708055E+02  0.15471947194E+04  0.92902516788E+02 0.  0.
         13    1    3    3    0    0  0.47138360235E+03  0.11253167259E+04  0.62308340666E+02  0.12216474792E+04  0.00000000000E+00 0.  1.
        -13    1    3    3    0    0  0.16834067176E+03  0.27831719456E+03  0.13489367389E+02  0.32554724018E+03  0.00000000000E+00 0. -1.
         22    1    1    2    0    0 -0.63972427411E+03 -0.14036339204E+04  0.48428825346E+03  0.16167777961E+04  0.00000000000E+00 0.  1.
<mgrwt>
<rscale>  0 0.31140048E+04</rscale>
<asrwt>0</asrwt>
<pdfrwt beam="1">  1        2 0.28646604E+00 0.31140048E+04</pdfrwt>
<pdfrwt beam="2">  1       -2 0.20029897E+00 0.31140048E+04</pdfrwt>
<totfact> 0.89508663E-01</totfact>
</mgrwt>
</event>
<event>
 6    1  0.1528034E-005  0.2152243E+04  0.7818608E-02  0.8538573E-01
          2   -1    0    0  501    0  0.00000000000E+00  0.00000000000E+00  0.24524146584E+04  0.24524146584E+04  0.00000000000E+00 0. -1.
         -2   -1    0    0    0  501 -0.00000000000E+00 -0.00000000000E+00 -0.47220308769E+03  0.47220308769E+03  0.00000000000E+00 0.  1.
         23    2    1    2    0    0  0.37758179483E+03 -0.88618641446E+03  0.16377947940E+04  0.19022950857E+04  0.91980611817E+02 0.  0.
         13    1    3    3    0    0  0.20670829487E+03 -0.37604079112E+03  0.69515092016E+03  0.81692704543E+03  0.00000000000E+00 0. -1.
        -13    1    3    3    0    0  0.17087349996E+03 -0.51014562335E+03  0.94264387385E+03  0.10853680403E+04  0.00000000000E+00 0.  1.
         22    1    1    2    0    0 -0.37758179483E+03  0.88618641446E+03  0.34241677675E+03  0.10223226604E+04  0.00000000000E+00 0.  1.
<mgrwt>
<rscale>  0 0.21522433E+04</rscale>
<asrwt>0</asrwt>
<pdfrwt beam="1">  1        2 0.37729456E+00 0.21522433E+04</pdfrwt>
<pdfrwt beam="2">  1       -2 0.72646630E-01 0.21522433E+04</pdfrwt>
<totfact> 0.58323252E+00</totfact>
</mgrwt>
</event>
<event>
 6    1  0.1528034E-005  0.2592637E+04  0.7818608E-02  0.8370707E-01
         -1   -1    0    0    0  501 -0.00000000000E+00  0.00000000000E+00  0.11167802430E+04  0.11167802430E+04  0.00000000000E+00 0.  1.
          1   -1    0    0  501    0  0.00000000000E+00 -0.00000000000E+00 -0.15047201980E+04  0.15047201980E+04  0.00000000000E+00 0. -1.
         23    2    1    2    0    0 -0.81469791841E+03 -0.85312843577E+03  0.34545583633E+03  0.12324611281E+04  0.89776786104E+02 0.  0.
         11    1    3    3    0    0 -0.51216823586E+03 -0.50099735717E+03  0.17151752391E+03  0.73670408898E+03  0.00000000000E+00 0. -1.
        -11    1    3    3    0    0 -0.30252968255E+03 -0.35213107860E+03  0.17393831242E+03  0.49575703915E+03  0.00000000000E+00 0.  1.
         22    1    1    2    0    0  0.81469791841E+03  0.85312843577E+03 -0.73339579131E+03  0.13890393129E+04  0.00000000000E+00 0. -1.
<mgrwt>
<rscale>  0 0.25926371E+04</rscale>
<asrwt>0</asrwt>
<pdfrwt beam="1">  1        1 0.23149541E+00 0.25926371E+04</pdfrwt>
<pdfrwt beam="2">  1       -1 0.17181235E+00 0.25926371E+04</pdfrwt>
<totfact> 0.13655425E+00</totfact>
</mgrwt>
</event>
<event>
 6    1  0.1528034E-005  0.1714690E+04  0.7818608E-02  0.8753030E-01
          1   -1    0    0  501    0  0.00000000000E+00  0.00000000000E+00  0.16530133694E+04  0.16530133694E+04  0.00000000000E+00 0. -1.
         -1   -1    0    0    0  501 -0.00000000000E+00 -0.00000000000E+00 -0.44466712183E+03  0.44466712183E+03  0.00000000000E+00 0.  1.
         23    2    1    2    0    0 -0.61560217915E+03 -0.53874189386E+03  0.90926713414E+03  0.12266711989E+04  0.93523461797E+02 0.  0.
         13    1    3    3    0    0 -0.35979401543E+03 -0.25970099376E+03  0.52214562134E+03  0.68522433522E+03  0.00000000000E+00 0.  1.
        -13    1    3    3    0    0 -0.25580816372E+03 -0.27904090010E+03  0.38712151280E+03  0.54144686371E+03  0.00000000000E+00 0. -1.
         22    1    1    2    0    0  0.61560217915E+03  0.53874189386E+03  0.29907911345E+03  0.87100929230E+03  0.00000000000E+00 0.  1.
<mgrwt>
<rscale>  0 0.17146903E+04</rscale>
<asrwt>0</asrwt>
<pdfrwt beam="1">  1        1 0.25430974E+00 0.17146903E+04</pdfrwt>
<pdfrwt beam="2">  1       -1 0.68410328E-01 0.17146903E+04</pdfrwt>
<totfact> 0.10548698E+01</totfact>
</mgrwt>
</event>
<event>
 6    1  0.1528034E-005  0.2311969E+04  0.7818608E-02  0.8473217E-01
         -2   -1    0    0    0  501 -0.00000000000E+00  0.00000000000E+00  0.47319495616E+03  0.47319495616E+03  0.00000000000E+00 0.  1.
          2   -1    0    0  501    0  0.00000000000E+00 -0.00000000000E+00 -0.28239941334E+04  0.28239941334E+04  0.00000000000E+00 0. -1.
         23    2    1    2    0    0  0.71680512806E+03  0.90060746307E+02  0.10637563682E+03  0.73601189997E+03  0.92071771729E+02 0.  0.
         13    1    3    3    0    0  0.57807019317E+03  0.62003644514E+02  0.49571772511E+02  0.58349546767E+03  0.00000000000E+00 0. -1.
        -13    1    3    3    0    0  0.13873493490E+03  0.28057101793E+02  0.56803864313E+02  0.15251643230E+03  0.00000000000E+00 0.  1.
         22    1    1    2    0    0 -0.71680512806E+03 -0.90060746307E+02 -0.24571748141E+04  0.25611771896E+04  0.00000000000E+00 0. -1.
<mgrwt>
<rscale>  0 0.23119687E+04</rscale>
<asrwt>0</asrwt>
<pdfrwt beam="1">  1        2 0.43446063E+00 0.23119687E+04</pdfrwt>
<pdfrwt beam="2">  1       -2 0.72799225E-01 0.23119687E+04</pdfrwt>
<totfact> 0.34557016E+00</totfact>
</mgrwt>
</event>
<event>
 6    1  0.1528034E-005  0.2556144E+04  0.7818608E-02  0.8383252E-01
          2   -1    0    0  501    0  0.00000000000E+00  0.00000000000E+00  0.30277625206E+04  0.30277625206E+04  0.00000000000E+00 0. -1.
         -2   -1    0    0    0  501 -0.00000000000E+00 -0.00000000000E+00 -0.53949686634E+03  0.53949686634E+03  0.00000000000E+00 0.  1.
         23    2    1    2    0    0  0.42949525409E+03  0.46486635469E+03  0.27926992213E+04  0.28649441460E+04  0.90383172676E+02 0.  0.
         11    1    3    3    0    0  0.24392797371E+03  0.32778843447E+03  0.17720686079E+04  0.18185635170E+04  0.00000000000E+00 0. -1.
        -11    1    3    3    0    0  0.18556728039E+03  0.13707792022E+03  0.10206306134E+04  0.10463806290E+04  0.00000000000E+00 0.  1.
         22    1    1    2    0    0 -0.42949525409E+03 -0.46486635469E+03 -0.30443356700E+03  0.70231524099E+03  0.00000000000E+00 0.  1.
<mgrwt>
<rscale>  0 0.25561443E+04</rscale>
<asrwt>0</asrwt>
<pdfrwt beam="1">  1        2 0.46580961E+00 0.25561443E+04</pdfrwt>
<pdfrwt beam="2">  1       -2 0.82999520E-01 0.25561443E+04</pdfrwt>
<totfact> 0.18887108E+00</totfact>
</mgrwt>
</event>
<event>
 6    1  0.1528034E-005  0.6845273E+03  0.7818608E-02  0.9744065E-01
         -1   -1    0    0    0  501 -0.00000000000E+00  0.00000000000E+00  0.17491390509E+03  0.17491390509E+03  0.00000000000E+00 0.  1.
          1   -1    0    0  501    0  0.00000000000E+00 -0.00000000000E+00 -0.66972615411E+03  0.66972615411E+03  0.00000000000E+00 0. -1.
         23    2    1    2    0    0 -0.23778284968E+03 -0.17068232286E+03 -0.45463093757E+03  0.54919517985E+03  0.96192085085E+02 0.  0.
         11    1    3    3    0    0 -0.16648158652E+03 -0.10995109688E+03 -0.38092843019E+03  0.43001375708E+03  0.00000000000E+00 0. -1.
        -11    1    3    3    0    0 -0.71301263164E+02 -0.60731225983E+02 -0.73702507381E+02  0.11918142277E+03  0.00000000000E+00 0.  1.
         22    1    1    2    0    0  0.23778284968E+03  0.17068232286E+03 -0.40181311448E+02  0.29544487934E+03  0.00000000000E+00 0.  1.
<mgrwt>
<rscale>  0 0.68452733E+03</rscale>
<asrwt>0</asrwt>
<pdfrwt beam="1">  1        1 0.10303479E+00 0.68452733E+03</pdfrwt>
<pdfrwt beam="2">  1       -1 0.26909832E-01 0.68452733E+03</pdfrwt>
<totfact> 0.36332034E+02</totfact>
</mgrwt>
</event>
<event>
 6    1  0.1528034E-005  0.2257868E+04  0.7818608E-02  0.8494721E-01
          2   -1    0    0  501    0  0.00000000000E+00  0.00000000000E+00  0.26940318199E+04  0.26940318199E+04  0.00000000000E+00 0. -1.
         -2   -1    0    0    0  501 -0.00000000000E+00 -0.00000000000E+00 -0.47307961786E+03  0.47307961786E+03  0.00000000000E+00 0.  1.
         23    2    1    2    0    0  0.28069804174E+03  0.10320610808E+04  0.61355419079E+03  0.12363939981E+04  0.90994001573E+02 0.  0.
         11    1    3    3    0    0  0.12928971580E+03  0.34224599655E+03  0.23876213535E+03  0.43687012949E+03  0.00000000000E+00 0. -1.
        -11    1    3    3    0    0  0.15140832594E+03  0.68981508430E+03  0.37479205543E+03  0.79952386863E+03  0.00000000000E+00 0.  1.
         22    1    1    2    0    0 -0.28069804174E+03 -0.10320610808E+04  0.16073980113E+04  0.19307174397E+04  0.00000000000E+00 0. -1.
<mgrwt>
<rscale>  0 0.22578676E+04</rscale>
<asrwt>0</asrwt>
<pdfrwt beam="1">  1        2 0.41446643E+00 0.22578676E+04</pdfrwt>
<pdfrwt beam="2">  1       -2 0.72781481E-01 0.22578676E+04</pdfrwt>
<totfact> 0.41575600E+00</totfact>
</mgrwt>
</event>
<event>
 6    1  0.1528034E-005  0.4485748E+04  0.7818608E-02  0.7913137E-01
         -2   -1    0    0    0  501 -0.00000000000E+00  0.00000000000E+00  0.15989965102E+04  0.15989965102E+04  0.00000000000E+00 0.  1.
          2   -1    0    0  501    0  0.00000000000E+00 -0.00000000000E+00 -0.31460255662E+04  0.31460255662E+04  0.00000000000E+00 0. -1.
         23    2    1    2    0    0 -0.15873143525E+04 -0.13835479811E+04  0.40500545071E+02  0.21079740859E+04  0.90236261140E+02 0.  0.
         13    1    3    3    0    0 -0.68560390079E+03 -0.60482917073E+03 -0.26810836906E+02  0.91465286066E+03  0.00000000000E+00 0.  1.
        -13    1    3    3    0    0 -0.90171045175E+03 -0.77871881036E+03  0.67311381977E+02  0.11933212252E+04  0.00000000000E+00 0. -1.
         22    1    1    2    0    0  0.15873143525E+04  0.13835479811E+04 -0.15875296011E+04  0.26370479905E+04  0.00000000000E+00 0. -1.
<mgrwt>
<rscale>  0 0.44857481E+04</rscale>
<asrwt>0</asrwt>
<pdfrwt beam="1">  1        2 0.48400394E+00 0.44857481E+04</pdfrwt>
<pdfrwt beam="2">  1       -2 0.24599946E+00 0.44857481E+04</pdfrwt>
<totfact> 0.72468505E-02</totfact>
</mgrwt>
</event>
<event>
 6    1  0.1528034E-005  0.1644837E+04  0.7818608E-02  0.8793467E-01
          2   -1    0    0  501    0  0.00000000000E+00  0.00000000000E+00  0.27772322181E+04  0.27772322181E+04  0.00000000000E+00 0. -1.
         -2   -1    0    0    0  501 -0.00000000000E+00 -0.00000000000E+00 -0.24354170622E+03  0.24354170622E+03  0.00000000000E+00 0.  1.
         23    2    1    2    0    0  0.67640907057E+03  0.11814932338E+03  0.20935372461E+04  0.22051616447E+04  0.91384818560E+02 0.  0.
         11    1    3    3    0    0  0.43339049663E+03  0.51838205767E+02  0.14424737145E+04  0.15070650083E+04  0.00000000000E+00 0. -1.
        -11    1    3    3    0    0  0.24301857394E+03  0.66311117609E+02  0.65106353153E+03  0.69809663635E+03  0.00000000000E+00 0.  1.
         22    1    1    2    0    0 -0.67640907057E+03 -0.11814932338E+03  0.44015326585E+03  0.81561227970E+03  0.00000000000E+00 0. -1.
<mgrwt>
<rscale>  0 0.16448366E+04</rscale>
<asrwt>0</asrwt>
<pdfrwt beam="1">  1        2 0.42726647E+00 0.16448366E+04</pdfrwt>
<pdfrwt beam="2">  1       -2 0.37467957E-01 0.16448366E+04</pdfrwt>
<totfact> 0.15380133E+01</totfact>
</mgrwt>
</event>
<event>
 6    1  0.1528034E-005  0.2011206E+04  0.7818608E-02  0.8601400E-01
         -1   -1    0    0    0  501 -0.00000000000E+00  0.00000000000E+00  0.37236963474E+03  0.37236963474E+03  0.00000000000E+00 0.  1.
          1   -1    0    0  501    0  0.00000000000E+00 -0.00000000000E+00 -0.27156806966E+04  0.27156806966E+04  0.00000000000E+00 0. -1.
         23    2    1    2    0    0  0.64984257932E+03 -0.54956669601E+03 -0.19905242736E+04  0.21667591455E+04  0.91320201549E+02 0.  0.
         11    1    3    3    0    0  0.48323822679E+03 -0.37578115763E+03 -0.13431592691E+04  0.14760784141E+04  0.00000000000E+00 0.  1.
        -11    1    3    3    0    0  0.16660435253E+03 -0.17378553839E+03 -0.64736500453E+03  0.69068073140E+03  0.00000000000E+00 0. -1.
         22    1    1    2    0    0 -0.64984257932E+03  0.54956669601E+03 -0.35278678822E+03  0.92129118589E+03  0.00000000000E+00 0.  1.
<mgrwt>
<rscale>  0 0.20112056E+04</rscale>
<asrwt>0</asrwt>
<pdfrwt beam="1">  1        1 0.41779702E+00 0.20112056E+04</pdfrwt>
<pdfrwt beam="2">  1       -1 0.57287638E-01 0.20112056E+04</pdfrwt>
<totfact> 0.27381974E+00</totfact>
</mgrwt>
</event>
<event>
 6    1  0.1528034E-005  0.2119452E+04  0.7818608E-02  0.8552723E-01
          1   -1    0    0  501    0  0.00000000000E+00  0.00000000000E+00  0.13488390762E+04  0.13488390762E+04  0.00000000000E+00 0. -1.
         -1   -1    0    0    0  501 -0.00000000000E+00 -0.00000000000E+00 -0.83258169709E+03  0.83258169709E+03  0.00000000000E+00 0.  1.
         23    2    1    2    0    0  0.89009661253E+03  0.30623886389E+03  0.75523621993E+03  0.12102538938E+04  0.90986362931E+02 0.  0.
         13    1    3    3    0    0  0.32289795664E+03  0.84601294888E+02  0.31362378827E+03  0.45801784907E+03  0.00000000000E+00 0. -1.
        -13    1    3    3    0    0  0.56719865589E+03  0.22163756900E+03  0.44161243166E+03  0.75223604476E+03  0.00000000000E+00 0.  1.
         22    1    1    2    0    0 -0.89009661253E+03 -0.30623886389E+03 -0.23897884082E+03  0.97116687946E+03  0.00000000000E+00 0.  1.
<mgrwt>
<rscale>  0 0.21194516E+04</rscale>
<asrwt>0</asrwt>
<pdfrwt beam="1">  1        1 0.20751370E+00 0.21194516E+04</pdfrwt>
<pdfrwt beam="2">  1       -1 0.12808949E+00 0.21194516E+04</pdfrwt>
<totfact> 0.40357587E+00</totfact>
</mgrwt>
</event>
<event>
 6    1  0.1528034E-005  0.1660686E+04  0.7818608E-02  0.8784110E-01
          2   -1    0    0  501    0  0.00000000000E+00  0.00000000000E+00  0.92461956116E+03  0.92461956116E+03  0.00000000000E+00 0. -1.
         -2   -1    0    0    0  501 -0.00000000000E+00 -0.00000000000E+00 -0.74567941177E+03  0.74567941177E+03  0.00000000000E+00 0.  1.
         23    2    1    2    0    0  0.61558530480E+03 -0.46675159170E+03  0.38891308427E+03  0.86974232332E+03  0.91629722278E+02 0.  0.
         11    1    3    3    0    0  0.10543067181E+03 -0.52070475458E+02  0.87145066374E+02  0.14635991106E+03  0.00000000000E+00 0. -1.
        -11    1    3    3    0    0  0.51015463299E+03 -0.41468111625E+03  0.30176801790E+03  0.72338241226E+03  0.00000000000E+00 0.  1.
         22    1    1    2    0    0 -0.61558530480E+03  0.46675159170E+03 -0.20997293489E+03  0.80055664961E+03  0.00000000000E+00 0.  1.
<mgrwt>
<rscale>  0 0.16606863E+04</rscale>
<asrwt>0</asrwt>
<pdfrwt beam="1">  1        2 0.14224916E+00 0.16606863E+04</pdfrwt>
<pdfrwt beam="2">  1       -2 0.11471991E+00 0.16606863E+04</pdfrwt>
<totfact> 0.15980469E+01</totfact>
</mgrwt>
</event>
<event>
 6    1  0.1528034E-005  0.1069806E+04  0.7818608E-02  0.9235131E-01
         -1   -1    0    0    0  501 -0.00000000000E+00  0.00000000000E+00  0.49226796080E+03  0.49226796080E+03  0.00000000000E+00 0.  1.
          1   -1    0    0  501    0  0.00000000000E+00 -0.00000000000E+00 -0.58123063146E+03  0.58123063146E+03  0.00000000000E+00 0. -1.
         23    2    1    2    0    0 -0.47875093809E+03 -0.94347496189E+02 -0.25475464410E+03  0.55814348244E+03  0.92305511978E+02 0.  0.
         13    1    3    3    0    0 -0.70834343492E+02 -0.34190537396E+02 -0.73797408188E+02  0.10785432083E+03  0.00000000000E+00 0.  1.
        -13    1    3    3    0    0 -0.40791659460E+03 -0.60156958793E+02 -0.18095723591E+03  0.45028916162E+03  0.00000000000E+00 0. -1.
         22    1    1    2    0    0  0.47875093809E+03  0.94347496189E+02  0.16579197344E+03  0.51535510982E+03  0.00000000000E+00 0.  1.
<mgrwt>
<rscale>  0 0.10698060E+04</rscale>
<asrwt>0</asrwt>
<pdfrwt beam="1">  1        1 0.89420096E-01 0.10698060E+04</pdfrwt>
<pdfrwt beam="2">  1       -1 0.75733533E-01 0.10698060E+04</pdfrwt>
<totfact> 0.62741328E+01</totfact>
</mgrwt>
</event>
<event>
 6    1  0.1528034E-005  0.4859826E+04  0.7818608E-02  0.7850502E-01
          2   -1    0    0  501    0  0.00000000000E+00  0.00000000000E+00  0.44484659192E+04  0.44484659192E+04  0.00000000000E+00 0. -1.
         -2   -1    0    0    0  501 -0.00000000000E+00 -0.00000000000E+00 -0.13273061692E+04  0.13273061692E+04  0.00000000000E+00 0.  1.
         23    2    1    2    0    0  0.15150988996E+04  0.71106339906E+03 -0.53112559892E+03  0.17582698665E+04  0.91009278189E+02 0.  0.
         13    1    3    3    0    0  0.83568003164E+03  0.36892526970E+03 -0.24765742282E+03  0.94646773267E+03  0.00000000000E+00 0. -1.
        -13    1    3    3    0    0  0.67941886793E+03  0.34213812936E+03 -0.28346817610E+03  0.81180213385E+03  0.00000000000E+00 0.  1.
         22    1    1    2    0    0 -0.15150988996E+04 -0.71106339906E+03  0.36522853489E+04  0.40175022219E+04  0.00000000000E+00 0. -1.
<mgrwt>
<rscale>  0 0.48598256E+04</rscale>
<asrwt>0</asrwt>
<pdfrwt beam="1">  1        2 0.68437936E+00 0.48598256E+04</pdfrwt>
<pdfrwt beam="2">  1       -2 0.20420095E+00 0.48598256E+04</pdfrwt>
<totfact> 0.12577412E-02</totfact>
</mgrwt>
</event>
<event>
 6    1  0.1528034E-005  0.1095212E+04  0.7818608E-02  0.9209871E-01
          1   -1    0    0  501    0  0.00000000000E+00  0.00000000000E+00  0.62845498833E+03  0.62845498833E+03  0.00000000000E+00 0. -1.
         -1   -1    0    0    0  501 -0.00000000000E+00 -0.00000000000E+00 -0.47715787185E+03  0.47715787185E+03  0.00000000000E+00 0.  1.
         23    2    1    2    0    0  0.47713494359E+03 -0.11260723393E+03  0.31364063017E+03  0.58918904201E+03  0.91843011754E+02 0.  0.
         13    1    3    3    0    0  0.26775679887E+03 -0.10889216139E+03  0.19207050735E+03  0.34704795915E+03  0.00000000000E+00 0.  1.
        -13    1    3    3    0    0  0.20937814472E+03 -0.37150725404E+01  0.12157012283E+03  0.24214108287E+03  0.00000000000E+00 0. -1.
         22    1    1    2    0    0 -0.47713494359E+03  0.11260723393E+03 -0.16234351369E+03  0.51642381816E+03  0.00000000000E+00 0.  1.
<mgrwt>
<rscale>  0 0.10952118E+04</rscale>
<asrwt>0</asrwt>
<pdfrwt beam="1">  1        1 0.96685383E-01 0.10952118E+04</pdfrwt>
<pdfrwt beam="2">  1       -1 0.73408903E-01 0.10952118E+04</pdfrwt>
<totfact> 0.59689693E+01</totfact>
</mgrwt>
</event>
<event>
 6    1  0.1528034E-005  0.2991613E+04  0.7818608E-02  0.8246130E-01
          1   -1    0    0  501    0  0.00000000000E+00  0.00000000000E+00  0.46350839938E+03  0.46350839938E+03  0.00000000000E+00 0. -1.
         -1   -1    0    0    0  501 -0.00000000000E+00 -0.00000000000E+00 -0.48271761763E+04  0.48271761763E+04  0.00000000000E+00 0.  1.
         23    2    1    2    0    0  0.10728892493E+04  0.55440959892E+03 -0.37402910936E+04  0.39316187811E+04  0.96888754451E+02 0.  0.
         13    1    3    3    0    0  0.60829765412E+03  0.28174437031E+03 -0.21978717932E+04  0.22978351432E+04  0.00000000000E+00 0. -1.
        -13    1    3    3    0    0  0.46459159516E+03  0.27266522860E+03 -0.15424193004E+04  0.16337836379E+04  0.00000000000E+00 0.  1.
         22    1    1    2    0    0 -0.10728892493E+04 -0.55440959892E+03 -0.62337668331E+03  0.13590657945E+04  0.00000000000E+00 0. -1.
<mgrwt>
<rscale>  0 0.29916127E+04</rscale>
<asrwt>0</asrwt>
<pdfrwt beam="1">  1        1 0.71308987E-01 0.29916127E+04</pdfrwt>
<pdfrwt beam="2">  1       -1 0.74264246E+00 0.29916127E+04</pdfrwt>
<totfact> 0.57267011E-03</totfact>
</mgrwt>
</event>
<event>
 6    1  0.1528034E-005  0.1820683E+04  0.7818608E-02  0.8695377E-01
          1   -1    0    0  501    0  0.00000000000E+00  0.00000000000E+00  0.12646685303E+04  0.12646685303E+04  0.00000000000E+00 0. -1.
         -1   -1    0    0    0  501 -0.00000000000E+00 -0.00000000000E+00 -0.65528784711E+03  0.65528784711E+03  0.00000000000E+00 0.  1.
         23    2    1    2    0    0 -0.55428624550E+03  0.58670697836E+03  0.74427428337E+03  0.11016321117E+04  0.90502929373E+02 0.  0.
         11    1    3    3    0    0 -0.49260443012E+03  0.51454021230E+03  0.61395293510E+03  0.94039829921E+03  0.00000000000E+00 0. -1.
        -11    1    3    3    0    0 -0.61681815385E+02  0.72166766058E+02  0.13032134827E+03  0.16123381248E+03  0.00000000000E+00 0.  1.
         22    1    1    2    0    0  0.55428624550E+03 -0.58670697836E+03 -0.13489360023E+03  0.81832426567E+03  0.00000000000E+00 0.  1.
<mgrwt>
<rscale>  0 0.18206833E+04</rscale>
<asrwt>0</asrwt>
<pdfrwt beam="1">  1        1 0.19456439E+00 0.18206833E+04</pdfrwt>
<pdfrwt beam="2">  1       -1 0.10081352E+00 0.18206833E+04</pdfrwt>
<totfact> 0.84516188E+00</totfact>
</mgrwt>
</event>
<event>
 6    1  0.1528034E-005  0.1285042E+04  0.7818608E-02  0.9041512E-01
          1   -1    0    0  501    0  0.00000000000E+00  0.00000000000E+00  0.11379373086E+04  0.11379373086E+04  0.00000000000E+00 0. -1.
         -1   -1    0    0    0  501 -0.00000000000E+00 -0.00000000000E+00 -0.36279073687E+03  0.36279073687E+03  0.00000000000E+00 0.  1.
         23    2    1    2    0    0  0.47852795810E+03  0.41298253168E+03  0.27878306551E+03  0.69703637048E+03  0.92715295400E+02 0.  0.
         13    1    3    3    0    0  0.51500224582E+02  0.11882953188E+02  0.19050908917E+02  0.56181979664E+02  0.00000000000E+00 0.  1.
        -13    1    3    3    0    0  0.42702773352E+03  0.40109957849E+03  0.25973215659E+03  0.64085439081E+03  0.00000000000E+00 0. -1.
         22    1    1    2    0    0 -0.47852795810E+03 -0.41298253168E+03  0.49636350624E+03  0.80369167501E+03  0.00000000000E+00 0. -1.
<mgrwt>
<rscale>  0 0.12850418E+04</rscale>
<asrwt>0</asrwt>
<pdfrwt beam="1">  1        1 0.17506728E+00 0.12850418E+04</pdfrwt>
<pdfrwt beam="2">  1       -1 0.55813960E-01 0.12850418E+04</pdfrwt>
<totfact> 0.37921284E+01</totfact>
</mgrwt>
</event>
<event>
 6    1  0.2177785E-005  0.3429357E+04  0.7818608E-02  0.8130739E-01
          1   -1    0    0  501    0  0.00000000000E+00  0.00000000000E+00  0.17955149524E+04  0.17955149524E+04  0.00000000000E+00 0. -1.
         -1   -1    0    0    0  501 -0.00000000000E+00 -0.00000000000E+00 -0.16374812114E+04  0.16374812114E+04  0.00000000000E+00 0.  1.
         23    2    1    2    0    0 -0.41044493279E+03  0.11078834433E+04  0.13213957383E+04  0.17749002971E+04  0.91178948797E+02 0.  0.
         13    1    3    3    0    0 -0.99162561886E+02  0.38697152280E+03  0.42799965496E+03  0.58546039813E+03  0.00000000000E+00 0. -1.
        -13    1    3    3    0    0 -0.31128237090E+03  0.72091192047E+03  0.89339608330E+03  0.11894398989E+04  0.00000000000E+00 0.  1.
         22    1    1    2    0    0  0.41044493279E+03 -0.11078834433E+04 -0.11633619972E+04  0.16580958668E+04  0.00000000000E+00 0.  1.
<mgrwt>
<rscale>  0 0.34293568E+04</rscale>
<asrwt>0</asrwt>
<pdfrwt beam="1">  1        1 0.27623307E+00 0.34293568E+04</pdfrwt>
<pdfrwt beam="2">  1       -1 0.25192019E+00 0.34293568E+04</pdfrwt>
<totfact> 0.22807129E-01</totfact>
</mgrwt>
</event>
<event>
 6    1  0.1528034E-005  0.8697339E+03  0.7818608E-02  0.9464227E-01
         -2   -1    0    0    0  501 -0.00000000000E+00  0.00000000000E+00  0.20613271981E+03  0.20613271981E+03  0.00000000000E+00 0.  1.
          2   -1    0    0  501    0  0.00000000000E+00 -0.00000000000E+00 -0.91741497315E+03  0.91741497315E+03  0.00000000000E+00 0. -1.
         23    2    1    2    0    0  0.10452386084E+03 -0.41717946322E+03 -0.37754369934E+03  0.57917156890E+03  0.89087144345E+02 0.  0.
         13    1    3    3    0    0  0.26163442573E+02 -0.26474913097E+03 -0.20390252121E+03  0.33519079080E+03  0.00000000000E+00 0. -1.
        -13    1    3    3    0    0  0.78360418269E+02 -0.15243033225E+03 -0.17364117813E+03  0.24398077810E+03  0.00000000000E+00 0.  1.
         22    1    1    2    0    0 -0.10452386084E+03  0.41717946322E+03 -0.33373855400E+03  0.54437612406E+03  0.00000000000E+00 0.  1.
<mgrwt>
<rscale>  0 0.86973385E+03</rscale>
<asrwt>0</asrwt>
<pdfrwt beam="1">  1        2 0.14114076E+00 0.86973385E+03</pdfrwt>
<pdfrwt beam="2">  1       -2 0.31712727E-01 0.86973385E+03</pdfrwt>
<totfact> 0.26432888E+02</totfact>
</mgrwt>
</event>
<event>
 6    1  0.1528034E-005  0.1965317E+04  0.7818608E-02  0.8623010E-01
         -1   -1    0    0    0  501 -0.00000000000E+00  0.00000000000E+00  0.39841450346E+03  0.39841450346E+03  0.00000000000E+00 0.  1.
          1   -1    0    0  501    0  0.00000000000E+00 -0.00000000000E+00 -0.24236512138E+04  0.24236512138E+04  0.00000000000E+00 0. -1.
         23    2    1    2    0    0  0.55045221082E+03  0.69238879118E+03 -0.40686437366E+03  0.97774229261E+03  0.89674397962E+02 0.  0.
         11    1    3    3    0    0  0.14368412312E+03  0.23553762858E+03 -0.15271310618E+03  0.31534805297E+03  0.00000000000E+00 0.  1.
        -11    1    3    3    0    0  0.40676808770E+03  0.45685116260E+03 -0.25415126748E+03  0.66239423963E+03  0.00000000000E+00 0. -1.
         22    1    1    2    0    0 -0.55045221082E+03 -0.69238879118E+03 -0.16183723367E+04  0.18443234246E+04  0.00000000000E+00 0. -1.
<mgrwt>
<rscale>  0 0.19653171E+04</rscale>
<asrwt>0</asrwt>
<pdfrwt beam="1">  1        1 0.37286943E+00 0.19653171E+04</pdfrwt>
<pdfrwt beam="2">  1       -1 0.61294538E-01 0.19653171E+04</pdfrwt>
<totfact> 0.38447900E+00</totfact>
</mgrwt>
</event>
<event>
 6    1  0.1528034E-005  0.7951891E+03  0.7818608E-02  0.9567007E-01
         -4   -1    0    0    0  501 -0.00000000000E+00  0.00000000000E+00  0.12961902341E+04  0.12961902341E+04  0.00000000000E+00 0.  1.
          4   -1    0    0  501    0  0.00000000000E+00 -0.00000000000E+00 -0.12195849375E+03  0.12195849375E+03  0.00000000000E+00 0. -1.
         23    2    1    2    0    0  0.12817216700E+03  0.28495967821E+03  0.16571595754E+03  0.36233898800E+03  0.78725097900E+02 0.  0.
         11    1    3    3    0    0  0.12576281836E+03  0.20440494357E+03  0.10778787043E+03  0.26308913404E+03  0.00000000000E+00 0.  1.
        -11    1    3    3    0    0  0.24093486360E+01  0.80554734637E+02  0.57928087113E+02  0.99249853954E+02  0.00000000000E+00 0. -1.
         22    1    1    2    0    0 -0.12817216700E+03 -0.28495967821E+03  0.10085157828E+04  0.10558097398E+04  0.00000000000E+00 0.  1.
<mgrwt>
<rscale>  0 0.79518906E+03</rscale>
<asrwt>0</asrwt>
<pdfrwt beam="1">  1        4 0.18762846E-01 0.79518906E+03</pdfrwt>
<pdfrwt beam="2">  1       -4 0.19941387E+00 0.79518906E+03</pdfrwt>
<totfact> 0.69249208E+00</totfact>
</mgrwt>
</event>
<event>
 6    1  0.1528034E-005  0.9525433E+03  0.7818608E-02  0.9362183E-01
         -1   -1    0    0    0  501 -0.00000000000E+00  0.00000000000E+00  0.75343833688E+03  0.75343833688E+03  0.00000000000E+00 0.  1.
          1   -1    0    0  501    0  0.00000000000E+00 -0.00000000000E+00 -0.30106602449E+03  0.30106602449E+03  0.00000000000E+00 0. -1.
         23    2    1    2    0    0 -0.39595059131E+03  0.24846785365E+03  0.15558759680E+03  0.50079476920E+03  0.89859643455E+02 0.  0.
         13    1    3    3    0    0 -0.17505528075E+03  0.86827385349E+02  0.10704300586E+03  0.22280384034E+03  0.00000000000E+00 0. -1.
        -13    1    3    3    0    0 -0.22089531056E+03  0.16164046830E+03  0.48544590942E+02  0.27799092886E+03  0.00000000000E+00 0.  1.
         22    1    1    2    0    0  0.39595059131E+03 -0.24846785365E+03  0.29678471559E+03  0.55370959217E+03  0.00000000000E+00 0.  1.
<mgrwt>
<rscale>  0 0.95254330E+03</rscale>
<asrwt>0</asrwt>
<pdfrwt beam="1">  1        1 0.46317850E-01 0.95254330E+03</pdfrwt>
<pdfrwt beam="2">  1       -1 0.11591359E+00 0.95254330E+03</pdfrwt>
<totfact> 0.59108235E+01</totfact>
</mgrwt>
</event>
<event>
 6    1  0.1528034E-005  0.9302370E+03  0.7818608E-02  0.9388554E-01
          1   -1    0    0  501    0  0.00000000000E+00  0.00000000000E+00  0.66939740636E+03  0.66939740636E+03  0.00000000000E+00 0. -1.
         -1   -1    0    0    0  501 -0.00000000000E+00 -0.00000000000E+00 -0.32317902787E+03  0.32317902787E+03  0.00000000000E+00 0.  1.
         23    2    1    2    0    0 -0.42641122029E+03  0.17350688800E+03  0.19202046892E+03  0.50707858224E+03  0.91245049778E+02 0.  0.
         13    1    3    3    0    0 -0.38908616549E+03  0.16493879291E+03  0.20065759396E+03  0.46782081997E+03  0.00000000000E+00 0. -1.
        -13    1    3    3    0    0 -0.37325054799E+02  0.85680950914E+01 -0.86371250455E+01  0.39257762268E+02  0.00000000000E+00 0.  1.
         22    1    1    2    0    0  0.42641122029E+03 -0.17350688800E+03  0.15419790958E+03  0.48549785200E+03  0.00000000000E+00 0.  1.
<mgrwt>
<rscale>  0 0.93023697E+03</rscale>
<asrwt>0</asrwt>
<pdfrwt beam="1">  1        1 0.10298422E+00 0.93023697E+03</pdfrwt>
<pdfrwt beam="2">  1       -1 0.49719850E-01 0.93023697E+03</pdfrwt>
<totfact> 0.11897286E+02</totfact>
</mgrwt>
</event>
<event>
 6    1  0.1528034E-005  0.1318445E+04  0.7818608E-02  0.9015065E-01
         -1   -1    0    0    0  501 -0.00000000000E+00  0.00000000000E+00  0.38359505110E+03  0.38359505110E+03  0.00000000000E+00 0.  1.
          1   -1    0    0  501    0  0.00000000000E+00 -0.00000000000E+00 -0.11328987693E+04  0.11328987693E+04  0.00000000000E+00 0. -1.
         23    2    1    2    0    0  0.13220801636E+03  0.30624758454E+03 -0.10262304045E+04  0.10829561262E+04  0.91534613872E+02 0.  0.
         11    1    3    3    0    0  0.12557594026E+03  0.18036471574E+03 -0.66227800307E+03  0.69779144506E+03  0.00000000000E+00 0. -1.
        -11    1    3    3    0    0  0.66320761051E+01  0.12588286880E+03 -0.36395240144E+03  0.38516468115E+03  0.00000000000E+00 0.  1.
         22    1    1    2    0    0 -0.13220801636E+03 -0.30624758454E+03  0.27692668636E+03  0.43353769414E+03  0.00000000000E+00 0.  1.
<mgrwt>
<rscale>  0 0.13184451E+04</rscale>
<asrwt>0</asrwt>
<pdfrwt beam="1">  1        1 0.17429211E+00 0.13184451E+04</pdfrwt>
<pdfrwt beam="2">  1       -1 0.59014624E-01 0.13184451E+04</pdfrwt>
<totfact> 0.34203143E+01</totfact>
</mgrwt>
</event>
<event>
 6    1  0.1528034E-005  0.5360397E+04  0.7818608E-02  0.7775196E-01
         -2   -1    0    0    0  501 -0.00000000000E+00  0.00000000000E+00  0.22327084831E+04  0.22327084831E+04  0.00000000000E+00 0.  1.
          2   -1    0    0  501    0  0.00000000000E+00 -0.00000000000E+00 -0.32173767780E+04  0.32173767780E+04  0.00000000000E+00 0. -1.
         23    2    1    2    0    0 -0.16854700862E+04 -0.13325143567E+04 -0.21201856992E+04  0.30198993221E+04  0.90557132698E+02 0.  0.
         13    1    3    3    0    0 -0.13166139924E+04 -0.10336062269E+04 -0.15985149301E+04  0.23145332616E+04  0.00000000000E+00 0.  1.
        -13    1    3    3    0    0 -0.36885609382E+03 -0.29890812986E+03 -0.52167076909E+03  0.70536606054E+03  0.00000000000E+00 0. -1.
         22    1    1    2    0    0  0.16854700862E+04  0.13325143567E+04  0.11355174043E+04  0.24301859390E+04  0.00000000000E+00 0.  1.
<mgrwt>
<rscale>  0 0.53603972E+04</rscale>
<asrwt>0</asrwt>
<pdfrwt beam="1">  1        2 0.49498104E+00 0.53603972E+04</pdfrwt>
<pdfrwt beam="2">  1       -2 0.34349361E+00 0.53603972E+04</pdfrwt>
<totfact> 0.15267028E-02</totfact>
</mgrwt>
</event>
<event>
 6    1  0.1528034E-005  0.5962177E+04  0.7818608E-02  0.7695109E-01
          2   -1    0    0  501    0  0.00000000000E+00  0.00000000000E+00  0.33930059604E+04  0.33930059604E+04  0.00000000000E+00 0. -1.
         -2   -1    0    0    0  501 -0.00000000000E+00 -0.00000000000E+00 -0.26191782450E+04  0.26191782450E+04  0.00000000000E+00 0.  1.
         23    2    1    2    0    0 -0.29274847140E+03  0.16367447408E+04  0.28812251498E+04  0.33278297279E+04  0.91418379504E+02 0.  0.
         11    1    3    3    0    0 -0.23108850037E+03  0.12200862425E+04  0.20742009612E+04  0.24175032496E+04  0.00000000000E+00 0.  1.
        -11    1    3    3    0    0 -0.61659971036E+02  0.41665849836E+03  0.80702418858E+03  0.91032647838E+03  0.00000000000E+00 0. -1.
         22    1    1    2    0    0  0.29274847140E+03 -0.16367447408E+04 -0.21073974343E+04  0.26843544774E+04  0.00000000000E+00 0.  1.
<mgrwt>
<rscale>  0 0.59621766E+04</rscale>
<asrwt>0</asrwt>
<pdfrwt beam="1">  1        2 0.52200092E+00 0.59621766E+04</pdfrwt>
<pdfrwt beam="2">  1       -2 0.40295050E+00 0.59621766E+04</pdfrwt>
<totfact> 0.46186778E-03</totfact>
</mgrwt>
</event>
<event>
 6    1  0.1528034E-005  0.2372483E+04  0.7818608E-02  0.8449878E-01
          1   -1    0    0  501    0  0.00000000000E+00  0.00000000000E+00  0.10455514102E+04  0.10455514102E+04  0.00000000000E+00 0. -1.
         -1   -1    0    0    0  501 -0.00000000000E+00 -0.00000000000E+00 -0.13458625053E+04  0.13458625053E+04  0.00000000000E+00 0.  1.
         23    2    1    2    0    0 -0.32013285921E+03 -0.28661058003E+03 -0.12631010351E+04  0.13370917916E+04  0.88088376669E+02 0.  0.
         11    1    3    3    0    0 -0.49891862479E+02 -0.64935239099E+02 -0.34813443374E+03  0.35763580243E+03  0.00000000000E+00 0.  1.
        -11    1    3    3    0    0 -0.27024099673E+03 -0.22167534093E+03 -0.91496660140E+03  0.97945598920E+03  0.00000000000E+00 0. -1.
         22    1    1    2    0    0  0.32013285921E+03  0.28661058003E+03  0.96278994010E+03  0.10543221239E+04  0.00000000000E+00 0. -1.
<mgrwt>
<rscale>  0 0.23724826E+04</rscale>
<asrwt>0</asrwt>
<pdfrwt beam="1">  1        1 0.16085406E+00 0.23724826E+04</pdfrwt>
<pdfrwt beam="2">  1       -1 0.20705577E+00 0.23724826E+04</pdfrwt>
<totfact> 0.16867687E+00</totfact>
</mgrwt>
</event>
<event>
 6    1  0.1528034E-005  0.2236743E+04  0.7818608E-02  0.8503289E-01
          2   -1    0    0  501    0  0.00000000000E+00  0.00000000000E+00  0.26371066868E+04  0.26371066868E+04  0.00000000000E+00 0. -1.
         -2   -1    0    0    0  501 -0.00000000000E+00 -0.00000000000E+00 -0.47429037949E+03  0.47429037949E+03  0.00000000000E+00 0.  1.
         23    2    1    2    0    0  0.77248491765E+03 -0.71769448729E+03  0.15939310085E+04  0.19132948969E+04  0.90900921639E+02 0.  0.
         13    1    3    3    0    0  0.18902245391E+03 -0.12510196427E+03  0.34874572523E+03  0.41593697890E+03  0.00000000000E+00 0. -1.
        -13    1    3    3    0    0  0.58346246374E+03 -0.59259252302E+03  0.12451852833E+04  0.14973579180E+04  0.00000000000E+00 0.  1.
         22    1    1    2    0    0 -0.77248491765E+03  0.71769448729E+03  0.56888529878E+03  0.11981021694E+04  0.00000000000E+00 0.  1.
<mgrwt>
<rscale>  0 0.22367426E+04</rscale>
<asrwt>0</asrwt>
<pdfrwt beam="1">  1        2 0.40570871E+00 0.22367426E+04</pdfrwt>
<pdfrwt beam="2">  1       -2 0.72967752E-01 0.22367426E+04</pdfrwt>
<totfact> 0.44759116E+00</totfact>
</mgrwt>
</event>
<event>
 6    1  0.1528034E-005  0.4829995E+03  0.7818608E-02  0.1018314E+00
         -1   -1    0    0    0  501 -0.00000000000E+00  0.00000000000E+00  0.14016752119E+03  0.14016752119E+03  0.00000000000E+00 0.  1.
          1   -1    0    0  501    0  0.00000000000E+00 -0.00000000000E+00 -0.41608867910E+03  0.41608867910E+03  0.00000000000E+00 0. -1.
         23    2    1    2    0    0  0.18658909424E+03  0.53788752803E+02 -0.29091573299E+03  0.36149080988E+03  0.91295793522E+02 0.  0.
         13    1    3    3    0    0  0.96106535478E+02  0.72645847638E+02 -0.18668524488E+03  0.22218295613E+03  0.00000000000E+00 0. -1.
        -13    1    3    3    0    0  0.90482558763E+02 -0.18857094835E+02 -0.10423048811E+03  0.13930785375E+03  0.00000000000E+00 0.  1.
         22    1    1    2    0    0 -0.18658909424E+03 -0.53788752803E+02  0.14994575069E+02  0.19476539040E+03  0.00000000000E+00 0.  1.
<mgrwt>
<rscale>  0 0.48299946E+03</rscale>
<asrwt>0</asrwt>
<pdfrwt beam="1">  1        1 0.64013641E-01 0.48299946E+03</pdfrwt>
<pdfrwt beam="2">  1       -1 0.21564235E-01 0.48299946E+03</pdfrwt>
<totfact> 0.10279239E+03</totfact>
</mgrwt>
</event>
<event>
 6    1  0.1528034E-005  0.2371894E+04  0.7818608E-02  0.8450101E-01
         -1   -1    0    0    0  501 -0.00000000000E+00  0.00000000000E+00  0.52365689428E+03  0.52365689428E+03  0.00000000000E+00 0.  1.
          1   -1    0    0  501    0  0.00000000000E+00 -0.00000000000E+00 -0.26858630147E+04  0.26858630147E+04  0.00000000000E+00 0. -1.
         23    2    1    2    0    0 -0.42809602825E+03  0.72860350310E+03 -0.22052454223E+04  0.23633629167E+04  0.90816459585E+02 0.  0.
         11    1    3    3    0    0 -0.39990354035E+03  0.65652719855E+03 -0.19305656436E+04  0.20779880914E+04  0.00000000000E+00 0.  1.
        -11    1    3    3    0    0 -0.28192487907E+02  0.72076304543E+02 -0.27467977874E+03  0.28537482527E+03  0.00000000000E+00 0. -1.
         22    1    1    2    0    0  0.42809602825E+03 -0.72860350310E+03  0.43039301848E+02  0.84615699231E+03  0.00000000000E+00 0.  1.
<mgrwt>
<rscale>  0 0.23718943E+04</rscale>
<asrwt>0</asrwt>
<pdfrwt beam="1">  1        1 0.41320970E+00 0.23718943E+04</pdfrwt>
<pdfrwt beam="2">  1       -1 0.80562599E-01 0.23718943E+04</pdfrwt>
<totfact> 0.13861320E+00</totfact>
</mgrwt>
</event>
<event>
 6    1  0.1528034E-005  0.3136631E+04  0.7818608E-02  0.8205756E-01
          1   -1    0    0  501    0  0.00000000000E+00  0.00000000000E+00  0.28232326186E+04  0.28232326186E+04  0.00000000000E+00 0. -1.
         -1   -1    0    0    0  501 -0.00000000000E+00 -0.00000000000E+00 -0.87120468038E+03  0.87120468038E+03  0.00000000000E+00 0.  1.
         23    2    1    2    0    0  0.57777741113E+03  0.86189815527E+03 -0.40632119061E+03  0.11179075048E+04  0.89023100892E+02 0.  0.
         13    1    3    3    0    0  0.30972790508E+03  0.41602000840E+03 -0.16378152735E+03  0.54390110431E+03  0.00000000000E+00 0.  1.
        -13    1    3    3    0    0  0.26804950606E+03  0.44587814687E+03 -0.24253966326E+03  0.57400640049E+03  0.00000000000E+00 0. -1.
         22    1    1    2    0    0 -0.57777741113E+03 -0.86189815527E+03  0.23583491288E+04  0.25765297942E+04  0.00000000000E+00 0. -1.
<mgrwt>
<rscale>  0 0.31366310E+04</rscale>
<asrwt>0</asrwt>
<pdfrwt beam="1">  1        1 0.43434348E+00 0.31366310E+04</pdfrwt>
<pdfrwt beam="2">  1       -1 0.13403149E+00 0.31366310E+04</pdfrwt>
<totfact> 0.31640259E-01</totfact>
</mgrwt>
</event>
<event>
 6    1  0.1528034E-005  0.4655793E+04  0.7818608E-02  0.7883916E-01
         -1   -1    0    0    0  501 -0.00000000000E+00  0.00000000000E+00  0.11200033560E+04  0.11200033560E+04  0.00000000000E+00 0.  1.
          1   -1    0    0  501    0  0.00000000000E+00 -0.00000000000E+00 -0.48384704476E+04  0.48384704476E+04  0.00000000000E+00 0. -1.
         23    2    1    2    0    0  0.15114630491E+04  0.84569854554E+03  0.12885087761E+03  0.17392816849E+04  0.93657099034E+02 0.  0.
         11    1    3    3    0    0  0.43973466918E+03  0.29230461922E+03  0.24137389605E+02  0.52857467143E+03  0.00000000000E+00 0. -1.
        -11    1    3    3    0    0  0.10717283799E+04  0.55339392632E+03  0.10471348800E+03  0.12107070135E+04  0.00000000000E+00 0.  1.
         22    1    1    2    0    0 -0.15114630491E+04 -0.84569854554E+03 -0.38473179692E+04  0.42191921188E+04  0.00000000000E+00 0. -1.
<mgrwt>
<rscale>  0 0.46557934E+04</rscale>
<asrwt>0</asrwt>
<pdfrwt beam="1">  1        1 0.74438006E+00 0.46557934E+04</pdfrwt>
<pdfrwt beam="2">  1       -1 0.17230821E+00 0.46557934E+04</pdfrwt>
<totfact> 0.23728822E-03</totfact>
</mgrwt>
</event>
<event>
 6    1  0.1528034E-005  0.1985538E+04  0.7818608E-02  0.8613412E-01
          1   -1    0    0  501    0  0.00000000000E+00  0.00000000000E+00  0.14878432576E+04  0.14878432576E+04  0.00000000000E+00 0. -1.
         -1   -1    0    0    0  501 -0.00000000000E+00 -0.00000000000E+00 -0.66242856791E+03  0.66242856791E+03  0.00000000000E+00 0.  1.
         23    2    1    2    0    0  0.44114496794E+03  0.30493660826E+03  0.13156279989E+04  0.14237015906E+04  0.91945473219E+02 0.  0.
         13    1    3    3    0    0  0.22459700043E+03  0.18585379260E+03  0.61077569476E+03  0.67678090556E+03  0.00000000000E+00 0. -1.
        -13    1    3    3    0    0  0.21654796751E+03  0.11908281566E+03  0.70485230409E+03  0.74692068508E+03  0.00000000000E+00 0.  1.
         22    1    1    2    0    0 -0.44114496794E+03 -0.30493660826E+03 -0.49021330913E+03  0.72657023490E+03  0.00000000000E+00 0.  1.
<mgrwt>
<rscale>  0 0.19855376E+04</rscale>
<asrwt>0</asrwt>
<pdfrwt beam="1">  1        1 0.22889896E+00 0.19855376E+04</pdfrwt>
<pdfrwt beam="2">  1       -1 0.10191209E+00 0.19855376E+04</pdfrwt>
<totfact> 0.56526225E+00</totfact>
</mgrwt>
</event>
<event>
 6    1  0.1528034E-005  0.4010083E+04  0.7818608E-02  0.8002516E-01
          1   -1    0    0  501    0  0.00000000000E+00  0.00000000000E+00  0.19858703299E+04  0.19858703299E+04  0.00000000000E+00 0. -1.
         -1   -1    0    0    0  501 -0.00000000000E+00 -0.00000000000E+00 -0.20243978467E+04  0.20243978467E+04  0.00000000000E+00 0.  1.
         23    2    1    2    0    0  0.14756703378E+04  0.43478246545E+02  0.13360493089E+04  0.19931031477E+04  0.89101613883E+02 0.  0.
         11    1    3    3    0    0  0.80899614585E+03 -0.19040222646E+02  0.71569924974E+03  0.10803067667E+04  0.00000000000E+00 0. -1.
        -11    1    3    3    0    0  0.66667419193E+03  0.62518469191E+02  0.62035005920E+03  0.91279638098E+03  0.00000000000E+00 0.  1.
         22    1    1    2    0    0 -0.14756703378E+04 -0.43478246545E+02 -0.13745768257E+04  0.20171650288E+04  0.00000000000E+00 0. -1.
<mgrwt>
<rscale>  0 0.40100831E+04</rscale>
<asrwt>0</asrwt>
<pdfrwt beam="1">  1        1 0.30551851E+00 0.40100831E+04</pdfrwt>
<pdfrwt beam="2">  1       -1 0.31144582E+00 0.40100831E+04</pdfrwt>
<totfact> 0.66291119E-02</totfact>
</mgrwt>
</event>
<event>
 6    1  0.1528034E-005  0.1591091E+04  0.7818608E-02  0.8826040E-01
          1   -1    0    0  501    0  0.00000000000E+00  0.00000000000E+00  0.82931304432E+03  0.82931304432E+03  0.00000000000E+00 0. -1.
         -1   -1    0    0    0  501 -0.00000000000E+00 -0.00000000000E+00 -0.76315307077E+03  0.76315307077E+03  0.00000000000E+00 0.  1.
         23    2    1    2    0    0  0.40590870530E+03  0.26624320350E+03 -0.59398329001E+03  0.77305385690E+03  0.95649340830E+02 0.  0.
         11    1    3    3    0    0  0.11260147329E+03  0.54529437009E+02 -0.21773947772E+03  0.25112353821E+03  0.00000000000E+00 0.  1.
        -11    1    3    3    0    0  0.29330723201E+03  0.21171376649E+03 -0.37624381229E+03  0.52193031868E+03  0.00000000000E+00 0. -1.
         22    1    1    2    0    0 -0.40590870530E+03 -0.26624320350E+03  0.66014326357E+03  0.81941225820E+03  0.00000000000E+00 0.  1.
<mgrwt>
<rscale>  0 0.15910912E+04</rscale>
<asrwt>0</asrwt>
<pdfrwt beam="1">  1        1 0.12758662E+00 0.15910912E+04</pdfrwt>
<pdfrwt beam="2">  1       -1 0.11740816E+00 0.15910912E+04</pdfrwt>
<totfact> 0.13079783E+01</totfact>
</mgrwt>
</event>
<event>
 6    1  0.1528034E-005  0.5823870E+03  0.7818608E-02  0.9942636E-01
         -2   -1    0    0    0  501 -0.00000000000E+00  0.00000000000E+00  0.66563766217E+02  0.66563766217E+02  0.00000000000E+00 0.  1.
          2   -1    0    0  501    0  0.00000000000E+00 -0.00000000000E+00 -0.12738711739E+04  0.12738711739E+04  0.00000000000E+00 0. -1.
         23    2    1    2    0    0 -0.32676980149E+02 -0.44766585361E+01 -0.12678245552E+04  0.12715136035E+04  0.90994041316E+02 0.  0.
         11    1    3    3    0    0  0.73803277590E+00  0.20212075789E+01 -0.11125219054E+04  0.11125239863E+04  0.00000000000E+00 0. -1.
        -11    1    3    3    0    0 -0.33415012925E+02 -0.64978661150E+01 -0.15530264977E+03  0.15898961720E+03  0.00000000000E+00 0.  1.
         22    1    1    2    0    0  0.32676980149E+02  0.44766585361E+01  0.60517147506E+02  0.68921336650E+02  0.00000000000E+00 0.  1.
<mgrwt>
<rscale>  0 0.58238703E+03</rscale>
<asrwt>0</asrwt>
<pdfrwt beam="1">  1        2 0.19598018E+00 0.58238703E+03</pdfrwt>
<pdfrwt beam="2">  1       -2 0.10240579E-01 0.58238703E+03</pdfrwt>
<totfact> 0.11460497E+03</totfact>
</mgrwt>
</event>
<event>
 6    1  0.1528034E-005  0.1857571E+04  0.7818608E-02  0.8676269E-01
         -2   -1    0    0    0  501 -0.00000000000E+00  0.00000000000E+00  0.96617244719E+03  0.96617244719E+03  0.00000000000E+00 0.  1.
          2   -1    0    0  501    0  0.00000000000E+00 -0.00000000000E+00 -0.89284498444E+03  0.89284498444E+03  0.00000000000E+00 0. -1.
         23    2    1    2    0    0 -0.48869818799E+01  0.38104661769E+03  0.88183817808E+03  0.96519978566E+03  0.93550234966E+02 0.  0.
         11    1    3    3    0    0 -0.26448300743E+02  0.32289399625E+03  0.79508258387E+03  0.85855480932E+03  0.00000000000E+00 0. -1.
        -11    1    3    3    0    0  0.21561318863E+02  0.58152621438E+02  0.86755594211E+02  0.10664497634E+03  0.00000000000E+00 0.  1.
         22    1    1    2    0    0  0.48869818799E+01 -0.38104661769E+03 -0.80851071533E+03  0.89381764597E+03  0.00000000000E+00 0. -1.
<mgrwt>
<rscale>  0 0.18575707E+04</rscale>
<asrwt>0</asrwt>
<pdfrwt beam="1">  1        2 0.13736077E+00 0.18575707E+04</pdfrwt>
<pdfrwt beam="2">  1       -2 0.14864192E+00 0.18575707E+04</pdfrwt>
<totfact> 0.85504410E+00</totfact>
</mgrwt>
</event>
<event>
 6    1  0.1528034E-005  0.3952691E+04  0.7818608E-02  0.8014159E-01
         -1   -1    0    0    0  501 -0.00000000000E+00  0.00000000000E+00  0.10678273184E+04  0.10678273184E+04  0.00000000000E+00 0.  1.
          1   -1    0    0  501    0  0.00000000000E+00 -0.00000000000E+00 -0.36578394680E+04  0.36578394680E+04  0.00000000000E+00 0. -1.
         23    2    1    2    0    0 -0.19044526397E+04 -0.42175881997E+03 -0.92337045594E+03  0.21600255617E+04  0.90978398443E+02 0.  0.
         13    1    3    3    0    0 -0.13221655120E+04 -0.28927937863E+03 -0.59406520762E+03  0.14780790476E+04  0.00000000000E+00 0.  1.
        -13    1    3    3    0    0 -0.58228712771E+03 -0.13247944134E+03 -0.32930524831E+03  0.68194651406E+03  0.00000000000E+00 0. -1.
         22    1    1    2    0    0  0.19044526397E+04  0.42175881997E+03 -0.16666416936E+04  0.25656412247E+04  0.00000000000E+00 0.  1.
<mgrwt>
<rscale>  0 0.39526907E+04</rscale>
<asrwt>0</asrwt>
<pdfrwt beam="1">  1        1 0.56274454E+00 0.39526907E+04</pdfrwt>
<pdfrwt beam="2">  1       -1 0.16428112E+00 0.39526907E+04</pdfrwt>
<totfact> 0.39733753E-02</totfact>
</mgrwt>
</event>
<event>
 6    1  0.1528034E-005  0.2127202E+04  0.7818608E-02  0.8549354E-01
         -2   -1    0    0    0  501 -0.00000000000E+00  0.00000000000E+00  0.79983222993E+03  0.79983222993E+03  0.00000000000E+00 0.  1.
          2   -1    0    0  501    0  0.00000000000E+00 -0.00000000000E+00 -0.14143554581E+04  0.14143554581E+04  0.00000000000E+00 0. -1.
         23    2    1    2    0    0  0.44146028549E+03  0.70712164661E+03 -0.99205959332E+03  0.12990691636E+04  0.92142544122E+02 0.  0.
         11    1    3    3    0    0  0.40925705514E+03  0.63328773012E+03 -0.85407104999E+03  0.11392901495E+04  0.00000000000E+00 0. -1.
        -11    1    3    3    0    0  0.32203230342E+02  0.73833916495E+02 -0.13798854333E+03  0.15977901414E+03  0.00000000000E+00 0.  1.
         22    1    1    2    0    0 -0.44146028549E+03 -0.70712164661E+03  0.37753636512E+03  0.91511852443E+03  0.00000000000E+00 0.  1.
<mgrwt>
<rscale>  0 0.21272020E+04</rscale>
<asrwt>0</asrwt>
<pdfrwt beam="1">  1        2 0.21759315E+00 0.21272020E+04</pdfrwt>
<pdfrwt beam="2">  1       -2 0.12305111E+00 0.21272020E+04</pdfrwt>
<totfact> 0.65130915E+00</totfact>
</mgrwt>
</event>
<event>
 6    1  0.1528034E-005  0.3195036E+04  0.7818608E-02  0.8190129E-01
         -2   -1    0    0    0  501 -0.00000000000E+00  0.00000000000E+00  0.11317834942E+04  0.11317834942E+04  0.00000000000E+00 0.  1.
          2   -1    0    0  501    0  0.00000000000E+00 -0.00000000000E+00 -0.22549050902E+04  0.22549050902E+04  0.00000000000E+00 0. -1.
         23    2    1    2    0    0  0.24633940300E+03 -0.13730275574E+04  0.26037458633E+03  0.14220131757E+04  0.91862787280E+02 0.  0.
         11    1    3    3    0    0  0.25688748961E+02 -0.28038194941E+03  0.24433312093E+02  0.28261446551E+03  0.00000000000E+00 0. -1.
        -11    1    3    3    0    0  0.22065065404E+03 -0.10926456080E+04  0.23594127424E+03  0.11393987101E+04  0.00000000000E+00 0.  1.
         22    1    1    2    0    0 -0.24633940300E+03  0.13730275574E+04 -0.13834961823E+04  0.19646754087E+04  0.00000000000E+00 0. -1.
<mgrwt>
<rscale>  0 0.31950364E+04</rscale>
<asrwt>0</asrwt>
<pdfrwt beam="1">  1        2 0.34690847E+00 0.31950364E+04</pdfrwt>
<pdfrwt beam="2">  1       -2 0.17412054E+00 0.31950364E+04</pdfrwt>
<totfact> 0.80725002E-01</totfact>
</mgrwt>
</event>
<event>
 6    1  0.1528034E-005  0.4935124E+04  0.7818608E-02  0.7838594E-01
         -1   -1    0    0    0  501 -0.00000000000E+00  0.00000000000E+00  0.23458889667E+04  0.23458889667E+04  0.00000000000E+00 0.  1.
          1   -1    0    0  501    0  0.00000000000E+00 -0.00000000000E+00 -0.25955457457E+04  0.25955457457E+04  0.00000000000E+00 0. -1.
         23    2    1    2    0    0  0.97308166191E+03 -0.77686434653E+03 -0.22569621754E+04  0.25792998543E+04  0.92213575486E+02 0.  0.
         11    1    3    3    0    0  0.43679086651E+03 -0.35141072184E+03 -0.92207614454E+03  0.10791200919E+04  0.00000000000E+00 0.  1.
        -11    1    3    3    0    0  0.53629079540E+03 -0.42545362469E+03 -0.13348860309E+04  0.15001797624E+04  0.00000000000E+00 0. -1.
         22    1    1    2    0    0 -0.97308166191E+03  0.77686434653E+03  0.20073053963E+04  0.23621348581E+04  0.00000000000E+00 0.  1.
<mgrwt>
<rscale>  0 0.49351240E+04</rscale>
<asrwt>0</asrwt>
<pdfrwt beam="1">  1        1 0.39931473E+00 0.49351240E+04</pdfrwt>
<pdfrwt beam="2">  1       -1 0.36090600E+00 0.49351240E+04</pdfrwt>
<totfact> 0.11088531E-02</totfact>
</mgrwt>
</event>
<event>
 6    1  0.1528034E-005  0.5228608E+04  0.7818608E-02  0.7794178E-01
          2   -1    0    0  501    0  0.00000000000E+00  0.00000000000E+00  0.40461424002E+04  0.40461424002E+04  0.00000000000E+00 0. -1.
         -2   -1    0    0    0  501 -0.00000000000E+00 -0.00000000000E+00 -0.16891609039E+04  0.16891609039E+04  0.00000000000E+00 0.  1.
         23    2    1    2    0    0 -0.22761480034E+04  0.12178734651E+04  0.16267669429E+04  0.30525288439E+04  0.86580283415E+02 0.  0.
         11    1    3    3    0    0 -0.10116718753E+04  0.49610491689E+03  0.69083983635E+03  0.13216882202E+04  0.00000000000E+00 0.  1.
        -11    1    3    3    0    0 -0.12644761281E+04  0.72176854823E+03  0.93592710660E+03  0.17308406237E+04  0.00000000000E+00 0. -1.
         22    1    1    2    0    0  0.22761480034E+04 -0.12178734651E+04  0.73021455339E+03  0.26827744602E+04  0.00000000000E+00 0. -1.
<mgrwt>
<rscale>  0 0.52286081E+04</rscale>
<asrwt>0</asrwt>
<pdfrwt beam="1">  1        2 0.62248344E+00 0.52286081E+04</pdfrwt>
<pdfrwt beam="2">  1       -2 0.25987091E+00 0.52286081E+04</pdfrwt>
<totfact> 0.12470803E-02</totfact>
</mgrwt>
</event>
<event>
 6    1  0.1528034E-005  0.5020856E+04  0.7818608E-02  0.7825298E-01
          2   -1    0    0  501    0  0.00000000000E+00  0.00000000000E+00  0.37326491005E+04  0.37326491005E+04  0.00000000000E+00 0. -1.
         -2   -1    0    0    0  501 -0.00000000000E+00 -0.00000000000E+00 -0.16884116021E+04  0.16884116021E+04  0.00000000000E+00 0.  1.
         23    2    1    2    0    0  0.24384998023E+04 -0.30412770752E+03  0.15722372705E+04  0.29187499378E+04  0.91630869947E+02 0.  0.
         13    1    3    3    0    0  0.12415082396E+04 -0.19711567585E+03  0.78196748636E+03  0.14804291433E+04  0.00000000000E+00 0.  1.
        -13    1    3    3    0    0  0.11969915627E+04 -0.10701203167E+03  0.79026978417E+03  0.14383207945E+04  0.00000000000E+00 0. -1.
         22    1    1    2    0    0 -0.24384998023E+04  0.30412770752E+03  0.47200022792E+03  0.25023107648E+04  0.00000000000E+00 0.  1.
<mgrwt>
<rscale>  0 0.50208557E+04</rscale>
<asrwt>0</asrwt>
<pdfrwt beam="1">  1        2 0.57425370E+00 0.50208557E+04</pdfrwt>
<pdfrwt beam="2">  1       -2 0.25975563E+00 0.50208557E+04</pdfrwt>
<totfact> 0.22393080E-02</totfact>
</mgrwt>
</event>
<event>
 6    1  0.1528034E-005  0.4339791E+04  0.7818608E-02  0.7939301E-01
          2   -1    0    0  501    0  0.00000000000E+00  0.00000000000E+00  0.19384203049E+04  0.19384203049E+04  0.00000000000E+00 0.  1.
         -2   -1    0    0    0  501 -0.00000000000E+00 -0.00000000000E+00 -0.24290126123E+04  0.24290126123E+04  0.00000000000E+00 0. -1.
         23    2    1    2    0    0 -0.17489222156E+04 -0.11967257724E+04 -0.71036859682E+03  0.22368970438E+04  0.90572349966E+02 0.  0.
         13    1    3    3    0    0 -0.12512495085E+04 -0.90500639242E+03 -0.51755865644E+03  0.16286586093E+04  0.00000000000E+00 0. -1.
        -13    1    3    3    0    0 -0.49767270712E+03 -0.29171937998E+03 -0.19280994037E+03  0.60823843448E+03  0.00000000000E+00 0.  1.
         22    1    1    2    0    0  0.17489222156E+04  0.11967257724E+04  0.21977628939E+03  0.21305358734E+04  0.00000000000E+00 0.  1.
<mgrwt>
<rscale>  0 0.43397914E+04</rscale>
<asrwt>0</asrwt>
<pdfrwt beam="1">  1        2 0.29821851E+00 0.43397914E+04</pdfrwt>
<pdfrwt beam="2">  1       -2 0.37369425E+00 0.43397914E+04</pdfrwt>
<totfact> 0.60994358E-02</totfact>
</mgrwt>
</event>
<event>
 6    1  0.1528034E-005  0.2210485E+04  0.7818608E-02  0.8514077E-01
          2   -1    0    0  501    0  0.00000000000E+00  0.00000000000E+00  0.31585675728E+04  0.31585675728E+04  0.00000000000E+00 0.  1.
         -2   -1    0    0    0  501 -0.00000000000E+00 -0.00000000000E+00 -0.38674526183E+03  0.38674526183E+03  0.00000000000E+00 0. -1.
         23    2    1    2    0    0  0.40504263130E+03 -0.70712239135E+03  0.19531167564E+03  0.84300110881E+03  0.91774774809E+02 0.  0.
         13    1    3    3    0    0  0.13902748735E+03 -0.32166874971E+03  0.60158725220E+02  0.35555379199E+03  0.00000000000E+00 0.  1.
        -13    1    3    3    0    0  0.26601514396E+03 -0.38545364164E+03  0.13515295042E+03  0.48744731682E+03  0.00000000000E+00 0. -1.
         22    1    1    2    0    0 -0.40504263130E+03  0.70712239135E+03  0.25765106354E+04  0.27023117259E+04  0.00000000000E+00 0.  1.
<mgrwt>
<rscale>  0 0.22104851E+04</rscale>
<asrwt>0</asrwt>
<pdfrwt beam="1">  1        2 0.48593346E+00 0.22104851E+04</pdfrwt>
<pdfrwt beam="2">  1       -2 0.59499273E-01 0.22104851E+04</pdfrwt>
<totfact> 0.33277196E+00</totfact>
</mgrwt>
</event>
<event>
 6    1  0.1528034E-005  0.7376243E+03  0.7818608E-02  0.9654968E-01
         -2   -1    0    0    0  501 -0.00000000000E+00  0.00000000000E+00  0.11451446894E+03  0.11451446894E+03  0.00000000000E+00 0.  1.
          2   -1    0    0  501    0  0.00000000000E+00 -0.00000000000E+00 -0.11878183205E+04  0.11878183205E+04  0.00000000000E+00 0. -1.
         23    2    1    2    0    0  0.18300373019E+03  0.22620360021E+02 -0.10971755871E+04  0.11163975703E+04  0.92451176579E+02 0.  0.
         11    1    3    3    0    0  0.16471473150E+03 -0.13623314519E+02 -0.90724199277E+03  0.92217382901E+03  0.00000000000E+00 0. -1.
        -11    1    3    3    0    0  0.18288998694E+02  0.36243674540E+02 -0.18993359437E+03  0.19422374131E+03  0.00000000000E+00 0.  1.
         22    1    1    2    0    0 -0.18300373019E+03 -0.22620360021E+02  0.23871735574E+02  0.18593521912E+03  0.00000000000E+00 0.  1.
<mgrwt>
<rscale>  0 0.73762425E+03</rscale>
<asrwt>0</asrwt>
<pdfrwt beam="1">  1        2 0.18274128E+00 0.73762425E+03</pdfrwt>
<pdfrwt beam="2">  1       -2 0.17617611E-01 0.73762425E+03</pdfrwt>
<totfact> 0.51675807E+02</totfact>
</mgrwt>
</event>
<event>
 6    1  0.1528034E-005  0.3140548E+04  0.7818608E-02  0.8204697E-01
          2   -1    0    0  501    0  0.00000000000E+00  0.00000000000E+00  0.17239721704E+04  0.17239721704E+04  0.00000000000E+00 0. -1.
         -2   -1    0    0    0  501 -0.00000000000E+00 -0.00000000000E+00 -0.14302784939E+04  0.14302784939E+04  0.00000000000E+00 0.  1.
         23    2    1    2    0    0 -0.72577581300E+02 -0.85526230405E+03 -0.11720788114E+04  0.14556541554E+04  0.91756013548E+02 0.  0.
         11    1    3    3    0    0 -0.76711026369E+02 -0.83207073345E+03 -0.11107828255E+04  0.13899873282E+04  0.00000000000E+00 0. -1.
        -11    1    3    3    0    0  0.41334450691E+01 -0.23191570602E+02 -0.61295985868E+02  0.65666827232E+02  0.00000000000E+00 0.  1.
         22    1    1    2    0    0  0.72577581300E+02  0.85526230405E+03  0.14657724878E+04  0.16985965089E+04  0.00000000000E+00 0. -1.
<mgrwt>
<rscale>  0 0.31405479E+04</rscale>
<asrwt>0</asrwt>
<pdfrwt beam="1">  1        2 0.26522649E+00 0.31405479E+04</pdfrwt>
<pdfrwt beam="2">  1       -2 0.22004285E+00 0.31405479E+04</pdfrwt>
<totfact> 0.79494711E-01</totfact>
</mgrwt>
</event>
<event>
 6    1  0.1528034E-005  0.2956402E+04  0.7818608E-02  0.8256291E-01
          1   -1    0    0  501    0  0.00000000000E+00  0.00000000000E+00  0.12462011695E+04  0.12462011695E+04  0.00000000000E+00 0. -1.
         -1   -1    0    0    0  501 -0.00000000000E+00 -0.00000000000E+00 -0.17533907034E+04  0.17533907034E+04  0.00000000000E+00 0.  1.
         23    2    1    2    0    0 -0.70896658272E+03 -0.19832878078E+03  0.10450409654E+04  0.12816316163E+04  0.92201191357E+02 0.  0.
         11    1    3    3    0    0 -0.53712647244E+03 -0.18144526729E+03  0.84224986301E+03  0.10152891530E+04  0.00000000000E+00 0. -1.
        -11    1    3    3    0    0 -0.17184011028E+03 -0.16883513495E+02  0.20279110241E+03  0.26634246328E+03  0.00000000000E+00 0.  1.
         22    1    1    2    0    0  0.70896658272E+03  0.19832878078E+03 -0.15522304992E+04  0.17179602567E+04  0.00000000000E+00 0.  1.
<mgrwt>
<rscale>  0 0.29564016E+04</rscale>
<asrwt>0</asrwt>
<pdfrwt beam="1">  1        1 0.19172326E+00 0.29564016E+04</pdfrwt>
<pdfrwt beam="2">  1       -1 0.26975242E+00 0.29564016E+04</pdfrwt>
<totfact> 0.43807488E-01</totfact>
</mgrwt>
</event>
<event>
 6    1  0.1528034E-005  0.2248028E+04  0.7818608E-02  0.8498699E-01
         -2   -1    0    0    0  501 -0.00000000000E+00  0.00000000000E+00  0.72619400141E+03  0.72619400141E+03  0.00000000000E+00 0.  1.
          2   -1    0    0  501    0  0.00000000000E+00 -0.00000000000E+00 -0.17397660889E+04  0.17397660889E+04  0.00000000000E+00 0. -1.
         23    2    1    2    0    0  0.15743318344E+03  0.10056736587E+04  0.10482358140E+02  0.10220583545E+04  0.91261629131E+02 0.  0.
         11    1    3    3    0    0  0.34129918041E+02  0.44166242105E+03 -0.24596609612E+02  0.44366151363E+03  0.00000000000E+00 0.  1.
        -11    1    3    3    0    0  0.12330326540E+03  0.56401123769E+03  0.35078967752E+02  0.57839684083E+03  0.00000000000E+00 0. -1.
         22    1    1    2    0    0 -0.15743318344E+03 -0.10056736587E+04 -0.10240544456E+04  0.14439017358E+04  0.00000000000E+00 0. -1.
<mgrwt>
<rscale>  0 0.22480282E+04</rscale>
<asrwt>0</asrwt>
<pdfrwt beam="1">  1        2 0.26765632E+00 0.22480282E+04</pdfrwt>
<pdfrwt beam="2">  1       -2 0.11172216E+00 0.22480282E+04</pdfrwt>
<totfact> 0.53691349E+00</totfact>
</mgrwt>
</event>
<event>
 6    1  0.1528034E-005  0.2995417E+04  0.7818608E-02  0.8245041E-01
          1   -1    0    0  501    0  0.00000000000E+00  0.00000000000E+00  0.19829094571E+04  0.19829094571E+04  0.00000000000E+00 0. -1.
         -1   -1    0    0    0  501 -0.00000000000E+00 -0.00000000000E+00 -0.11312324357E+04  0.11312324357E+04  0.00000000000E+00 0.  1.
         23    2    1    2    0    0 -0.55653370113E+03 -0.65312509152E+03 -0.84821145447E+03  0.12099562463E+04  0.90715493523E+02 0.  0.
         11    1    3    3    0    0 -0.24986133431E+03 -0.22539189176E+03 -0.33723967255E+03  0.47640611666E+03  0.00000000000E+00 0.  1.
        -11    1    3    3    0    0 -0.30667236682E+03 -0.42773319976E+03 -0.51097178193E+03  0.73355012963E+03  0.00000000000E+00 0. -1.
         22    1    1    2    0    0  0.55653370113E+03  0.65312509152E+03  0.16998884759E+04  0.19041856465E+04  0.00000000000E+00 0. -1.
<mgrwt>
<rscale>  0 0.29954175E+04</rscale>
<asrwt>0</asrwt>
<pdfrwt beam="1">  1        1 0.30506299E+00 0.29954175E+04</pdfrwt>
<pdfrwt beam="2">  1       -1 0.17403576E+00 0.29954175E+04</pdfrwt>
<totfact> 0.59901806E-01</totfact>
</mgrwt>
</event>
<event>
 6    1  0.1528034E-005  0.7275312E+03  0.7818608E-02  0.9671275E-01
         -1   -1    0    0    0  501 -0.00000000000E+00  0.00000000000E+00  0.14807371637E+03  0.14807371637E+03  0.00000000000E+00 0.  1.
          1   -1    0    0  501    0  0.00000000000E+00 -0.00000000000E+00 -0.89364546908E+03  0.89364546908E+03  0.00000000000E+00 0. -1.
         23    2    1    2    0    0 -0.50997212038E+02 -0.20681315258E+03 -0.79161337442E+03  0.82379207230E+03  0.81297282286E+02 0.  0.
         11    1    3    3    0    0 -0.49226469761E+02 -0.16288820011E+03 -0.48374945869E+03  0.51280537229E+03  0.00000000000E+00 0. -1.
        -11    1    3    3    0    0 -0.17707422769E+01 -0.43924952467E+02 -0.30786391573E+03  0.31098670002E+03  0.00000000000E+00 0.  1.
         22    1    1    2    0    0  0.50997212038E+02  0.20681315258E+03  0.46041621711E+02  0.21792711315E+03  0.00000000000E+00 0.  1.
<mgrwt>
<rscale>  0 0.72753118E+03</rscale>
<asrwt>0</asrwt>
<pdfrwt beam="1">  1        1 0.13748392E+00 0.72753118E+03</pdfrwt>
<pdfrwt beam="2">  1       -1 0.22780571E-01 0.72753118E+03</pdfrwt>
<totfact> 0.30575127E+02</totfact>
</mgrwt>
</event>
<event>
 6    1  0.1528034E-005  0.5483183E+04  0.7818608E-02  0.7758007E-01
         -2   -1    0    0    0  501 -0.00000000000E+00  0.00000000000E+00  0.19912482470E+04  0.19912482470E+04  0.00000000000E+00 0.  1.
          2   -1    0    0  501    0  0.00000000000E+00 -0.00000000000E+00 -0.37746800437E+04  0.37746800437E+04  0.00000000000E+00 0. -1.
         23    2    1    2    0    0  0.15558256616E+04  0.36669707639E+03  0.14493890654E+04  0.21595185855E+04  0.87929649534E+02 0.  0.
         11    1    3    3    0    0  0.10671114536E+04  0.23164417947E+03  0.94052373808E+03  0.14411699352E+04  0.00000000000E+00 0. -1.
        -11    1    3    3    0    0  0.48871420798E+03  0.13505289692E+03  0.50886532735E+03  0.71834865033E+03  0.00000000000E+00 0.  1.
         22    1    1    2    0    0 -0.15558256616E+04 -0.36669707639E+03 -0.32328208621E+04  0.36064097052E+04  0.00000000000E+00 0. -1.
<mgrwt>
<rscale>  0 0.54831834E+04</rscale>
<asrwt>0</asrwt>
<pdfrwt beam="1">  1        2 0.58072001E+00 0.54831834E+04</pdfrwt>
<pdfrwt beam="2">  1       -2 0.30634588E+00 0.54831834E+04</pdfrwt>
<totfact> 0.10416027E-02</totfact>
</mgrwt>
</event>
<event>
 6    1  0.1528034E-005  0.1108146E+04  0.7818608E-02  0.9197289E-01
          1   -1    0    0  501    0  0.00000000000E+00  0.00000000000E+00  0.77265728627E+03  0.77265728627E+03  0.00000000000E+00 0. -1.
         -1   -1    0    0    0  501 -0.00000000000E+00 -0.00000000000E+00 -0.39732591831E+03  0.39732591831E+03  0.00000000000E+00 0.  1.
         23    2    1    2    0    0 -0.20043074741E+02  0.54759135897E+03  0.13427896359E+03  0.57134785404E+03  0.90274630918E+02 0.  0.
         13    1    3    3    0    0 -0.30597088971E+02  0.33266101552E+03  0.12256673263E+03  0.35584004419E+03  0.00000000000E+00 0. -1.
        -13    1    3    3    0    0  0.10554014230E+02  0.21493034345E+03  0.11712230959E+02  0.21550780985E+03  0.00000000000E+00 0.  1.
         22    1    1    2    0    0  0.20043074741E+02 -0.54759135897E+03  0.24105240436E+03  0.59863535054E+03  0.00000000000E+00 0. -1.
<mgrwt>
<rscale>  0 0.11081458E+04</rscale>
<asrwt>0</asrwt>
<pdfrwt beam="1">  1        1 0.11887035E+00 0.11081458E+04</pdfrwt>
<pdfrwt beam="2">  1       -1 0.61127064E-01 0.11081458E+04</pdfrwt>
<totfact> 0.63189137E+01</totfact>
</mgrwt>
</event>
<event>
 6    1  0.1528034E-005  0.2017842E+04  0.7818608E-02  0.8598324E-01
          1   -1    0    0  501    0  0.00000000000E+00  0.00000000000E+00  0.19423575108E+04  0.19423575108E+04  0.00000000000E+00 0. -1.
         -1   -1    0    0    0  501 -0.00000000000E+00 -0.00000000000E+00 -0.52406488055E+03  0.52406488055E+03  0.00000000000E+00 0.  1.
         23    2    1    2    0    0 -0.78308634797E+03  0.32882447282E+03  0.13715652474E+04  0.16158148375E+04  0.91195388871E+02 0.  0.
         11    1    3    3    0    0 -0.45757455911E+03  0.14501223586E+03  0.79481247562E+03  0.92850950296E+03  0.00000000000E+00 0. -1.
        -11    1    3    3    0    0 -0.32551178886E+03  0.18381223697E+03  0.57675277177E+03  0.68730533454E+03  0.00000000000E+00 0.  1.
         22    1    1    2    0    0  0.78308634797E+03 -0.32882447282E+03  0.46727382838E+02  0.85060755381E+03  0.00000000000E+00 0.  1.
<mgrwt>
<rscale>  0 0.20178418E+04</rscale>
<asrwt>0</asrwt>
<pdfrwt beam="1">  1        1 0.29882423E+00 0.20178418E+04</pdfrwt>
<pdfrwt beam="2">  1       -1 0.80625367E-01 0.20178418E+04</pdfrwt>
<totfact> 0.46332960E+00</totfact>
</mgrwt>
</event>
<event>
 6    1  0.1528034E-005  0.4824685E+04  0.7818608E-02  0.7856135E-01
         -1   -1    0    0    0  501 -0.00000000000E+00  0.00000000000E+00  0.23611559831E+04  0.23611559831E+04  0.00000000000E+00 0.  1.
          1   -1    0    0  501    0  0.00000000000E+00 -0.00000000000E+00 -0.24646383318E+04  0.24646383318E+04  0.00000000000E+00 0. -1.
         23    2    1    2    0    0  0.15784827208E+04  0.56936279719E+03  0.16804870921E+04  0.23766457566E+04  0.92878903869E+02 0.  0.
         13    1    3    3    0    0  0.48458864690E+03  0.21654687173E+03  0.55637443432E+03  0.76894162036E+03  0.00000000000E+00 0. -1.
        -13    1    3    3    0    0  0.10938940739E+04  0.35281592546E+03  0.11241126577E+04  0.16077041362E+04  0.00000000000E+00 0.  1.
         22    1    1    2    0    0 -0.15784827208E+04 -0.56936279719E+03 -0.17839694408E+04  0.24491485583E+04  0.00000000000E+00 0. -1.
<mgrwt>
<rscale>  0 0.48246847E+04</rscale>
<asrwt>0</asrwt>
<pdfrwt beam="1">  1        1 0.37917513E+00 0.48246847E+04</pdfrwt>
<pdfrwt beam="2">  1       -1 0.36325477E+00 0.48246847E+04</pdfrwt>
<totfact> 0.13306519E-02</totfact>
</mgrwt>
</event>
<event>
 6    1  0.1528034E-005  0.4410515E+03  0.7818608E-02  0.1030425E+00
         -3   -1    0    0    0  501 -0.00000000000E+00  0.00000000000E+00  0.17484143823E+03  0.17484143823E+03  0.00000000000E+00 0.  1.
          3   -1    0    0  501    0  0.00000000000E+00 -0.00000000000E+00 -0.27814695248E+03  0.27814695248E+03  0.00000000000E+00 0. -1.
         23    2    1    2    0    0 -0.16509723331E+03  0.95948582653E+02  0.37332599758E+02  0.21583378698E+03  0.93419878182E+02 0.  0.
         11    1    3    3    0    0  0.60642994473E+01  0.24303688387E+02 -0.49323660203E+01  0.25529849814E+02  0.00000000000E+00 0. -1.
        -11    1    3    3    0    0 -0.17116153275E+03  0.71644894266E+02  0.42264965779E+02  0.19030393717E+03  0.00000000000E+00 0.  1.
         22    1    1    2    0    0  0.16509723331E+03 -0.95948582653E+02 -0.14063811401E+03  0.23715460373E+03  0.00000000000E+00 0. -1.
<mgrwt>
<rscale>  0 0.44105153E+03</rscale>
<asrwt>0</asrwt>
<pdfrwt beam="1">  1        3 0.42791838E-01 0.44105153E+03</pdfrwt>
<pdfrwt beam="2">  1       -3 0.26898683E-01 0.44105153E+03</pdfrwt>
<totfact> 0.18691035E+02</totfact>
</mgrwt>
</event>
<event>
 6    1  0.1528034E-005  0.2398681E+04  0.7818608E-02  0.8439997E-01
         -1   -1    0    0    0  501 -0.00000000000E+00  0.00000000000E+00  0.12798417300E+04  0.12798417300E+04  0.00000000000E+00 0.  1.
          1   -1    0    0  501    0  0.00000000000E+00 -0.00000000000E+00 -0.11239031647E+04  0.11239031647E+04  0.00000000000E+00 0. -1.
         23    2    1    2    0    0  0.12901911093E+03  0.87482920617E+03  0.88738463300E+03  0.12561450425E+04  0.92069593379E+02 0.  0.
         11    1    3    3    0    0  0.10908861440E+02  0.37644163568E+03  0.39164277144E+03  0.54333357043E+03  0.00000000000E+00 0.  1.
        -11    1    3    3    0    0  0.11811024949E+03  0.49838757049E+03  0.49574186156E+03  0.71281147210E+03  0.00000000000E+00 0. -1.
         22    1    1    2    0    0 -0.12901911093E+03 -0.87482920617E+03 -0.73144606769E+03  0.11475998523E+04  0.00000000000E+00 0. -1.
<mgrwt>
<rscale>  0 0.23986814E+04</rscale>
<asrwt>0</asrwt>
<pdfrwt beam="1">  1        1 0.17290818E+00 0.23986814E+04</pdfrwt>
<pdfrwt beam="2">  1       -1 0.19689873E+00 0.23986814E+04</pdfrwt>
<totfact> 0.17241098E+00</totfact>
</mgrwt>
</event>
<event>
 6    1  0.1528034E-005  0.1845961E+04  0.7818608E-02  0.8682233E-01
         -1   -1    0    0    0  501 -0.00000000000E+00  0.00000000000E+00  0.85636351853E+03  0.85636351853E+03  0.00000000000E+00 0.  1.
          1   -1    0    0  501    0  0.00000000000E+00 -0.00000000000E+00 -0.99477973132E+03  0.99477973132E+03  0.00000000000E+00 0. -1.
         23    2    1    2    0    0  0.15043914635E+03  0.79577611499E+03 -0.50867192816E+03  0.96064852404E+03  0.90591910839E+02 0.  0.
         13    1    3    3    0    0  0.12491255769E+03  0.47370577886E+03 -0.33872856969E+03  0.59559831760E+03  0.00000000000E+00 0. -1.
        -13    1    3    3    0    0  0.25526588651E+02  0.32207033612E+03 -0.16994335847E+03  0.36505020645E+03  0.00000000000E+00 0.  1.
         22    1    1    2    0    0 -0.15043914635E+03 -0.79577611499E+03  0.37025571538E+03  0.89049472581E+03  0.00000000000E+00 0.  1.
<mgrwt>
<rscale>  0 0.18459611E+04</rscale>
<asrwt>0</asrwt>
<pdfrwt beam="1">  1        1 0.15304304E+00 0.18459611E+04</pdfrwt>
<pdfrwt beam="2">  1       -1 0.13174823E+00 0.18459611E+04</pdfrwt>
<totfact> 0.70392739E+00</totfact>
</mgrwt>
</event>
<event>
 6    1  0.1528034E-005  0.1403390E+04  0.7818608E-02  0.8951368E-01
          4   -1    0    0  501    0  0.00000000000E+00  0.00000000000E+00  0.64639323596E+03  0.64639323596E+03  0.00000000000E+00 0. -1.
         -4   -1    0    0    0  501 -0.00000000000E+00 -0.00000000000E+00 -0.76172830345E+03  0.76172830345E+03  0.00000000000E+00 0.  1.
         23    2    1    2    0    0 -0.33499604269E+02  0.18454635876E+03  0.61742005703E+03  0.65174223343E+03  0.91546873250E+02 0.  0.
         13    1    3    3    0    0 -0.52364440591E+02  0.13705986464E+03  0.35041900822E+03  0.37989593635E+03  0.00000000000E+00 0. -1.
        -13    1    3    3    0    0  0.18864836321E+02  0.47486494120E+02  0.26700104881E+03  0.27184629708E+03  0.00000000000E+00 0.  1.
         22    1    1    2    0    0  0.33499604269E+02 -0.18454635876E+03 -0.73275512452E+03  0.75637930598E+03  0.00000000000E+00 0.  1.
<mgrwt>
<rscale>  0 0.14033902E+04</rscale>
<asrwt>0</asrwt>
<pdfrwt beam="1">  1        4 0.99445113E-01 0.14033902E+04</pdfrwt>
<pdfrwt beam="2">  1       -4 0.11718897E+00 0.14033902E+04</pdfrwt>
<totfact> 0.91360417E-01</totfact>
</mgrwt>
</event>
<event>
 6    1  0.1528034E-005  0.1363037E+04  0.7818608E-02  0.8981017E-01
          1   -1    0    0  501    0  0.00000000000E+00  0.00000000000E+00  0.14022012383E+04  0.14022012383E+04  0.00000000000E+00 0. -1.
         -1   -1    0    0    0  501 -0.00000000000E+00 -0.00000000000E+00 -0.33124179916E+03  0.33124179916E+03  0.00000000000E+00 0.  1.
         23    2    1    2    0    0 -0.14783736005E+03 -0.31371876272E+03  0.12795087302E+04  0.13287602556E+04  0.90475848375E+02 0.  0.
         11    1    3    3    0    0 -0.11386923193E+03 -0.20979660679E+03  0.71599452002E+03  0.75473768351E+03  0.00000000000E+00 0. -1.
        -11    1    3    3    0    0 -0.33968128122E+02 -0.10392215593E+03  0.56351421017E+03  0.57402257210E+03  0.00000000000E+00 0.  1.
         22    1    1    2    0    0  0.14783736005E+03  0.31371876272E+03 -0.20854929106E+03  0.40468278184E+03  0.00000000000E+00 0.  1.
<mgrwt>
<rscale>  0 0.13630373E+04</rscale>
<asrwt>0</asrwt>
<pdfrwt beam="1">  1        1 0.21572326E+00 0.13630373E+04</pdfrwt>
<pdfrwt beam="2">  1       -1 0.50960277E-01 0.13630373E+04</pdfrwt>
<totfact> 0.28971502E+01</totfact>
</mgrwt>
</event>
<event>
 6    1  0.1528034E-005  0.1577644E+04  0.7818608E-02  0.8834401E-01
         -1   -1    0    0    0  501 -0.00000000000E+00  0.00000000000E+00  0.25590745233E+03  0.25590745233E+03  0.00000000000E+00 0.  1.
          1   -1    0    0  501    0  0.00000000000E+00 -0.00000000000E+00 -0.24315056940E+04  0.24315056940E+04  0.00000000000E+00 0. -1.
         23    2    1    2    0    0 -0.13221305081E+03 -0.76817915215E+03 -0.12659901650E+04  0.14895123350E+04  0.91303875414E+02 0.  0.
         13    1    3    3    0    0 -0.52505366392E+02 -0.11110263431E+03 -0.20259813750E+03  0.23695276781E+03  0.00000000000E+00 0. -1.
        -13    1    3    3    0    0 -0.79707684413E+02 -0.65707651784E+03 -0.10633920275E+04  0.12525595672E+04  0.00000000000E+00 0.  1.
         22    1    1    2    0    0  0.13221305081E+03  0.76817915215E+03 -0.90960807661E+03  0.11979008113E+04  0.00000000000E+00 0. -1.
<mgrwt>
<rscale>  0 0.15776444E+04</rscale>
<asrwt>0</asrwt>
<pdfrwt beam="1">  1        1 0.37407780E+00 0.15776444E+04</pdfrwt>
<pdfrwt beam="2">  1       -1 0.39370377E-01 0.15776444E+04</pdfrwt>
<totfact> 0.91253088E+00</totfact>
</mgrwt>
</event>
<event>
 6    1  0.1528034E-005  0.1177590E+04  0.7818608E-02  0.9132702E-01
         -2   -1    0    0    0  501 -0.00000000000E+00  0.00000000000E+00  0.38798785553E+03  0.38798785553E+03  0.00000000000E+00 0.  1.
          2   -1    0    0  501    0  0.00000000000E+00 -0.00000000000E+00 -0.89353146597E+03  0.89353146597E+03  0.00000000000E+00 0. -1.
         23    2    1    2    0    0  0.36939809601E+03 -0.43699967656E+03 -0.38802934186E+03  0.69736756555E+03  0.91274753849E+02 0.  0.
         11    1    3    3    0    0  0.23277628289E+03 -0.28059397071E+03 -0.19318209068E+03  0.41259798162E+03  0.00000000000E+00 0.  1.
        -11    1    3    3    0    0  0.13662181312E+03 -0.15640570585E+03 -0.19484725118E+03  0.28476958394E+03  0.00000000000E+00 0. -1.
         22    1    1    2    0    0 -0.36939809601E+03  0.43699967656E+03 -0.11751426859E+03  0.58415175594E+03  0.00000000000E+00 0.  1.
<mgrwt>
<rscale>  0 0.11775897E+04</rscale>
<asrwt>0</asrwt>
<pdfrwt beam="1">  1        2 0.13746638E+00 0.11775897E+04</pdfrwt>
<pdfrwt beam="2">  1       -2 0.59690439E-01 0.11775897E+04</pdfrwt>
<totfact> 0.76655644E+01</totfact>
</mgrwt>
</event>
<event>
 6    1  0.1528034E-005  0.3274886E+04  0.7818608E-02  0.8169315E-01
          2   -1    0    0  501    0  0.00000000000E+00  0.00000000000E+00  0.13382017945E+04  0.13382017945E+04  0.00000000000E+00 0. -1.
         -2   -1    0    0    0  501 -0.00000000000E+00 -0.00000000000E+00 -0.20035988454E+04  0.20035988454E+04  0.00000000000E+00 0.  1.
         23    2    1    2    0    0 -0.56415199317E+03 -0.10106884545E+04 -0.15131315640E+04  0.19070837939E+04  0.87423358940E+02 0.  0.
         13    1    3    3    0    0 -0.27613989889E+03 -0.53937088539E+03 -0.72923640148E+03  0.94813497193E+03  0.00000000000E+00 0. -1.
        -13    1    3    3    0    0 -0.28801209428E+03 -0.47131756908E+03 -0.78389516251E+03  0.95894882198E+03  0.00000000000E+00 0.  1.
         22    1    1    2    0    0  0.56415199317E+03  0.10106884545E+04  0.84773451314E+03  0.14347168460E+04  0.00000000000E+00 0. -1.
<mgrwt>
<rscale>  0 0.32748860E+04</rscale>
<asrwt>0</asrwt>
<pdfrwt beam="1">  1        2 0.20587720E+00 0.32748860E+04</pdfrwt>
<pdfrwt beam="2">  1       -2 0.30824598E+00 0.32748860E+04</pdfrwt>
<totfact> 0.37181216E-01</totfact>
</mgrwt>
</event>
<event>
 6    1  0.1528034E-005  0.2383668E+04  0.7818608E-02  0.8445643E-01
         -2   -1    0    0    0  501 -0.00000000000E+00  0.00000000000E+00  0.45961603412E+03  0.45961603412E+03  0.00000000000E+00 0.  1.
          2   -1    0    0  501    0  0.00000000000E+00 -0.00000000000E+00 -0.30905548918E+04  0.30905548918E+04  0.00000000000E+00 0. -1.
         23    2    1    2    0    0 -0.35054215594E+03 -0.33020055077E+03 -0.29382256690E+04  0.29789114480E+04  0.93974071155E+02 0.  0.
         11    1    3    3    0    0 -0.42364527889E+01  0.50645457484E+01 -0.85226903647E+02  0.85482292091E+02  0.00000000000E+00 0. -1.
        -11    1    3    3    0    0 -0.34630570315E+03 -0.33526509652E+03 -0.28529987653E+04  0.28934291559E+04  0.00000000000E+00 0.  1.
         22    1    1    2    0    0  0.35054215594E+03  0.33020055077E+03  0.30728681128E+03  0.57125947800E+03  0.00000000000E+00 0.  1.
<mgrwt>
<rscale>  0 0.23836683E+04</rscale>
<asrwt>0</asrwt>
<pdfrwt beam="1">  1        2 0.47547000E+00 0.23836683E+04</pdfrwt>
<pdfrwt beam="2">  1       -2 0.70710156E-01 0.23836683E+04</pdfrwt>
<totfact> 0.25001201E+00</totfact>
</mgrwt>
</event>
<event>
 6    1  0.1528034E-005  0.1405964E+04  0.7818608E-02  0.8949513E-01
          2   -1    0    0  501    0  0.00000000000E+00  0.00000000000E+00  0.43833963235E+03  0.43833963235E+03  0.00000000000E+00 0. -1.
         -2   -1    0    0    0  501 -0.00000000000E+00 -0.00000000000E+00 -0.11273996777E+04  0.11273996777E+04  0.00000000000E+00 0.  1.
         23    2    1    2    0    0  0.44584757843E+03 -0.26512135549E+03  0.17761553495E+03  0.55569180730E+03  0.90425163021E+02 0.  0.
         13    1    3    3    0    0  0.19824589026E+03 -0.10014023432E+03  0.12064585500E+03  0.25275466734E+03  0.00000000000E+00 0. -1.
        -13    1    3    3    0    0  0.24760168817E+03 -0.16498112118E+03  0.56969679949E+02  0.30293713995E+03  0.00000000000E+00 0.  1.
         22    1    1    2    0    0 -0.44584757843E+03  0.26512135549E+03 -0.86667558032E+03  0.10100475028E+04  0.00000000000E+00 0.  1.
<mgrwt>
<rscale>  0 0.14059644E+04</rscale>
<asrwt>0</asrwt>
<pdfrwt beam="1">  1        2 0.67436867E-01 0.14059644E+04</pdfrwt>
<pdfrwt beam="2">  1       -2 0.17344610E+00 0.14059644E+04</pdfrwt>
<totfact> 0.14032795E+01</totfact>
</mgrwt>
</event>
<event>
 6    1  0.1528034E-005  0.1916252E+04  0.7818608E-02  0.8646809E-01
         -1   -1    0    0    0  501 -0.00000000000E+00  0.00000000000E+00  0.80622212754E+03  0.80622212754E+03  0.00000000000E+00 0.  1.
          1   -1    0    0  501    0  0.00000000000E+00 -0.00000000000E+00 -0.11386502336E+04  0.11386502336E+04  0.00000000000E+00 0. -1.
         23    2    1    2    0    0  0.25952743899E+03  0.65392769869E+03  0.49042000680E+03  0.86225749723E+03  0.89444294227E+02 0.  0.
         11    1    3    3    0    0  0.44212355112E+02  0.11611686621E+03  0.47474595119E+02  0.13301013549E+03  0.00000000000E+00 0. -1.
        -11    1    3    3    0    0  0.21531508388E+03  0.53781083248E+03  0.44294541168E+03  0.72924736174E+03  0.00000000000E+00 0.  1.
         22    1    1    2    0    0 -0.25952743899E+03 -0.65392769869E+03 -0.82284811282E+03  0.10826148639E+04  0.00000000000E+00 0. -1.
<mgrwt>
<rscale>  0 0.19162516E+04</rscale>
<asrwt>0</asrwt>
<pdfrwt beam="1">  1        1 0.17517696E+00 0.19162516E+04</pdfrwt>
<pdfrwt beam="2">  1       -1 0.12403417E+00 0.19162516E+04</pdfrwt>
<totfact> 0.63232357E+00</totfact>
</mgrwt>
</event>
<event>
 6    1  0.1528034E-005  0.3455766E+04  0.7818608E-02  0.8124354E-01
         -1   -1    0    0    0  501 -0.00000000000E+00  0.00000000000E+00  0.14067460213E+04  0.14067460213E+04  0.00000000000E+00 0.  1.
          1   -1    0    0  501    0  0.00000000000E+00 -0.00000000000E+00 -0.21223304025E+04  0.21223304025E+04  0.00000000000E+00 0. -1.
         23    2    1    2    0    0  0.12437091936E+04  0.54210334904E+03 -0.14487647379E+04  0.19869214268E+04  0.90823405259E+02 0.  0.
         13    1    3    3    0    0  0.86641864239E+03  0.33636096090E+03 -0.96311987216E+03  0.13384393330E+04  0.00000000000E+00 0.  1.
        -13    1    3    3    0    0  0.37729055125E+03  0.20574238814E+03 -0.48564486576E+03  0.64848209380E+03  0.00000000000E+00 0. -1.
         22    1    1    2    0    0 -0.12437091936E+04 -0.54210334904E+03  0.73318035668E+03  0.15421549970E+04  0.00000000000E+00 0.  1.
<mgrwt>
<rscale>  0 0.34557661E+04</rscale>
<asrwt>0</asrwt>
<pdfrwt beam="1">  1        1 0.32651237E+00 0.34557661E+04</pdfrwt>
<pdfrwt beam="2">  1       -1 0.21642247E+00 0.34557661E+04</pdfrwt>
<totfact> 0.23440136E-01</totfact>
</mgrwt>
</event>
<event>
 6    1  0.2594699E-005  0.4458448E+04  0.7818608E-02  0.7917952E-01
         -2   -1    0    0    0  501 -0.00000000000E+00  0.00000000000E+00  0.19462427179E+04  0.19462427179E+04  0.00000000000E+00 0.  1.
          2   -1    0    0  501    0  0.00000000000E+00 -0.00000000000E+00 -0.25533501737E+04  0.25533501737E+04  0.00000000000E+00 0. -1.
         23    2    1    2    0    0 -0.81254678026E+03  0.84631185718E+03 -0.22154313434E+04  0.25088187314E+04  0.97771980153E+02 0.  0.
         11    1    3    3    0    0 -0.66314567297E+03  0.64508746665E+03 -0.16891809615E+04  0.19259367445E+04  0.00000000000E+00 0. -1.
        -11    1    3    3    0    0 -0.14940110729E+03  0.20122439053E+03 -0.52625038186E+03  0.58288198686E+03  0.00000000000E+00 0.  1.
         22    1    1    2    0    0  0.81254678026E+03 -0.84631185718E+03  0.16083238876E+04  0.19907741602E+04  0.00000000000E+00 0.  1.
<mgrwt>
<rscale>  0 0.44584478E+04</rscale>
<asrwt>0</asrwt>
<pdfrwt beam="1">  1        2 0.39282310E+00 0.44584478E+04</pdfrwt>
<pdfrwt beam="2">  1       -2 0.29942196E+00 0.44584478E+04</pdfrwt>
<totfact> 0.78951389E-02</totfact>
</mgrwt>
</event>
<event>
 6    1  0.1528034E-005  0.1028565E+04  0.7818608E-02  0.9277759E-01
          1   -1    0    0  501    0  0.00000000000E+00  0.00000000000E+00  0.12566213075E+04  0.12566213075E+04  0.00000000000E+00 0. -1.
         -1   -1    0    0    0  501 -0.00000000000E+00 -0.00000000000E+00 -0.21047425055E+03  0.21047425055E+03  0.00000000000E+00 0.  1.
         23    2    1    2    0    0 -0.48168663655E+03  0.22736735028E+02  0.76703866149E+03  0.90992370722E+03  0.84106300580E+02 0.  0.
         11    1    3    3    0    0 -0.38299576383E+03 -0.15787745844E+02  0.58904394109E+03  0.70278572308E+03  0.00000000000E+00 0.  1.
        -11    1    3    3    0    0 -0.98690872716E+02  0.38524480872E+02  0.17799472040E+03  0.20713798414E+03  0.00000000000E+00 0. -1.
         22    1    1    2    0    0  0.48168663655E+03 -0.22736735028E+02  0.27910839548E+03  0.55717185085E+03  0.00000000000E+00 0.  1.
<mgrwt>
<rscale>  0 0.10285649E+04</rscale>
<asrwt>0</asrwt>
<pdfrwt beam="1">  1        1 0.19332635E+00 0.10285649E+04</pdfrwt>
<pdfrwt beam="2">  1       -1 0.32380655E-01 0.10285649E+04</pdfrwt>
<totfact> 0.86656705E+01</totfact>
</mgrwt>
</event>
<event>
 6    1  0.1528034E-005  0.8650045E+03  0.7818608E-02  0.9470417E-01
          2   -1    0    0  501    0  0.00000000000E+00  0.00000000000E+00  0.73201248712E+03  0.73201248712E+03  0.00000000000E+00 0. -1.
         -2   -1    0    0    0  501 -0.00000000000E+00 -0.00000000000E+00 -0.25553964993E+03  0.25553964993E+03  0.00000000000E+00 0.  1.
         23    2    1    2    0    0  0.10503341966E+03  0.11185558288E+03  0.69670370305E+03  0.71913953499E+03  0.90674860243E+02 0.  0.
         11    1    3    3    0    0  0.10429154043E+03  0.64048909887E+02  0.58445757201E+03  0.59713452567E+03  0.00000000000E+00 0.  1.
        -11    1    3    3    0    0  0.74187922877E+00  0.47806672991E+02  0.11224613103E+03  0.12200500932E+03  0.00000000000E+00 0. -1.
         22    1    1    2    0    0 -0.10503341966E+03 -0.11185558288E+03 -0.22023086586E+03  0.26841260206E+03  0.00000000000E+00 0.  1.
<mgrwt>
<rscale>  0 0.86500454E+03</rscale>
<asrwt>0</asrwt>
<pdfrwt beam="1">  1        2 0.11261730E+00 0.86500454E+03</pdfrwt>
<pdfrwt beam="2">  1       -2 0.39313793E-01 0.86500454E+03</pdfrwt>
<totfact> 0.23760175E+02</totfact>
</mgrwt>
</event>
<event>
 6    1  0.1528034E-005  0.3734164E+04  0.7818608E-02  0.8060433E-01
          1   -1    0    0  501    0  0.00000000000E+00  0.00000000000E+00  0.16144331147E+04  0.16144331147E+04  0.00000000000E+00 0. -1.
         -1   -1    0    0    0  501 -0.00000000000E+00 -0.00000000000E+00 -0.21592692257E+04  0.21592692257E+04  0.00000000000E+00 0.  1.
         23    2    1    2    0    0  0.15066746548E+04  0.10820381448E+04 -0.68409152705E+02  0.18585371494E+04  0.92765626124E+02 0.  0.
         13    1    3    3    0    0  0.56474566036E+03  0.35335536570E+03 -0.11119541175E+02  0.66627420749E+03  0.00000000000E+00 0.  1.
        -13    1    3    3    0    0  0.94192899441E+03  0.72868277913E+03 -0.57289611529E+02  0.11922629419E+04  0.00000000000E+00 0. -1.
         22    1    1    2    0    0 -0.15066746548E+04 -0.10820381448E+04 -0.47642695821E+03  0.19151651910E+04  0.00000000000E+00 0.  1.
<mgrwt>
<rscale>  0 0.37341643E+04</rscale>
<asrwt>0</asrwt>
<pdfrwt beam="1">  1        1 0.24837432E+00 0.37341643E+04</pdfrwt>
<pdfrwt beam="2">  1       -1 0.33219527E+00 0.37341643E+04</pdfrwt>
<totfact> 0.88836261E-02</totfact>
</mgrwt>
</event>
<event>
 6    1  0.1528034E-005  0.8965536E+03  0.7818608E-02  0.9429900E-01
         -1   -1    0    0    0  501 -0.00000000000E+00  0.00000000000E+00  0.51195681380E+03  0.51195681380E+03  0.00000000000E+00 0.  1.
          1   -1    0    0  501    0  0.00000000000E+00 -0.00000000000E+00 -0.39251764305E+03  0.39251764305E+03  0.00000000000E+00 0. -1.
         23    2    1    2    0    0 -0.32218680643E+03  0.29556482118E+03 -0.57900389497E+01  0.44967201984E+03  0.10492139496E+03 0.  0.
         13    1    3    3    0    0 -0.14880835881E+03  0.18846441888E+03 -0.38737851914E+02  0.24323524828E+03  0.00000000000E+00 0.  1.
        -13    1    3    3    0    0 -0.17337844762E+03  0.10710040229E+03  0.32947812964E+02  0.20643677156E+03  0.00000000000E+00 0. -1.
         22    1    1    2    0    0  0.32218680643E+03 -0.29556482118E+03  0.12522920970E+03  0.45480243702E+03  0.00000000000E+00 0. -1.
<mgrwt>
<rscale>  0 0.89655358E+03</rscale>
<asrwt>0</asrwt>
<pdfrwt beam="1">  1        1 0.60387329E-01 0.89655358E+03</pdfrwt>
<pdfrwt beam="2">  1       -1 0.78762587E-01 0.89655358E+03</pdfrwt>
<totfact> 0.10007261E+02</totfact>
</mgrwt>
</event>
<event>
 6    1  0.1528034E-005  0.2965479E+04  0.7818608E-02  0.8253658E-01
          2   -1    0    0  501    0  0.00000000000E+00  0.00000000000E+00  0.18581014969E+04  0.18581014969E+04  0.00000000000E+00 0. -1.
         -2   -1    0    0    0  501 -0.00000000000E+00 -0.00000000000E+00 -0.11832057988E+04  0.11832057988E+04  0.00000000000E+00 0.  1.
         23    2    1    2    0    0  0.95290694888E+03  0.58153360255E+02 -0.82392547661E+03  0.12642652646E+04  0.90000009398E+02 0.  0.
         13    1    3    3    0    0  0.76189042507E+03  0.12672340353E+02 -0.63737837719E+03  0.99342277190E+03  0.00000000000E+00 0.  1.
        -13    1    3    3    0    0  0.19101652381E+03  0.45481019902E+02 -0.18654709942E+03  0.27084249268E+03  0.00000000000E+00 0. -1.
         22    1    1    2    0    0 -0.95290694888E+03 -0.58153360255E+02  0.14988211747E+04  0.17770420311E+04  0.00000000000E+00 0. -1.
<mgrwt>
<rscale>  0 0.29654790E+04</rscale>
<asrwt>0</asrwt>
<pdfrwt beam="1">  1        2 0.28586177E+00 0.29654790E+04</pdfrwt>
<pdfrwt beam="2">  1       -2 0.18203166E+00 0.29654790E+04</pdfrwt>
<totfact> 0.12075920E+00</totfact>
</mgrwt>
</event>
<event>
 6    1  0.1528034E-005  0.5015960E+04  0.7818608E-02  0.7826050E-01
          4   -1    0    0  501    0  0.00000000000E+00  0.00000000000E+00  0.18477272591E+04  0.18477272591E+04  0.00000000000E+00 0. -1.
         -4   -1    0    0    0  501 -0.00000000000E+00 -0.00000000000E+00 -0.34041624380E+04  0.34041624380E+04  0.00000000000E+00 0.  1.
         23    2    1    2    0    0 -0.10619858954E+04 -0.22439618956E+04 -0.11452280966E+04  0.27354894317E+04  0.90421275940E+02 0.  0.
         11    1    3    3    0    0 -0.39607203544E+03 -0.81754549836E+03 -0.46634126510E+03  0.10211404774E+04  0.00000000000E+00 0.  1.
        -11    1    3    3    0    0 -0.66591385999E+03 -0.14264163972E+04 -0.67888683152E+03  0.17143489543E+04  0.00000000000E+00 0. -1.
         22    1    1    2    0    0  0.10619858954E+04  0.22439618956E+04 -0.41120708228E+03  0.25164002653E+04  0.00000000000E+00 0. -1.
<mgrwt>
<rscale>  0 0.50159600E+04</rscale>
<asrwt>0</asrwt>
<pdfrwt beam="1">  1        4 0.28426574E+00 0.50159600E+04</pdfrwt>
<pdfrwt beam="2">  1       -4 0.52371729E+00 0.50159600E+04</pdfrwt>
<totfact> 0.41846939E-05</totfact>
</mgrwt>
</event>
<event>
 6    1  0.1528034E-005  0.1749355E+04  0.7818608E-02  0.8733705E-01
          2   -1    0    0  501    0  0.00000000000E+00  0.00000000000E+00  0.11876986586E+04  0.11876986586E+04  0.00000000000E+00 0.  1.
         -2   -1    0    0    0  501 -0.00000000000E+00 -0.00000000000E+00 -0.64415393690E+03  0.64415393690E+03  0.00000000000E+00 0. -1.
         23    2    1    2    0    0  0.33479759261E+03 -0.50581328565E+03  0.92915551921E+03  0.11130812861E+04  0.87655363138E+02 0.  0.
         13    1    3    3    0    0  0.21025369823E+03 -0.23854154031E+03  0.48824866113E+03  0.58266237151E+03  0.00000000000E+00 0. -1.
        -13    1    3    3    0    0  0.12454389437E+03 -0.26727174534E+03  0.44090685808E+03  0.53041891461E+03  0.00000000000E+00 0.  1.
         22    1    1    2    0    0 -0.33479759261E+03  0.50581328565E+03 -0.38561079754E+03  0.71877130934E+03  0.00000000000E+00 0. -1.
<mgrwt>
<rscale>  0 0.17493550E+04</rscale>
<asrwt>0</asrwt>
<pdfrwt beam="1">  1        2 0.18272287E+00 0.17493550E+04</pdfrwt>
<pdfrwt beam="2">  1       -2 0.99100606E-01 0.17493550E+04</pdfrwt>
<totfact> 0.15412410E+01</totfact>
</mgrwt>
</event>
<event>
 6    1  0.1528034E-005  0.2660157E+04  0.7818608E-02  0.8348050E-01
          2   -1    0    0  501    0  0.00000000000E+00  0.00000000000E+00  0.65816422268E+03  0.65816422268E+03  0.00000000000E+00 0. -1.
         -2   -1    0    0    0  501 -0.00000000000E+00 -0.00000000000E+00 -0.26879440976E+04  0.26879440976E+04  0.00000000000E+00 0.  1.
         23    2    1    2    0    0 -0.10347151213E+04  0.41709609778E+03 -0.19232645362E+04  0.22254165453E+04  0.94486967619E+02 0.  0.
         13    1    3    3    0    0 -0.26952828821E+03  0.12226460237E+03 -0.43389137103E+03  0.52521981397E+03  0.00000000000E+00 0. -1.
        -13    1    3    3    0    0 -0.76518683304E+03  0.29483149541E+03 -0.14893731652E+04  0.17001967314E+04  0.00000000000E+00 0.  1.
         22    1    1    2    0    0  0.10347151213E+04 -0.41709609778E+03 -0.10651533865E+03  0.11206917749E+04  0.00000000000E+00 0. -1.
<mgrwt>
<rscale>  0 0.26601569E+04</rscale>
<asrwt>0</asrwt>
<pdfrwt beam="1">  1        2 0.10125604E+00 0.26601569E+04</pdfrwt>
<pdfrwt beam="2">  1       -2 0.41352985E+00 0.26601569E+04</pdfrwt>
<totfact> 0.23563586E-01</totfact>
</mgrwt>
</event>
<event>
 6    1  0.1528034E-005  0.1419759E+04  0.7818608E-02  0.8939639E-01
          2   -1    0    0  501    0  0.00000000000E+00  0.00000000000E+00  0.65808208297E+03  0.65808208297E+03  0.00000000000E+00 0. -1.
         -2   -1    0    0    0  501 -0.00000000000E+00 -0.00000000000E+00 -0.76575422756E+03  0.76575422756E+03  0.00000000000E+00 0.  1.
         23    2    1    2    0    0  0.34854488388E+03 -0.45101595165E+03 -0.47334520737E+03  0.74662459063E+03  0.92161105031E+02 0.  0.
         11    1    3    3    0    0  0.22502826378E+03 -0.34851606831E+03 -0.36872885400E+03  0.55503345588E+03  0.00000000000E+00 0. -1.
        -11    1    3    3    0    0  0.12351662010E+03 -0.10249988333E+03 -0.10461635336E+03  0.19159113475E+03  0.00000000000E+00 0.  1.
         22    1    1    2    0    0 -0.34854488388E+03  0.45101595165E+03  0.36567306278E+03  0.67721171989E+03  0.00000000000E+00 0. -1.
<mgrwt>
<rscale>  0 0.14197593E+04</rscale>
<asrwt>0</asrwt>
<pdfrwt beam="1">  1        2 0.10124340E+00 0.14197593E+04</pdfrwt>
<pdfrwt beam="2">  1       -2 0.11780834E+00 0.14197593E+04</pdfrwt>
<totfact> 0.23915924E+01</totfact>
</mgrwt>
</event>
<event>
 6    1  0.1528034E-005  0.2194302E+04  0.7818608E-02  0.8520803E-01
          1   -1    0    0  501    0  0.00000000000E+00  0.00000000000E+00  0.20071239299E+04  0.20071239299E+04  0.00000000000E+00 0. -1.
         -1   -1    0    0    0  501 -0.00000000000E+00 -0.00000000000E+00 -0.59973397691E+03  0.59973397691E+03  0.00000000000E+00 0.  1.
         23    2    1    2    0    0  0.12629277426E+03  0.67846954418E+02  0.19949176783E+04  0.20020919174E+04  0.90124518267E+02 0.  0.
         13    1    3    3    0    0  0.40839028160E+02 -0.18654613672E+02  0.71627764333E+03  0.71768341430E+03  0.00000000000E+00 0.  1.
        -13    1    3    3    0    0  0.85453746103E+02  0.86501568090E+02  0.12786400349E+04  0.12844085031E+04  0.00000000000E+00 0. -1.
         22    1    1    2    0    0 -0.12629277426E+03 -0.67846954418E+02 -0.58752772522E+03  0.60476598942E+03  0.00000000000E+00 0.  1.
<mgrwt>
<rscale>  0 0.21943021E+04</rscale>
<asrwt>0</asrwt>
<pdfrwt beam="1">  1        1 0.30878829E+00 0.21943021E+04</pdfrwt>
<pdfrwt beam="2">  1       -1 0.92266766E-01 0.21943021E+04</pdfrwt>
<totfact> 0.30722527E+00</totfact>
</mgrwt>
</event>
<event>
 6    1  0.1528034E-005  0.2259212E+04  0.7818608E-02  0.8494179E-01
          2   -1    0    0  501    0  0.00000000000E+00  0.00000000000E+00  0.12089597097E+04  0.12089597097E+04  0.00000000000E+00 0. -1.
         -2   -1    0    0    0  501 -0.00000000000E+00 -0.00000000000E+00 -0.10554604907E+04  0.10554604907E+04  0.00000000000E+00 0.  1.
         23    2    1    2    0    0  0.36381412038E+03  0.10666105320E+04  0.12252046128E+03  0.11370434113E+04  0.88530868499E+02 0.  0.
         11    1    3    3    0    0  0.23711160658E+03  0.55977654367E+03  0.59676002049E+02  0.61084606738E+03  0.00000000000E+00 0. -1.
        -11    1    3    3    0    0  0.12670251380E+03  0.50683398831E+03  0.62844459231E+02  0.52619734394E+03  0.00000000000E+00 0.  1.
         22    1    1    2    0    0 -0.36381412038E+03 -0.10666105320E+04  0.30978757706E+02  0.11273767891E+04  0.00000000000E+00 0. -1.
<mgrwt>
<rscale>  0 0.22592116E+04</rscale>
<asrwt>0</asrwt>
<pdfrwt beam="1">  1        2 0.18599380E+00 0.22592116E+04</pdfrwt>
<pdfrwt beam="2">  1       -2 0.16237854E+00 0.22592116E+04</pdfrwt>
<totfact> 0.41174797E+00</totfact>
</mgrwt>
</event>
<event>
 6    1  0.1528034E-005  0.2630717E+04  0.7818608E-02  0.8357842E-01
          1   -1    0    0  501    0  0.00000000000E+00  0.00000000000E+00  0.13188214686E+04  0.13188214686E+04  0.00000000000E+00 0. -1.
         -1   -1    0    0    0  501 -0.00000000000E+00 -0.00000000000E+00 -0.13119045642E+04  0.13119045642E+04  0.00000000000E+00 0.  1.
         23    2    1    2    0    0 -0.49227180626E+03 -0.10322450187E+04  0.65011007536E+03  0.13186441889E+04  0.91203491651E+02 0.  0.
         13    1    3    3    0    0 -0.15037782328E+03 -0.26764550968E+03  0.13505413980E+03  0.33539115859E+03  0.00000000000E+00 0. -1.
        -13    1    3    3    0    0 -0.34189398298E+03 -0.76459950904E+03  0.51505593557E+03  0.98325303030E+03  0.00000000000E+00 0.  1.
         22    1    1    2    0    0  0.49227180626E+03  0.10322450187E+04 -0.64319317096E+03  0.13120818439E+04  0.00000000000E+00 0.  1.
<mgrwt>
<rscale>  0 0.26307169E+04</rscale>
<asrwt>0</asrwt>
<pdfrwt beam="1">  1        1 0.20289561E+00 0.26307169E+04</pdfrwt>
<pdfrwt beam="2">  1       -1 0.20183147E+00 0.26307169E+04</pdfrwt>
<totfact> 0.11262240E+00</totfact>
</mgrwt>
</event>
<event>
 6    1  0.1528034E-005  0.9490693E+03  0.7818608E-02  0.9366239E-01
          1   -1    0    0  501    0  0.00000000000E+00  0.00000000000E+00  0.45775983503E+03  0.45775983503E+03  0.00000000000E+00 0. -1.
         -1   -1    0    0    0  501 -0.00000000000E+00 -0.00000000000E+00 -0.49192415986E+03  0.49192415986E+03  0.00000000000E+00 0.  1.
         23    2    1    2    0    0 -0.36949526042E+03 -0.10789606916E+03 -0.28772810337E+03  0.48874701547E+03  0.88982438996E+02 0.  0.
         13    1    3    3    0    0 -0.24145737796E+03 -0.10489081384E+03 -0.16106757141E+03  0.30862033432E+03  0.00000000000E+00 0.  1.
        -13    1    3    3    0    0 -0.12803788246E+03 -0.30052553188E+01 -0.12666053195E+03  0.18012668114E+03  0.00000000000E+00 0. -1.
         22    1    1    2    0    0  0.36949526042E+03  0.10789606916E+03  0.25356377855E+03  0.46093697942E+03  0.00000000000E+00 0. -1.
<mgrwt>
<rscale>  0 0.94906928E+03</rscale>
<asrwt>0</asrwt>
<pdfrwt beam="1">  1        1 0.70424590E-01 0.94906928E+03</pdfrwt>
<pdfrwt beam="2">  1       -1 0.75680640E-01 0.94906928E+03</pdfrwt>
<totfact> 0.88293693E+01</totfact>
</mgrwt>
</event>
<event>
 6    1  0.1528034E-005  0.1342170E+04  0.7818608E-02  0.8996776E-01
         -2   -1    0    0    0  501 -0.00000000000E+00  0.00000000000E+00  0.41129780819E+03  0.41129780819E+03  0.00000000000E+00 0. -1.
          2   -1    0    0  501    0  0.00000000000E+00 -0.00000000000E+00 -0.10949617109E+04  0.10949617109E+04  0.00000000000E+00 0.  1.
         23    2    1    2    0    0 -0.12816897530E+02 -0.58620129456E+03  0.16060307580E+02  0.59334648870E+03  0.89475647913E+02 0.  0.
         13    1    3    3    0    0 -0.27130793847E+02 -0.44032229391E+03  0.46624373057E+02  0.44361428590E+03  0.00000000000E+00 0. -1.
        -13    1    3    3    0    0  0.14313896317E+02 -0.14587900065E+03 -0.30564065477E+02  0.14973220280E+03  0.00000000000E+00 0.  1.
         22    1    1    2    0    0  0.12816897530E+02  0.58620129456E+03 -0.69972421031E+03  0.91291303041E+03  0.00000000000E+00 0.  1.
<mgrwt>
<rscale>  0 0.13421704E+04</rscale>
<asrwt>0</asrwt>
<pdfrwt beam="1">  1        2 0.16845565E+00 0.13421704E+04</pdfrwt>
<pdfrwt beam="2">  1       -2 0.63276586E-01 0.13421704E+04</pdfrwt>
<totfact> 0.49602966E+01</totfact>
</mgrwt>
</event>
<event>
 6    1  0.1528034E-005  0.3334492E+04  0.7818608E-02  0.8154174E-01
          2   -1    0    0  501    0  0.00000000000E+00  0.00000000000E+00  0.21995366988E+04  0.21995366988E+04  0.00000000000E+00 0.  1.
         -2   -1    0    0    0  501 -0.00000000000E+00 -0.00000000000E+00 -0.12637704360E+04  0.12637704360E+04  0.00000000000E+00 0. -1.
         23    2    1    2    0    0  0.55126488134E+03  0.13853061480E+04 -0.30388384027E+03  0.15243129443E+04  0.90655781298E+02 0.  0.
         11    1    3    3    0    0  0.20742317496E+03  0.64093484242E+03 -0.14598643222E+03  0.68929956052E+03  0.00000000000E+00 0.  1.
        -11    1    3    3    0    0  0.34384170638E+03  0.74437130556E+03 -0.15789740805E+03  0.83501338376E+03  0.00000000000E+00 0. -1.
         22    1    1    2    0    0 -0.55126488134E+03 -0.13853061480E+04  0.12396501030E+04  0.19389941905E+04  0.00000000000E+00 0.  1.
<mgrwt>
<rscale>  0 0.33344921E+04</rscale>
<asrwt>0</asrwt>
<pdfrwt beam="1">  1        2 0.33839026E+00 0.33344921E+04</pdfrwt>
<pdfrwt beam="2">  1       -2 0.19442622E+00 0.33344921E+04</pdfrwt>
<totfact> 0.62307454E-01</totfact>
</mgrwt>
</event>
<event>
 6    1  0.1528034E-005  0.1612151E+04  0.7818608E-02  0.8813118E-01
         -1   -1    0    0    0  501 -0.00000000000E+00  0.00000000000E+00  0.92583705327E+03  0.92583705327E+03  0.00000000000E+00 0.  1.
          1   -1    0    0  501    0  0.00000000000E+00 -0.00000000000E+00 -0.70180571299E+03  0.70180571299E+03  0.00000000000E+00 0. -1.
         23    2    1    2    0    0  0.16757751126E+03  0.26207509076E+03 -0.63564644054E+03  0.71341551753E+03  0.90275842862E+02 0.  0.
         13    1    3    3    0    0 -0.70093071941E+01  0.42853638455E+02 -0.76331149521E+02  0.87818045432E+02  0.00000000000E+00 0. -1.
        -13    1    3    3    0    0  0.17458681845E+03  0.21922145230E+03 -0.55931529102E+03  0.62559747210E+03  0.00000000000E+00 0.  1.
         22    1    1    2    0    0 -0.16757751126E+03 -0.26207509076E+03  0.85967778082E+03  0.91422724873E+03  0.00000000000E+00 0.  1.
<mgrwt>
<rscale>  0 0.16121510E+04</rscale>
<asrwt>0</asrwt>
<pdfrwt beam="1">  1        1 0.10797011E+00 0.16121510E+04</pdfrwt>
<pdfrwt beam="2">  1       -1 0.14243647E+00 0.16121510E+04</pdfrwt>
<totfact> 0.10421494E+01</totfact>
</mgrwt>
</event>
<event>
 6    1  0.1528034E-005  0.4184722E+04  0.7818608E-02  0.7968285E-01
         -2   -1    0    0    0  501 -0.00000000000E+00  0.00000000000E+00  0.20265195794E+04  0.20265195794E+04  0.00000000000E+00 0. -1.
          2   -1    0    0  501    0  0.00000000000E+00 -0.00000000000E+00 -0.21603413690E+04  0.21603413690E+04  0.00000000000E+00 0.  1.
         23    2    1    2    0    0  0.53152286588E+03  0.14706717968E+03  0.19512951856E+04  0.20300442867E+04  0.96858620371E+02 0.  0.
         11    1    3    3    0    0  0.16422512022E+03  0.86508033374E+01  0.48504438566E+03  0.51216480021E+03  0.00000000000E+00 0.  1.
        -11    1    3    3    0    0  0.36729774566E+03  0.13841637634E+03  0.14662507999E+04  0.15178794865E+04  0.00000000000E+00 0. -1.
         22    1    1    2    0    0 -0.53152286588E+03 -0.14706717968E+03 -0.20851169751E+04  0.21568166617E+04  0.00000000000E+00 0.  1.
<mgrwt>
<rscale>  0 0.41847218E+04</rscale>
<asrwt>0</asrwt>
<pdfrwt beam="1">  1        2 0.33236021E+00 0.41847218E+04</pdfrwt>
<pdfrwt beam="2">  1       -2 0.31177224E+00 0.41847218E+04</pdfrwt>
<totfact> 0.11369580E-01</totfact>
</mgrwt>
</event>
<event>
 6    1  0.1528034E-005  0.3521544E+04  0.7818608E-02  0.8108703E-01
         -1   -1    0    0    0  501 -0.00000000000E+00  0.00000000000E+00  0.19341069351E+04  0.19341069351E+04  0.00000000000E+00 0.  1.
          1   -1    0    0  501    0  0.00000000000E+00 -0.00000000000E+00 -0.16029717066E+04  0.16029717066E+04  0.00000000000E+00 0. -1.
         23    2    1    2    0    0 -0.68461828181E+03  0.11151321972E+04  0.13470799219E+04  0.18804659443E+04  0.96466796264E+02 0.  0.
         13    1    3    3    0    0 -0.14094970486E+03  0.25517872165E+03  0.24752733520E+03  0.38243009943E+03  0.00000000000E+00 0.  1.
        -13    1    3    3    0    0 -0.54366857694E+03  0.85995347556E+03  0.10995525867E+04  0.14980358449E+04  0.00000000000E+00 0. -1.
         22    1    1    2    0    0  0.68461828181E+03 -0.11151321972E+04 -0.10159446934E+04  0.16566126974E+04  0.00000000000E+00 0. -1.
<mgrwt>
<rscale>  0 0.35215444E+04</rscale>
<asrwt>0</asrwt>
<pdfrwt beam="1">  1        1 0.24661103E+00 0.35215444E+04</pdfrwt>
<pdfrwt beam="2">  1       -1 0.29755491E+00 0.35215444E+04</pdfrwt>
<totfact> 0.15490722E-01</totfact>
</mgrwt>
</event>
<event>
 6    1  0.1528034E-005  0.1926788E+04  0.7818608E-02  0.8641636E-01
          2   -1    0    0  501    0  0.00000000000E+00  0.00000000000E+00  0.21685257292E+04  0.21685257292E+04  0.00000000000E+00 0. -1.
         -2   -1    0    0    0  501 -0.00000000000E+00 -0.00000000000E+00 -0.42799973519E+03  0.42799973519E+03  0.00000000000E+00 0.  1.
         23    2    1    2    0    0 -0.78528512140E+03  0.24869184060E+03  0.15400049376E+04  0.17487465737E+04  0.89325347895E+02 0.  0.
         11    1    3    3    0    0 -0.47622347450E+03  0.14421064649E+03  0.10195863150E+04  0.11345227022E+04  0.00000000000E+00 0. -1.
        -11    1    3    3    0    0 -0.30906164690E+03  0.10448119412E+03  0.52041862260E+03  0.61422387145E+03  0.00000000000E+00 0.  1.
         22    1    1    2    0    0  0.78528512140E+03 -0.24869184060E+03  0.20052105646E+03  0.84777889072E+03  0.00000000000E+00 0.  1.
<mgrwt>
<rscale>  0 0.19267885E+04</rscale>
<asrwt>0</asrwt>
<pdfrwt beam="1">  1        2 0.33361934E+00 0.19267885E+04</pdfrwt>
<pdfrwt beam="2">  1       -2 0.65846114E-01 0.19267885E+04</pdfrwt>
<totfact> 0.10672833E+01</totfact>
</mgrwt>
</event>
<event>
 6    1  0.1528034E-005  0.1401464E+04  0.7818608E-02  0.8952760E-01
          2   -1    0    0  501    0  0.00000000000E+00  0.00000000000E+00  0.63897427004E+03  0.63897427004E+03  0.00000000000E+00 0. -1.
         -2   -1    0    0    0  501 -0.00000000000E+00 -0.00000000000E+00 -0.76845864112E+03  0.76845864112E+03  0.00000000000E+00 0.  1.
         23    2    1    2    0    0 -0.50028814492E+03  0.32103737605E+03  0.30215129345E+03  0.67281561510E+03  0.89622670285E+02 0.  0.
         13    1    3    3    0    0 -0.29023891152E+03  0.20083827962E+03  0.13133383717E+03  0.37659423403E+03  0.00000000000E+00 0.  1.
        -13    1    3    3    0    0 -0.21004923340E+03  0.12019909642E+03  0.17081745628E+03  0.29622138107E+03  0.00000000000E+00 0. -1.
         22    1    1    2    0    0  0.50028814492E+03 -0.32103737605E+03 -0.43163566453E+03  0.73461729605E+03  0.00000000000E+00 0.  1.
<mgrwt>
<rscale>  0 0.14014639E+04</rscale>
<asrwt>0</asrwt>
<pdfrwt beam="1">  1        2 0.98303734E-01 0.14014639E+04</pdfrwt>
<pdfrwt beam="2">  1       -2 0.11822441E+00 0.14014639E+04</pdfrwt>
<totfact> 0.24622933E+01</totfact>
</mgrwt>
</event>
<event>
 6    1  0.1528034E-005  0.6204398E+03  0.7818608E-02  0.9863884E-01
         -2   -1    0    0    0  501 -0.00000000000E+00  0.00000000000E+00  0.45942302077E+02  0.45942302077E+02  0.00000000000E+00 0.  1.
          2   -1    0    0  501    0  0.00000000000E+00 -0.00000000000E+00 -0.20947226748E+04  0.20947226748E+04  0.00000000000E+00 0. -1.
         23    2    1    2    0    0 -0.25529875577E+02 -0.14923615900E+03 -0.19540681182E+04  0.19620771361E+04  0.91876394217E+02 0.  0.
         13    1    3    3    0    0 -0.57326165229E+02 -0.12322830573E+03 -0.14703932480E+04  0.14766610336E+04  0.00000000000E+00 0. -1.
        -13    1    3    3    0    0  0.31796289653E+02 -0.26007853268E+02 -0.48367487024E+03  0.48541610250E+03  0.00000000000E+00 0.  1.
         22    1    1    2    0    0  0.25529875577E+02  0.14923615900E+03 -0.94712254466E+02  0.17858784070E+03  0.00000000000E+00 0.  1.
<mgrwt>
<rscale>  0 0.62043979E+03</rscale>
<asrwt>0</asrwt>
<pdfrwt beam="1">  1        2 0.32226499E+00 0.62043979E+03</pdfrwt>
<pdfrwt beam="2">  1       -2 0.70680474E-02 0.62043979E+03</pdfrwt>
<totfact> 0.73407810E+02</totfact>
</mgrwt>
</event>
<event>
 6    1  0.1528034E-005  0.1952002E+04  0.7818608E-02  0.8629396E-01
         -1   -1    0    0    0  501 -0.00000000000E+00  0.00000000000E+00  0.70140530522E+03  0.70140530522E+03  0.00000000000E+00 0.  1.
          1   -1    0    0  501    0  0.00000000000E+00 -0.00000000000E+00 -0.13580992044E+04  0.13580992044E+04  0.00000000000E+00 0. -1.
         23    2    1    2    0    0 -0.75119185799E+03  0.61806099137E+03 -0.28203633158E+03  0.10170761478E+04  0.92794404561E+02 0.  0.
         13    1    3    3    0    0 -0.51084340378E+03  0.46957883599E+03 -0.21897469123E+03  0.72760922328E+03  0.00000000000E+00 0.  1.
        -13    1    3    3    0    0 -0.24034845421E+03  0.14848215538E+03 -0.63061640353E+02  0.28946692452E+03  0.00000000000E+00 0. -1.
         22    1    1    2    0    0  0.75119185799E+03 -0.61806099137E+03 -0.37465756758E+03  0.10424283618E+04  0.00000000000E+00 0. -1.
<mgrwt>
<rscale>  0 0.19520020E+04</rscale>
<asrwt>0</asrwt>
<pdfrwt beam="1">  1        1 0.20893834E+00 0.19520020E+04</pdfrwt>
<pdfrwt beam="2">  1       -1 0.10790851E+00 0.19520020E+04</pdfrwt>
<totfact> 0.61175674E+00</totfact>
</mgrwt>
</event>
<event>
 6    1  0.1528034E-005  0.2327664E+04  0.7818608E-02  0.8467093E-01
          2   -1    0    0  501    0  0.00000000000E+00  0.00000000000E+00  0.23351948158E+04  0.23351948158E+04  0.00000000000E+00 0. -1.
         -2   -1    0    0    0  501 -0.00000000000E+00 -0.00000000000E+00 -0.58003943489E+03  0.58003943489E+03  0.00000000000E+00 0.  1.
         23    2    1    2    0    0  0.70456875271E+03 -0.88836524742E+03  0.11972271251E+04  0.16515515853E+04  0.93058636394E+02 0.  0.
         13    1    3    3    0    0  0.41484443316E+03 -0.54396221433E+03  0.78473682823E+03  0.10410584440E+04  0.00000000000E+00 0.  1.
        -13    1    3    3    0    0  0.28972431955E+03 -0.34440303309E+03  0.41249029689E+03  0.61049314129E+03  0.00000000000E+00 0. -1.
         22    1    1    2    0    0 -0.70456875271E+03  0.88836524742E+03  0.55792825582E+03  0.12636826654E+04  0.00000000000E+00 0.  1.
<mgrwt>
<rscale>  0 0.23276641E+04</rscale>
<asrwt>0</asrwt>
<pdfrwt beam="1">  1        2 0.35926074E+00 0.23276641E+04</pdfrwt>
<pdfrwt beam="2">  1       -2 0.89236837E-01 0.23276641E+04</pdfrwt>
<totfact> 0.42203154E+00</totfact>
</mgrwt>
</event>
<event>
 6    1  0.1528034E-005  0.1766861E+04  0.7818608E-02  0.8724124E-01
          1   -1    0    0  501    0  0.00000000000E+00  0.00000000000E+00  0.17471302708E+04  0.17471302708E+04  0.00000000000E+00 0. -1.
         -1   -1    0    0    0  501 -0.00000000000E+00 -0.00000000000E+00 -0.44670372402E+03  0.44670372402E+03  0.00000000000E+00 0.  1.
         23    2    1    2    0    0  0.23932291378E+03 -0.46281100430E+03 -0.23066659390E+03  0.57651655901E+03  0.87719909475E+02 0.  0.
         13    1    3    3    0    0  0.11512530755E+03 -0.30463761445E+03 -0.12073799700E+03  0.34732632566E+03  0.00000000000E+00 0.  1.
        -13    1    3    3    0    0  0.12419760623E+03 -0.15817338984E+03 -0.10992859690E+03  0.22919023335E+03  0.00000000000E+00 0. -1.
         22    1    1    2    0    0 -0.23932291378E+03  0.46281100430E+03  0.15310931406E+04  0.16173174358E+04  0.00000000000E+00 0. -1.
<mgrwt>
<rscale>  0 0.17668612E+04</rscale>
<asrwt>0</asrwt>
<pdfrwt beam="1">  1        1 0.26878927E+00 0.17668612E+04</pdfrwt>
<pdfrwt beam="2">  1       -1 0.68723651E-01 0.17668612E+04</pdfrwt>
<totfact> 0.89734384E+00</totfact>
</mgrwt>
</event>
<event>
 6    1  0.1528034E-005  0.2960785E+04  0.7818608E-02  0.8255018E-01
          2   -1    0    0  501    0  0.00000000000E+00  0.00000000000E+00  0.15612772795E+04  0.15612772795E+04  0.00000000000E+00 0. -1.
         -2   -1    0    0    0  501 -0.00000000000E+00 -0.00000000000E+00 -0.14036979440E+04  0.14036979440E+04  0.00000000000E+00 0.  1.
         23    2    1    2    0    0  0.13893202081E+04 -0.24503625975E+03  0.52405772034E+03  0.15073882395E+04  0.85611920806E+02 0.  0.
         11    1    3    3    0    0  0.61408833914E+03 -0.66288545519E+02  0.23921444626E+03  0.66236108795E+03  0.00000000000E+00 0. -1.
        -11    1    3    3    0    0  0.77523186898E+03 -0.17874771423E+03  0.28484327408E+03  0.84502715152E+03  0.00000000000E+00 0.  1.
         22    1    1    2    0    0 -0.13893202081E+04  0.24503625975E+03 -0.36647838482E+03  0.14575869840E+04  0.00000000000E+00 0.  1.
<mgrwt>
<rscale>  0 0.29607848E+04</rscale>
<asrwt>0</asrwt>
<pdfrwt beam="1">  1        2 0.24019650E+00 0.29607848E+04</pdfrwt>
<pdfrwt beam="2">  1       -2 0.21595353E+00 0.29607848E+04</pdfrwt>
<totfact> 0.10559243E+00</totfact>
</mgrwt>
</event>
<event>
 6    1  0.1528034E-005  0.2692474E+04  0.7818608E-02  0.8337451E-01
          1   -1    0    0  501    0  0.00000000000E+00  0.00000000000E+00  0.13299431328E+04  0.13299431328E+04  0.00000000000E+00 0. -1.
         -1   -1    0    0    0  501 -0.00000000000E+00 -0.00000000000E+00 -0.13627308983E+04  0.13627308983E+04  0.00000000000E+00 0.  1.
         23    2    1    2    0    0 -0.33130024029E+03  0.31021113449E+03  0.12494024986E+04  0.13325259986E+04  0.92887761863E+02 0.  0.
         13    1    3    3    0    0 -0.32588001953E+03  0.27282035126E+03  0.11630224489E+04  0.12382447043E+04  0.00000000000E+00 0.  1.
        -13    1    3    3    0    0 -0.54202207571E+01  0.37390783226E+02  0.86380049706E+02  0.94281294277E+02  0.00000000000E+00 0. -1.
         22    1    1    2    0    0  0.33130024029E+03 -0.31021113449E+03 -0.12821902640E+04  0.13601480325E+04  0.00000000000E+00 0.  1.
<mgrwt>
<rscale>  0 0.26924744E+04</rscale>
<asrwt>0</asrwt>
<pdfrwt beam="1">  1        1 0.20460663E+00 0.26924744E+04</pdfrwt>
<pdfrwt beam="2">  1       -1 0.20965091E+00 0.26924744E+04</pdfrwt>
<totfact> 0.97259206E-01</totfact>
</mgrwt>
</event>
<event>
 6    1  0.1528034E-005  0.1073246E+04  0.7818608E-02  0.9231668E-01
          2   -1    0    0  501    0  0.00000000000E+00  0.00000000000E+00  0.21241130105E+04  0.21241130105E+04  0.00000000000E+00 0. -1.
         -2   -1    0    0    0  501 -0.00000000000E+00 -0.00000000000E+00 -0.13556910725E+03  0.13556910725E+03  0.00000000000E+00 0.  1.
         23    2    1    2    0    0 -0.74025629332E+02 -0.50273518157E+03  0.13388063825E+04  0.14348298265E+04  0.90064668340E+02 0.  0.
         11    1    3    3    0    0 -0.62454563766E+02 -0.14640638532E+03  0.38791575436E+03  0.41930184197E+03  0.00000000000E+00 0. -1.
        -11    1    3    3    0    0 -0.11571065566E+02 -0.35632879624E+03  0.95089062817E+03  0.10155279845E+04  0.00000000000E+00 0.  1.
         22    1    1    2    0    0  0.74025629332E+02  0.50273518157E+03  0.64973752073E+03  0.82485229128E+03  0.00000000000E+00 0.  1.
<mgrwt>
<rscale>  0 0.10732457E+04</rscale>
<asrwt>0</asrwt>
<pdfrwt beam="1">  1        2 0.32678659E+00 0.10732457E+04</pdfrwt>
<pdfrwt beam="2">  1       -2 0.20856787E-01 0.10732457E+04</pdfrwt>
<totfact> 0.11287737E+02</totfact>
</mgrwt>
</event>
<event>
 6    1  0.1528034E-005  0.1349772E+04  0.7818608E-02  0.8991000E-01
         -1   -1    0    0    0  501 -0.00000000000E+00  0.00000000000E+00  0.18443729510E+03  0.18443729510E+03  0.00000000000E+00 0.  1.
          1   -1    0    0  501    0  0.00000000000E+00 -0.00000000000E+00 -0.24695184706E+04  0.24695184706E+04  0.00000000000E+00 0. -1.
         23    2    1    2    0    0  0.40778479828E+02 -0.57812243860E+03 -0.18175734529E+04  0.19093404898E+04  0.78226663595E+02 0.  0.
         13    1    3    3    0    0  0.87921006045E+01 -0.10414841218E+03 -0.43683357860E+03  0.44916340923E+03  0.00000000000E+00 0.  1.
        -13    1    3    3    0    0  0.31986379223E+02 -0.47397402642E+03 -0.13807398743E+04  0.14601770806E+04  0.00000000000E+00 0. -1.
         22    1    1    2    0    0 -0.40778479828E+02  0.57812243860E+03 -0.46750772264E+03  0.74461527594E+03  0.00000000000E+00 0.  1.
<mgrwt>
<rscale>  0 0.13497723E+04</rscale>
<asrwt>0</asrwt>
<pdfrwt beam="1">  1        1 0.37992592E+00 0.13497723E+04</pdfrwt>
<pdfrwt beam="2">  1       -1 0.28374969E-01 0.13497723E+04</pdfrwt>
<totfact> 0.15721642E+01</totfact>
</mgrwt>
</event>
<event>
 6    1  0.1528034E-005  0.6154188E+03  0.7818608E-02  0.9873923E-01
         -2   -1    0    0    0  501 -0.00000000000E+00  0.00000000000E+00  0.13568937161E+03  0.13568937161E+03  0.00000000000E+00 0.  1.
          2   -1    0    0  501    0  0.00000000000E+00 -0.00000000000E+00 -0.69780754532E+03  0.69780754532E+03  0.00000000000E+00 0. -1.
         23    2    1    2    0    0 -0.24740278545E+03 -0.10921858295E+03 -0.10755934867E+03  0.30457295024E+03  0.89770994331E+02 0.  0.
         11    1    3    3    0    0 -0.77832739631E+02 -0.70255530192E+02 -0.71436700900E+02  0.12687386302E+03  0.00000000000E+00 0. -1.
        -11    1    3    3    0    0 -0.16957004582E+03 -0.38963052757E+02 -0.36122647770E+02  0.17769908723E+03  0.00000000000E+00 0.  1.
         22    1    1    2    0    0  0.24740278545E+03  0.10921858295E+03 -0.45455882504E+03  0.52892396668E+03  0.00000000000E+00 0.  1.
<mgrwt>
<rscale>  0 0.61541878E+03</rscale>
<asrwt>0</asrwt>
<pdfrwt beam="1">  1        2 0.10735501E+00 0.61541878E+03</pdfrwt>
<pdfrwt beam="2">  1       -2 0.20875288E-01 0.61541878E+03</pdfrwt>
<totfact> 0.81822211E+02</totfact>
</mgrwt>
</event>
<event>
 6    1  0.1528034E-005  0.3198285E+04  0.7818608E-02  0.8189270E-01
          2   -1    0    0  501    0  0.00000000000E+00  0.00000000000E+00  0.25507544884E+04  0.25507544884E+04  0.00000000000E+00 0. -1.
         -2   -1    0    0    0  501 -0.00000000000E+00 -0.00000000000E+00 -0.10025491115E+04  0.10025491115E+04  0.00000000000E+00 0.  1.
         23    2    1    2    0    0  0.15340320312E+04 -0.42228572759E+03  0.93750006549E+03  0.18490323522E+04  0.91840940140E+02 0.  0.
         13    1    3    3    0    0  0.10375383091E+04 -0.32912112346E+03  0.63091294105E+03  0.12581166862E+04  0.00000000000E+00 0.  1.
        -13    1    3    3    0    0  0.49649372203E+03 -0.93164604130E+02  0.30658712444E+03  0.59091566602E+03  0.00000000000E+00 0. -1.
         22    1    1    2    0    0 -0.15340320312E+04  0.42228572759E+03  0.61070531141E+03  0.17042712477E+04  0.00000000000E+00 0. -1.
<mgrwt>
<rscale>  0 0.31982849E+04</rscale>
<asrwt>0</asrwt>
<pdfrwt beam="1">  1        2 0.39242376E+00 0.31982849E+04</pdfrwt>
<pdfrwt beam="2">  1       -2 0.15423833E+00 0.31982849E+04</pdfrwt>
<totfact> 0.76172422E-01</totfact>
</mgrwt>
</event>
<event>
 6    1  0.1528034E-005  0.1538013E+04  0.7818608E-02  0.8859561E-01
          1   -1    0    0  501    0  0.00000000000E+00  0.00000000000E+00  0.10194282546E+04  0.10194282546E+04  0.00000000000E+00 0. -1.
         -1   -1    0    0    0  501 -0.00000000000E+00 -0.00000000000E+00 -0.58010101592E+03  0.58010101592E+03  0.00000000000E+00 0.  1.
         23    2    1    2    0    0 -0.21115568420E+03 -0.63314849543E+03  0.61200247020E+03  0.91012338435E+03  0.91180101851E+02 0.  0.
         13    1    3    3    0    0 -0.13292139257E+03 -0.43278028575E+03  0.35727454438E+03  0.57672521395E+03  0.00000000000E+00 0.  1.
        -13    1    3    3    0    0 -0.78234291627E+02 -0.20036820968E+03  0.25472792582E+03  0.33339817040E+03  0.00000000000E+00 0. -1.
         22    1    1    2    0    0  0.21115568420E+03  0.63314849543E+03 -0.17267523155E+03  0.68940588613E+03  0.00000000000E+00 0. -1.
<mgrwt>
<rscale>  0 0.15380135E+04</rscale>
<asrwt>0</asrwt>
<pdfrwt beam="1">  1        1 0.15683512E+00 0.15380135E+04</pdfrwt>
<pdfrwt beam="2">  1       -1 0.89246310E-01 0.15380135E+04</pdfrwt>
<totfact> 0.17345001E+01</totfact>
</mgrwt>
</event>
<event>
 6    1  0.1528034E-005  0.2445538E+04  0.7818608E-02  0.8422649E-01
         -1   -1    0    0    0  501 -0.00000000000E+00  0.00000000000E+00  0.80225866474E+03  0.80225866474E+03  0.00000000000E+00 0.  1.
          1   -1    0    0  501    0  0.00000000000E+00 -0.00000000000E+00 -0.18636937124E+04  0.18636937124E+04  0.00000000000E+00 0. -1.
         23    2    1    2    0    0  0.33228124560E+03 -0.58009628498E+02 -0.18107435711E+04  0.18442229774E+04  0.92683155004E+02 0.  0.
         11    1    3    3    0    0  0.23279325947E+03 -0.48198141831E+02 -0.14706481371E+04  0.14897388045E+04  0.00000000000E+00 0. -1.
        -11    1    3    3    0    0  0.99487986132E+02 -0.98114866665E+01 -0.34009543397E+03  0.35448417294E+03  0.00000000000E+00 0.  1.
         22    1    1    2    0    0 -0.33228124560E+03  0.58009628498E+02  0.74930852337E+03  0.82172939973E+03  0.00000000000E+00 0.  1.
<mgrwt>
<rscale>  0 0.24455383E+04</rscale>
<asrwt>0</asrwt>
<pdfrwt beam="1">  1        1 0.28672211E+00 0.24455383E+04</pdfrwt>
<pdfrwt beam="2">  1       -1 0.12342441E+00 0.24455383E+04</pdfrwt>
<totfact> 0.19008366E+00</totfact>
</mgrwt>
</event>
<event>
 6    1  0.1528034E-005  0.1476549E+04  0.7818608E-02  0.8900199E-01
          1   -1    0    0  501    0  0.00000000000E+00  0.00000000000E+00  0.15220129016E+04  0.15220129016E+04  0.00000000000E+00 0. -1.
         -1   -1    0    0    0  501 -0.00000000000E+00 -0.00000000000E+00 -0.35811096768E+03  0.35811096768E+03  0.00000000000E+00 0.  1.
         23    2    1    2    0    0  0.37797421727E+02 -0.17871155977E+03  0.14912681778E+04  0.15052437227E+04  0.92257355524E+02 0.  0.
         11    1    3    3    0    0  0.76857358562E+01 -0.16367763639E+03  0.10516194346E+04  0.10643086368E+04  0.00000000000E+00 0. -1.
        -11    1    3    3    0    0  0.30111685870E+02 -0.15033923378E+02  0.43964874322E+03  0.44093508581E+03  0.00000000000E+00 0.  1.
         22    1    1    2    0    0 -0.37797421727E+02  0.17871155977E+03 -0.32736624392E+03  0.37488014663E+03  0.00000000000E+00 0.  1.
<mgrwt>
<rscale>  0 0.14765494E+04</rscale>
<asrwt>0</asrwt>
<pdfrwt beam="1">  1        1 0.23415583E+00 0.14765494E+04</pdfrwt>
<pdfrwt beam="2">  1       -1 0.55093996E-01 0.14765494E+04</pdfrwt>
<totfact> 0.20382431E+01</totfact>
</mgrwt>
</event>
<event>
 6    1  0.1528034E-005  0.2022647E+04  0.7818608E-02  0.8596105E-01
         -2   -1    0    0    0  501 -0.00000000000E+00  0.00000000000E+00  0.29008187482E+03  0.29008187482E+03  0.00000000000E+00 0.  1.
          2   -1    0    0  501    0  0.00000000000E+00 -0.00000000000E+00 -0.35258140531E+04  0.35258140531E+04  0.00000000000E+00 0. -1.
         23    2    1    2    0    0  0.57160328392E+03  0.79974423771E+03 -0.20526703459E+04  0.22777293377E+04  0.90962778344E+02 0.  0.
         13    1    3    3    0    0  0.30523819269E+03  0.41570379341E+03 -0.11800970106E+04  0.12878699284E+04  0.00000000000E+00 0. -1.
        -13    1    3    3    0    0  0.26636509123E+03  0.38404044430E+03 -0.87257333530E+03  0.98985940929E+03  0.00000000000E+00 0.  1.
         22    1    1    2    0    0 -0.57160328392E+03 -0.79974423771E+03 -0.11830618323E+04  0.15381665901E+04  0.00000000000E+00 0. -1.
<mgrwt>
<rscale>  0 0.20226465E+04</rscale>
<asrwt>0</asrwt>
<pdfrwt beam="1">  1        2 0.54243295E+00 0.20226465E+04</pdfrwt>
<pdfrwt beam="2">  1       -2 0.44627979E-01 0.20226465E+04</pdfrwt>
<totfact> 0.34622942E+00</totfact>
</mgrwt>
</event>
<event>
 6    1  0.1528034E-005  0.3128958E+04  0.7818608E-02  0.8207835E-01
         -2   -1    0    0    0  501 -0.00000000000E+00  0.00000000000E+00  0.11415671476E+04  0.11415671476E+04  0.00000000000E+00 0.  1.
          2   -1    0    0  501    0  0.00000000000E+00 -0.00000000000E+00 -0.21440651533E+04  0.21440651533E+04  0.00000000000E+00 0. -1.
         23    2    1    2    0    0  0.22659750311E+03 -0.63717324481E+03  0.97825102874E+03  0.11926194223E+04  0.89609368950E+02 0.  0.
         11    1    3    3    0    0  0.21824919191E+03 -0.57100134016E+03  0.83745635187E+03  0.10368261096E+04  0.00000000000E+00 0.  1.
        -11    1    3    3    0    0  0.83483112024E+01 -0.66171904650E+02  0.14079467687E+03  0.15579331276E+03  0.00000000000E+00 0. -1.
         22    1    1    2    0    0 -0.22659750311E+03  0.63717324481E+03 -0.19807490344E+04  0.20930128785E+04  0.00000000000E+00 0. -1.
<mgrwt>
<rscale>  0 0.31289579E+04</rscale>
<asrwt>0</asrwt>
<pdfrwt beam="1">  1        2 0.32985618E+00 0.31289579E+04</pdfrwt>
<pdfrwt beam="2">  1       -2 0.17562571E+00 0.31289579E+04</pdfrwt>
<totfact> 0.91456468E-01</totfact>
</mgrwt>
</event>
<event>
 6    1  0.1528034E-005  0.6118242E+04  0.7818608E-02  0.7675912E-01
         -2   -1    0    0    0  501 -0.00000000000E+00  0.00000000000E+00  0.24006715279E+04  0.24006715279E+04  0.00000000000E+00 0.  1.
          2   -1    0    0  501    0  0.00000000000E+00 -0.00000000000E+00 -0.38981686667E+04  0.38981686667E+04  0.00000000000E+00 0. -1.
         23    2    1    2    0    0  0.42710612707E+03 -0.28421320306E+04  0.32784781862E+03  0.28941348715E+04  0.91642454365E+02 0.  0.
         11    1    3    3    0    0  0.23402693351E+03 -0.13422674877E+04  0.12242703723E+03  0.13680054801E+04  0.00000000000E+00 0.  1.
        -11    1    3    3    0    0  0.19307919356E+03 -0.14998645429E+04  0.20542078139E+03  0.15261293914E+04  0.00000000000E+00 0. -1.
         22    1    1    2    0    0 -0.42710612707E+03  0.28421320306E+04 -0.18253449575E+04  0.34047053231E+04  0.00000000000E+00 0.  1.
<mgrwt>
<rscale>  0 0.61182424E+04</rscale>
<asrwt>0</asrwt>
<pdfrwt beam="1">  1        2 0.59971825E+00 0.61182424E+04</pdfrwt>
<pdfrwt beam="2">  1       -2 0.36933408E+00 0.61182424E+04</pdfrwt>
<totfact> 0.32117494E-03</totfact>
</mgrwt>
</event>
<event>
 6    1  0.1528034E-005  0.1194451E+04  0.7818608E-02  0.9117727E-01
         -1   -1    0    0    0  501 -0.00000000000E+00  0.00000000000E+00  0.56882719035E+03  0.56882719035E+03  0.00000000000E+00 0.  1.
          1   -1    0    0  501    0  0.00000000000E+00 -0.00000000000E+00 -0.62704169365E+03  0.62704169365E+03  0.00000000000E+00 0. -1.
         23    2    1    2    0    0  0.57464800563E+03  0.14824375640E+03 -0.99714354667E+01  0.60044975827E+03  0.90796150766E+02 0.  0.
         13    1    3    3    0    0  0.44516297789E+03  0.10527036865E+03 -0.44844528880E+02  0.45963350527E+03  0.00000000000E+00 0. -1.
        -13    1    3    3    0    0  0.12948502774E+03  0.42973387747E+02  0.34873093414E+02  0.14081625300E+03  0.00000000000E+00 0.  1.
         22    1    1    2    0    0 -0.57464800563E+03 -0.14824375640E+03 -0.48243067835E+02  0.59541912573E+03  0.00000000000E+00 0. -1.
<mgrwt>
<rscale>  0 0.11944511E+04</rscale>
<asrwt>0</asrwt>
<pdfrwt beam="1">  1        1 0.96467953E-01 0.11944511E+04</pdfrwt>
<pdfrwt beam="2">  1       -1 0.87511875E-01 0.11944511E+04</pdfrwt>
<totfact> 0.40878590E+01</totfact>
</mgrwt>
</event>
<event>
 6    1  0.1528034E-005  0.3501471E+04  0.7818608E-02  0.8113441E-01
         -1   -1    0    0    0  501 -0.00000000000E+00  0.00000000000E+00  0.15097388107E+04  0.15097388107E+04  0.00000000000E+00 0.  1.
          1   -1    0    0  501    0  0.00000000000E+00 -0.00000000000E+00 -0.20302020575E+04  0.20302020575E+04  0.00000000000E+00 0. -1.
         23    2    1    2    0    0 -0.10958468146E+03  0.11808504809E+04  0.10399927058E+04  0.15799818277E+04  0.91329551982E+02 0.  0.
         11    1    3    3    0    0 -0.49945376366E+02  0.47066569896E+03  0.35681268385E+03  0.59273605606E+03  0.00000000000E+00 0.  1.
        -11    1    3    3    0    0 -0.59639305095E+02  0.71018478193E+03  0.68318002194E+03  0.98724577161E+03  0.00000000000E+00 0. -1.
         22    1    1    2    0    0  0.10958468146E+03 -0.11808504809E+04 -0.15604559526E+04  0.19599590405E+04  0.00000000000E+00 0. -1.
<mgrwt>
<rscale>  0 0.35014710E+04</rscale>
<asrwt>0</asrwt>
<pdfrwt beam="1">  1        1 0.31233878E+00 0.35014710E+04</pdfrwt>
<pdfrwt beam="2">  1       -1 0.23226751E+00 0.35014710E+04</pdfrwt>
<totfact> 0.21144540E-01</totfact>
</mgrwt>
</event>
<event>
 6    1  0.1528034E-005  0.3960545E+04  0.7818608E-02  0.8012553E-01
          2   -1    0    0  501    0  0.00000000000E+00  0.00000000000E+00  0.15924584571E+04  0.15924584571E+04  0.00000000000E+00 0.  1.
         -2   -1    0    0    0  501 -0.00000000000E+00 -0.00000000000E+00 -0.24625315807E+04  0.24625315807E+04  0.00000000000E+00 0. -1.
         23    2    1    2    0    0  0.31580218902E+03 -0.14919973714E+04  0.85631169473E+03  0.17514727882E+04  0.92736348513E+02 0.  0.
         11    1    3    3    0    0  0.56705151204E+02 -0.17370917037E+03  0.76910311390E+02  0.19825626356E+03  0.00000000000E+00 0.  1.
        -11    1    3    3    0    0  0.25909703781E+03 -0.13182882010E+04  0.77940138334E+03  0.15532165246E+04  0.00000000000E+00 0. -1.
         22    1    1    2    0    0 -0.31580218902E+03  0.14919973714E+04 -0.17263848183E+04  0.23035172497E+04  0.00000000000E+00 0. -1.
<mgrwt>
<rscale>  0 0.39605450E+04</rscale>
<asrwt>0</asrwt>
<pdfrwt beam="1">  1        2 0.24499361E+00 0.39605450E+04</pdfrwt>
<pdfrwt beam="2">  1       -2 0.37885101E+00 0.39605450E+04</pdfrwt>
<totfact> 0.90722302E-02</totfact>
</mgrwt>
</event>
<event>
 6    1  0.1528034E-005  0.2970966E+04  0.7818608E-02  0.8252070E-01
         -2   -1    0    0    0  501 -0.00000000000E+00  0.00000000000E+00  0.78084694823E+03  0.78084694823E+03  0.00000000000E+00 0.  1.
          2   -1    0    0  501    0  0.00000000000E+00 -0.00000000000E+00 -0.28259832727E+04  0.28259832727E+04  0.00000000000E+00 0. -1.
         23    2    1    2    0    0  0.29305307239E+03 -0.10511014280E+04  0.19777062582E+03  0.11125716331E+04  0.89488006477E+02 0.  0.
         13    1    3    3    0    0  0.24692861236E+03 -0.77495877484E+03  0.17272030303E+03  0.83148490388E+03  0.00000000000E+00 0. -1.
        -13    1    3    3    0    0  0.46124460026E+02 -0.27614265313E+03  0.25050322786E+02  0.28108672925E+03  0.00000000000E+00 0.  1.
         22    1    1    2    0    0 -0.29305307239E+03  0.10511014280E+04 -0.22429069503E+04  0.24942585878E+04  0.00000000000E+00 0. -1.
<mgrwt>
<rscale>  0 0.29709665E+04</rscale>
<asrwt>0</asrwt>
<pdfrwt beam="1">  1        2 0.43476666E+00 0.29709665E+04</pdfrwt>
<pdfrwt beam="2">  1       -2 0.12013030E+00 0.29709665E+04</pdfrwt>
<totfact> 0.10128337E+00</totfact>
</mgrwt>
</event>
<event>
 6    1  0.1528034E-005  0.1782127E+04  0.7818608E-02  0.8715862E-01
          2   -1    0    0  501    0  0.00000000000E+00  0.00000000000E+00  0.25568787294E+04  0.25568787294E+04  0.00000000000E+00 0. -1.
         -2   -1    0    0    0  501 -0.00000000000E+00 -0.00000000000E+00 -0.31053252366E+03  0.31053252366E+03  0.00000000000E+00 0.  1.
         23    2    1    2    0    0 -0.12887294499E+03  0.71963510959E+03  0.31302935646E+03  0.80048189612E+03  0.91109610302E+02 0.  0.
         11    1    3    3    0    0 -0.52547286415E+02  0.40017158168E+03  0.21717102093E+03  0.45832495505E+03  0.00000000000E+00 0. -1.
        -11    1    3    3    0    0 -0.76325658579E+02  0.31946352792E+03  0.95858335532E+02  0.34215694106E+03  0.00000000000E+00 0.  1.
         22    1    1    2    0    0  0.12887294499E+03 -0.71963510959E+03  0.19333168493E+04  0.20669293570E+04  0.00000000000E+00 0. -1.
<mgrwt>
<rscale>  0 0.17821268E+04</rscale>
<asrwt>0</asrwt>
<pdfrwt beam="1">  1        2 0.39336594E+00 0.17821268E+04</pdfrwt>
<pdfrwt beam="2">  1       -2 0.47774236E-01 0.17821268E+04</pdfrwt>
<totfact> 0.12678981E+01</totfact>
</mgrwt>
</event>
<event>
 6    1  0.1528034E-005  0.3115139E+04  0.7818608E-02  0.8211595E-01
         -1   -1    0    0    0  501 -0.00000000000E+00  0.00000000000E+00  0.99407342610E+03  0.99407342610E+03  0.00000000000E+00 0.  1.
          1   -1    0    0  501    0  0.00000000000E+00 -0.00000000000E+00 -0.24404864322E+04  0.24404864322E+04  0.00000000000E+00 0. -1.
         23    2    1    2    0    0 -0.18092817638E+03  0.15100286680E+04 -0.10876004400E+04  0.18719760875E+04  0.92185528024E+02 0.  0.
         13    1    3    3    0    0 -0.16005121177E+03  0.96620294847E+03 -0.70422984151E+03  0.12062769987E+04  0.00000000000E+00 0. -1.
        -13    1    3    3    0    0 -0.20876964610E+02  0.54382571957E+03 -0.38337059853E+03  0.66569908873E+03  0.00000000000E+00 0.  1.
         22    1    1    2    0    0  0.18092817638E+03 -0.15100286680E+04 -0.35881256606E+03  0.15625837708E+04  0.00000000000E+00 0.  1.
<mgrwt>
<rscale>  0 0.31151390E+04</rscale>
<asrwt>0</asrwt>
<pdfrwt beam="1">  1        1 0.37545945E+00 0.31151390E+04</pdfrwt>
<pdfrwt beam="2">  1       -1 0.15293437E+00 0.31151390E+04</pdfrwt>
<totfact> 0.41546272E-01</totfact>
</mgrwt>
</event>
<event>
 6    1  0.1528034E-005  0.6052886E+03  0.7818608E-02  0.9894494E-01
         -1   -1    0    0    0  501 -0.00000000000E+00  0.00000000000E+00  0.15357162529E+03  0.15357162529E+03  0.00000000000E+00 0.  1.
          1   -1    0    0  501    0  0.00000000000E+00 -0.00000000000E+00 -0.59642244875E+03  0.59642244875E+03  0.00000000000E+00 0. -1.
         23    2    1    2    0    0 -0.26681759234E+03  0.11280011117E+03 -0.15124569812E+03  0.33895996137E+03  0.90017229202E+02 0.  0.
         13    1    3    3    0    0 -0.14105960401E+03  0.10456794470E+03 -0.70090659596E+02  0.18906339546E+03  0.00000000000E+00 0.  1.
        -13    1    3    3    0    0 -0.12575798833E+03  0.82321664703E+01 -0.81155038524E+02  0.14989656591E+03  0.00000000000E+00 0. -1.
         22    1    1    2    0    0  0.26681759234E+03 -0.11280011117E+03 -0.29160512534E+03  0.41103411267E+03  0.00000000000E+00 0.  1.
<mgrwt>
<rscale>  0 0.60528858E+03</rscale>
<asrwt>0</asrwt>
<pdfrwt beam="1">  1        1 0.91757298E-01 0.60528858E+03</pdfrwt>
<pdfrwt beam="2">  1       -1 0.23626404E-01 0.60528858E+03</pdfrwt>
<totfact> 0.53830848E+02</totfact>
</mgrwt>
</event>
<event>
 6    1  0.1528034E-005  0.3271364E+04  0.7818608E-02  0.8170220E-01
          1   -1    0    0  501    0  0.00000000000E+00  0.00000000000E+00  0.26775930749E+04  0.26775930749E+04  0.00000000000E+00 0. -1.
         -1   -1    0    0    0  501 -0.00000000000E+00 -0.00000000000E+00 -0.99920156197E+03  0.99920156197E+03  0.00000000000E+00 0.  1.
         23    2    1    2    0    0  0.44987191870E+03 -0.14729177089E+04  0.22165910996E+03  0.15569029853E+04  0.54247803377E+02 0.  0.
         11    1    3    3    0    0  0.32077926423E+03 -0.11291126504E+04  0.16698480236E+03  0.11856131907E+04  0.00000000000E+00 0. -1.
        -11    1    3    3    0    0  0.12909265447E+03 -0.34380505851E+03  0.54674307603E+02  0.37128979464E+03  0.00000000000E+00 0.  1.
         22    1    1    2    0    0 -0.44987191870E+03  0.14729177089E+04  0.14567324029E+04  0.21198916515E+04  0.00000000000E+00 0. -1.
<mgrwt>
<rscale>  0 0.32713637E+04</rscale>
<asrwt>0</asrwt>
<pdfrwt beam="1">  1        1 0.41193739E+00 0.32713637E+04</pdfrwt>
<pdfrwt beam="2">  1       -1 0.15372332E+00 0.32713637E+04</pdfrwt>
<totfact> 0.27615725E-01</totfact>
</mgrwt>
</event>
<event>
 6    1  0.1528034E-005  0.2574310E+04  0.7818608E-02  0.8376980E-01
          1   -1    0    0  501    0  0.00000000000E+00  0.00000000000E+00  0.19123835305E+04  0.19123835305E+04  0.00000000000E+00 0. -1.
         -1   -1    0    0    0  501 -0.00000000000E+00 -0.00000000000E+00 -0.86633689365E+03  0.86633689365E+03  0.00000000000E+00 0.  1.
         23    2    1    2    0    0  0.30807951231E+03  0.94749556911E+03  0.14005691210E+04  0.17212011425E+04  0.90987201453E+02 0.  0.
         13    1    3    3    0    0  0.23315010858E+03  0.57907654479E+03  0.85510753724E+03  0.10587244770E+04  0.00000000000E+00 0.  1.
        -13    1    3    3    0    0  0.74929403729E+02  0.36841902432E+03  0.54546158375E+03  0.66247666553E+03  0.00000000000E+00 0. -1.
         22    1    1    2    0    0 -0.30807951231E+03 -0.94749556911E+03 -0.35452248411E+03  0.10575192817E+04  0.00000000000E+00 0.  1.
<mgrwt>
<rscale>  0 0.25743103E+04</rscale>
<asrwt>0</asrwt>
<pdfrwt beam="1">  1        1 0.29421285E+00 0.25743103E+04</pdfrwt>
<pdfrwt beam="2">  1       -1 0.13328260E+00 0.25743103E+04</pdfrwt>
<totfact> 0.14356669E+00</totfact>
</mgrwt>
</event>
<event>
 6    1  0.1528034E-005  0.4573067E+04  0.7818608E-02  0.7897968E-01
         -1   -1    0    0    0  501 -0.00000000000E+00  0.00000000000E+00  0.27300078025E+04  0.27300078025E+04  0.00000000000E+00 0.  1.
          1   -1    0    0  501    0  0.00000000000E+00 -0.00000000000E+00 -0.19150988582E+04  0.19150988582E+04  0.00000000000E+00 0. -1.
         23    2    1    2    0    0  0.94972961053E+03 -0.17228160698E+04  0.15895631493E+04  0.25308288454E+04  0.91115835815E+02 0.  0.
         11    1    3    3    0    0  0.82296277180E+03 -0.14554299638E+04  0.13148772652E+04  0.21270745934E+04  0.00000000000E+00 0. -1.
        -11    1    3    3    0    0  0.12676683873E+03 -0.26738610601E+03  0.27468588406E+03  0.40375425198E+03  0.00000000000E+00 0.  1.
         22    1    1    2    0    0 -0.94972961053E+03  0.17228160698E+04 -0.77465420499E+03  0.21142778154E+04  0.00000000000E+00 0. -1.
<mgrwt>
<rscale>  0 0.45730667E+04</rscale>
<asrwt>0</asrwt>
<pdfrwt beam="1">  1        1 0.29463059E+00 0.45730667E+04</pdfrwt>
<pdfrwt beam="2">  1       -1 0.42000120E+00 0.45730667E+04</pdfrwt>
<totfact> 0.13255409E-02</totfact>
</mgrwt>
</event>
<event>
 6    1  0.1528034E-005  0.2360108E+04  0.7818608E-02  0.8454591E-01
         -2   -1    0    0    0  501 -0.00000000000E+00  0.00000000000E+00  0.83641155261E+03  0.83641155261E+03  0.00000000000E+00 0.  1.
          2   -1    0    0  501    0  0.00000000000E+00 -0.00000000000E+00 -0.16648825737E+04  0.16648825737E+04  0.00000000000E+00 0. -1.
         23    2    1    2    0    0 -0.11654249558E+04  0.15495979714E+03 -0.49966958626E+03  0.12805000200E+04  0.88219836310E+02 0.  0.
         11    1    3    3    0    0 -0.17798190986E+03  0.38025098020E+02 -0.47010961999E+02  0.18797206938E+03  0.00000000000E+00 0.  1.
        -11    1    3    3    0    0 -0.98744304594E+03  0.11693469912E+03 -0.45265862426E+03  0.10925279507E+04  0.00000000000E+00 0. -1.
         22    1    1    2    0    0  0.11654249558E+04 -0.15495979714E+03 -0.32880143481E+03  0.12207941063E+04  0.00000000000E+00 0.  1.
<mgrwt>
<rscale>  0 0.23601076E+04</rscale>
<asrwt>0</asrwt>
<pdfrwt beam="1">  1        2 0.25613578E+00 0.23601076E+04</pdfrwt>
<pdfrwt beam="2">  1       -2 0.12867870E+00 0.23601076E+04</pdfrwt>
<totfact> 0.41254654E+00</totfact>
</mgrwt>
</event>
<event>
 6    1  0.1528034E-005  0.3509113E+03  0.7818608E-02  0.1062242E+00
         -2   -1    0    0    0  501 -0.00000000000E+00  0.00000000000E+00  0.34398915051E+02  0.34398915051E+02  0.00000000000E+00 0.  1.
          2   -1    0    0  501    0  0.00000000000E+00 -0.00000000000E+00 -0.89493173662E+03  0.89493173662E+03  0.00000000000E+00 0. -1.
         23    2    1    2    0    0  0.34327173569E+02  0.14446030520E+03 -0.27766259757E+03  0.32784513011E+03  0.91316902191E+02 0.  0.
         13    1    3    3    0    0  0.42455846417E+02  0.44785773095E+02 -0.50844209054E+02  0.79958726609E+02  0.00000000000E+00 0. -1.
        -13    1    3    3    0    0 -0.81286728479E+01  0.99674532100E+02 -0.22681838852E+03  0.24788640350E+03  0.00000000000E+00 0.  1.
         22    1    1    2    0    0 -0.34327173569E+02 -0.14446030520E+03 -0.58287022400E+03  0.60148552156E+03  0.00000000000E+00 0. -1.
<mgrwt>
<rscale>  0 0.35091128E+03</rscale>
<asrwt>0</asrwt>
<pdfrwt beam="1">  1        2 0.13768182E+00 0.35091128E+03</pdfrwt>
<pdfrwt beam="2">  1       -2 0.52921403E-02 0.35091128E+03</pdfrwt>
<totfact> 0.55184606E+03</totfact>
</mgrwt>
</event>
<event>
 6    1  0.1528034E-005  0.6818537E+03  0.7818608E-02  0.9748778E-01
         -1   -1    0    0    0  501 -0.00000000000E+00  0.00000000000E+00  0.13352444394E+03  0.13352444394E+03  0.00000000000E+00 0.  1.
          1   -1    0    0  501    0  0.00000000000E+00 -0.00000000000E+00 -0.87048564468E+03  0.87048564468E+03  0.00000000000E+00 0. -1.
         23    2    1    2    0    0 -0.10956979949E+03  0.20482406601E+03 -0.14636254676E+02  0.24525336430E+03  0.77308174056E+02 0.  0.
         11    1    3    3    0    0 -0.38502699480E+02  0.14361588011E+03  0.75277762148E+01  0.14887795775E+03  0.00000000000E+00 0.  1.
        -11    1    3    3    0    0 -0.71067100006E+02  0.61208185895E+02 -0.22164030891E+02  0.96375406558E+02  0.00000000000E+00 0. -1.
         22    1    1    2    0    0  0.10956979949E+03 -0.20482406601E+03 -0.72232494606E+03  0.75875672431E+03  0.00000000000E+00 0. -1.
<mgrwt>
<rscale>  0 0.68185368E+03</rscale>
<asrwt>0</asrwt>
<pdfrwt beam="1">  1        1 0.13392087E+00 0.68185368E+03</pdfrwt>
<pdfrwt beam="2">  1       -1 0.20542223E-01 0.68185368E+03</pdfrwt>
<totfact> 0.38080620E+02</totfact>
</mgrwt>
</event>
<event>
 6    1  0.1528034E-005  0.2311334E+04  0.7818608E-02  0.8473466E-01
          1   -1    0    0  501    0  0.00000000000E+00  0.00000000000E+00  0.26151619731E+04  0.26151619731E+04  0.00000000000E+00 0. -1.
         -1   -1    0    0    0  501 -0.00000000000E+00 -0.00000000000E+00 -0.51070114949E+03  0.51070114949E+03  0.00000000000E+00 0.  1.
         23    2    1    2    0    0 -0.89784175594E+02 -0.85547975989E+03  0.13719796050E+02  0.86508784360E+03  0.91005090926E+02 0.  0.
         13    1    3    3    0    0 -0.93227010054E+02 -0.57277027028E+03  0.36406712544E+02  0.58144862768E+03  0.00000000000E+00 0.  1.
        -13    1    3    3    0    0  0.34428344600E+01 -0.28270948962E+03 -0.22686916494E+02  0.28363921592E+03  0.00000000000E+00 0. -1.
         22    1    1    2    0    0  0.89784175594E+02  0.85547975989E+03  0.20907410275E+04  0.22607752789E+04  0.00000000000E+00 0. -1.
<mgrwt>
<rscale>  0 0.23113340E+04</rscale>
<asrwt>0</asrwt>
<pdfrwt beam="1">  1        1 0.40233260E+00 0.23113340E+04</pdfrwt>
<pdfrwt beam="2">  1       -1 0.78569409E-01 0.23113340E+04</pdfrwt>
<totfact> 0.16480494E+00</totfact>
</mgrwt>
</event>
<event>
 6    1  0.1528034E-005  0.2589750E+04  0.7818608E-02  0.8371691E-01
         -1   -1    0    0    0  501 -0.00000000000E+00  0.00000000000E+00  0.87117206410E+03  0.87117206410E+03  0.00000000000E+00 0.  1.
          1   -1    0    0  501    0  0.00000000000E+00 -0.00000000000E+00 -0.19246505695E+04  0.19246505695E+04  0.00000000000E+00 0. -1.
         23    2    1    2    0    0  0.11514240123E+04 -0.37695145546E+03 -0.10159027686E+04  0.15836833710E+04  0.90138385293E+02 0.  0.
         13    1    3    3    0    0  0.80168623234E+03 -0.23283186188E+03 -0.65834442638E+03  0.10631692597E+04  0.00000000000E+00 0. -1.
        -13    1    3    3    0    0  0.34973777996E+03 -0.14411959358E+03 -0.35755834219E+03  0.52051411130E+03  0.00000000000E+00 0.  1.
         22    1    1    2    0    0 -0.11514240123E+04  0.37695145546E+03 -0.37575736808E+02  0.12121392626E+04  0.00000000000E+00 0.  1.
<mgrwt>
<rscale>  0 0.25897504E+04</rscale>
<asrwt>0</asrwt>
<pdfrwt beam="1">  1        1 0.29610009E+00 0.25897504E+04</pdfrwt>
<pdfrwt beam="2">  1       -1 0.13402647E+00 0.25897504E+04</pdfrwt>
<totfact> 0.13866418E+00</totfact>
</mgrwt>
</event>
<event>
 6    1  0.1528034E-005  0.1410194E+04  0.7818608E-02  0.8946473E-01
         -2   -1    0    0    0  501 -0.00000000000E+00  0.00000000000E+00  0.48719137662E+03  0.48719137662E+03  0.00000000000E+00 0.  1.
          2   -1    0    0  501    0  0.00000000000E+00 -0.00000000000E+00 -0.10204647162E+04  0.10204647162E+04  0.00000000000E+00 0. -1.
         23    2    1    2    0    0  0.12881298806E+02  0.30731563450E+03  0.40713591582E+03  0.51822272229E+03  0.90478223247E+02 0.  0.
         11    1    3    3    0    0 -0.11033925726E+02  0.17111332155E+03  0.15740807430E+03  0.23276343824E+03  0.00000000000E+00 0. -1.
        -11    1    3    3    0    0  0.23915224532E+02  0.13620231294E+03  0.24972784152E+03  0.28545928405E+03  0.00000000000E+00 0.  1.
         22    1    1    2    0    0 -0.12881298806E+02 -0.30731563450E+03 -0.94040925541E+03  0.98943337053E+03  0.00000000000E+00 0. -1.
<mgrwt>
<rscale>  0 0.14101938E+04</rscale>
<asrwt>0</asrwt>
<pdfrwt beam="1">  1        2 0.15699457E+00 0.14101938E+04</pdfrwt>
<pdfrwt beam="2">  1       -2 0.74952519E-01 0.14101938E+04</pdfrwt>
<totfact> 0.38017866E+01</totfact>
</mgrwt>
</event>
<event>
 6    1  0.1528034E-005  0.1045235E+04  0.7818608E-02  0.9260277E-01
         -1   -1    0    0    0  501 -0.00000000000E+00  0.00000000000E+00  0.58119312105E+03  0.58119312105E+03  0.00000000000E+00 0.  1.
          1   -1    0    0  501    0  0.00000000000E+00 -0.00000000000E+00 -0.46994578246E+03  0.46994578246E+03  0.00000000000E+00 0. -1.
         23    2    1    2    0    0  0.34609060699E+03 -0.25355006968E+03 -0.23688795431E+03  0.49863141193E+03  0.91929516422E+02 0.  0.
         11    1    3    3    0    0  0.17680511504E+03 -0.18347484935E+03 -0.12334031369E+03  0.28308285365E+03  0.00000000000E+00 0. -1.
        -11    1    3    3    0    0  0.16928549195E+03 -0.70075220328E+02 -0.11354764062E+03  0.21554855829E+03  0.00000000000E+00 0.  1.
         22    1    1    2    0    0 -0.34609060699E+03  0.25355006968E+03  0.34813529291E+03  0.55250749157E+03  0.00000000000E+00 0.  1.
<mgrwt>
<rscale>  0 0.10452354E+04</rscale>
<asrwt>0</asrwt>
<pdfrwt beam="1">  1        1 0.72299351E-01 0.10452354E+04</pdfrwt>
<pdfrwt beam="2">  1       -1 0.89414327E-01 0.10452354E+04</pdfrwt>
<totfact> 0.59182629E+01</totfact>
</mgrwt>
</event>
<event>
 6    1  0.1528034E-005  0.1644642E+04  0.7818608E-02  0.8793583E-01
          1   -1    0    0  501    0  0.00000000000E+00  0.00000000000E+00  0.13712036270E+04  0.13712036270E+04  0.00000000000E+00 0. -1.
         -1   -1    0    0    0  501 -0.00000000000E+00 -0.00000000000E+00 -0.49315199388E+03  0.49315199388E+03  0.00000000000E+00 0.  1.
         23    2    1    2    0    0 -0.91458185406E+02  0.56987634331E+03  0.11006823741E+04  0.12457377314E+04  0.85071501668E+02 0.  0.
         11    1    3    3    0    0 -0.92375803603E+02  0.35348105890E+03  0.73578747413E+03  0.82150188994E+03  0.00000000000E+00 0. -1.
        -11    1    3    3    0    0  0.91761819719E+00  0.21639528442E+03  0.36489489994E+03  0.42423584142E+03  0.00000000000E+00 0.  1.
         22    1    1    2    0    0  0.91458185406E+02 -0.56987634331E+03 -0.22263074100E+03  0.61861788948E+03  0.00000000000E+00 0. -1.
<mgrwt>
<rscale>  0 0.16446420E+04</rscale>
<asrwt>0</asrwt>
<pdfrwt beam="1">  1        1 0.21095440E+00 0.16446420E+04</pdfrwt>
<pdfrwt beam="2">  1       -1 0.75869538E-01 0.16446420E+04</pdfrwt>
<totfact> 0.13431334E+01</totfact>
</mgrwt>
</event>
<event>
 6    1  0.1528034E-005  0.2455226E+04  0.7818608E-02  0.8419112E-01
         -2   -1    0    0    0  501 -0.00000000000E+00  0.00000000000E+00  0.12754247786E+04  0.12754247786E+04  0.00000000000E+00 0.  1.
          2   -1    0    0  501    0  0.00000000000E+00 -0.00000000000E+00 -0.11815934894E+04  0.11815934894E+04  0.00000000000E+00 0. -1.
         23    2    1    2    0    0 -0.59022681190E+03  0.28766268358E+03  0.10829541583E+04  0.12698023823E+04  0.92145929208E+02 0.  0.
         13    1    3    3    0    0 -0.15176869192E+03  0.37799800370E+02  0.21630668041E+03  0.26692909310E+03  0.00000000000E+00 0.  1.
        -13    1    3    3    0    0 -0.43845811998E+03  0.24986288321E+03  0.86664747784E+03  0.10028732892E+04  0.00000000000E+00 0. -1.
         22    1    1    2    0    0  0.59022681190E+03 -0.28766268358E+03 -0.98912286907E+03  0.11872158856E+04  0.00000000000E+00 0. -1.
<mgrwt>
<rscale>  0 0.24552259E+04</rscale>
<asrwt>0</asrwt>
<pdfrwt beam="1">  1        2 0.18178361E+00 0.24552259E+04</pdfrwt>
<pdfrwt beam="2">  1       -2 0.19621920E+00 0.24552259E+04</pdfrwt>
<totfact> 0.24498646E+00</totfact>
</mgrwt>
</event>
<event>
 6    1  0.1528034E-005  0.2471235E+04  0.7818608E-02  0.8413305E-01
          1   -1    0    0  501    0  0.00000000000E+00  0.00000000000E+00  0.27932383885E+04  0.27932383885E+04  0.00000000000E+00 0. -1.
         -1   -1    0    0    0  501 -0.00000000000E+00 -0.00000000000E+00 -0.54658820228E+03  0.54658820228E+03  0.00000000000E+00 0.  1.
         23    2    1    2    0    0 -0.80232487444E+03  0.66467346514E+03  0.23167479207E+03  0.10714258637E+04  0.93617054090E+02 0.  0.
         13    1    3    3    0    0 -0.25609094857E+03  0.26429902875E+03  0.10174075450E+03  0.38182159664E+03  0.00000000000E+00 0. -1.
        -13    1    3    3    0    0 -0.54623392587E+03  0.40037443639E+03  0.12993403757E+03  0.68960426711E+03  0.00000000000E+00 0.  1.
         22    1    1    2    0    0  0.80232487444E+03 -0.66467346514E+03  0.20149753942E+04  0.22684007271E+04  0.00000000000E+00 0. -1.
<mgrwt>
<rscale>  0 0.24712354E+04</rscale>
<asrwt>0</asrwt>
<pdfrwt beam="1">  1        1 0.42972898E+00 0.24712354E+04</pdfrwt>
<pdfrwt beam="2">  1       -1 0.84090494E-01 0.24712354E+04</pdfrwt>
<totfact> 0.10516195E+00</totfact>
</mgrwt>
</event>
<event>
 6    1  0.1528034E-005  0.1350340E+04  0.7818608E-02  0.8990571E-01
         -1   -1    0    0    0  501 -0.00000000000E+00  0.00000000000E+00  0.67827718293E+03  0.67827718293E+03  0.00000000000E+00 0.  1.
          1   -1    0    0  501    0  0.00000000000E+00 -0.00000000000E+00 -0.67207678109E+03  0.67207678109E+03  0.00000000000E+00 0. -1.
         23    2    1    2    0    0  0.22738009589E+03  0.21949644809E+02 -0.62894046726E+03  0.67538180272E+03  0.91602255294E+02 0.  0.
         11    1    3    3    0    0  0.10300092448E+03 -0.35258539828E+02 -0.29646513959E+03  0.31582263071E+03  0.00000000000E+00 0.  1.
        -11    1    3    3    0    0  0.12437917141E+03  0.57208184637E+02 -0.33247532767E+03  0.35955917201E+03  0.00000000000E+00 0. -1.
         22    1    1    2    0    0 -0.22738009589E+03 -0.21949644809E+02  0.63514086910E+03  0.67497216129E+03  0.00000000000E+00 0.  1.
<mgrwt>
<rscale>  0 0.13503397E+04</rscale>
<asrwt>0</asrwt>
<pdfrwt beam="1">  1        1 0.10339643E+00 0.13503397E+04</pdfrwt>
<pdfrwt beam="2">  1       -1 0.10435034E+00 0.13503397E+04</pdfrwt>
<totfact> 0.24508100E+01</totfact>
</mgrwt>
</event>
<event>
 6    1  0.1528034E-005  0.6283843E+03  0.7818608E-02  0.9848207E-01
         -1   -1    0    0    0  501 -0.00000000000E+00  0.00000000000E+00  0.25728275902E+03  0.25728275902E+03  0.00000000000E+00 0.  1.
          1   -1    0    0  501    0  0.00000000000E+00 -0.00000000000E+00 -0.38368953165E+03  0.38368953165E+03  0.00000000000E+00 0. -1.
         23    2    1    2    0    0  0.15909475639E+03  0.10643904445E+03  0.18071584245E+03  0.27908182051E+03  0.92671652247E+02 0.  0.
         11    1    3    3    0    0  0.34724895760E+02  0.13532349649E+02  0.94328787568E+02  0.10142417383E+03  0.00000000000E+00 0.  1.
        -11    1    3    3    0    0  0.12436986063E+03  0.92906694805E+02  0.86387054885E+02  0.17765764668E+03  0.00000000000E+00 0. -1.
         22    1    1    2    0    0 -0.15909475639E+03 -0.10643904445E+03 -0.30712261508E+03  0.36189047016E+03  0.00000000000E+00 0. -1.
<mgrwt>
<rscale>  0 0.62838428E+03</rscale>
<asrwt>0</asrwt>
<pdfrwt beam="1">  1        1 0.59029158E-01 0.62838428E+03</pdfrwt>
<pdfrwt beam="2">  1       -1 0.39581963E-01 0.62838428E+03</pdfrwt>
<totfact> 0.39866265E+02</totfact>
</mgrwt>
</event>
<event>
 6    1  0.1528034E-005  0.2532613E+04  0.7818608E-02  0.8391458E-01
         -1   -1    0    0    0  501 -0.00000000000E+00  0.00000000000E+00  0.45923099351E+03  0.45923099351E+03  0.00000000000E+00 0.  1.
          1   -1    0    0  501    0  0.00000000000E+00 -0.00000000000E+00 -0.34917777780E+04  0.34917777780E+04  0.00000000000E+00 0. -1.
         23    2    1    2    0    0  0.61686417688E+02 -0.68613330962E+03  0.13642577518E+03  0.70802076403E+03  0.89984873560E+02 0.  0.
         13    1    3    3    0    0  0.17410025826E+02 -0.37229815219E+03  0.30950440840E+02  0.37398790476E+03  0.00000000000E+00 0.  1.
        -13    1    3    3    0    0  0.44276391862E+02 -0.31383515744E+03  0.10547533434E+03  0.33403285927E+03  0.00000000000E+00 0. -1.
         22    1    1    2    0    0 -0.61686417688E+02  0.68613330962E+03 -0.31689725597E+04  0.32429880075E+04  0.00000000000E+00 0. -1.
<mgrwt>
<rscale>  0 0.25326133E+04</rscale>
<asrwt>0</asrwt>
<pdfrwt beam="1">  1        1 0.53719660E+00 0.25326133E+04</pdfrwt>
<pdfrwt beam="2">  1       -1 0.70650920E-01 0.25326133E+04</pdfrwt>
<totfact> 0.45521168E-01</totfact>
</mgrwt>
</event>
<event>
 6    1  0.1528034E-005  0.2545735E+04  0.7818608E-02  0.8386871E-01
         -2   -1    0    0    0  501 -0.00000000000E+00  0.00000000000E+00  0.11114613912E+04  0.11114613912E+04  0.00000000000E+00 0. -1.
          2   -1    0    0  501    0  0.00000000000E+00 -0.00000000000E+00 -0.14577125090E+04  0.14577125090E+04  0.00000000000E+00 0.  1.
         23    2    1    2    0    0  0.38331209681E+03 -0.11870742286E+04  0.73205427592E+02  0.12531126626E+04  0.94121850772E+02 0.  0.
         11    1    3    3    0    0  0.35150391714E+03 -0.10631753999E+04  0.37914715278E+02  0.11204170921E+04  0.00000000000E+00 0.  1.
        -11    1    3    3    0    0  0.31808179677E+02 -0.12389882867E+03  0.35290712314E+02  0.13269557045E+03  0.00000000000E+00 0. -1.
         22    1    1    2    0    0 -0.38331209681E+03  0.11870742286E+04 -0.41945654539E+03  0.13160612376E+04  0.00000000000E+00 0.  1.
<mgrwt>
<rscale>  0 0.25457346E+04</rscale>
<asrwt>0</asrwt>
<pdfrwt beam="1">  1        2 0.22426346E+00 0.25457346E+04</pdfrwt>
<pdfrwt beam="2">  1       -2 0.17099406E+00 0.25457346E+04</pdfrwt>
<totfact> 0.24996295E+00</totfact>
</mgrwt>
</event>
<event>
 6    1  0.1528034E-005  0.1045741E+04  0.7818608E-02  0.9259752E-01
         -1   -1    0    0    0  501 -0.00000000000E+00  0.00000000000E+00  0.19543978220E+03  0.19543978220E+03  0.00000000000E+00 0.  1.
          1   -1    0    0  501    0  0.00000000000E+00 -0.00000000000E+00 -0.13988638270E+04  0.13988638270E+04  0.00000000000E+00 0. -1.
         23    2    1    2    0    0 -0.25240722061E+03  0.12024343706E+02  0.85956037039E+02  0.28039532272E+03  0.85901727820E+02 0.  0.
         11    1    3    3    0    0 -0.19544999916E+02 -0.24312231747E+02  0.11173521211E+02  0.33135165768E+02  0.00000000000E+00 0.  1.
        -11    1    3    3    0    0 -0.23286222069E+03  0.36336575454E+02  0.74782515828E+02  0.24726015695E+03  0.00000000000E+00 0. -1.
         22    1    1    2    0    0  0.25240722061E+03 -0.12024343706E+02 -0.12893800818E+04  0.13139082865E+04  0.00000000000E+00 0. -1.
<mgrwt>
<rscale>  0 0.10457412E+04</rscale>
<asrwt>0</asrwt>
<pdfrwt beam="1">  1        1 0.21520982E+00 0.10457412E+04</pdfrwt>
<pdfrwt beam="2">  1       -1 0.30067658E-01 0.10457412E+04</pdfrwt>
<totfact> 0.78175665E+01</totfact>
</mgrwt>
</event>
<event>
 6    1  0.1528034E-005  0.3067844E+04  0.7818608E-02  0.8224619E-01
          2   -1    0    0  501    0  0.00000000000E+00  0.00000000000E+00  0.31877469904E+04  0.31877469904E+04  0.00000000000E+00 0. -1.
         -2   -1    0    0    0  501 -0.00000000000E+00 -0.00000000000E+00 -0.73811266309E+03  0.73811266309E+03  0.00000000000E+00 0.  1.
         23    2    1    2    0    0 -0.80251955110E+03 -0.11349581179E+04  0.20518329967E+04  0.24800334337E+04  0.91540299422E+02 0.  0.
         13    1    3    3    0    0 -0.29028060839E+03 -0.48008686755E+03  0.86260717367E+03  0.10289982352E+04  0.00000000000E+00 0. -1.
        -13    1    3    3    0    0 -0.51223894271E+03 -0.65487125038E+03  0.11892258230E+04  0.14510351985E+04  0.00000000000E+00 0.  1.
         22    1    1    2    0    0  0.80251955110E+03  0.11349581179E+04  0.39780133063E+03  0.14458262198E+04  0.00000000000E+00 0.  1.
<mgrwt>
<rscale>  0 0.30678438E+04</rscale>
<asrwt>0</asrwt>
<pdfrwt beam="1">  1        2 0.49042261E+00 0.30678438E+04</pdfrwt>
<pdfrwt beam="2">  1       -2 0.11355580E+00 0.30678438E+04</pdfrwt>
<totfact> 0.68322007E-01</totfact>
</mgrwt>
</event>
<event>
 6    1  0.1528034E-005  0.2794755E+04  0.7818608E-02  0.8304899E-01
         -2   -1    0    0    0  501 -0.00000000000E+00  0.00000000000E+00  0.16299277225E+04  0.16299277225E+04  0.00000000000E+00 0. -1.
          2   -1    0    0  501    0  0.00000000000E+00 -0.00000000000E+00 -0.11980062082E+04  0.11980062082E+04  0.00000000000E+00 0.  1.
         23    2    1    2    0    0  0.12344808014E+03  0.75306380834E+03  0.13987492901E+04  0.15962276037E+04  0.95385840037E+02 0.  0.
         13    1    3    3    0    0  0.10931976880E+03  0.40144437253E+03  0.71536422673E+03  0.82755928668E+03  0.00000000000E+00 0. -1.
        -13    1    3    3    0    0  0.14128311337E+02  0.35161943581E+03  0.68338506335E+03  0.76866831704E+03  0.00000000000E+00 0.  1.
         22    1    1    2    0    0 -0.12344808014E+03 -0.75306380834E+03 -0.96682777578E+03  0.12317063270E+04  0.00000000000E+00 0.  1.
<mgrwt>
<rscale>  0 0.27947548E+04</rscale>
<asrwt>0</asrwt>
<pdfrwt beam="1">  1        2 0.18430865E+00 0.27947548E+04</pdfrwt>
<pdfrwt beam="2">  1       -2 0.25075811E+00 0.27947548E+04</pdfrwt>
<totfact> 0.10511250E+00</totfact>
</mgrwt>
</event>
<event>
 6    1  0.1661483E-005  0.2620134E+04  0.7818608E-02  0.8361394E-01
         -2   -1    0    0    0  501 -0.00000000000E+00  0.00000000000E+00  0.17971978109E+04  0.17971978109E+04  0.00000000000E+00 0.  1.
          2   -1    0    0  501    0  0.00000000000E+00 -0.00000000000E+00 -0.95497333686E+03  0.95497333686E+03  0.00000000000E+00 0. -1.
         23    2    1    2    0    0  0.84388804700E+03  0.10965544497E+03  0.14658149513E+04  0.16971657280E+04  0.87101574773E+02 0.  0.
         13    1    3    3    0    0  0.58146039164E+03  0.84388969846E+02  0.10871075353E+04  0.12357267006E+04  0.00000000000E+00 0.  1.
        -13    1    3    3    0    0  0.26242765537E+03  0.25266475122E+02  0.37870741602E+03  0.46143902741E+03  0.00000000000E+00 0. -1.
         22    1    1    2    0    0 -0.84388804700E+03 -0.10965544497E+03 -0.62359047724E+03  0.10550054198E+04  0.00000000000E+00 0. -1.
<mgrwt>
<rscale>  0 0.26201343E+04</rscale>
<asrwt>0</asrwt>
<pdfrwt beam="1">  1        2 0.14691898E+00 0.26201343E+04</pdfrwt>
<pdfrwt beam="2">  1       -2 0.27649197E+00 0.26201343E+04</pdfrwt>
<totfact> 0.10526940E+00</totfact>
</mgrwt>
</event>
<event>
 6    1  0.1528034E-005  0.1055563E+04  0.7818608E-02  0.9249619E-01
         -1   -1    0    0    0  501 -0.00000000000E+00  0.00000000000E+00  0.48850592215E+03  0.48850592215E+03  0.00000000000E+00 0.  1.
          1   -1    0    0  501    0  0.00000000000E+00 -0.00000000000E+00 -0.57021480823E+03  0.57021480823E+03  0.00000000000E+00 0. -1.
         23    2    1    2    0    0 -0.51446203152E+03 -0.64196253689E+02 -0.11552138188E+03  0.53916743597E+03  0.92541847175E+02 0.  0.
         11    1    3    3    0    0 -0.41791943971E+03 -0.34348827638E+02 -0.12528769014E+03  0.43764541052E+03  0.00000000000E+00 0.  1.
        -11    1    3    3    0    0 -0.96542591813E+02 -0.29847426051E+02  0.97663082583E+01  0.10152202546E+03  0.00000000000E+00 0. -1.
         22    1    1    2    0    0  0.51446203152E+03  0.64196253689E+02  0.33812495805E+02  0.51955329441E+03  0.00000000000E+00 0.  1.
<mgrwt>
<rscale>  0 0.10555630E+04</rscale>
<asrwt>0</asrwt>
<pdfrwt beam="1">  1        1 0.87725355E-01 0.10555630E+04</pdfrwt>
<pdfrwt beam="2">  1       -1 0.75154757E-01 0.10555630E+04</pdfrwt>
<totfact> 0.65588827E+01</totfact>
</mgrwt>
</event>
<event>
 6    1  0.1528034E-005  0.2656355E+04  0.7818608E-02  0.8349307E-01
          2   -1    0    0  501    0  0.00000000000E+00  0.00000000000E+00  0.35403703261E+04  0.35403703261E+04  0.00000000000E+00 0. -1.
         -2   -1    0    0    0  501 -0.00000000000E+00 -0.00000000000E+00 -0.49826867041E+03  0.49826867041E+03  0.00000000000E+00 0.  1.
         23    2    1    2    0    0 -0.11442473142E+04 -0.21458976030E+03  0.55583667676E+03  0.12933040030E+04  0.91269664677E+02 0.  0.
         11    1    3    3    0    0 -0.62791254207E+03 -0.72566500413E+02  0.29008448606E+03  0.69547758161E+03  0.00000000000E+00 0. -1.
        -11    1    3    3    0    0 -0.51633477210E+03 -0.14202325989E+03  0.26575219070E+03  0.59782642137E+03  0.00000000000E+00 0.  1.
         22    1    1    2    0    0  0.11442473142E+04  0.21458976030E+03  0.24862649790E+04  0.27453349935E+04  0.00000000000E+00 0. -1.
<mgrwt>
<rscale>  0 0.26563551E+04</rscale>
<asrwt>0</asrwt>
<pdfrwt beam="1">  1        2 0.54467234E+00 0.26563551E+04</pdfrwt>
<pdfrwt beam="2">  1       -2 0.76656721E-01 0.26563551E+04</pdfrwt>
<totfact> 0.10202592E+00</totfact>
</mgrwt>
</event>
<event>
 6    1  0.1528034E-005  0.2230202E+04  0.7818608E-02  0.8505962E-01
         -2   -1    0    0    0  501 -0.00000000000E+00  0.00000000000E+00  0.13261900340E+04  0.13261900340E+04  0.00000000000E+00 0.  1.
          2   -1    0    0  501    0  0.00000000000E+00 -0.00000000000E+00 -0.93761086495E+03  0.93761086495E+03  0.00000000000E+00 0. -1.
         23    2    1    2    0    0  0.44726106923E+03 -0.23410540416E+03  0.12017625327E+04  0.13066619398E+04  0.91018874793E+02 0.  0.
         11    1    3    3    0    0  0.30770817752E+02  0.71413169339E+01  0.78967007955E+02  0.85050749427E+02  0.00000000000E+00 0.  1.
        -11    1    3    3    0    0  0.41649025148E+03 -0.24124672109E+03  0.11227955248E+04  0.12216111904E+04  0.00000000000E+00 0. -1.
         22    1    1    2    0    0 -0.44726106923E+03  0.23410540416E+03 -0.81318336363E+03  0.95713895918E+03  0.00000000000E+00 0. -1.
<mgrwt>
<rscale>  0 0.22302020E+04</rscale>
<asrwt>0</asrwt>
<pdfrwt beam="1">  1        2 0.14424783E+00 0.22302020E+04</pdfrwt>
<pdfrwt beam="2">  1       -2 0.20402924E+00 0.22302020E+04</pdfrwt>
<totfact> 0.31565762E+00</totfact>
</mgrwt>
</event>
<event>
 6    1  0.1528034E-005  0.2902328E+04  0.7818608E-02  0.8272185E-01
          2   -1    0    0  501    0  0.00000000000E+00  0.00000000000E+00  0.12972660089E+04  0.12972660089E+04  0.00000000000E+00 0. -1.
         -2   -1    0    0    0  501 -0.00000000000E+00 -0.00000000000E+00 -0.16233191486E+04  0.16233191486E+04  0.00000000000E+00 0.  1.
         23    2    1    2    0    0 -0.56075086265E+03  0.91139687866E+03 -0.11473976914E+04  0.15716253090E+04  0.91645235446E+02 0.  0.
         13    1    3    3    0    0 -0.51484462933E+03  0.87120415328E+03 -0.10971654088E+04  0.14925929128E+04  0.00000000000E+00 0.  1.
        -13    1    3    3    0    0 -0.45906233322E+02  0.40192725377E+02 -0.50232282594E+02  0.79032396178E+02  0.00000000000E+00 0. -1.
         22    1    1    2    0    0  0.56075086265E+03 -0.91139687866E+03  0.82134455172E+03  0.13489598486E+04  0.00000000000E+00 0. -1.
<mgrwt>
<rscale>  0 0.29023279E+04</rscale>
<asrwt>0</asrwt>
<pdfrwt beam="1">  1        2 0.19957939E+00 0.29023279E+04</pdfrwt>
<pdfrwt beam="2">  1       -2 0.24974141E+00 0.29023279E+04</pdfrwt>
<totfact> 0.92344757E-01</totfact>
</mgrwt>
</event>
<event>
 6    1  0.1528034E-005  0.3816874E+04  0.7818608E-02  0.8042544E-01
         -2   -1    0    0    0  501 -0.00000000000E+00  0.00000000000E+00  0.16625629943E+04  0.16625629943E+04  0.00000000000E+00 0.  1.
          2   -1    0    0  501    0  0.00000000000E+00 -0.00000000000E+00 -0.21906725794E+04  0.21906725794E+04  0.00000000000E+00 0. -1.
         23    2    1    2    0    0  0.11202473944E+04  0.15052518319E+04  0.81352812432E+02  0.18803742719E+04  0.91933781197E+02 0.  0.
         13    1    3    3    0    0  0.93109824039E+03  0.12561474099E+04  0.10192276033E+03  0.15669200674E+04  0.00000000000E+00 0. -1.
        -13    1    3    3    0    0  0.18914915404E+03  0.24910442205E+03 -0.20569947894E+02  0.31345420450E+03  0.00000000000E+00 0.  1.
         22    1    1    2    0    0 -0.11202473944E+04 -0.15052518319E+04 -0.60946239751E+03  0.19728613018E+04  0.00000000000E+00 0.  1.
<mgrwt>
<rscale>  0 0.38168737E+04</rscale>
<asrwt>0</asrwt>
<pdfrwt beam="1">  1        2 0.33702655E+00 0.38168737E+04</pdfrwt>
<pdfrwt beam="2">  1       -2 0.25577892E+00 0.38168737E+04</pdfrwt>
<totfact> 0.24783744E-01</totfact>
</mgrwt>
</event>
<event>
 6    1  0.2007597E-005  0.3899336E+04  0.7818608E-02  0.8025167E-01
         -2   -1    0    0    0  501 -0.00000000000E+00  0.00000000000E+00  0.15634093548E+04  0.15634093548E+04  0.00000000000E+00 0.  1.
          2   -1    0    0  501    0  0.00000000000E+00 -0.00000000000E+00 -0.24313563162E+04  0.24313563162E+04  0.00000000000E+00 0. -1.
         23    2    1    2    0    0 -0.14055103509E+04  0.12912496694E+04 -0.31956562318E+02  0.19110994303E+04  0.92166998517E+02 0.  0.
         11    1    3    3    0    0 -0.46789920913E+03  0.45771121507E+03  0.27686682490E+02  0.65513035244E+03  0.00000000000E+00 0. -1.
        -11    1    3    3    0    0 -0.93761114177E+03  0.83353845430E+03 -0.59643244808E+02  0.12559690779E+04  0.00000000000E+00 0.  1.
         22    1    1    2    0    0  0.14055103509E+04 -0.12912496694E+04 -0.83599039904E+03  0.20836662406E+04  0.00000000000E+00 0. -1.
<mgrwt>
<rscale>  0 0.38993359E+04</rscale>
<asrwt>0</asrwt>
<pdfrwt beam="1">  1        2 0.37405482E+00 0.38993359E+04</pdfrwt>
<pdfrwt beam="2">  1       -2 0.24052452E+00 0.38993359E+04</pdfrwt>
<totfact> 0.22302559E-01</totfact>
</mgrwt>
</event>
<event>
 6    1  0.1528034E-005  0.2417994E+04  0.7818608E-02  0.8432798E-01
         -2   -1    0    0    0  501 -0.00000000000E+00  0.00000000000E+00  0.97283594819E+03  0.97283594819E+03  0.00000000000E+00 0.  1.
          2   -1    0    0  501    0  0.00000000000E+00 -0.00000000000E+00 -0.15024868633E+04  0.15024868633E+04  0.00000000000E+00 0. -1.
         23    2    1    2    0    0  0.11438408868E+04  0.12559468362E+03  0.10864569386E+03  0.11594320258E+04  0.91283824963E+02 0.  0.
         11    1    3    3    0    0  0.31614855750E+03  0.60462336817E+01  0.59119103181E+02  0.32168546083E+03  0.00000000000E+00 0. -1.
        -11    1    3    3    0    0  0.82769232933E+03  0.11954844994E+03  0.49526590681E+02  0.83774656495E+03  0.00000000000E+00 0.  1.
         22    1    1    2    0    0 -0.11438408868E+04 -0.12559468362E+03 -0.63829660901E+03  0.13158907857E+04  0.00000000000E+00 0. -1.
<mgrwt>
<rscale>  0 0.24179936E+04</rscale>
<asrwt>0</asrwt>
<pdfrwt beam="1">  1        2 0.23115182E+00 0.24179936E+04</pdfrwt>
<pdfrwt beam="2">  1       -2 0.14966707E+00 0.24179936E+04</pdfrwt>
<totfact> 0.34246736E+00</totfact>
</mgrwt>
</event>
<event>
 6    1  0.1528034E-005  0.9437383E+03  0.7818608E-02  0.9372500E-01
         -2   -1    0    0    0  501 -0.00000000000E+00  0.00000000000E+00  0.38908845133E+03  0.38908845133E+03  0.00000000000E+00 0.  1.
          2   -1    0    0  501    0  0.00000000000E+00 -0.00000000000E+00 -0.57226187727E+03  0.57226187727E+03  0.00000000000E+00 0. -1.
         23    2    1    2    0    0 -0.12204314097E+03  0.34194600526E+03  0.20767844395E+03  0.42788356959E+03  0.90179899467E+02 0.  0.
         13    1    3    3    0    0 -0.10613096648E+03  0.16765035293E+03  0.12303847838E+03  0.23347139021E+03  0.00000000000E+00 0. -1.
        -13    1    3    3    0    0 -0.15912174486E+02  0.17429565233E+03  0.84639965569E+02  0.19441217938E+03  0.00000000000E+00 0.  1.
         22    1    1    2    0    0  0.12204314097E+03 -0.34194600526E+03 -0.39085186990E+03  0.53346675902E+03  0.00000000000E+00 0. -1.
<mgrwt>
<rscale>  0 0.94373828E+03</rscale>
<asrwt>0</asrwt>
<pdfrwt beam="1">  1        2 0.88040289E-01 0.94373828E+03</pdfrwt>
<pdfrwt beam="2">  1       -2 0.59859762E-01 0.94373828E+03</pdfrwt>
<totfact> 0.13691763E+02</totfact>
</mgrwt>
</event>
<event>
 6    1  0.1528034E-005  0.2506150E+04  0.7818608E-02  0.8400798E-01
          2   -1    0    0  501    0  0.00000000000E+00  0.00000000000E+00  0.17813675266E+04  0.17813675266E+04  0.00000000000E+00 0. -1.
         -2   -1    0    0    0  501 -0.00000000000E+00 -0.00000000000E+00 -0.88145570251E+03  0.88145570251E+03  0.00000000000E+00 0.  1.
         23    2    1    2    0    0 -0.89594343877E+03 -0.56231324100E+03 -0.25991435958E+03  0.10930756052E+04  0.91367269118E+02 0.  0.
         13    1    3    3    0    0 -0.20035056159E+03 -0.90530657150E+02 -0.31513460134E+02  0.22210188108E+03  0.00000000000E+00 0.  1.
        -13    1    3    3    0    0 -0.69559287719E+03 -0.47178258385E+03 -0.22840089945E+03  0.87097372411E+03  0.00000000000E+00 0. -1.
         22    1    1    2    0    0  0.89594343877E+03  0.56231324100E+03  0.11598261837E+04  0.15697476240E+04  0.00000000000E+00 0. -1.
<mgrwt>
<rscale>  0 0.25061497E+04</rscale>
<asrwt>0</asrwt>
<pdfrwt beam="1">  1        2 0.27405654E+00 0.25061497E+04</pdfrwt>
<pdfrwt beam="2">  1       -2 0.13560857E+00 0.25061497E+04</pdfrwt>
<totfact> 0.30725607E+00</totfact>
</mgrwt>
</event>
<event>
 6    1  0.1528034E-005  0.1058423E+04  0.7818608E-02  0.9246691E-01
          2   -1    0    0  501    0  0.00000000000E+00  0.00000000000E+00  0.19131328104E+03  0.19131328104E+03  0.00000000000E+00 0. -1.
         -2   -1    0    0    0  501 -0.00000000000E+00 -0.00000000000E+00 -0.14639065370E+04  0.14639065370E+04  0.00000000000E+00 0.  1.
         23    2    1    2    0    0 -0.21116996702E+03 -0.40251717942E+03 -0.22904435427E+03  0.51697241745E+03  0.90478337089E+02 0.  0.
         13    1    3    3    0    0 -0.14508227848E+03 -0.26562612292E+03 -0.10365987213E+03  0.31992416882E+03  0.00000000000E+00 0. -1.
        -13    1    3    3    0    0 -0.66087688544E+02 -0.13689105650E+03 -0.12538448214E+03  0.19704824863E+03  0.00000000000E+00 0.  1.
         22    1    1    2    0    0  0.21116996702E+03  0.40251717942E+03 -0.10435489017E+04  0.11382474006E+04  0.00000000000E+00 0.  1.
<mgrwt>
<rscale>  0 0.10584229E+04</rscale>
<asrwt>0</asrwt>
<pdfrwt beam="1">  1        2 0.29432813E-01 0.10584229E+04</pdfrwt>
<pdfrwt beam="2">  1       -2 0.22521639E+00 0.10584229E+04</pdfrwt>
<totfact> 0.16633791E+01</totfact>
</mgrwt>
</event>
<event>
 6    1  0.1528034E-005  0.1289370E+04  0.7818608E-02  0.9038038E-01
          1   -1    0    0  501    0  0.00000000000E+00  0.00000000000E+00  0.14020733907E+04  0.14020733907E+04  0.00000000000E+00 0. -1.
         -1   -1    0    0    0  501 -0.00000000000E+00 -0.00000000000E+00 -0.29643147317E+03  0.29643147317E+03  0.00000000000E+00 0.  1.
         23    2    1    2    0    0 -0.69181454112E+02 -0.63659379973E+03  0.50355011687E+03  0.81955533410E+03  0.89835883743E+02 0.  0.
         11    1    3    3    0    0 -0.18686684722E+02 -0.20464249278E+03  0.21635227761E+03  0.29838909173E+03  0.00000000000E+00 0. -1.
        -11    1    3    3    0    0 -0.50494769390E+02 -0.43195130695E+03  0.28719783926E+03  0.52116624237E+03  0.00000000000E+00 0.  1.
         22    1    1    2    0    0  0.69181454112E+02  0.63659379973E+03  0.60209180061E+03  0.87894952973E+03  0.00000000000E+00 0.  1.
<mgrwt>
<rscale>  0 0.12893699E+04</rscale>
<asrwt>0</asrwt>
<pdfrwt beam="1">  1        1 0.21570359E+00 0.12893699E+04</pdfrwt>
<pdfrwt beam="2">  1       -1 0.45604843E-01 0.12893699E+04</pdfrwt>
<totfact> 0.35955400E+01</totfact>
</mgrwt>
</event>
<event>
 6    1  0.1528034E-005  0.6279597E+04  0.7818608E-02  0.7656670E-01
          1   -1    0    0  501    0  0.00000000000E+00  0.00000000000E+00  0.33100724108E+04  0.33100724108E+04  0.00000000000E+00 0. -1.
         -1   -1    0    0    0  501 -0.00000000000E+00 -0.00000000000E+00 -0.29782839920E+04  0.29782839920E+04  0.00000000000E+00 0.  1.
         23    2    1    2    0    0  0.25749946318E+04  0.17581905924E+04 -0.19845101423E+03  0.31256067495E+04  0.90571710654E+02 0.  0.
         11    1    3    3    0    0  0.13697089880E+04  0.89034178959E+03 -0.77971719051E+02  0.16355093406E+04  0.00000000000E+00 0.  1.
        -11    1    3    3    0    0  0.12052856437E+04  0.86784880285E+03 -0.12047929517E+03  0.14900974089E+04  0.00000000000E+00 0. -1.
         22    1    1    2    0    0 -0.25749946318E+04 -0.17581905924E+04  0.53023943304E+03  0.31627496533E+04  0.00000000000E+00 0.  1.
<mgrwt>
<rscale>  0 0.62795973E+04</rscale>
<asrwt>0</asrwt>
<pdfrwt beam="1">  1        1 0.50924191E+00 0.62795973E+04</pdfrwt>
<pdfrwt beam="2">  1       -1 0.45819754E+00 0.62795973E+04</pdfrwt>
<totfact> 0.65518641E-04</totfact>
</mgrwt>
</event>
<event>
 6    1  0.1528034E-005  0.4515119E+04  0.7818608E-02  0.7907995E-01
         -2   -1    0    0    0  501 -0.00000000000E+00  0.00000000000E+00  0.18032645432E+04  0.18032645432E+04  0.00000000000E+00 0.  1.
          2   -1    0    0  501    0  0.00000000000E+00 -0.00000000000E+00 -0.28263044835E+04  0.28263044835E+04  0.00000000000E+00 0. -1.
         23    2    1    2    0    0  0.12001962062E+04 -0.10897875387E+03  0.14444800984E+04  0.18834804551E+04  0.92890086031E+02 0.  0.
         11    1    3    3    0    0  0.84501793341E+03 -0.67314939065E+02  0.10787774010E+04  0.13719866215E+04  0.00000000000E+00 0.  1.
        -11    1    3    3    0    0  0.35517827275E+03 -0.41663814803E+02  0.36570269740E+03  0.51149383357E+03  0.00000000000E+00 0. -1.
         22    1    1    2    0    0 -0.12001962062E+04  0.10897875387E+03 -0.24675200387E+04  0.27460885716E+04  0.00000000000E+00 0. -1.
<mgrwt>
<rscale>  0 0.45151189E+04</rscale>
<asrwt>0</asrwt>
<pdfrwt beam="1">  1        2 0.43481608E+00 0.45151189E+04</pdfrwt>
<pdfrwt beam="2">  1       -2 0.27742531E+00 0.45151189E+04</pdfrwt>
<totfact> 0.73634456E-02</totfact>
</mgrwt>
</event>
<event>
 6    1  0.1528034E-005  0.1787751E+04  0.7818608E-02  0.8712841E-01
          2   -1    0    0  501    0  0.00000000000E+00  0.00000000000E+00  0.24217721626E+04  0.24217721626E+04  0.00000000000E+00 0. -1.
         -2   -1    0    0    0  501 -0.00000000000E+00 -0.00000000000E+00 -0.32992911917E+03  0.32992911917E+03  0.00000000000E+00 0.  1.
         23    2    1    2    0    0  0.25785854308E+03  0.85300584071E+03  0.10075688239E+04  0.13482196910E+04  0.91604627379E+02 0.  0.
         11    1    3    3    0    0  0.88540092349E+02  0.38359206676E+03  0.50065950733E+03  0.63690043486E+03  0.00000000000E+00 0. -1.
        -11    1    3    3    0    0  0.16931845073E+03  0.46941377395E+03  0.50690931662E+03  0.71131925617E+03  0.00000000000E+00 0.  1.
         22    1    1    2    0    0 -0.25785854308E+03 -0.85300584071E+03  0.10842742195E+04  0.14034815908E+04  0.00000000000E+00 0. -1.
<mgrwt>
<rscale>  0 0.17877507E+04</rscale>
<asrwt>0</asrwt>
<pdfrwt beam="1">  1        2 0.37258032E+00 0.17877507E+04</pdfrwt>
<pdfrwt beam="2">  1       -2 0.50758328E-01 0.17877507E+04</pdfrwt>
<totfact> 0.13406963E+01</totfact>
</mgrwt>
</event>
<event>
 6    1  0.1528034E-005  0.3054622E+04  0.7818608E-02  0.8228303E-01
         -2   -1    0    0    0  501 -0.00000000000E+00  0.00000000000E+00  0.74082981374E+03  0.74082981374E+03  0.00000000000E+00 0.  1.
          2   -1    0    0  501    0  0.00000000000E+00 -0.00000000000E+00 -0.31487381756E+04  0.31487381756E+04  0.00000000000E+00 0. -1.
         23    2    1    2    0    0  0.48807736959E+02 -0.10650225090E+04 -0.25951666637E+04  0.28071074535E+04  0.91143313716E+02 0.  0.
         13    1    3    3    0    0  0.65664992100E+02 -0.54214271889E+03 -0.12720807838E+04  0.13843482724E+04  0.00000000000E+00 0. -1.
        -13    1    3    3    0    0 -0.16857255142E+02 -0.52287979011E+03 -0.13230858799E+04  0.14227591812E+04  0.00000000000E+00 0.  1.
         22    1    1    2    0    0 -0.48807736959E+02  0.10650225090E+04  0.18725830184E+03  0.10824605358E+04  0.00000000000E+00 0.  1.
<mgrwt>
<rscale>  0 0.30546221E+04</rscale>
<asrwt>0</asrwt>
<pdfrwt beam="1">  1        2 0.48442126E+00 0.30546221E+04</pdfrwt>
<pdfrwt beam="2">  1       -2 0.11397382E+00 0.30546221E+04</pdfrwt>
<totfact> 0.71856552E-01</totfact>
</mgrwt>
</event>
<event>
 6    1  0.1528034E-005  0.2404579E+04  0.7818608E-02  0.8437791E-01
         -2   -1    0    0    0  501 -0.00000000000E+00  0.00000000000E+00  0.15415499738E+04  0.15415499738E+04  0.00000000000E+00 0.  1.
          2   -1    0    0  501    0  0.00000000000E+00 -0.00000000000E+00 -0.93769284693E+03  0.93769284693E+03  0.00000000000E+00 0. -1.
         23    2    1    2    0    0  0.21373754504E+03  0.63707887610E+03  0.13281453960E+04  0.14912414395E+04  0.90981346030E+02 0.  0.
         11    1    3    3    0    0  0.15203193933E+03  0.33622490356E+03  0.66763031313E+03  0.76281788873E+03  0.00000000000E+00 0. -1.
        -11    1    3    3    0    0  0.61705605706E+02  0.30085397254E+03  0.66051508291E+03  0.72842355077E+03  0.00000000000E+00 0.  1.
         22    1    1    2    0    0 -0.21373754504E+03 -0.63707887610E+03 -0.72428826915E+03  0.98800138125E+03  0.00000000000E+00 0. -1.
<mgrwt>
<rscale>  0 0.24045793E+04</rscale>
<asrwt>0</asrwt>
<pdfrwt beam="1">  1        2 0.14426044E+00 0.24045793E+04</pdfrwt>
<pdfrwt beam="2">  1       -2 0.23716153E+00 0.24045793E+04</pdfrwt>
<totfact> 0.19178776E+00</totfact>
</mgrwt>
</event>
<event>
 6    1  0.1528034E-005  0.1984589E+04  0.7818608E-02  0.8613860E-01
          1   -1    0    0  501    0  0.00000000000E+00  0.00000000000E+00  0.98497199259E+03  0.98497199259E+03  0.00000000000E+00 0. -1.
         -1   -1    0    0    0  501 -0.00000000000E+00 -0.00000000000E+00 -0.99967115992E+03  0.99967115992E+03  0.00000000000E+00 0.  1.
         23    2    1    2    0    0  0.74461848408E+03 -0.24976640742E+03  0.59622964206E+03  0.98961855218E+03  0.83756478234E+02 0.  0.
         11    1    3    3    0    0  0.25415706075E+03 -0.10355675050E+03  0.25401027285E+03  0.37395324683E+03  0.00000000000E+00 0.  1.
        -11    1    3    3    0    0  0.49046142332E+03 -0.14620965692E+03  0.34221936921E+03  0.61566530535E+03  0.00000000000E+00 0. -1.
         22    1    1    2    0    0 -0.74461848408E+03  0.24976640742E+03 -0.61092880939E+03  0.99502460032E+03  0.00000000000E+00 0.  1.
<mgrwt>
<rscale>  0 0.19845887E+04</rscale>
<asrwt>0</asrwt>
<pdfrwt beam="1">  1        1 0.15153415E+00 0.19845887E+04</pdfrwt>
<pdfrwt beam="2">  1       -1 0.15379556E+00 0.19845887E+04</pdfrwt>
<totfact> 0.47086042E+00</totfact>
</mgrwt>
</event>
<event>
 6    1  0.1528034E-005  0.1471087E+04  0.7818608E-02  0.8903911E-01
         -2   -1    0    0    0  501 -0.00000000000E+00  0.00000000000E+00  0.42108247407E+03  0.42108247407E+03  0.00000000000E+00 0. -1.
          2   -1    0    0  501    0  0.00000000000E+00 -0.00000000000E+00 -0.12848415479E+04  0.12848415479E+04  0.00000000000E+00 0.  1.
         23    2    1    2    0    0  0.52994355216E+03 -0.81109173443E+02 -0.10127480835E+04  0.11494920033E+04  0.90853279481E+02 0.  0.
         11    1    3    3    0    0  0.35884954184E+02 -0.14155519639E+02 -0.13084059326E+03  0.13640883226E+03  0.00000000000E+00 0.  1.
        -11    1    3    3    0    0  0.49405859798E+03 -0.66953653805E+02 -0.88190749024E+03  0.10130831710E+04  0.00000000000E+00 0. -1.
         22    1    1    2    0    0 -0.52994355216E+03  0.81109173443E+02  0.14898900965E+03  0.55643201875E+03  0.00000000000E+00 0. -1.
<mgrwt>
<rscale>  0 0.14710870E+04</rscale>
<asrwt>0</asrwt>
<pdfrwt beam="1">  1        2 0.19766793E+00 0.14710870E+04</pdfrwt>
<pdfrwt beam="2">  1       -2 0.64781920E-01 0.14710870E+04</pdfrwt>
<totfact> 0.35924819E+01</totfact>
</mgrwt>
</event>
<event>
 6    1  0.1528034E-005  0.2109533E+04  0.7818608E-02  0.8557056E-01
          1   -1    0    0  501    0  0.00000000000E+00  0.00000000000E+00  0.12227998087E+04  0.12227998087E+04  0.00000000000E+00 0. -1.
         -1   -1    0    0    0  501 -0.00000000000E+00 -0.00000000000E+00 -0.90982344130E+03  0.90982344130E+03  0.00000000000E+00 0.  1.
         23    2    1    2    0    0  0.19331176714E+03  0.35233024371E+03 -0.82694489481E+03  0.92393531510E+03  0.91173282749E+02 0.  0.
         11    1    3    3    0    0  0.11860661241E+03  0.26800529196E+03 -0.66437366081E+03  0.72614511374E+03  0.00000000000E+00 0. -1.
        -11    1    3    3    0    0  0.74705154726E+02  0.84324951756E+02 -0.16257123400E+03  0.19779020137E+03  0.00000000000E+00 0.  1.
         22    1    1    2    0    0 -0.19331176714E+03 -0.35233024371E+03  0.11399212622E+04  0.12086879349E+04  0.00000000000E+00 0. -1.
<mgrwt>
<rscale>  0 0.21095326E+04</rscale>
<asrwt>0</asrwt>
<pdfrwt beam="1">  1        1 0.18812305E+00 0.21095326E+04</pdfrwt>
<pdfrwt beam="2">  1       -1 0.13997284E+00 0.21095326E+04</pdfrwt>
<totfact> 0.39634043E+00</totfact>
</mgrwt>
</event>
<event>
 6    1  0.1528034E-005  0.2611843E+04  0.7818608E-02  0.8364190E-01
          2   -1    0    0  501    0  0.00000000000E+00  0.00000000000E+00  0.18769585426E+04  0.18769585426E+04  0.00000000000E+00 0. -1.
         -2   -1    0    0    0  501 -0.00000000000E+00 -0.00000000000E+00 -0.90861404121E+03  0.90861404121E+03  0.00000000000E+00 0.  1.
         23    2    1    2    0    0 -0.37764959700E+03  0.12018750626E+04  0.12205101697E+03  0.12678981965E+04  0.74474840241E+02 0.  0.
         11    1    3    3    0    0 -0.22437663541E+03  0.66450094545E+03  0.10194936883E+03  0.70873129945E+03  0.00000000000E+00 0.  1.
        -11    1    3    3    0    0 -0.15327296159E+03  0.53737411712E+03  0.20101648142E+02  0.55916689705E+03  0.00000000000E+00 0. -1.
         22    1    1    2    0    0  0.37764959700E+03 -0.12018750626E+04  0.84629348446E+03  0.15176743873E+04  0.00000000000E+00 0. -1.
<mgrwt>
<rscale>  0 0.26118429E+04</rscale>
<asrwt>0</asrwt>
<pdfrwt beam="1">  1        2 0.28876285E+00 0.26118429E+04</pdfrwt>
<pdfrwt beam="2">  1       -2 0.13978678E+00 0.26118429E+04</pdfrwt>
<totfact> 0.24922369E+00</totfact>
</mgrwt>
</event>
<event>
 6    1  0.1528034E-005  0.5267447E+04  0.7818608E-02  0.7788525E-01
          1   -1    0    0  501    0  0.00000000000E+00  0.00000000000E+00  0.17175898749E+04  0.17175898749E+04  0.00000000000E+00 0. -1.
         -1   -1    0    0    0  501 -0.00000000000E+00 -0.00000000000E+00 -0.40385069770E+04  0.40385069770E+04  0.00000000000E+00 0.  1.
         23    2    1    2    0    0 -0.70128688535E+03  0.32054913047E+03 -0.39118484905E+04  0.39881551892E+04  0.90929422193E+02 0.  0.
         11    1    3    3    0    0 -0.62749564143E+03  0.28096785758E+03 -0.33226842799E+04  0.33930700760E+04  0.00000000000E+00 0.  1.
        -11    1    3    3    0    0 -0.73791243921E+02  0.39581272895E+02 -0.58916421060E+03  0.59508511315E+03  0.00000000000E+00 0. -1.
         22    1    1    2    0    0  0.70128688535E+03 -0.32054913047E+03  0.15909313883E+04  0.17679416628E+04  0.00000000000E+00 0. -1.
<mgrwt>
<rscale>  0 0.52674467E+04</rscale>
<asrwt>0</asrwt>
<pdfrwt beam="1">  1        1 0.26424460E+00 0.52674467E+04</pdfrwt>
<pdfrwt beam="2">  1       -1 0.62130877E+00 0.52674467E+04</pdfrwt>
<totfact> 0.12182225E-03</totfact>
</mgrwt>
</event>
<event>
 6    1  0.1528034E-005  0.2928951E+04  0.7818608E-02  0.8264315E-01
         -2   -1    0    0    0  501 -0.00000000000E+00  0.00000000000E+00  0.12700676148E+04  0.12700676148E+04  0.00000000000E+00 0.  1.
          2   -1    0    0  501    0  0.00000000000E+00 -0.00000000000E+00 -0.16886412960E+04  0.16886412960E+04  0.00000000000E+00 0. -1.
         23    2    1    2    0    0  0.62208541216E+03  0.10466562662E+04  0.60998592279E+03  0.13648411439E+04  0.90713409424E+02 0.  0.
         11    1    3    3    0    0  0.18997460821E+03  0.35421343692E+03  0.24515523493E+03  0.47080632947E+03  0.00000000000E+00 0.  1.
        -11    1    3    3    0    0  0.43211080394E+03  0.69244282924E+03  0.36483068786E+03  0.89403481445E+03  0.00000000000E+00 0. -1.
         22    1    1    2    0    0 -0.62208541216E+03 -0.10466562662E+04 -0.10285596040E+04  0.15938677669E+04  0.00000000000E+00 0. -1.
<mgrwt>
<rscale>  0 0.29289511E+04</rscale>
<asrwt>0</asrwt>
<pdfrwt beam="1">  1        2 0.25979097E+00 0.29289511E+04</pdfrwt>
<pdfrwt beam="2">  1       -2 0.19539502E+00 0.29289511E+04</pdfrwt>
<totfact> 0.12223756E+00</totfact>
</mgrwt>
</event>
<event>
 6    1  0.1528034E-005  0.1780869E+04  0.7818608E-02  0.8716540E-01
          1   -1    0    0  501    0  0.00000000000E+00  0.00000000000E+00  0.17685954885E+04  0.17685954885E+04  0.00000000000E+00 0. -1.
         -1   -1    0    0    0  501 -0.00000000000E+00 -0.00000000000E+00 -0.44830715530E+03  0.44830715530E+03  0.00000000000E+00 0.  1.
         23    2    1    2    0    0  0.34814286128E+03  0.71624529307E+03  0.11513219914E+04  0.14028016695E+04  0.89996801903E+02 0.  0.
         13    1    3    3    0    0  0.15161528670E+03  0.27825651092E+03  0.38643134603E+03  0.49974300018E+03  0.00000000000E+00 0.  1.
        -13    1    3    3    0    0  0.19652757459E+03  0.43798878215E+03  0.76489064536E+03  0.90305866931E+03  0.00000000000E+00 0. -1.
         22    1    1    2    0    0 -0.34814286128E+03 -0.71624529307E+03  0.16896634180E+03  0.81410097431E+03  0.00000000000E+00 0.  1.
<mgrwt>
<rscale>  0 0.17808695E+04</rscale>
<asrwt>0</asrwt>
<pdfrwt beam="1">  1        1 0.27209161E+00 0.17808695E+04</pdfrwt>
<pdfrwt beam="2">  1       -1 0.68970332E-01 0.17808695E+04</pdfrwt>
<totfact> 0.86027396E+00</totfact>
</mgrwt>
</event>
<event>
 6    1  0.1528034E-005  0.7534872E+03  0.7818608E-02  0.9629895E-01
          2   -1    0    0  501    0  0.00000000000E+00  0.00000000000E+00  0.43620424449E+04  0.43620424449E+04  0.00000000000E+00 0. -1.
         -2   -1    0    0    0  501 -0.00000000000E+00 -0.00000000000E+00 -0.32538825379E+02  0.32538825379E+02  0.00000000000E+00 0.  1.
         23    2    1    2    0    0 -0.35091586339E+03 -0.11554511756E+03  0.23505139417E+04  0.23814015062E+04  0.98309340739E+02 0.  0.
         13    1    3    3    0    0 -0.11063612594E+03 -0.40522658391E+02  0.10631433463E+04  0.10696523795E+04  0.00000000000E+00 0.  1.
        -13    1    3    3    0    0 -0.24027973746E+03 -0.75022459169E+02  0.12873705954E+04  0.13117491268E+04  0.00000000000E+00 0. -1.
         22    1    1    2    0    0  0.35091586339E+03  0.11554511756E+03  0.19789896779E+04  0.20131797641E+04  0.00000000000E+00 0.  1.
<mgrwt>
<rscale>  0 0.75348719E+03</rscale>
<asrwt>0</asrwt>
<pdfrwt beam="1">  1        2 0.67108299E+00 0.75348719E+03</pdfrwt>
<pdfrwt beam="2">  1       -2 0.50059766E-02 0.75348719E+03</pdfrwt>
<totfact> 0.38519582E+01</totfact>
</mgrwt>
</event>
<event>
 6    1  0.1528034E-005  0.6882552E+04  0.7818608E-02  0.7589671E-01
          2   -1    0    0  501    0  0.00000000000E+00  0.00000000000E+00  0.42619532423E+04  0.42619532423E+04  0.00000000000E+00 0. -1.
         -2   -1    0    0    0  501 -0.00000000000E+00 -0.00000000000E+00 -0.27786271646E+04  0.27786271646E+04  0.00000000000E+00 0.  1.
         23    2    1    2    0    0 -0.20914361402E+04 -0.17789475897E+04 -0.13792683271E+04  0.30740698017E+04  0.93618225370E+02 0.  0.
         13    1    3    3    0    0 -0.77909856752E+03 -0.67295604869E+03 -0.56729814040E+03  0.11754537853E+04  0.00000000000E+00 0. -1.
        -13    1    3    3    0    0 -0.13123375727E+04 -0.11059915410E+04 -0.81197018668E+03  0.18986160163E+04  0.00000000000E+00 0.  1.
         22    1    1    2    0    0  0.20914361402E+04  0.17789475897E+04  0.28625944047E+04  0.39665106052E+04  0.00000000000E+00 0. -1.
<mgrwt>
<rscale>  0 0.68825516E+04</rscale>
<asrwt>0</asrwt>
<pdfrwt beam="1">  1        2 0.65568512E+00 0.68825516E+04</pdfrwt>
<pdfrwt beam="2">  1       -2 0.42748110E+00 0.68825516E+04</pdfrwt>
<totfact> 0.62797297E-04</totfact>
</mgrwt>
</event>
<event>
 6    1  0.1528034E-005  0.1903187E+04  0.7818608E-02  0.8653271E-01
          1   -1    0    0  501    0  0.00000000000E+00  0.00000000000E+00  0.37791439035E+03  0.37791439035E+03  0.00000000000E+00 0. -1.
         -1   -1    0    0    0  501 -0.00000000000E+00 -0.00000000000E+00 -0.23961263788E+04  0.23961263788E+04  0.00000000000E+00 0.  1.
         23    2    1    2    0    0  0.22965442214E+03 -0.24410292685E+03 -0.23061582815E+04  0.23321805422E+04  0.91502291663E+02 0.  0.
         13    1    3    3    0    0  0.11090451427E+03 -0.90446208079E+02 -0.71217937255E+03  0.72641571193E+03  0.00000000000E+00 0.  1.
        -13    1    3    3    0    0  0.11874990787E+03 -0.15365671877E+03 -0.15939789090E+04  0.16057648303E+04  0.00000000000E+00 0. -1.
         22    1    1    2    0    0 -0.22965442214E+03  0.24410292685E+03  0.28794629306E+03  0.44186022698E+03  0.00000000000E+00 0. -1.
<mgrwt>
<rscale>  0 0.19031875E+04</rscale>
<asrwt>0</asrwt>
<pdfrwt beam="1">  1        1 0.58140676E-01 0.19031875E+04</pdfrwt>
<pdfrwt beam="2">  1       -1 0.36863483E+00 0.19031875E+04</pdfrwt>
<totfact> 0.70790057E-01</totfact>
</mgrwt>
</event>
<event>
 6    1  0.1528034E-005  0.1398632E+04  0.7818608E-02  0.8954809E-01
         -1   -1    0    0    0  501 -0.00000000000E+00  0.00000000000E+00  0.20245127789E+03  0.20245127789E+03  0.00000000000E+00 0.  1.
          1   -1    0    0  501    0  0.00000000000E+00 -0.00000000000E+00 -0.24156082396E+04  0.24156082396E+04  0.00000000000E+00 0. -1.
         23    2    1    2    0    0  0.15925058205E+03  0.20774749501E+03 -0.23191431501E+04  0.23356540612E+04  0.91297172125E+02 0.  0.
         13    1    3    3    0    0  0.53007751521E+02  0.36724419051E+02 -0.32240714325E+03  0.32879305147E+03  0.00000000000E+00 0.  1.
        -13    1    3    3    0    0  0.10624283053E+03  0.17102307596E+03 -0.19967360068E+04  0.20068610098E+04  0.00000000000E+00 0. -1.
         22    1    1    2    0    0 -0.15925058205E+03 -0.20774749501E+03  0.10598618840E+03  0.28240545622E+03  0.00000000000E+00 0.  1.
<mgrwt>
<rscale>  0 0.13986322E+04</rscale>
<asrwt>0</asrwt>
<pdfrwt beam="1">  1        1 0.37163203E+00 0.13986322E+04</pdfrwt>
<pdfrwt beam="2">  1       -1 0.31146351E-01 0.13986322E+04</pdfrwt>
<totfact> 0.14477950E+01</totfact>
</mgrwt>
</event>
<event>
 6    1  0.1528034E-005  0.5486971E+03  0.7818608E-02  0.1001796E+00
          2   -1    0    0  501    0  0.00000000000E+00  0.00000000000E+00  0.62530334490E+03  0.62530334490E+03  0.00000000000E+00 0.  1.
         -2   -1    0    0    0  501 -0.00000000000E+00 -0.00000000000E+00 -0.12036896785E+03  0.12036896785E+03  0.00000000000E+00 0. -1.
         23    2    1    2    0    0  0.24903835129E+03 -0.10409527286E+03  0.29652726591E+03  0.40465992262E+03  0.54454635267E+02 0.  0.
         13    1    3    3    0    0  0.17776163394E+03 -0.82810567533E+02  0.24661060283E+03  0.31507709854E+03  0.00000000000E+00 0.  1.
        -13    1    3    3    0    0  0.71276717353E+02 -0.21284705325E+02  0.49916663081E+02  0.89582824082E+02  0.00000000000E+00 0. -1.
         22    1    1    2    0    0 -0.24903835129E+03  0.10409527286E+03  0.20840711114E+03  0.34101239013E+03  0.00000000000E+00 0.  1.
<mgrwt>
<rscale>  0 0.54869707E+03</rscale>
<asrwt>0</asrwt>
<pdfrwt beam="1">  1        2 0.96200513E-01 0.54869707E+03</pdfrwt>
<pdfrwt beam="2">  1       -2 0.18518303E-01 0.54869707E+03</pdfrwt>
<totfact> 0.11543569E+03</totfact>
</mgrwt>
</event>
<event>
 6    1  0.1528034E-005  0.5592852E+04  0.7818608E-02  0.7743040E-01
         -2   -1    0    0    0  501 -0.00000000000E+00  0.00000000000E+00  0.25566618290E+04  0.25566618290E+04  0.00000000000E+00 0.  1.
          2   -1    0    0  501    0  0.00000000000E+00 -0.00000000000E+00 -0.30586753309E+04  0.30586753309E+04  0.00000000000E+00 0. -1.
         23    2    1    2    0    0  0.19262093368E+04 -0.28597403966E+03 -0.22650596782E+04  0.29884767944E+04  0.91840321594E+02 0.  0.
         13    1    3    3    0    0  0.47006644669E+03 -0.10864874049E+03 -0.54594414438E+03  0.72857533714E+03  0.00000000000E+00 0.  1.
        -13    1    3    3    0    0  0.14561428901E+04 -0.17732529918E+03 -0.17191155338E+04  0.22599014573E+04  0.00000000000E+00 0. -1.
         22    1    1    2    0    0 -0.19262093368E+04  0.28597403966E+03  0.17630461763E+04  0.26268603656E+04  0.00000000000E+00 0.  1.
<mgrwt>
<rscale>  0 0.55928520E+04</rscale>
<asrwt>0</asrwt>
<pdfrwt beam="1">  1        2 0.47056544E+00 0.55928520E+04</pdfrwt>
<pdfrwt beam="2">  1       -2 0.39333259E+00 0.55928520E+04</pdfrwt>
<totfact> 0.91164317E-03</totfact>
</mgrwt>
</event>
<event>
 6    1  0.1528034E-005  0.1526313E+04  0.7818608E-02  0.8867141E-01
         -2   -1    0    0    0  501 -0.00000000000E+00  0.00000000000E+00  0.25564895482E+03  0.25564895482E+03  0.00000000000E+00 0.  1.
          2   -1    0    0  501    0  0.00000000000E+00 -0.00000000000E+00 -0.22781560765E+04  0.22781560765E+04  0.00000000000E+00 0. -1.
         23    2    1    2    0    0 -0.39155123445E+03  0.38218911950E+03 -0.13810968528E+03  0.57157808456E+03  0.90809301922E+02 0.  0.
         11    1    3    3    0    0 -0.18798045256E+03  0.14854831869E+03 -0.21782416617E+02  0.24057790257E+03  0.00000000000E+00 0. -1.
        -11    1    3    3    0    0 -0.20357078189E+03  0.23364080081E+03 -0.11632726866E+03  0.33100018199E+03  0.00000000000E+00 0.  1.
         22    1    1    2    0    0  0.39155123445E+03 -0.38218911950E+03 -0.18843974364E+04  0.19622269467E+04  0.00000000000E+00 0. -1.
<mgrwt>
<rscale>  0 0.15263135E+04</rscale>
<asrwt>0</asrwt>
<pdfrwt beam="1">  1        2 0.35048556E+00 0.15263135E+04</pdfrwt>
<pdfrwt beam="2">  1       -2 0.39330607E-01 0.15263135E+04</pdfrwt>
<totfact> 0.27533725E+01</totfact>
</mgrwt>
</event>
<event>
 6    1  0.1528034E-005  0.2049342E+04  0.7818608E-02  0.8583893E-01
         -2   -1    0    0    0  501 -0.00000000000E+00  0.00000000000E+00  0.11668300184E+04  0.11668300184E+04  0.00000000000E+00 0.  1.
          2   -1    0    0  501    0  0.00000000000E+00 -0.00000000000E+00 -0.89983143303E+03  0.89983143303E+03  0.00000000000E+00 0. -1.
         23    2    1    2    0    0 -0.25601217945E+03 -0.64435357598E+03  0.89172777407E+03  0.11333767541E+04  0.92901436442E+02 0.  0.
         11    1    3    3    0    0 -0.14518469999E+03 -0.25907232710E+03  0.41838492210E+03  0.51307213023E+03  0.00000000000E+00 0. -1.
        -11    1    3    3    0    0 -0.11082747947E+03 -0.38528124888E+03  0.47334285197E+03  0.62030462391E+03  0.00000000000E+00 0.  1.
         22    1    1    2    0    0  0.25601217945E+03  0.64435357598E+03 -0.62472918873E+03  0.93328469726E+03  0.00000000000E+00 0. -1.
<mgrwt>
<rscale>  0 0.20493417E+04</rscale>
<asrwt>0</asrwt>
<pdfrwt beam="1">  1        2 0.13843561E+00 0.20493417E+04</pdfrwt>
<pdfrwt beam="2">  1       -2 0.17951231E+00 0.20493417E+04</pdfrwt>
<totfact> 0.49578754E+00</totfact>
</mgrwt>
</event>
<event>
 6    1  0.1528034E-005  0.2972503E+04  0.7818608E-02  0.8251627E-01
         -2   -1    0    0    0  501 -0.00000000000E+00  0.00000000000E+00  0.11277999096E+04  0.11277999096E+04  0.00000000000E+00 0. -1.
          2   -1    0    0  501    0  0.00000000000E+00 -0.00000000000E+00 -0.19586304801E+04  0.19586304801E+04  0.00000000000E+00 0.  1.
         23    2    1    2    0    0  0.13396400196E+04  0.74724152182E+02  0.24496734653E+03  0.13666745234E+04  0.87012476881E+02 0.  0.
         11    1    3    3    0    0  0.91557227251E+03  0.16132563912E+02  0.14589490363E+03  0.92726380750E+03  0.00000000000E+00 0. -1.
        -11    1    3    3    0    0  0.42406774708E+03  0.58591588270E+02  0.99072442903E+02  0.43941071593E+03  0.00000000000E+00 0.  1.
         22    1    1    2    0    0 -0.13396400196E+04 -0.74724152182E+02 -0.10757979171E+04  0.17197558662E+04  0.00000000000E+00 0.  1.
<mgrwt>
<rscale>  0 0.29725028E+04</rscale>
<asrwt>0</asrwt>
<pdfrwt beam="1">  1        2 0.30132776E+00 0.29725028E+04</pdfrwt>
<pdfrwt beam="2">  1       -2 0.17350768E+00 0.29725028E+04</pdfrwt>
<totfact> 0.12167399E+00</totfact>
</mgrwt>
</event>
<event>
 6    1  0.1528034E-005  0.1222241E+04  0.7818608E-02  0.9093608E-01
          2   -1    0    0  501    0  0.00000000000E+00  0.00000000000E+00  0.18179102359E+04  0.18179102359E+04  0.00000000000E+00 0. -1.
         -2   -1    0    0    0  501 -0.00000000000E+00 -0.00000000000E+00 -0.20543834061E+03  0.20543834061E+03  0.00000000000E+00 0.  1.
         23    2    1    2    0    0  0.24866351145E+03  0.15387684291E+03  0.16926185061E+04  0.17201405556E+04  0.91730579789E+02 0.  0.
         13    1    3    3    0    0  0.91645527430E+02  0.61433868823E+02  0.90606970673E+03  0.91276247534E+03  0.00000000000E+00 0. -1.
        -13    1    3    3    0    0  0.15701798402E+03  0.92442974092E+02  0.78654879938E+03  0.80737808031E+03  0.00000000000E+00 0.  1.
         22    1    1    2    0    0 -0.24866351145E+03 -0.15387684291E+03 -0.80146610785E+02  0.30320802089E+03  0.00000000000E+00 0.  1.
<mgrwt>
<rscale>  0 0.12222413E+04</rscale>
<asrwt>0</asrwt>
<pdfrwt beam="1">  1        2 0.27967849E+00 0.12222413E+04</pdfrwt>
<pdfrwt beam="2">  1       -2 0.31605900E-01 0.12222413E+04</pdfrwt>
<totfact> 0.77289914E+01</totfact>
</mgrwt>
</event>
<event>
 6    1  0.1528034E-005  0.3372809E+04  0.7818608E-02  0.8144612E-01
         -1   -1    0    0    0  501 -0.00000000000E+00  0.00000000000E+00  0.16437816268E+04  0.16437816268E+04  0.00000000000E+00 0. -1.
          1   -1    0    0  501    0  0.00000000000E+00 -0.00000000000E+00 -0.17301326215E+04  0.17301326215E+04  0.00000000000E+00 0.  1.
         23    2    1    2    0    0  0.11349516528E+04 -0.77313202720E+03 -0.10202693863E+04  0.17131758740E+04  0.90407793292E+02 0.  0.
         11    1    3    3    0    0  0.89701843644E+03 -0.58043430126E+03 -0.75769380418E+03  0.13098266886E+04  0.00000000000E+00 0.  1.
        -11    1    3    3    0    0  0.23793321635E+03 -0.19269772594E+03 -0.26257558215E+03  0.40334918541E+03  0.00000000000E+00 0. -1.
         22    1    1    2    0    0 -0.11349516528E+04  0.77313202720E+03  0.93391839157E+03  0.16607383743E+04  0.00000000000E+00 0.  1.
<mgrwt>
<rscale>  0 0.33728090E+04</rscale>
<asrwt>0</asrwt>
<pdfrwt beam="1">  1        1 0.26617425E+00 0.33728090E+04</pdfrwt>
<pdfrwt beam="2">  1       -1 0.25288948E+00 0.33728090E+04</pdfrwt>
<totfact> 0.25021529E-01</totfact>
</mgrwt>
</event>
<event>
 6    1  0.1528034E-005  0.3333669E+04  0.7818608E-02  0.8154381E-01
         -2   -1    0    0    0  501 -0.00000000000E+00  0.00000000000E+00  0.16941510530E+04  0.16941510530E+04  0.00000000000E+00 0.  1.
          2   -1    0    0  501    0  0.00000000000E+00 -0.00000000000E+00 -0.16399582498E+04  0.16399582498E+04  0.00000000000E+00 0. -1.
         23    2    1    2    0    0 -0.15568839973E+04  0.37028532372E+03  0.48878757487E+03  0.16758356168E+04  0.92264397550E+02 0.  0.
         11    1    3    3    0    0 -0.92858851492E+03  0.19600923566E+03  0.24953136237E+03  0.98130634937E+03  0.00000000000E+00 0. -1.
        -11    1    3    3    0    0 -0.62829548238E+03  0.17427608806E+03  0.23925621250E+03  0.69452926739E+03  0.00000000000E+00 0.  1.
         22    1    1    2    0    0  0.15568839973E+04 -0.37028532372E+03 -0.43459477164E+03  0.16582736860E+04  0.00000000000E+00 0. -1.
<mgrwt>
<rscale>  0 0.33336688E+04</rscale>
<asrwt>0</asrwt>
<pdfrwt beam="1">  1        2 0.25230127E+00 0.33336688E+04</pdfrwt>
<pdfrwt beam="2">  1       -2 0.26063862E+00 0.33336688E+04</pdfrwt>
<totfact> 0.48785360E-01</totfact>
</mgrwt>
</event>
<event>
 6    1  0.1528034E-005  0.2114894E+04  0.7818608E-02  0.8554711E-01
          2   -1    0    0  501    0  0.00000000000E+00  0.00000000000E+00  0.16829797341E+04  0.16829797341E+04  0.00000000000E+00 0. -1.
         -2   -1    0    0    0  501 -0.00000000000E+00 -0.00000000000E+00 -0.66441314961E+03  0.66441314961E+03  0.00000000000E+00 0.  1.
         23    2    1    2    0    0  0.67329411851E+03 -0.70256985149E+03  0.96371540929E+03  0.13727452460E+04  0.93556155074E+02 0.  0.
         13    1    3    3    0    0  0.28962664278E+03 -0.33172322631E+03  0.37730564973E+03  0.57989951232E+03  0.00000000000E+00 0. -1.
        -13    1    3    3    0    0  0.38366747574E+03 -0.37084662519E+03  0.58640975957E+03  0.79284573371E+03  0.00000000000E+00 0.  1.
         22    1    1    2    0    0 -0.67329411851E+03  0.70256985149E+03  0.54851175229E+02  0.97464763770E+03  0.00000000000E+00 0.  1.
<mgrwt>
<rscale>  0 0.21148937E+04</rscale>
<asrwt>0</asrwt>
<pdfrwt beam="1">  1        2 0.25891996E+00 0.21148937E+04</pdfrwt>
<pdfrwt beam="2">  1       -2 0.10221741E+00 0.21148937E+04</pdfrwt>
<totfact> 0.72329169E+00</totfact>
</mgrwt>
</event>
<event>
 6    1  0.1528034E-005  0.2386979E+04  0.7818608E-02  0.8444395E-01
         -2   -1    0    0    0  501 -0.00000000000E+00  0.00000000000E+00  0.10454145173E+04  0.10454145173E+04  0.00000000000E+00 0.  1.
          2   -1    0    0  501    0  0.00000000000E+00 -0.00000000000E+00 -0.13625381683E+04  0.13625381683E+04  0.00000000000E+00 0. -1.
         23    2    1    2    0    0 -0.32738766141E+03  0.15366840798E+03  0.98681388942E+03  0.10547898093E+04  0.89348917507E+02 0.  0.
         11    1    3    3    0    0 -0.20922674874E+03  0.10640974047E+03  0.75098559371E+03  0.78681524338E+03  0.00000000000E+00 0. -1.
        -11    1    3    3    0    0 -0.11816091268E+03  0.47258667509E+02  0.23582829571E+03  0.26797456595E+03  0.00000000000E+00 0.  1.
         22    1    1    2    0    0  0.32738766141E+03 -0.15366840798E+03 -0.13039375404E+04  0.13531628763E+04  0.00000000000E+00 0. -1.
<mgrwt>
<rscale>  0 0.23869790E+04</rscale>
<asrwt>0</asrwt>
<pdfrwt beam="1">  1        2 0.20962126E+00 0.23869790E+04</pdfrwt>
<pdfrwt beam="2">  1       -2 0.16083300E+00 0.23869790E+04</pdfrwt>
<totfact> 0.33999731E+00</totfact>
</mgrwt>
</event>
<event>
 6    1  0.1528034E-005  0.2963825E+04  0.7818608E-02  0.8254137E-01
          2   -1    0    0  501    0  0.00000000000E+00  0.00000000000E+00  0.33042366009E+04  0.33042366009E+04  0.00000000000E+00 0.  1.
         -2   -1    0    0    0  501 -0.00000000000E+00 -0.00000000000E+00 -0.66462100225E+03  0.66462100225E+03  0.00000000000E+00 0. -1.
         23    2    1    2    0    0  0.14255175495E+04 -0.39910222973E+03  0.12902384544E+04  0.19658095380E+04  0.91153698423E+02 0.  0.
         11    1    3    3    0    0  0.85159615902E+03 -0.24553803998E+03  0.71344765447E+03  0.11377664535E+04  0.00000000000E+00 0. -1.
        -11    1    3    3    0    0  0.57392139050E+03 -0.15356418975E+03  0.57679079991E+03  0.82804308445E+03  0.00000000000E+00 0.  1.
         22    1    1    2    0    0 -0.14255175495E+04  0.39910222973E+03  0.13493771443E+04  0.20030480651E+04  0.00000000000E+00 0.  1.
<mgrwt>
<rscale>  0 0.29638253E+04</rscale>
<asrwt>0</asrwt>
<pdfrwt beam="1">  1        2 0.50834408E+00 0.29638253E+04</pdfrwt>
<pdfrwt beam="2">  1       -2 0.10224939E+00 0.29638253E+04</pdfrwt>
<totfact> 0.74375555E-01</totfact>
</mgrwt>
</event>
<event>
 6    1  0.1528034E-005  0.1490016E+04  0.7818608E-02  0.8891119E-01
         -1   -1    0    0    0  501 -0.00000000000E+00  0.00000000000E+00  0.13388960000E+04  0.13388960000E+04  0.00000000000E+00 0.  1.
          1   -1    0    0  501    0  0.00000000000E+00 -0.00000000000E+00 -0.41454820268E+03  0.41454820268E+03  0.00000000000E+00 0. -1.
         23    2    1    2    0    0 -0.53188607371E+03 -0.50814557453E+02 -0.14316713806E+03  0.55967996636E+03  0.85205168098E+02 0.  0.
         13    1    3    3    0    0 -0.40786920656E+03 -0.48134649411E+02 -0.72914754880E+02  0.41712203923E+03  0.00000000000E+00 0. -1.
        -13    1    3    3    0    0 -0.12401686715E+03 -0.26799080426E+01 -0.70252383182E+02  0.14255792713E+03  0.00000000000E+00 0.  1.
         22    1    1    2    0    0  0.53188607371E+03  0.50814557453E+02  0.10675149354E+04  0.11937642363E+04  0.00000000000E+00 0.  1.
<mgrwt>
<rscale>  0 0.14900160E+04</rscale>
<asrwt>0</asrwt>
<pdfrwt beam="1">  1        1 0.63776647E-01 0.14900160E+04</pdfrwt>
<pdfrwt beam="2">  1       -1 0.20598400E+00 0.14900160E+04</pdfrwt>
<totfact> 0.75806080E+00</totfact>
</mgrwt>
</event>
<event>
 6    1  0.1528034E-005  0.1163807E+04  0.7818608E-02  0.9145139E-01
         -2   -1    0    0    0  501 -0.00000000000E+00  0.00000000000E+00  0.42129043154E+03  0.42129043154E+03  0.00000000000E+00 0. -1.
          2   -1    0    0  501    0  0.00000000000E+00 -0.00000000000E+00 -0.80374935043E+03  0.80374935043E+03  0.00000000000E+00 0.  1.
         23    2    1    2    0    0  0.46882875212E+03 -0.33632574237E+03 -0.15153713163E+03  0.60355746072E+03  0.91666255172E+02 0.  0.
         13    1    3    3    0    0  0.35562623402E+03 -0.28733137526E+03 -0.14653446558E+03  0.48010591242E+03  0.00000000000E+00 0.  1.
        -13    1    3    3    0    0  0.11320251810E+03 -0.48994367110E+02 -0.50026660511E+01  0.12345154831E+03  0.00000000000E+00 0. -1.
         22    1    1    2    0    0 -0.46882875212E+03  0.33632574237E+03 -0.23092178726E+03  0.62148232125E+03  0.00000000000E+00 0. -1.
<mgrwt>
<rscale>  0 0.11638074E+04</rscale>
<asrwt>0</asrwt>
<pdfrwt beam="1">  1        2 0.12365375E+00 0.11638074E+04</pdfrwt>
<pdfrwt beam="2">  1       -2 0.64813912E-01 0.11638074E+04</pdfrwt>
<totfact> 0.74400072E+01</totfact>
</mgrwt>
</event>
<event>
 6    1  0.1528034E-005  0.2448686E+04  0.7818608E-02  0.8421498E-01
          2   -1    0    0  501    0  0.00000000000E+00  0.00000000000E+00  0.11702558610E+04  0.11702558610E+04  0.00000000000E+00 0. -1.
         -2   -1    0    0    0  501 -0.00000000000E+00 -0.00000000000E+00 -0.12809295241E+04  0.12809295241E+04  0.00000000000E+00 0.  1.
         23    2    1    2    0    0  0.74388695712E+03  0.71562758090E+03  0.60078484674E+03  0.11975252035E+04  0.87370140273E+02 0.  0.
         13    1    3    3    0    0  0.35035780894E+03  0.27721808122E+03  0.26327892754E+03  0.51857135722E+03  0.00000000000E+00 0.  1.
        -13    1    3    3    0    0  0.39352914818E+03  0.43840949968E+03  0.33750591920E+03  0.67895384627E+03  0.00000000000E+00 0. -1.
         22    1    1    2    0    0 -0.74388695712E+03 -0.71562758090E+03 -0.71145850989E+03  0.12536601816E+04  0.00000000000E+00 0.  1.
<mgrwt>
<rscale>  0 0.24486856E+04</rscale>
<asrwt>0</asrwt>
<pdfrwt beam="1">  1        2 0.18003936E+00 0.24486856E+04</pdfrwt>
<pdfrwt beam="2">  1       -2 0.19706608E+00 0.24486856E+04</pdfrwt>
<totfact> 0.24580706E+00</totfact>
</mgrwt>
</event>
<event>
 6    1  0.1528034E-005  0.2330647E+04  0.7818608E-02  0.8465934E-01
          2   -1    0    0  501    0  0.00000000000E+00  0.00000000000E+00  0.32972755434E+04  0.32972755434E+04  0.00000000000E+00 0. -1.
         -2   -1    0    0    0  501 -0.00000000000E+00 -0.00000000000E+00 -0.41184889131E+03  0.41184889131E+03  0.00000000000E+00 0.  1.
         23    2    1    2    0    0  0.10173536934E+04  0.51106236731E+03  0.10626725573E+04  0.15600256071E+04  0.90629190385E+02 0.  0.
         11    1    3    3    0    0  0.44802583757E+03  0.21974982387E+03  0.52725258852E+03  0.72595621653E+03  0.00000000000E+00 0. -1.
        -11    1    3    3    0    0  0.56932785579E+03  0.29131254345E+03  0.53541996880E+03  0.83406939060E+03  0.00000000000E+00 0.  1.
         22    1    1    2    0    0 -0.10173536934E+04 -0.51106236731E+03  0.18227540948E+04  0.21490988276E+04  0.00000000000E+00 0. -1.
<mgrwt>
<rscale>  0 0.23306474E+04</rscale>
<asrwt>0</asrwt>
<pdfrwt beam="1">  1        2 0.50727314E+00 0.23306474E+04</pdfrwt>
<pdfrwt beam="2">  1       -2 0.63361370E-01 0.23306474E+04</pdfrwt>
<totfact> 0.23365268E+00</totfact>
</mgrwt>
</event>
<event>
 6    1  0.1528034E-005  0.4679880E+04  0.7818608E-02  0.7879880E-01
         -2   -1    0    0    0  501 -0.00000000000E+00  0.00000000000E+00  0.24560205256E+04  0.24560205256E+04  0.00000000000E+00 0.  1.
          2   -1    0    0  501    0  0.00000000000E+00 -0.00000000000E+00 -0.22293462498E+04  0.22293462498E+04  0.00000000000E+00 0. -1.
         23    2    1    2    0    0 -0.17171182503E+04  0.15406856275E+04  0.49947839735E+03  0.23623021234E+04  0.93730274779E+02 0.  0.
         13    1    3    3    0    0 -0.10188155726E+04  0.85357489064E+03  0.27659906468E+03  0.13576016749E+04  0.00000000000E+00 0.  1.
        -13    1    3    3    0    0 -0.69830267766E+03  0.68711073690E+03  0.22287933266E+03  0.10047004486E+04  0.00000000000E+00 0. -1.
         22    1    1    2    0    0  0.17171182503E+04 -0.15406856275E+04 -0.27280412152E+03  0.23230646520E+04  0.00000000000E+00 0.  1.
<mgrwt>
<rscale>  0 0.46798804E+04</rscale>
<asrwt>0</asrwt>
<pdfrwt beam="1">  1        2 0.34297634E+00 0.46798804E+04</pdfrwt>
<pdfrwt beam="2">  1       -2 0.37784931E+00 0.46798804E+04</pdfrwt>
<totfact> 0.38378713E-02</totfact>
</mgrwt>
</event>
<event>
 6    1  0.1528034E-005  0.2009870E+04  0.7818608E-02  0.8602020E-01
         -2   -1    0    0    0  501 -0.00000000000E+00  0.00000000000E+00  0.10318416815E+04  0.10318416815E+04  0.00000000000E+00 0.  1.
          2   -1    0    0  501    0  0.00000000000E+00 -0.00000000000E+00 -0.97872949635E+03  0.97872949635E+03  0.00000000000E+00 0. -1.
         23    2    1    2    0    0 -0.87717426404E+03 -0.27180422617E+02 -0.45883624803E+03  0.99456691451E+03  0.91973800984E+02 0.  0.
         11    1    3    3    0    0 -0.38630531522E+03  0.13467365273E+02 -0.24469707455E+03  0.45748204859E+03  0.00000000000E+00 0.  1.
        -11    1    3    3    0    0 -0.49086894882E+03 -0.40647787890E+02 -0.21413917348E+03  0.53708486592E+03  0.00000000000E+00 0. -1.
         22    1    1    2    0    0  0.87717426404E+03  0.27180422617E+02  0.51194843314E+03  0.10160042633E+04  0.00000000000E+00 0.  1.
<mgrwt>
<rscale>  0 0.20098695E+04</rscale>
<asrwt>0</asrwt>
<pdfrwt beam="1">  1        2 0.15057377E+00 0.20098695E+04</pdfrwt>
<pdfrwt beam="2">  1       -2 0.15874487E+00 0.20098695E+04</pdfrwt>
<totfact> 0.62101957E+00</totfact>
</mgrwt>
</event>
<event>
 6    1  0.1528034E-005  0.1074702E+04  0.7818608E-02  0.9230206E-01
          2   -1    0    0  501    0  0.00000000000E+00  0.00000000000E+00  0.11705887377E+04  0.11705887377E+04  0.00000000000E+00 0. -1.
         -2   -1    0    0    0  501 -0.00000000000E+00 -0.00000000000E+00 -0.24666742741E+03  0.24666742741E+03  0.00000000000E+00 0.  1.
         23    2    1    2    0    0 -0.28332156873E+03  0.39502123788E+03  0.75424275349E+03  0.90237394328E+03  0.95308512910E+02 0.  0.
         13    1    3    3    0    0 -0.13085815738E+03  0.19579586932E+03  0.45123256761E+03  0.50898989171E+03  0.00000000000E+00 0. -1.
        -13    1    3    3    0    0 -0.15246341135E+03  0.19922536857E+03  0.30301018588E+03  0.39338405157E+03  0.00000000000E+00 0.  1.
         22    1    1    2    0    0  0.28332156873E+03 -0.39502123788E+03  0.16967855676E+03  0.51488222178E+03  0.00000000000E+00 0.  1.
<mgrwt>
<rscale>  0 0.10747020E+04</rscale>
<asrwt>0</asrwt>
<pdfrwt beam="1">  1        2 0.18009057E+00 0.10747020E+04</pdfrwt>
<pdfrwt beam="2">  1       -2 0.37948836E-01 0.10747020E+04</pdfrwt>
<totfact> 0.12844258E+02</totfact>
</mgrwt>
</event>
<event>
 6    1  0.1528034E-005  0.2086244E+04  0.7818608E-02  0.8567327E-01
          4   -1    0    0  501    0  0.00000000000E+00  0.00000000000E+00  0.17463947360E+04  0.17463947360E+04  0.00000000000E+00 0. -1.
         -4   -1    0    0    0  501 -0.00000000000E+00 -0.00000000000E+00 -0.62305712982E+03  0.62305712982E+03  0.00000000000E+00 0.  1.
         23    2    1    2    0    0 -0.46958098637E+03 -0.27518919520E+03 -0.44539935042E+03  0.70897872996E+03  0.89637393250E+02 0.  0.
         11    1    3    3    0    0 -0.21115160650E+03 -0.78305612252E+02 -0.15669990432E+03  0.27435675653E+03  0.00000000000E+00 0.  1.
        -11    1    3    3    0    0 -0.25842937987E+03 -0.19688358294E+03 -0.28869944610E+03  0.43462197343E+03  0.00000000000E+00 0. -1.
         22    1    1    2    0    0  0.46958098637E+03  0.27518919520E+03  0.15687369566E+04  0.16604731358E+04  0.00000000000E+00 0. -1.
<mgrwt>
<rscale>  0 0.20862442E+04</rscale>
<asrwt>0</asrwt>
<pdfrwt beam="1">  1        4 0.26867611E+00 0.20862442E+04</pdfrwt>
<pdfrwt beam="2">  1       -4 0.95854944E-01 0.20862442E+04</pdfrwt>
<totfact> 0.81488582E-02</totfact>
</mgrwt>
</event>
<event>
 6    1  0.1528034E-005  0.3130547E+04  0.7818608E-02  0.8207404E-01
         -1   -1    0    0    0  501 -0.00000000000E+00  0.00000000000E+00  0.11714014724E+04  0.11714014724E+04  0.00000000000E+00 0.  1.
          1   -1    0    0  501    0  0.00000000000E+00 -0.00000000000E+00 -0.20915815822E+04  0.20915815822E+04  0.00000000000E+00 0. -1.
         23    2    1    2    0    0 -0.13974422491E+03  0.15476601624E+04 -0.27724386895E+03  0.15812733780E+04  0.93706490980E+02 0.  0.
         11    1    3    3    0    0 -0.20326970740E+02  0.60179213251E+03 -0.13844445787E+03  0.61784611709E+03  0.00000000000E+00 0.  1.
        -11    1    3    3    0    0 -0.11941725417E+03  0.94586802992E+03 -0.13879941108E+03  0.96342726094E+03  0.00000000000E+00 0. -1.
         22    1    1    2    0    0  0.13974422491E+03 -0.15476601624E+04 -0.64293624084E+03  0.16817096767E+04  0.00000000000E+00 0. -1.
<mgrwt>
<rscale>  0 0.31305474E+04</rscale>
<asrwt>0</asrwt>
<pdfrwt beam="1">  1        1 0.32178178E+00 0.31305474E+04</pdfrwt>
<pdfrwt beam="2">  1       -1 0.18021561E+00 0.31305474E+04</pdfrwt>
<totfact> 0.45066417E-01</totfact>
</mgrwt>
</event>
<event>
 6    1  0.1528034E-005  0.9047565E+03  0.7818608E-02  0.9419655E-01
          2   -1    0    0  501    0  0.00000000000E+00  0.00000000000E+00  0.75783473315E+03  0.75783473315E+03  0.00000000000E+00 0. -1.
         -2   -1    0    0    0  501 -0.00000000000E+00 -0.00000000000E+00 -0.27004049185E+03  0.27004049185E+03  0.00000000000E+00 0.  1.
         23    2    1    2    0    0  0.27083240661E+03 -0.87347702309E+02  0.63911068287E+03  0.70557648305E+03  0.91629116051E+02 0.  0.
         13    1    3    3    0    0  0.14769820284E+03 -0.42801742622E+01  0.27174576330E+03  0.30931996199E+03  0.00000000000E+00 0. -1.
        -13    1    3    3    0    0  0.12313420377E+03 -0.83067528047E+02  0.36736491957E+03  0.39625652106E+03  0.00000000000E+00 0.  1.
         22    1    1    2    0    0 -0.27083240661E+03  0.87347702309E+02 -0.15131644157E+03  0.32229874194E+03  0.00000000000E+00 0.  1.
<mgrwt>
<rscale>  0 0.90475646E+03</rscale>
<asrwt>0</asrwt>
<pdfrwt beam="1">  1        2 0.11658996E+00 0.90475646E+03</pdfrwt>
<pdfrwt beam="2">  1       -2 0.41544691E-01 0.90475646E+03</pdfrwt>
<totfact> 0.20354496E+02</totfact>
</mgrwt>
</event>
<event>
 6    1  0.2318673E-005  0.4535566E+04  0.7818608E-02  0.7904440E-01
         -2   -1    0    0    0  501 -0.00000000000E+00  0.00000000000E+00  0.14537033076E+04  0.14537033076E+04  0.00000000000E+00 0.  1.
          2   -1    0    0  501    0  0.00000000000E+00 -0.00000000000E+00 -0.35377511267E+04  0.35377511267E+04  0.00000000000E+00 0. -1.
         23    2    1    2    0    0 -0.37412933792E+03 -0.46067996325E+03  0.13653315831E+04  0.14913948563E+04  0.89047714393E+02 0.  0.
         13    1    3    3    0    0 -0.15343607560E+03 -0.21429661246E+03  0.70946663186E+03  0.75684117828E+03  0.00000000000E+00 0. -1.
        -13    1    3    3    0    0 -0.22069326232E+03 -0.24638335079E+03  0.65586495123E+03  0.73455367797E+03  0.00000000000E+00 0.  1.
         22    1    1    2    0    0  0.37412933792E+03  0.46067996325E+03 -0.34493794021E+04  0.35000595781E+04  0.00000000000E+00 0. -1.
<mgrwt>
<rscale>  0 0.45355663E+04</rscale>
<asrwt>0</asrwt>
<pdfrwt beam="1">  1        2 0.54426940E+00 0.45355663E+04</pdfrwt>
<pdfrwt beam="2">  1       -2 0.22364666E+00 0.45355663E+04</pdfrwt>
<totfact> 0.54040649E-02</totfact>
</mgrwt>
</event>
<event>
 6    1  0.1528034E-005  0.2797061E+04  0.7818608E-02  0.8304181E-01
         -1   -1    0    0    0  501 -0.00000000000E+00  0.00000000000E+00  0.97952403668E+03  0.97952403668E+03  0.00000000000E+00 0.  1.
          1   -1    0    0  501    0  0.00000000000E+00 -0.00000000000E+00 -0.19967736408E+04  0.19967736408E+04  0.00000000000E+00 0. -1.
         23    2    1    2    0    0 -0.11422218967E+04 -0.64138280269E+03  0.74637545211E+01  0.13131439779E+04  0.90822014019E+02 0.  0.
         13    1    3    3    0    0 -0.30532326267E+03 -0.13399171971E+03  0.24171987628E+02  0.33430578916E+03  0.00000000000E+00 0.  1.
        -13    1    3    3    0    0 -0.83689863406E+03 -0.50739108298E+03 -0.16708233107E+02  0.97883818879E+03  0.00000000000E+00 0. -1.
         22    1    1    2    0    0  0.11422218967E+04  0.64138280269E+03 -0.10247133587E+04  0.16631536996E+04  0.00000000000E+00 0. -1.
<mgrwt>
<rscale>  0 0.27970612E+04</rscale>
<asrwt>0</asrwt>
<pdfrwt beam="1">  1        1 0.30719595E+00 0.27970612E+04</pdfrwt>
<pdfrwt beam="2">  1       -1 0.15069601E+00 0.27970612E+04</pdfrwt>
<totfact> 0.89355730E-01</totfact>
</mgrwt>
</event>
<event>
 6    1  0.1528034E-005  0.1626247E+04  0.7818608E-02  0.8804584E-01
          2   -1    0    0  501    0  0.00000000000E+00  0.00000000000E+00  0.12765122508E+04  0.12765122508E+04  0.00000000000E+00 0. -1.
         -2   -1    0    0    0  501 -0.00000000000E+00 -0.00000000000E+00 -0.51795030976E+03  0.51795030976E+03  0.00000000000E+00 0.  1.
         23    2    1    2    0    0 -0.83784572908E+02  0.69507290554E+03 -0.69838198266E+02  0.70984604331E+03  0.94116059192E+02 0.  0.
         13    1    3    3    0    0 -0.10026044639E+03  0.52364395979E+03 -0.36285709387E+02  0.53438919005E+03  0.00000000000E+00 0. -1.
        -13    1    3    3    0    0  0.16475873480E+02  0.17142894575E+03 -0.33552488879E+02  0.17545685327E+03  0.00000000000E+00 0.  1.
         22    1    1    2    0    0  0.83784572908E+02 -0.69507290554E+03  0.82840013931E+03  0.10846165172E+04  0.00000000000E+00 0. -1.
<mgrwt>
<rscale>  0 0.16262471E+04</rscale>
<asrwt>0</asrwt>
<pdfrwt beam="1">  1        2 0.19638650E+00 0.16262471E+04</pdfrwt>
<pdfrwt beam="2">  1       -2 0.79684664E-01 0.16262471E+04</pdfrwt>
<totfact> 0.22775877E+01</totfact>
</mgrwt>
</event>
<event>
 6    1  0.1528034E-005  0.7838885E+03  0.7818608E-02  0.9583635E-01
          2   -1    0    0  501    0  0.00000000000E+00  0.00000000000E+00  0.13353603428E+04  0.13353603428E+04  0.00000000000E+00 0.  1.
         -2   -1    0    0    0  501 -0.00000000000E+00 -0.00000000000E+00 -0.11504032604E+03  0.11504032604E+03  0.00000000000E+00 0. -1.
         23    2    1    2    0    0  0.24141540231E+03 -0.30161286051E+03  0.66477128256E+03  0.77372784527E+03  0.86499747587E+02 0.  0.
         13    1    3    3    0    0  0.93130184789E+02 -0.18379194901E+03  0.32769135343E+03  0.38708440288E+03  0.00000000000E+00 0. -1.
        -13    1    3    3    0    0  0.14828521752E+03 -0.11782091150E+03  0.33707992912E+03  0.38664344239E+03  0.00000000000E+00 0.  1.
         22    1    1    2    0    0 -0.24141540231E+03  0.30161286051E+03  0.55554873425E+03  0.67667282362E+03  0.00000000000E+00 0.  1.
<mgrwt>
<rscale>  0 0.78388848E+03</rscale>
<asrwt>0</asrwt>
<pdfrwt beam="1">  1        2 0.20544004E+00 0.78388848E+03</pdfrwt>
<pdfrwt beam="2">  1       -2 0.17698513E-01 0.78388848E+03</pdfrwt>
<totfact> 0.41967801E+02</totfact>
</mgrwt>
</event>
<event>
 6    1  0.1528034E-005  0.3587156E+04  0.7818608E-02  0.8093440E-01
          1   -1    0    0  501    0  0.00000000000E+00  0.00000000000E+00  0.26591276648E+04  0.26591276648E+04  0.00000000000E+00 0. -1.
         -1   -1    0    0    0  501 -0.00000000000E+00 -0.00000000000E+00 -0.12097657523E+04  0.12097657523E+04  0.00000000000E+00 0.  1.
         23    2    1    2    0    0 -0.15777959698E+04 -0.84069606472E+03  0.58729519250E+03  0.18841090395E+04  0.93494567702E+02 0.  0.
         13    1    3    3    0    0 -0.62747809401E+03 -0.33127198298E+03  0.18519500325E+03  0.73332603554E+03  0.00000000000E+00 0.  1.
        -13    1    3    3    0    0 -0.95031787579E+03 -0.50942408174E+03  0.40210018926E+03  0.11507830040E+04  0.00000000000E+00 0. -1.
         22    1    1    2    0    0  0.15777959698E+04  0.84069606472E+03  0.86206672004E+03  0.19847843776E+04  0.00000000000E+00 0.  1.
<mgrwt>
<rscale>  0 0.35871557E+04</rscale>
<asrwt>0</asrwt>
<pdfrwt beam="1">  1        1 0.40909656E+00 0.35871557E+04</pdfrwt>
<pdfrwt beam="2">  1       -1 0.18611781E+00 0.35871557E+04</pdfrwt>
<totfact> 0.15980911E-01</totfact>
</mgrwt>
</event>
<event>
 6    1  0.1528034E-005  0.1822927E+04  0.7818608E-02  0.8694201E-01
         -2   -1    0    0    0  501 -0.00000000000E+00  0.00000000000E+00  0.55479369844E+03  0.55479369844E+03  0.00000000000E+00 0.  1.
          2   -1    0    0  501    0  0.00000000000E+00 -0.00000000000E+00 -0.14974320349E+04  0.14974320349E+04  0.00000000000E+00 0. -1.
         23    2    1    2    0    0  0.86864441266E+03  0.53731147525E+02 -0.76859161930E+03  0.11646884600E+04  0.91301586691E+02 0.  0.
         11    1    3    3    0    0  0.33489066305E+03 -0.13620477089E+02 -0.33299440769E+03  0.47246433637E+03  0.00000000000E+00 0.  1.
        -11    1    3    3    0    0  0.53375374961E+03  0.67351624614E+02 -0.43559721161E+03  0.69222412363E+03  0.00000000000E+00 0. -1.
         22    1    1    2    0    0 -0.86864441266E+03 -0.53731147525E+02 -0.17404671719E+03  0.88753727337E+03  0.00000000000E+00 0.  1.
<mgrwt>
<rscale>  0 0.18229272E+04</rscale>
<asrwt>0</asrwt>
<pdfrwt beam="1">  1        2 0.23037416E+00 0.18229272E+04</pdfrwt>
<pdfrwt beam="2">  1       -2 0.85352878E-01 0.18229272E+04</pdfrwt>
<totfact> 0.14325613E+01</totfact>
</mgrwt>
</event>
<event>
 6    1  0.1528034E-005  0.1342298E+04  0.7818608E-02  0.8996679E-01
          2   -1    0    0  501    0  0.00000000000E+00  0.00000000000E+00  0.89268083326E+03  0.89268083326E+03  0.00000000000E+00 0. -1.
         -2   -1    0    0    0  501 -0.00000000000E+00 -0.00000000000E+00 -0.50459339797E+03  0.50459339797E+03  0.00000000000E+00 0.  1.
         23    2    1    2    0    0  0.19832770370E+03  0.39968224307E+03  0.71259800665E+03  0.84556154840E+03  0.89992441691E+02 0.  0.
         11    1    3    3    0    0  0.18036407926E+03  0.39141177171E+03  0.70026090004E+03  0.82225282258E+03  0.00000000000E+00 0. -1.
        -11    1    3    3    0    0  0.17963624439E+02  0.82704713578E+01  0.12337106615E+02  0.23308725815E+02  0.00000000000E+00 0.  1.
         22    1    1    2    0    0 -0.19832770370E+03 -0.39968224307E+03 -0.32451057136E+03  0.55171268284E+03  0.00000000000E+00 0.  1.
<mgrwt>
<rscale>  0 0.13422978E+04</rscale>
<asrwt>0</asrwt>
<pdfrwt beam="1">  1        2 0.13733551E+00 0.13422978E+04</pdfrwt>
<pdfrwt beam="2">  1       -2 0.77629753E-01 0.13422978E+04</pdfrwt>
<totfact> 0.42879215E+01</totfact>
</mgrwt>
</event>
<event>
 6    1  0.1528034E-005  0.1035597E+04  0.7818608E-02  0.9270342E-01
         -1   -1    0    0    0  501 -0.00000000000E+00  0.00000000000E+00  0.47189674558E+03  0.47189674558E+03  0.00000000000E+00 0.  1.
          1   -1    0    0  501    0  0.00000000000E+00 -0.00000000000E+00 -0.56816467934E+03  0.56816467934E+03  0.00000000000E+00 0. -1.
         23    2    1    2    0    0  0.35670430468E+03 -0.67250475969E+02 -0.41358864276E+03  0.55792760548E+03  0.92016629160E+02 0.  0.
         13    1    3    3    0    0  0.19846532213E+03  0.89877810735E+01 -0.22749090884E+03  0.30202876999E+03  0.00000000000E+00 0.  1.
        -13    1    3    3    0    0  0.15823898255E+03 -0.76238257043E+02 -0.18609773392E+03  0.25589883549E+03  0.00000000000E+00 0. -1.
         22    1    1    2    0    0 -0.35670430468E+03  0.67250475969E+02  0.31732070900E+03  0.48213381945E+03  0.00000000000E+00 0.  1.
<mgrwt>
<rscale>  0 0.10355966E+04</rscale>
<asrwt>0</asrwt>
<pdfrwt beam="1">  1        1 0.87409950E-01 0.10355966E+04</pdfrwt>
<pdfrwt beam="2">  1       -1 0.72599500E-01 0.10355966E+04</pdfrwt>
<totfact> 0.70945725E+01</totfact>
</mgrwt>
</event>
<event>
 6    1  0.1528034E-005  0.1571215E+04  0.7818608E-02  0.8838430E-01
          1   -1    0    0  501    0  0.00000000000E+00  0.00000000000E+00  0.12518247905E+04  0.12518247905E+04  0.00000000000E+00 0. -1.
         -1   -1    0    0    0  501 -0.00000000000E+00 -0.00000000000E+00 -0.49302328858E+03  0.49302328858E+03  0.00000000000E+00 0.  1.
         23    2    1    2    0    0  0.68516066286E+03  0.37867270840E+03  0.40503799716E+03  0.88578651473E+03  0.87885246375E+02 0.  0.
         11    1    3    3    0    0  0.58790423156E+03  0.35772545360E+03  0.34950703353E+03  0.77185105566E+03  0.00000000000E+00 0.  1.
        -11    1    3    3    0    0  0.97256431299E+02  0.20947254794E+02  0.55530963626E+02  0.11393545907E+03  0.00000000000E+00 0. -1.
         22    1    1    2    0    0 -0.68516066286E+03 -0.37867270840E+03  0.35376350474E+03  0.85906156433E+03  0.00000000000E+00 0.  1.
<mgrwt>
<rscale>  0 0.15712145E+04</rscale>
<asrwt>0</asrwt>
<pdfrwt beam="1">  1        1 0.19258843E+00 0.15712145E+04</pdfrwt>
<pdfrwt beam="2">  1       -1 0.75849737E-01 0.15712145E+04</pdfrwt>
<totfact> 0.16454048E+01</totfact>
</mgrwt>
</event>
<event>
 6    1  0.1528034E-005  0.2120742E+04  0.7818608E-02  0.8552161E-01
         -2   -1    0    0    0  501 -0.00000000000E+00  0.00000000000E+00  0.47570830122E+03  0.47570830122E+03  0.00000000000E+00 0.  1.
          2   -1    0    0  501    0  0.00000000000E+00 -0.00000000000E+00 -0.23636054170E+04  0.23636054170E+04  0.00000000000E+00 0. -1.
         23    2    1    2    0    0 -0.89942512200E+03  0.40665963237E+03 -0.14568346677E+04  0.17622099902E+04  0.93162192417E+02 0.  0.
         11    1    3    3    0    0 -0.28780434463E+03  0.12810305365E+03 -0.54443211487E+03  0.62900561273E+03  0.00000000000E+00 0.  1.
        -11    1    3    3    0    0 -0.61162077737E+03  0.27855657872E+03 -0.91240255281E+03  0.11332043775E+04  0.00000000000E+00 0. -1.
         22    1    1    2    0    0  0.89942512200E+03 -0.40665963237E+03 -0.43106244814E+03  0.10771037280E+04  0.00000000000E+00 0.  1.
<mgrwt>
<rscale>  0 0.21207421E+04</rscale>
<asrwt>0</asrwt>
<pdfrwt beam="1">  1        2 0.36363161E+00 0.21207421E+04</pdfrwt>
<pdfrwt beam="2">  1       -2 0.73185891E-01 0.21207421E+04</pdfrwt>
<totfact> 0.64688164E+00</totfact>
</mgrwt>
</event>
<event>
 6    1  0.1528034E-005  0.2498903E+04  0.7818608E-02  0.8403377E-01
         -1   -1    0    0    0  501 -0.00000000000E+00  0.00000000000E+00  0.69727566906E+03  0.69727566906E+03  0.00000000000E+00 0.  1.
          1   -1    0    0  501    0  0.00000000000E+00 -0.00000000000E+00 -0.22388975154E+04  0.22388975154E+04  0.00000000000E+00 0. -1.
         23    2    1    2    0    0  0.99601363625E+03  0.75124694612E+03 -0.74359780642E+03  0.14552081255E+04  0.90982707440E+02 0.  0.
         13    1    3    3    0    0  0.56197555802E+03  0.45590150364E+03 -0.47369291182E+03  0.86489749886E+03  0.00000000000E+00 0.  1.
        -13    1    3    3    0    0  0.43403807823E+03  0.29534544248E+03 -0.26990489460E+03  0.59031062660E+03  0.00000000000E+00 0. -1.
         22    1    1    2    0    0 -0.99601363625E+03 -0.75124694612E+03 -0.79802403991E+03  0.14809650590E+04  0.00000000000E+00 0. -1.
<mgrwt>
<rscale>  0 0.24989028E+04</rscale>
<asrwt>0</asrwt>
<pdfrwt beam="1">  1        1 0.34444577E+00 0.24989028E+04</pdfrwt>
<pdfrwt beam="2">  1       -1 0.10727318E+00 0.24989028E+04</pdfrwt>
<totfact> 0.14739060E+00</totfact>
</mgrwt>
</event>
<event>
 6    1  0.1528034E-005  0.3521997E+04  0.7818608E-02  0.8108597E-01
         -1   -1    0    0    0  501 -0.00000000000E+00  0.00000000000E+00  0.13179422651E+04  0.13179422651E+04  0.00000000000E+00 0.  1.
          1   -1    0    0  501    0  0.00000000000E+00 -0.00000000000E+00 -0.23529986285E+04  0.23529986285E+04  0.00000000000E+00 0. -1.
         23    2    1    2    0    0  0.11127150130E+04  0.38179856305E+03 -0.18820925110E+04  0.22213288496E+04  0.90137646587E+02 0.  0.
         11    1    3    3    0    0  0.93423157397E+03  0.31703922349E+03 -0.16369221735E+04  0.19112343407E+04  0.00000000000E+00 0. -1.
        -11    1    3    3    0    0  0.17848343901E+03  0.64759339564E+02 -0.24517033746E+03  0.31009450887E+03  0.00000000000E+00 0.  1.
         22    1    1    2    0    0 -0.11127150130E+04 -0.38179856305E+03  0.84703614761E+03  0.14496120440E+04  0.00000000000E+00 0.  1.
<mgrwt>
<rscale>  0 0.35219974E+04</rscale>
<asrwt>0</asrwt>
<pdfrwt beam="1">  1        1 0.36199979E+00 0.35219974E+04</pdfrwt>
<pdfrwt beam="2">  1       -1 0.20276035E+00 0.35219974E+04</pdfrwt>
<totfact> 0.20078366E-01</totfact>
</mgrwt>
</event>
<event>
 6    1  0.1528034E-005  0.3878205E+04  0.7818608E-02  0.8029577E-01
         -1   -1    0    0    0  501 -0.00000000000E+00  0.00000000000E+00  0.15302265708E+04  0.15302265708E+04  0.00000000000E+00 0.  1.
          1   -1    0    0  501    0  0.00000000000E+00 -0.00000000000E+00 -0.24572297824E+04  0.24572297824E+04  0.00000000000E+00 0. -1.
         23    2    1    2    0    0 -0.16692510094E+04 -0.21224175360E+03  0.52489272455E+03  0.17649696145E+04  0.90332017602E+02 0.  0.
         13    1    3    3    0    0 -0.53623764371E+03 -0.26649099639E+02  0.15828880303E+03  0.55974666610E+03  0.00000000000E+00 0.  1.
        -13    1    3    3    0    0 -0.11330133657E+04 -0.18559265396E+03  0.36660392153E+03  0.12052229484E+04  0.00000000000E+00 0. -1.
         22    1    1    2    0    0  0.16692510094E+04  0.21224175360E+03 -0.14518959362E+04  0.22224867387E+04  0.00000000000E+00 0. -1.
<mgrwt>
<rscale>  0 0.38782049E+04</rscale>
<asrwt>0</asrwt>
<pdfrwt beam="1">  1        1 0.37803535E+00 0.38782049E+04</pdfrwt>
<pdfrwt beam="2">  1       -1 0.23541948E+00 0.38782049E+04</pdfrwt>
<totfact> 0.99649774E-02</totfact>
</mgrwt>
</event>
<event>
 6    1  0.1528034E-005  0.1866294E+04  0.7818608E-02  0.8671818E-01
         -2   -1    0    0    0  501 -0.00000000000E+00  0.00000000000E+00  0.35234747283E+03  0.35234747283E+03  0.00000000000E+00 0. -1.
          2   -1    0    0  501    0  0.00000000000E+00 -0.00000000000E+00 -0.24713191302E+04  0.24713191302E+04  0.00000000000E+00 0.  1.
         23    2    1    2    0    0  0.43655574786E+03 -0.32821498945E+02 -0.23049741178E+04  0.23480038160E+04  0.92509806199E+02 0.  0.
         11    1    3    3    0    0  0.12554564278E+03 -0.36772929751E+01 -0.90009524934E+03  0.90881609184E+03  0.00000000000E+00 0.  1.
        -11    1    3    3    0    0  0.31101010508E+03 -0.29144205970E+02 -0.14048788685E+04  0.14391877241E+04  0.00000000000E+00 0. -1.
         22    1    1    2    0    0 -0.43655574786E+03  0.32821498945E+02  0.18600246038E+03  0.47566278712E+03  0.00000000000E+00 0. -1.
<mgrwt>
<rscale>  0 0.18662937E+04</rscale>
<asrwt>0</asrwt>
<pdfrwt beam="1">  1        2 0.38020295E+00 0.18662937E+04</pdfrwt>
<pdfrwt beam="2">  1       -2 0.54207303E-01 0.18662937E+04</pdfrwt>
<totfact> 0.10892352E+01</totfact>
</mgrwt>
</event>
<event>
 6    1  0.1528034E-005  0.1578831E+04  0.7818608E-02  0.8833659E-01
         -1   -1    0    0    0  501 -0.00000000000E+00  0.00000000000E+00  0.26437941236E+03  0.26437941236E+03  0.00000000000E+00 0.  1.
          1   -1    0    0  501    0  0.00000000000E+00 -0.00000000000E+00 -0.23571312962E+04  0.23571312962E+04  0.00000000000E+00 0. -1.
         23    2    1    2    0    0  0.90692732315E+02  0.17874037735E+03 -0.23131622160E+04  0.23235945984E+04  0.90549024051E+02 0.  0.
         11    1    3    3    0    0  0.93351809079E+02  0.87772783848E+02 -0.12538042733E+04  0.12603347879E+04  0.00000000000E+00 0.  1.
        -11    1    3    3    0    0 -0.26590767636E+01  0.90967593507E+02 -0.10593579427E+04  0.10632598105E+04  0.00000000000E+00 0. -1.
         22    1    1    2    0    0 -0.90692732315E+02 -0.17874037735E+03  0.22041033217E+03  0.29791611021E+03  0.00000000000E+00 0.  1.
<mgrwt>
<rscale>  0 0.15788312E+04</rscale>
<asrwt>0</asrwt>
<pdfrwt beam="1">  1        1 0.36263558E+00 0.15788312E+04</pdfrwt>
<pdfrwt beam="2">  1       -1 0.40673757E-01 0.15788312E+04</pdfrwt>
<totfact> 0.96693894E+00</totfact>
</mgrwt>
</event>
<event>
 6    1  0.1528034E-005  0.8518982E+03  0.7818608E-02  0.9487793E-01
          2   -1    0    0  501    0  0.00000000000E+00  0.00000000000E+00  0.13441242319E+04  0.13441242319E+04  0.00000000000E+00 0. -1.
         -2   -1    0    0    0  501 -0.00000000000E+00 -0.00000000000E+00 -0.13498204712E+03  0.13498204712E+03  0.00000000000E+00 0.  1.
         23    2    1    2    0    0 -0.31269959246E+03  0.46125184396E+02  0.10947620980E+04  0.11429643864E+04  0.89190636073E+02 0.  0.
         11    1    3    3    0    0 -0.14173788668E+03  0.10584675186E+02  0.64545335019E+03  0.66091731037E+03  0.00000000000E+00 0. -1.
        -11    1    3    3    0    0 -0.17096170578E+03  0.35540509211E+02  0.44930874778E+03  0.48204707598E+03  0.00000000000E+00 0.  1.
         22    1    1    2    0    0  0.31269959246E+03 -0.46125184396E+02  0.11438008685E+03  0.33614189270E+03  0.00000000000E+00 0.  1.
<mgrwt>
<rscale>  0 0.85189821E+03</rscale>
<asrwt>0</asrwt>
<pdfrwt beam="1">  1        2 0.20678833E+00 0.85189821E+03</pdfrwt>
<pdfrwt beam="2">  1       -2 0.20766470E-01 0.85189821E+03</pdfrwt>
<totfact> 0.31282468E+02</totfact>
</mgrwt>
</event>
<event>
 6    1  0.1528034E-005  0.1563848E+04  0.7818608E-02  0.8843071E-01
         -2   -1    0    0    0  501 -0.00000000000E+00  0.00000000000E+00  0.41192876355E+03  0.41192876355E+03  0.00000000000E+00 0.  1.
          2   -1    0    0  501    0  0.00000000000E+00 -0.00000000000E+00 -0.14842493312E+04  0.14842493312E+04  0.00000000000E+00 0. -1.
         23    2    1    2    0    0 -0.46413410929E+03 -0.24275804703E+03 -0.12376074794E+04  0.13469316072E+04  0.90556837109E+02 0.  0.
         13    1    3    3    0    0 -0.13220656616E+03 -0.11317303893E+03 -0.36458300859E+03  0.40398945906E+03  0.00000000000E+00 0.  1.
        -13    1    3    3    0    0 -0.33192754313E+03 -0.12958500810E+03 -0.87302447079E+03  0.94294214818E+03  0.00000000000E+00 0. -1.
         22    1    1    2    0    0  0.46413410929E+03  0.24275804703E+03  0.16528691177E+03  0.54924648748E+03  0.00000000000E+00 0.  1.
<mgrwt>
<rscale>  0 0.15638478E+04</rscale>
<asrwt>0</asrwt>
<pdfrwt beam="1">  1        2 0.22834606E+00 0.15638478E+04</pdfrwt>
<pdfrwt beam="2">  1       -2 0.63373655E-01 0.15638478E+04</pdfrwt>
<totfact> 0.28717545E+01</totfact>
</mgrwt>
</event>
<event>
 6    1  0.1528034E-005  0.1452042E+04  0.7818608E-02  0.8916986E-01
         -2   -1    0    0    0  501 -0.00000000000E+00  0.00000000000E+00  0.21565981478E+03  0.21565981478E+03  0.00000000000E+00 0.  1.
          2   -1    0    0  501    0  0.00000000000E+00 -0.00000000000E+00 -0.24441584046E+04  0.24441584046E+04  0.00000000000E+00 0. -1.
         23    2    1    2    0    0 -0.42864025643E+03 -0.17369198958E+03 -0.10030209150E+03  0.48194730674E+03  0.91166442503E+02 0.  0.
         13    1    3    3    0    0 -0.52663651935E+02 -0.47363150350E+02  0.66713694363E+01  0.71142360211E+02  0.00000000000E+00 0. -1.
        -13    1    3    3    0    0 -0.37597660450E+03 -0.12632883923E+03 -0.10697346093E+03  0.41080494653E+03  0.00000000000E+00 0.  1.
         22    1    1    2    0    0  0.42864025643E+03  0.17369198958E+03 -0.21281964984E+04  0.21778709127E+04  0.00000000000E+00 0. -1.
<mgrwt>
<rscale>  0 0.14520424E+04</rscale>
<asrwt>0</asrwt>
<pdfrwt beam="1">  1        2 0.37602438E+00 0.14520424E+04</pdfrwt>
<pdfrwt beam="2">  1       -2 0.33178432E-01 0.14520424E+04</pdfrwt>
<totfact> 0.30928927E+01</totfact>
</mgrwt>
</event>
<event>
 6    1  0.1528034E-005  0.3628902E+04  0.7818608E-02  0.8083903E-01
         -2   -1    0    0    0  501 -0.00000000000E+00  0.00000000000E+00  0.18124979429E+04  0.18124979429E+04  0.00000000000E+00 0. -1.
          2   -1    0    0  501    0  0.00000000000E+00 -0.00000000000E+00 -0.18164057277E+04  0.18164057277E+04  0.00000000000E+00 0.  1.
         23    2    1    2    0    0 -0.15848459854E+04  0.27567527541E+03 -0.83879003979E+03  0.18165124230E+04  0.91733294513E+02 0.  0.
         11    1    3    3    0    0 -0.13747498102E+04  0.20822476339E+03 -0.71479298748E+03  0.15634012945E+04  0.00000000000E+00 0. -1.
        -11    1    3    3    0    0 -0.21009617517E+03  0.67450512026E+02 -0.12399705230E+03  0.25311112851E+03  0.00000000000E+00 0.  1.
         22    1    1    2    0    0  0.15848459854E+04 -0.27567527541E+03  0.83488225498E+03  0.18123912476E+04  0.00000000000E+00 0. -1.
<mgrwt>
<rscale>  0 0.36289016E+04</rscale>
<asrwt>0</asrwt>
<pdfrwt beam="1">  1        2 0.27944703E+00 0.36289016E+04</pdfrwt>
<pdfrwt beam="2">  1       -2 0.27884584E+00 0.36289016E+04</pdfrwt>
<totfact> 0.29406975E-01</totfact>
</mgrwt>
</event>
<event>
 6    1  0.1528034E-005  0.1378781E+04  0.7818608E-02  0.8969323E-01
          2   -1    0    0  501    0  0.00000000000E+00  0.00000000000E+00  0.23082956535E+04  0.23082956535E+04  0.00000000000E+00 0. -1.
         -2   -1    0    0    0  501 -0.00000000000E+00 -0.00000000000E+00 -0.20589176260E+03  0.20589176260E+03  0.00000000000E+00 0.  1.
         23    2    1    2    0    0  0.65978680439E+03  0.11322147492E+03  0.13328965735E+04  0.14942466133E+04  0.89565262045E+02 0.  0.
         11    1    3    3    0    0  0.25027974319E+03  0.81786248554E+01  0.43844417708E+03  0.50491596942E+03  0.00000000000E+00 0. -1.
        -11    1    3    3    0    0  0.40950706119E+03  0.10504285007E+03  0.89445239642E+03  0.98933064391E+03  0.00000000000E+00 0.  1.
         22    1    1    2    0    0 -0.65978680439E+03 -0.11322147492E+03  0.76950731737E+03  0.10199408027E+04  0.00000000000E+00 0.  1.
<mgrwt>
<rscale>  0 0.13787807E+04</rscale>
<asrwt>0</asrwt>
<pdfrwt beam="1">  1        2 0.35512239E+00 0.13787807E+04</pdfrwt>
<pdfrwt beam="2">  1       -2 0.31675657E-01 0.13787807E+04</pdfrwt>
<totfact> 0.40577816E+01</totfact>
</mgrwt>
</event>
<event>
 6    1  0.1528034E-005  0.2419795E+04  0.7818608E-02  0.8432130E-01
          2   -1    0    0  501    0  0.00000000000E+00  0.00000000000E+00  0.13347771188E+04  0.13347771188E+04  0.00000000000E+00 0. -1.
         -2   -1    0    0    0  501 -0.00000000000E+00 -0.00000000000E+00 -0.10967014807E+04  0.10967014807E+04  0.00000000000E+00 0.  1.
         23    2    1    2    0    0 -0.33208216925E+03 -0.89437929458E+03 -0.62564806299E+03  0.11445397814E+04  0.91339601309E+02 0.  0.
         13    1    3    3    0    0 -0.25678240661E+03 -0.68731469334E+03 -0.43361128187E+03  0.85226605928E+03  0.00000000000E+00 0.  1.
        -13    1    3    3    0    0 -0.75299762632E+02 -0.20706460124E+03 -0.19203678111E+03  0.29227372212E+03  0.00000000000E+00 0. -1.
         22    1    1    2    0    0  0.33208216925E+03  0.89437929458E+03  0.86372370114E+03  0.12869388181E+04  0.00000000000E+00 0. -1.
<mgrwt>
<rscale>  0 0.24197951E+04</rscale>
<asrwt>0</asrwt>
<pdfrwt beam="1">  1        2 0.20535033E+00 0.24197951E+04</pdfrwt>
<pdfrwt beam="2">  1       -2 0.16872331E+00 0.24197951E+04</pdfrwt>
<totfact> 0.30835544E+00</totfact>
</mgrwt>
</event>
<event>
 6    1  0.1528034E-005  0.2226204E+04  0.7818608E-02  0.8507600E-01
         -2   -1    0    0    0  501 -0.00000000000E+00  0.00000000000E+00  0.11997552556E+04  0.11997552556E+04  0.00000000000E+00 0. -1.
          2   -1    0    0  501    0  0.00000000000E+00 -0.00000000000E+00 -0.10327071670E+04  0.10327071670E+04  0.00000000000E+00 0.  1.
         23    2    1    2    0    0 -0.97421625952E+03 -0.11815429967E+03 -0.43912004694E+03  0.10789904605E+04  0.91303008381E+02 0.  0.
         11    1    3    3    0    0 -0.24196533623E+03  0.97626488569E+01 -0.11424088511E+03  0.26775644358E+03  0.00000000000E+00 0. -1.
        -11    1    3    3    0    0 -0.73225092329E+03 -0.12791694853E+03 -0.32487916183E+03  0.81123401690E+03  0.00000000000E+00 0.  1.
         22    1    1    2    0    0  0.97421625952E+03  0.11815429967E+03  0.60616813550E+03  0.11534719621E+04  0.00000000000E+00 0.  1.
<mgrwt>
<rscale>  0 0.22262038E+04</rscale>
<asrwt>0</asrwt>
<pdfrwt beam="1">  1        2 0.15887803E+00 0.22262038E+04</pdfrwt>
<pdfrwt beam="2">  1       -2 0.18457773E+00 0.22262038E+04</pdfrwt>
<totfact> 0.36922221E+00</totfact>
</mgrwt>
</event>
<event>
 6    1  0.1528034E-005  0.2590926E+04  0.7818608E-02  0.8371290E-01
          1   -1    0    0  501    0  0.00000000000E+00  0.00000000000E+00  0.19793366407E+04  0.19793366407E+04  0.00000000000E+00 0. -1.
         -1   -1    0    0    0  501 -0.00000000000E+00 -0.00000000000E+00 -0.84787196157E+03  0.84787196157E+03  0.00000000000E+00 0.  1.
         23    2    1    2    0    0 -0.24554988591E+03 -0.68315536188E+03  0.17350492325E+04  0.18831162826E+04  0.93461754633E+02 0.  0.
         11    1    3    3    0    0 -0.16211097598E+03 -0.53993017464E+03  0.12732254861E+04  0.13924466599E+04  0.00000000000E+00 0. -1.
        -11    1    3    3    0    0 -0.83438909927E+02 -0.14322518725E+03  0.46182374637E+03  0.49066962272E+03  0.00000000000E+00 0.  1.
         22    1    1    2    0    0  0.24554988591E+03  0.68315536188E+03 -0.60358455340E+03  0.94409231966E+03  0.00000000000E+00 0.  1.
<mgrwt>
<rscale>  0 0.25909257E+04</rscale>
<asrwt>0</asrwt>
<pdfrwt beam="1">  1        1 0.30451333E+00 0.25909257E+04</pdfrwt>
<pdfrwt beam="2">  1       -1 0.13044184E+00 0.25909257E+04</pdfrwt>
<totfact> 0.13638577E+00</totfact>
</mgrwt>
</event>
<event>
 6    1  0.1528034E-005  0.2152791E+04  0.7818608E-02  0.8538338E-01
          2   -1    0    0  501    0  0.00000000000E+00  0.00000000000E+00  0.14464209146E+04  0.14464209146E+04  0.00000000000E+00 0. -1.
         -2   -1    0    0    0  501 -0.00000000000E+00 -0.00000000000E+00 -0.80103078287E+03  0.80103078287E+03  0.00000000000E+00 0.  1.
         23    2    1    2    0    0 -0.74818924602E+03  0.58616216387E+03  0.84635232475E+03  0.12759790868E+04  0.91853917518E+02 0.  0.
         11    1    3    3    0    0 -0.22109334959E+03  0.14224391788E+03  0.19066854981E+03  0.32476160070E+03  0.00000000000E+00 0. -1.
        -11    1    3    3    0    0 -0.52709589644E+03  0.44391824599E+03  0.65568377495E+03  0.95121748611E+03  0.00000000000E+00 0.  1.
         22    1    1    2    0    0  0.74818924602E+03 -0.58616216387E+03 -0.20096219302E+03  0.97147261065E+03  0.00000000000E+00 0.  1.
<mgrwt>
<rscale>  0 0.21527914E+04</rscale>
<asrwt>0</asrwt>
<pdfrwt beam="1">  1        2 0.22252629E+00 0.21527914E+04</pdfrwt>
<pdfrwt beam="2">  1       -2 0.12323551E+00 0.21527914E+04</pdfrwt>
<totfact> 0.62080987E+00</totfact>
</mgrwt>
</event>
<event>
 6    1  0.1528034E-005  0.1633474E+04  0.7818608E-02  0.8800243E-01
          2   -1    0    0  501    0  0.00000000000E+00  0.00000000000E+00  0.28175413226E+04  0.28175413226E+04  0.00000000000E+00 0. -1.
         -2   -1    0    0    0  501 -0.00000000000E+00 -0.00000000000E+00 -0.23675242043E+03  0.23675242043E+03  0.00000000000E+00 0.  1.
         23    2    1    2    0    0 -0.51192935014E+02  0.57172883280E+03  0.23742026919E+04  0.24442343712E+04  0.89155283507E+02 0.  0.
         11    1    3    3    0    0 -0.60944232005E+01  0.46083613172E+03  0.18516192190E+04  0.19081144658E+04  0.00000000000E+00 0.  1.
        -11    1    3    3    0    0 -0.45098511814E+02  0.11089270109E+03  0.52258347284E+03  0.53611990544E+03  0.00000000000E+00 0. -1.
         22    1    1    2    0    0  0.51192935014E+02 -0.57172883280E+03  0.20658621032E+03  0.61005937182E+03  0.00000000000E+00 0.  1.
<mgrwt>
<rscale>  0 0.16334745E+04</rscale>
<asrwt>0</asrwt>
<pdfrwt beam="1">  1        2 0.43346787E+00 0.16334745E+04</pdfrwt>
<pdfrwt beam="2">  1       -2 0.36423451E-01 0.16334745E+04</pdfrwt>
<totfact> 0.15376305E+01</totfact>
</mgrwt>
</event>
<event>
 6    1  0.1528034E-005  0.4183420E+04  0.7818608E-02  0.7968534E-01
         -2   -1    0    0    0  501 -0.00000000000E+00  0.00000000000E+00  0.23664511088E+04  0.23664511088E+04  0.00000000000E+00 0.  1.
          2   -1    0    0  501    0  0.00000000000E+00 -0.00000000000E+00 -0.18488662801E+04  0.18488662801E+04  0.00000000000E+00 0. -1.
         23    2    1    2    0    0 -0.98258469423E+03 -0.99194822094E+02 -0.15979895742E+04  0.18805867089E+04  0.87882855340E+02 0.  0.
         13    1    3    3    0    0 -0.66483534343E+03 -0.70996541116E+02 -0.10019907521E+04  0.12045879005E+04  0.00000000000E+00 0. -1.
        -13    1    3    3    0    0 -0.31774935080E+03 -0.28198280978E+02 -0.59599882205E+03  0.67599880833E+03  0.00000000000E+00 0.  1.
         22    1    1    2    0    0  0.98258469423E+03  0.99194822094E+02  0.21155744029E+04  0.23347306800E+04  0.00000000000E+00 0.  1.
<mgrwt>
<rscale>  0 0.41834204E+04</rscale>
<asrwt>0</asrwt>
<pdfrwt beam="1">  1        2 0.28444097E+00 0.41834204E+04</pdfrwt>
<pdfrwt beam="2">  1       -2 0.36406940E+00 0.41834204E+04</pdfrwt>
<totfact> 0.79808166E-02</totfact>
</mgrwt>
</event>
<event>
 6    1  0.1528034E-005  0.2809292E+04  0.7818608E-02  0.8300389E-01
         -3   -1    0    0    0  501 -0.00000000000E+00  0.00000000000E+00  0.12582007344E+04  0.12582007344E+04  0.00000000000E+00 0.  1.
          3   -1    0    0  501    0  0.00000000000E+00 -0.00000000000E+00 -0.15681368078E+04  0.15681368078E+04  0.00000000000E+00 0. -1.
         23    2    1    2    0    0  0.60009604142E+03 -0.56809497961E+03  0.98612183692E+03  0.12892580804E+04  0.83084028588E+02 0.  0.
         13    1    3    3    0    0  0.32250373713E+03 -0.26061216959E+03  0.53354366945E+03  0.67571903230E+03  0.00000000000E+00 0. -1.
        -13    1    3    3    0    0  0.27759230430E+03 -0.30748281001E+03  0.45257816747E+03  0.61353904809E+03  0.00000000000E+00 0.  1.
         22    1    1    2    0    0 -0.60009604142E+03  0.56809497961E+03 -0.12960579104E+04  0.15370794618E+04  0.00000000000E+00 0. -1.
<mgrwt>
<rscale>  0 0.28092924E+04</rscale>
<asrwt>0</asrwt>
<pdfrwt beam="1">  1        3 0.24125182E+00 0.28092924E+04</pdfrwt>
<pdfrwt beam="2">  1       -3 0.19356934E+00 0.28092924E+04</pdfrwt>
<totfact> 0.30183255E-02</totfact>
</mgrwt>
</event>
<event>
 6    1  0.1528034E-005  0.2966593E+04  0.7818608E-02  0.8253335E-01
         -2   -1    0    0    0  501 -0.00000000000E+00  0.00000000000E+00  0.20333732339E+04  0.20333732339E+04  0.00000000000E+00 0.  1.
          2   -1    0    0  501    0  0.00000000000E+00 -0.00000000000E+00 -0.10820287716E+04  0.10820287716E+04  0.00000000000E+00 0. -1.
         23    2    1    2    0    0 -0.30011452451E+03  0.11234855211E+04  0.14399901940E+04  0.18540285101E+04  0.10752447917E+03 0.  0.
         11    1    3    3    0    0 -0.89586604705E+02  0.29132397516E+03  0.45300937651E+03  0.54599717348E+03  0.00000000000E+00 0. -1.
        -11    1    3    3    0    0 -0.21052791981E+03  0.83216154595E+03  0.98698081746E+03  0.13080313366E+04  0.00000000000E+00 0.  1.
         22    1    1    2    0    0  0.30011452451E+03 -0.11234855211E+04 -0.48864573163E+03  0.12613734954E+04  0.00000000000E+00 0. -1.
<mgrwt>
<rscale>  0 0.29665929E+04</rscale>
<asrwt>0</asrwt>
<pdfrwt beam="1">  1        2 0.16646596E+00 0.29665929E+04</pdfrwt>
<pdfrwt beam="2">  1       -2 0.31282665E+00 0.29665929E+04</pdfrwt>
<totfact> 0.50862405E-01</totfact>
</mgrwt>
</event>
<event>
 6    1  0.1528034E-005  0.1124585E+04  0.7818608E-02  0.9181555E-01
         -1   -1    0    0    0  501 -0.00000000000E+00  0.00000000000E+00  0.73954379464E+03  0.73954379464E+03  0.00000000000E+00 0.  1.
          1   -1    0    0  501    0  0.00000000000E+00 -0.00000000000E+00 -0.42752444969E+03  0.42752444969E+03  0.00000000000E+00 0. -1.
         23    2    1    2    0    0 -0.19409077214E+03  0.30359415538E+03  0.59989650863E+03  0.70585907228E+03  0.92306932758E+02 0.  0.
         11    1    3    3    0    0 -0.98433710234E+02  0.14901616082E+03  0.38488845371E+03  0.42430429328E+03  0.00000000000E+00 0. -1.
        -11    1    3    3    0    0 -0.95657061911E+02  0.15457799456E+03  0.21500805492E+03  0.28155477900E+03  0.00000000000E+00 0.  1.
         22    1    1    2    0    0  0.19409077214E+03 -0.30359415538E+03 -0.28787716368E+03  0.46120917205E+03  0.00000000000E+00 0. -1.
<mgrwt>
<rscale>  0 0.11245854E+04</rscale>
<asrwt>0</asrwt>
<pdfrwt beam="1">  1        1 0.65772993E-01 0.11245854E+04</pdfrwt>
<pdfrwt beam="2">  1       -1 0.11377597E+00 0.11245854E+04</pdfrwt>
<totfact> 0.38465785E+01</totfact>
</mgrwt>
</event>
<event>
 6    1  0.1708345E-005  0.3066262E+04  0.7818608E-02  0.8225058E-01
          1   -1    0    0  501    0  0.00000000000E+00  0.00000000000E+00  0.22345377521E+04  0.22345377521E+04  0.00000000000E+00 0. -1.
         -1   -1    0    0    0  501 -0.00000000000E+00 -0.00000000000E+00 -0.10518914677E+04  0.10518914677E+04  0.00000000000E+00 0.  1.
         23    2    1    2    0    0  0.86012683589E+03  0.17337779458E+02  0.19502159446E+04  0.21334843141E+04  0.91073133398E+02 0.  0.
         11    1    3    3    0    0  0.20956932923E+03  0.10923903649E+02  0.38580649101E+03  0.43918707168E+03  0.00000000000E+00 0. -1.
        -11    1    3    3    0    0  0.65055750666E+03  0.64138758091E+01  0.15644094536E+04  0.16942972424E+04  0.00000000000E+00 0.  1.
         22    1    1    2    0    0 -0.86012683589E+03 -0.17337779458E+02 -0.76756966021E+03  0.11529449058E+04  0.00000000000E+00 0.  1.
<mgrwt>
<rscale>  0 0.30662623E+04</rscale>
<asrwt>0</asrwt>
<pdfrwt beam="1">  1        1 0.34377504E+00 0.30662623E+04</pdfrwt>
<pdfrwt beam="2">  1       -1 0.16182946E+00 0.30662623E+04</pdfrwt>
<totfact> 0.49422474E-01</totfact>
</mgrwt>
</event>
<event>
 6    1  0.2314684E-005  0.3182043E+04  0.7818608E-02  0.8193576E-01
          2   -1    0    0  501    0  0.00000000000E+00  0.00000000000E+00  0.22721412684E+04  0.22721412684E+04  0.00000000000E+00 0. -1.
         -2   -1    0    0    0  501 -0.00000000000E+00 -0.00000000000E+00 -0.11140812054E+04  0.11140812054E+04  0.00000000000E+00 0.  1.
         23    2    1    2    0    0 -0.25217245693E+03  0.84022369234E+03  0.19903490778E+04  0.21769781620E+04  0.90430443136E+02 0.  0.
         11    1    3    3    0    0 -0.66228600618E+02  0.12626461776E+03  0.27721116472E+03  0.31172906680E+03  0.00000000000E+00 0. -1.
        -11    1    3    3    0    0 -0.18594385632E+03  0.71395907458E+03  0.17131379131E+04  0.18652490952E+04  0.00000000000E+00 0.  1.
         22    1    1    2    0    0  0.25217245693E+03 -0.84022369234E+03 -0.83228901485E+03  0.12092443117E+04  0.00000000000E+00 0.  1.
<mgrwt>
<rscale>  0 0.31820433E+04</rscale>
<asrwt>0</asrwt>
<pdfrwt beam="1">  1        2 0.34956019E+00 0.31820433E+04</pdfrwt>
<pdfrwt beam="2">  1       -2 0.17139711E+00 0.31820433E+04</pdfrwt>
<totfact> 0.82591927E-01</totfact>
</mgrwt>
</event>
<event>
 6    1  0.1528034E-005  0.3134465E+03  0.7818608E-02  0.1078706E+00
         -1   -1    0    0    0  501 -0.00000000000E+00  0.00000000000E+00  0.52529385693E+02  0.52529385693E+02  0.00000000000E+00 0. -1.
          1   -1    0    0  501    0  0.00000000000E+00 -0.00000000000E+00 -0.46758934920E+03  0.46758934920E+03  0.00000000000E+00 0.  1.
         23    2    1    2    0    0  0.11001707153E+03 -0.67169903644E+02 -0.12087891552E+03  0.19893647981E+03  0.91369900941E+02 0.  0.
         13    1    3    3    0    0  0.10951114368E+03 -0.35496966901E+02 -0.12133393108E+03  0.16725623480E+03  0.00000000000E+00 0.  1.
        -13    1    3    3    0    0  0.50592785487E+00 -0.31672936743E+02  0.45501555424E+00  0.31680245012E+02  0.00000000000E+00 0. -1.
         22    1    1    2    0    0 -0.11001707153E+03  0.67169903644E+02 -0.29418104798E+03  0.32118225508E+03  0.00000000000E+00 0.  1.
<mgrwt>
<rscale>  0 0.31344653E+03</rscale>
<asrwt>0</asrwt>
<pdfrwt beam="1">  1        1 0.71936822E-01 0.31344653E+03</pdfrwt>
<pdfrwt beam="2">  1       -1 0.80814440E-02 0.31344653E+03</pdfrwt>
<totfact> 0.41862711E+03</totfact>
</mgrwt>
</event>
<event>
 6    1  0.1528034E-005  0.2038384E+04  0.7818608E-02  0.8588882E-01
         -2   -1    0    0    0  501 -0.00000000000E+00  0.00000000000E+00  0.82271294778E+03  0.82271294778E+03  0.00000000000E+00 0.  1.
          2   -1    0    0  501    0  0.00000000000E+00 -0.00000000000E+00 -0.12625941737E+04  0.12625941737E+04  0.00000000000E+00 0. -1.
         23    2    1    2    0    0 -0.80843416505E+02 -0.38911498909E+03 -0.11782062747E+04  0.12468144200E+04  0.91815246260E+02 0.  0.
         11    1    3    3    0    0 -0.34685570028E+01 -0.16450148655E+03 -0.38217574296E+03  0.41609021674E+03  0.00000000000E+00 0. -1.
        -11    1    3    3    0    0 -0.77374859502E+02 -0.22461350255E+03 -0.79603053178E+03  0.83072420329E+03  0.00000000000E+00 0.  1.
         22    1    1    2    0    0  0.80843416505E+02  0.38911498909E+03  0.73832504880E+03  0.83849270147E+03  0.00000000000E+00 0.  1.
<mgrwt>
<rscale>  0 0.20383842E+04</rscale>
<asrwt>0</asrwt>
<pdfrwt beam="1">  1        2 0.19424526E+00 0.20383842E+04</pdfrwt>
<pdfrwt beam="2">  1       -2 0.12657122E+00 0.20383842E+04</pdfrwt>
<totfact> 0.74840072E+00</totfact>
</mgrwt>
</event>
<event>
 6    1  0.1528034E-005  0.4021583E+04  0.7818608E-02  0.8000207E-01
          1   -1    0    0  501    0  0.00000000000E+00  0.00000000000E+00  0.24695316571E+04  0.24695316571E+04  0.00000000000E+00 0. -1.
         -1   -1    0    0    0  501 -0.00000000000E+00 -0.00000000000E+00 -0.16372665095E+04  0.16372665095E+04  0.00000000000E+00 0.  1.
         23    2    1    2    0    0 -0.61456277477E+03 -0.12735816713E+04 -0.10419878102E+04  0.17589221420E+04  0.91492226363E+02 0.  0.
         13    1    3    3    0    0 -0.16048040169E+03 -0.28697389960E+03 -0.28419850807E+03  0.43459955174E+03  0.00000000000E+00 0. -1.
        -13    1    3    3    0    0 -0.45408237308E+03 -0.98660777171E+03 -0.75778930208E+03  0.13243225903E+04  0.00000000000E+00 0.  1.
         22    1    1    2    0    0  0.61456277477E+03  0.12735816713E+04  0.18742529578E+04  0.23478760247E+04  0.00000000000E+00 0. -1.
<mgrwt>
<rscale>  0 0.40215825E+04</rscale>
<asrwt>0</asrwt>
<pdfrwt beam="1">  1        1 0.37992795E+00 0.40215825E+04</pdfrwt>
<pdfrwt beam="2">  1       -1 0.25188715E+00 0.40215825E+04</pdfrwt>
<totfact> 0.75304554E-02</totfact>
</mgrwt>
</event>
<event>
 6    1  0.1528034E-005  0.2133625E+04  0.7818608E-02  0.8546574E-01
         -1   -1    0    0    0  501 -0.00000000000E+00  0.00000000000E+00  0.43561250055E+03  0.43561250055E+03  0.00000000000E+00 0.  1.
          1   -1    0    0  501    0  0.00000000000E+00 -0.00000000000E+00 -0.26126174294E+04  0.26126174294E+04  0.00000000000E+00 0. -1.
         23    2    1    2    0    0 -0.30492266562E+03  0.26464181834E+03 -0.24981946334E+04  0.25323075034E+04  0.92691646678E+02 0.  0.
         13    1    3    3    0    0 -0.18207324229E+03  0.19715231011E+03 -0.18297082999E+04  0.18492842295E+04  0.00000000000E+00 0. -1.
        -13    1    3    3    0    0 -0.12284942333E+03  0.67489508232E+02 -0.66848633351E+03  0.68302327385E+03  0.00000000000E+00 0.  1.
         22    1    1    2    0    0  0.30492266562E+03 -0.26464181834E+03  0.32118970449E+03  0.51592242662E+03  0.00000000000E+00 0.  1.
<mgrwt>
<rscale>  0 0.21336249E+04</rscale>
<asrwt>0</asrwt>
<pdfrwt beam="1">  1        1 0.40194114E+00 0.21336249E+04</pdfrwt>
<pdfrwt beam="2">  1       -1 0.67017308E-01 0.21336249E+04</pdfrwt>
<totfact> 0.23392037E+00</totfact>
</mgrwt>
</event>
<event>
 6    1  0.1528034E-005  0.2740404E+04  0.7818608E-02  0.8322013E-01
         -1   -1    0    0    0  501 -0.00000000000E+00  0.00000000000E+00  0.15908663180E+04  0.15908663180E+04  0.00000000000E+00 0.  1.
          1   -1    0    0  501    0  0.00000000000E+00 -0.00000000000E+00 -0.11801452331E+04  0.11801452331E+04  0.00000000000E+00 0. -1.
         23    2    1    2    0    0 -0.95300982761E+03 -0.97857043928E+03  0.11849712080E+03  0.13741498252E+04  0.91751502697E+02 0.  0.
         11    1    3    3    0    0 -0.31816810312E+03 -0.33680252938E+03  0.83307750190E+02  0.47075159785E+03  0.00000000000E+00 0.  1.
        -11    1    3    3    0    0 -0.63484172449E+03 -0.64176790990E+03  0.35189370611E+02  0.90339822733E+03  0.00000000000E+00 0. -1.
         22    1    1    2    0    0  0.95300982761E+03  0.97857043928E+03  0.29222396406E+03  0.13968617259E+04  0.00000000000E+00 0.  1.
<mgrwt>
<rscale>  0 0.27404038E+04</rscale>
<asrwt>0</asrwt>
<pdfrwt beam="1">  1        1 0.18156081E+00 0.27404038E+04</pdfrwt>
<pdfrwt beam="2">  1       -1 0.24474866E+00 0.27404038E+04</pdfrwt>
<totfact> 0.72556293E-01</totfact>
</mgrwt>
</event>
<event>
 6    1  0.1528034E-005  0.3662784E+04  0.7818608E-02  0.8076260E-01
          2   -1    0    0  501    0  0.00000000000E+00  0.00000000000E+00  0.21093726976E+04  0.21093726976E+04  0.00000000000E+00 0. -1.
         -2   -1    0    0    0  501 -0.00000000000E+00 -0.00000000000E+00 -0.15900449012E+04  0.15900449012E+04  0.00000000000E+00 0.  1.
         23    2    1    2    0    0 -0.13380340189E+04  0.11150274153E+04  0.82769490371E+03  0.19306012020E+04  0.92309127147E+02 0.  0.
         13    1    3    3    0    0 -0.81106315547E+03  0.73061965040E+03  0.53474084150E+03  0.12155559565E+04  0.00000000000E+00 0.  1.
        -13    1    3    3    0    0 -0.52697086340E+03  0.38440776494E+03  0.29295406221E+03  0.71504524555E+03  0.00000000000E+00 0. -1.
         22    1    1    2    0    0  0.13380340189E+04 -0.11150274153E+04 -0.30836710738E+03  0.17688163968E+04  0.00000000000E+00 0.  1.
<mgrwt>
<rscale>  0 0.36627844E+04</rscale>
<asrwt>0</asrwt>
<pdfrwt beam="1">  1        2 0.32451888E+00 0.36627844E+04</pdfrwt>
<pdfrwt beam="2">  1       -2 0.24462229E+00 0.36627844E+04</pdfrwt>
<totfact> 0.32651354E-01</totfact>
</mgrwt>
</event>
<event>
 6    1  0.1528034E-005  0.1727043E+04  0.7818608E-02  0.8746089E-01
         -1   -1    0    0    0  501 -0.00000000000E+00  0.00000000000E+00  0.38850714140E+03  0.38850714140E+03  0.00000000000E+00 0.  1.
          1   -1    0    0  501    0  0.00000000000E+00 -0.00000000000E+00 -0.19193201292E+04  0.19193201292E+04  0.00000000000E+00 0. -1.
         23    2    1    2    0    0  0.74890074031E+03 -0.56218037893E+02 -0.20399021090E+03  0.78320552474E+03  0.88238887228E+02 0.  0.
         11    1    3    3    0    0  0.21369918441E+03 -0.55310198964E+02 -0.68386869204E+02  0.23109159095E+03  0.00000000000E+00 0.  1.
        -11    1    3    3    0    0  0.53520155590E+03 -0.90783892845E+00 -0.13560334170E+03  0.55211393380E+03  0.00000000000E+00 0. -1.
         22    1    1    2    0    0 -0.74890074031E+03  0.56218037893E+02 -0.13268227769E+04  0.15246217459E+04  0.00000000000E+00 0.  1.
<mgrwt>
<rscale>  0 0.17270432E+04</rscale>
<asrwt>0</asrwt>
<pdfrwt beam="1">  1        1 0.29528002E+00 0.17270432E+04</pdfrwt>
<pdfrwt beam="2">  1       -1 0.59770330E-01 0.17270432E+04</pdfrwt>
<totfact> 0.91100195E+00</totfact>
</mgrwt>
</event>
<event>
 6    1  0.1528034E-005  0.1714575E+04  0.7818608E-02  0.8753095E-01
          2   -1    0    0  501    0  0.00000000000E+00  0.00000000000E+00  0.11720669326E+04  0.11720669326E+04  0.00000000000E+00 0. -1.
         -2   -1    0    0    0  501 -0.00000000000E+00 -0.00000000000E+00 -0.62704798627E+03  0.62704798627E+03  0.00000000000E+00 0.  1.
         23    2    1    2    0    0 -0.62875983879E+03 -0.85874529736E+01  0.88095703704E+03  0.10861863950E+04  0.91120274342E+02 0.  0.
         11    1    3    3    0    0 -0.39451427514E+03  0.12144985851E+02  0.61928449326E+03  0.73437204301E+03  0.00000000000E+00 0.  1.
        -11    1    3    3    0    0 -0.23424556365E+03 -0.20732438824E+02  0.26167254379E+03  0.35181435201E+03  0.00000000000E+00 0. -1.
         22    1    1    2    0    0  0.62875983879E+03  0.85874529736E+01 -0.33593809076E+03  0.71292852380E+03  0.00000000000E+00 0.  1.
<mgrwt>
<rscale>  0 0.17145754E+04</rscale>
<asrwt>0</asrwt>
<pdfrwt beam="1">  1        2 0.18031799E+00 0.17145754E+04</pdfrwt>
<pdfrwt beam="2">  1       -2 0.96468921E-01 0.17145754E+04</pdfrwt>
<totfact> 0.16826811E+01</totfact>
</mgrwt>
</event>
<event>
 6    1  0.1528034E-005  0.3714411E+04  0.7818608E-02  0.8064776E-01
         -2   -1    0    0    0  501 -0.00000000000E+00  0.00000000000E+00  0.16160614688E+04  0.16160614688E+04  0.00000000000E+00 0.  1.
          2   -1    0    0  501    0  0.00000000000E+00 -0.00000000000E+00 -0.21343326046E+04  0.21343326046E+04  0.00000000000E+00 0. -1.
         23    2    1    2    0    0  0.30540923477E+03 -0.10567157378E+04 -0.17688050588E+04  0.20849337635E+04  0.91403014645E+02 0.  0.
         13    1    3    3    0    0  0.58142824471E+02 -0.21825755902E+03 -0.43599398094E+03  0.49102719021E+03  0.00000000000E+00 0.  1.
        -13    1    3    3    0    0  0.24726641030E+03 -0.83845817878E+03 -0.13328110779E+04  0.15939065733E+04  0.00000000000E+00 0. -1.
         22    1    1    2    0    0 -0.30540923477E+03  0.10567157378E+04  0.12505339230E+04  0.16654603099E+04  0.00000000000E+00 0.  1.
<mgrwt>
<rscale>  0 0.37144112E+04</rscale>
<asrwt>0</asrwt>
<pdfrwt beam="1">  1        2 0.32835886E+00 0.37144112E+04</pdfrwt>
<pdfrwt beam="2">  1       -2 0.24862484E+00 0.37144112E+04</pdfrwt>
<totfact> 0.29745272E-01</totfact>
</mgrwt>
</event>
<event>
 6    1  0.1528034E-005  0.2498874E+04  0.7818608E-02  0.8403387E-01
         -1   -1    0    0    0  501 -0.00000000000E+00  0.00000000000E+00  0.92968003144E+03  0.92968003144E+03  0.00000000000E+00 0.  1.
          1   -1    0    0  501    0  0.00000000000E+00 -0.00000000000E+00 -0.16791723363E+04  0.16791723363E+04  0.00000000000E+00 0. -1.
         23    2    1    2    0    0 -0.60896482701E+03  0.10443346605E+04 -0.52106876823E+02  0.12132093336E+04  0.87685328077E+02 0.  0.
         11    1    3    3    0    0 -0.20057383580E+03  0.30896271863E+03  0.20431519727E+02  0.36892448022E+03  0.00000000000E+00 0. -1.
        -11    1    3    3    0    0 -0.40839099121E+03  0.73537194187E+03 -0.72538396550E+02  0.84428485333E+03  0.00000000000E+00 0.  1.
         22    1    1    2    0    0  0.60896482701E+03 -0.10443346605E+04 -0.69738542804E+03  0.13956430342E+04  0.00000000000E+00 0. -1.
<mgrwt>
<rscale>  0 0.24988741E+04</rscale>
<asrwt>0</asrwt>
<pdfrwt beam="1">  1        1 0.25833421E+00 0.24988741E+04</pdfrwt>
<pdfrwt beam="2">  1       -1 0.14302770E+00 0.24988741E+04</pdfrwt>
<totfact> 0.17336302E+00</totfact>
</mgrwt>
</event>
<event>
 6    1  0.1528034E-005  0.1095076E+04  0.7818608E-02  0.9210005E-01
          2   -1    0    0  501    0  0.00000000000E+00  0.00000000000E+00  0.14816547221E+04  0.14816547221E+04  0.00000000000E+00 0. -1.
         -2   -1    0    0    0  501 -0.00000000000E+00 -0.00000000000E+00 -0.20233974672E+03  0.20233974672E+03  0.00000000000E+00 0.  1.
         23    2    1    2    0    0  0.12139507994E+03 -0.52934382994E+03  0.61572288615E+03  0.82650037752E+03  0.95113331299E+02 0.  0.
         13    1    3    3    0    0  0.12632611661E+03 -0.35932491601E+03  0.43959751228E+03  0.58165166191E+03  0.00000000000E+00 0. -1.
        -13    1    3    3    0    0 -0.49310366634E+01 -0.17001891393E+03  0.17612537387E+03  0.24484871561E+03  0.00000000000E+00 0.  1.
         22    1    1    2    0    0 -0.12139507994E+03  0.52934382994E+03  0.66359208924E+03  0.85749409131E+03  0.00000000000E+00 0. -1.
<mgrwt>
<rscale>  0 0.10950756E+04</rscale>
<asrwt>0</asrwt>
<pdfrwt beam="1">  1        2 0.22794687E+00 0.10950756E+04</pdfrwt>
<pdfrwt beam="2">  1       -2 0.31129193E-01 0.10950756E+04</pdfrwt>
<totfact> 0.12344726E+02</totfact>
</mgrwt>
</event>
<event>
 6    1  0.1528034E-005  0.4149182E+04  0.7818608E-02  0.7975110E-01
         -2   -1    0    0    0  501 -0.00000000000E+00  0.00000000000E+00  0.16059764551E+04  0.16059764551E+04  0.00000000000E+00 0.  1.
          2   -1    0    0  501    0  0.00000000000E+00 -0.00000000000E+00 -0.26799447613E+04  0.26799447613E+04  0.00000000000E+00 0. -1.
         23    2    1    2    0    0  0.98691540208E+03 -0.84552702038E+03  0.11318266752E+04  0.17257553130E+04  0.91004531334E+02 0.  0.
         13    1    3    3    0    0  0.25793322394E+02 -0.44893552030E+02  0.41245262482E+02  0.66195907511E+02  0.00000000000E+00 0.  1.
        -13    1    3    3    0    0  0.96112207968E+03 -0.80063346835E+03  0.10905814127E+04  0.16595594055E+04  0.00000000000E+00 0. -1.
         22    1    1    2    0    0 -0.98691540208E+03  0.84552702038E+03 -0.22057949814E+04  0.25601659034E+04  0.00000000000E+00 0. -1.
<mgrwt>
<rscale>  0 0.41491822E+04</rscale>
<asrwt>0</asrwt>
<pdfrwt beam="1">  1        2 0.41229919E+00 0.41491822E+04</pdfrwt>
<pdfrwt beam="2">  1       -2 0.24707330E+00 0.41491822E+04</pdfrwt>
<totfact> 0.14249847E-01</totfact>
</mgrwt>
</event>
<event>
 6    1  0.1528034E-005  0.3007175E+04  0.7818608E-02  0.8241685E-01
         -1   -1    0    0    0  501 -0.00000000000E+00  0.00000000000E+00  0.12843688108E+04  0.12843688108E+04  0.00000000000E+00 0.  1.
          1   -1    0    0  501    0  0.00000000000E+00 -0.00000000000E+00 -0.17602232466E+04  0.17602232466E+04  0.00000000000E+00 0. -1.
         23    2    1    2    0    0  0.80213302423E+02 -0.14848855049E+04 -0.22433815489E+02  0.14899508141E+04  0.90172146286E+02 0.  0.
         13    1    3    3    0    0  0.69628735249E+02 -0.60185185881E+03 -0.33393184573E+02  0.60678573277E+03  0.00000000000E+00 0.  1.
        -13    1    3    3    0    0  0.10584567174E+02 -0.88303364606E+03  0.10959369084E+02  0.88316508135E+03  0.00000000000E+00 0. -1.
         22    1    1    2    0    0 -0.80213302423E+02  0.14848855049E+04 -0.45342062022E+03  0.15546412433E+04  0.00000000000E+00 0. -1.
<mgrwt>
<rscale>  0 0.30071753E+04</rscale>
<asrwt>0</asrwt>
<pdfrwt beam="1">  1        1 0.27080358E+00 0.30071753E+04</pdfrwt>
<pdfrwt beam="2">  1       -1 0.19759520E+00 0.30071753E+04</pdfrwt>
<totfact> 0.57676459E-01</totfact>
</mgrwt>
</event>
<event>
 6    1  0.1528034E-005  0.2609020E+04  0.7818608E-02  0.8365144E-01
          1   -1    0    0  501    0  0.00000000000E+00  0.00000000000E+00  0.13847006857E+04  0.13847006857E+04  0.00000000000E+00 0. -1.
         -1   -1    0    0    0  501 -0.00000000000E+00 -0.00000000000E+00 -0.12289635118E+04  0.12289635118E+04  0.00000000000E+00 0.  1.
         23    2    1    2    0    0  0.27779180504E+03 -0.56532427954E+03  0.12205611527E+04  0.13764859833E+04  0.90467159243E+02 0.  0.
         13    1    3    3    0    0  0.11786558376E+03 -0.21417024092E+03  0.38377138752E+03  0.45501831371E+03  0.00000000000E+00 0. -1.
        -13    1    3    3    0    0  0.15992622128E+03 -0.35115403863E+03  0.83678976514E+03  0.92146766962E+03  0.00000000000E+00 0.  1.
         22    1    1    2    0    0 -0.27779180504E+03  0.56532427954E+03 -0.10648239787E+04  0.12371782142E+04  0.00000000000E+00 0.  1.
<mgrwt>
<rscale>  0 0.26090202E+04</rscale>
<asrwt>0</asrwt>
<pdfrwt beam="1">  1        1 0.21303088E+00 0.26090202E+04</pdfrwt>
<pdfrwt beam="2">  1       -1 0.18907131E+00 0.26090202E+04</pdfrwt>
<totfact> 0.12433466E+00</totfact>
</mgrwt>
</event>
<event>
 6    1  0.1528034E-005  0.3846972E+04  0.7818608E-02  0.8036149E-01
         -1   -1    0    0    0  501 -0.00000000000E+00  0.00000000000E+00  0.14321068611E+04  0.14321068611E+04  0.00000000000E+00 0.  1.
          1   -1    0    0  501    0  0.00000000000E+00 -0.00000000000E+00 -0.25834647393E+04  0.25834647393E+04  0.00000000000E+00 0. -1.
         23    2    1    2    0    0 -0.37337502395E+03  0.10570041148E+04 -0.22061651030E+04  0.24763234434E+04  0.91360424782E+02 0.  0.
         13    1    3    3    0    0 -0.31994894398E+03  0.81057989673E+03 -0.17563467369E+04  0.19606531963E+04  0.00000000000E+00 0. -1.
        -13    1    3    3    0    0 -0.53426079966E+02  0.24642421810E+03 -0.44981836611E+03  0.51567024713E+03  0.00000000000E+00 0.  1.
         22    1    1    2    0    0  0.37337502395E+03 -0.10570041148E+04  0.10548072248E+04  0.15392481570E+04  0.00000000000E+00 0.  1.
<mgrwt>
<rscale>  0 0.38469716E+04</rscale>
<asrwt>0</asrwt>
<pdfrwt beam="1">  1        1 0.39745612E+00 0.38469716E+04</pdfrwt>
<pdfrwt beam="2">  1       -1 0.22032413E+00 0.38469716E+04</pdfrwt>
<totfact> 0.10283233E-01</totfact>
</mgrwt>
</event>
<event>
 6    1  0.1528034E-005  0.2465436E+04  0.7818608E-02  0.8415404E-01
          2   -1    0    0  501    0  0.00000000000E+00  0.00000000000E+00  0.19282354978E+04  0.19282354978E+04  0.00000000000E+00 0. -1.
         -2   -1    0    0    0  501 -0.00000000000E+00 -0.00000000000E+00 -0.78807487774E+03  0.78807487774E+03  0.00000000000E+00 0.  1.
         23    2    1    2    0    0 -0.67973603185E+03 -0.10261983310E+04  0.55003362915E+03  0.13512558151E+04  0.90725945194E+02 0.  0.
         11    1    3    3    0    0 -0.30991381661E+03 -0.42244088134E+03  0.19336858102E+03  0.55847495922E+03  0.00000000000E+00 0. -1.
        -11    1    3    3    0    0 -0.36982221524E+03 -0.60375744967E+03  0.35666504813E+03  0.79278085589E+03  0.00000000000E+00 0.  1.
         22    1    1    2    0    0  0.67973603185E+03  0.10261983310E+04  0.59012699091E+03  0.13650545604E+04  0.00000000000E+00 0.  1.
<mgrwt>
<rscale>  0 0.24654362E+04</rscale>
<asrwt>0</asrwt>
<pdfrwt beam="1">  1        2 0.29665161E+00 0.24654362E+04</pdfrwt>
<pdfrwt beam="2">  1       -2 0.12124229E+00 0.24654362E+04</pdfrwt>
<totfact> 0.33905277E+00</totfact>
</mgrwt>
</event>
<event>
 6    1  0.1528034E-005  0.2397119E+04  0.7818608E-02  0.8440583E-01
         -4   -1    0    0    0  501 -0.00000000000E+00  0.00000000000E+00  0.27862109106E+04  0.27862109106E+04  0.00000000000E+00 0.  1.
          4   -1    0    0  501    0  0.00000000000E+00 -0.00000000000E+00 -0.51559070053E+03  0.51559070053E+03  0.00000000000E+00 0. -1.
         23    2    1    2    0    0 -0.62761308667E+02 -0.50553898778E+03 -0.35507622490E+03  0.62714454552E+03  0.87877787065E+02 0.  0.
         11    1    3    3    0    0  0.82451704660E+01 -0.27331571946E+03 -0.17213293890E+03  0.32310867211E+03  0.00000000000E+00 0.  1.
        -11    1    3    3    0    0 -0.71006479133E+02 -0.23222326832E+03 -0.18294328600E+03  0.30403587341E+03  0.00000000000E+00 0. -1.
         22    1    1    2    0    0  0.62761308667E+02  0.50553898778E+03  0.26256964349E+04  0.26746570656E+04  0.00000000000E+00 0.  1.
<mgrwt>
<rscale>  0 0.23971186E+04</rscale>
<asrwt>0</asrwt>
<pdfrwt beam="1">  1        4 0.79321648E-01 0.23971186E+04</pdfrwt>
<pdfrwt beam="2">  1       -4 0.42864783E+00 0.23971186E+04</pdfrwt>
<totfact> 0.10836946E-02</totfact>
</mgrwt>
</event>
<event>
 6    1  0.1528034E-005  0.2965526E+04  0.7818608E-02  0.8253644E-01
         -2   -1    0    0    0  501 -0.00000000000E+00  0.00000000000E+00  0.86891103065E+03  0.86891103065E+03  0.00000000000E+00 0. -1.
          2   -1    0    0  501    0  0.00000000000E+00 -0.00000000000E+00 -0.25302770500E+04  0.25302770500E+04  0.00000000000E+00 0.  1.
         23    2    1    2    0    0  0.87097483195E+03  0.69450868015E+03  0.28720330504E+03  0.11546698970E+04  0.99183506690E+02 0.  0.
         13    1    3    3    0    0  0.21097438060E+03  0.11752235535E+03  0.71770225651E+02  0.25193780694E+03  0.00000000000E+00 0. -1.
        -13    1    3    3    0    0  0.66000045135E+03  0.57698632480E+03  0.21543307938E+03  0.90273209009E+03  0.00000000000E+00 0.  1.
         22    1    1    2    0    0 -0.87097483195E+03 -0.69450868015E+03 -0.19485693244E+04  0.22445181836E+04  0.00000000000E+00 0.  1.
<mgrwt>
<rscale>  0 0.29655257E+04</rscale>
<asrwt>0</asrwt>
<pdfrwt beam="1">  1        2 0.38927339E+00 0.29655257E+04</pdfrwt>
<pdfrwt beam="2">  1       -2 0.13367862E+00 0.29655257E+04</pdfrwt>
<totfact> 0.11606557E+00</totfact>
</mgrwt>
</event>
<event>
 6    1  0.1528034E-005  0.2121203E+04  0.7818608E-02  0.8551961E-01
          1   -1    0    0  501    0  0.00000000000E+00  0.00000000000E+00  0.14236766819E+04  0.14236766819E+04  0.00000000000E+00 0. -1.
         -1   -1    0    0    0  501 -0.00000000000E+00 -0.00000000000E+00 -0.79011986170E+03  0.79011986170E+03  0.00000000000E+00 0.  1.
         23    2    1    2    0    0 -0.61540538758E+03 -0.40941997972E+03 -0.47422152741E+03  0.88206031662E+03  0.82436849942E+02 0.  0.
         13    1    3    3    0    0 -0.42774566625E+03 -0.26451543786E+03 -0.36256428572E+03  0.61999002665E+03  0.00000000000E+00 0.  1.
        -13    1    3    3    0    0 -0.18765972133E+03 -0.14490454186E+03 -0.11165724169E+03  0.26207028997E+03  0.00000000000E+00 0. -1.
         22    1    1    2    0    0  0.61540538758E+03  0.40941997972E+03  0.11077783476E+04  0.13317362270E+04  0.00000000000E+00 0. -1.
<mgrwt>
<rscale>  0 0.21212027E+04</rscale>
<asrwt>0</asrwt>
<pdfrwt beam="1">  1        1 0.21902718E+00 0.21212027E+04</pdfrwt>
<pdfrwt beam="2">  1       -1 0.12155690E+00 0.21212027E+04</pdfrwt>
<totfact> 0.40712298E+00</totfact>
</mgrwt>
</event>
<event>
 6    1  0.1528034E-005  0.4095422E+04  0.7818608E-02  0.7985569E-01
         -1   -1    0    0    0  501 -0.00000000000E+00  0.00000000000E+00  0.19956144594E+04  0.19956144594E+04  0.00000000000E+00 0.  1.
          1   -1    0    0  501    0  0.00000000000E+00 -0.00000000000E+00 -0.21011671246E+04  0.21011671246E+04  0.00000000000E+00 0. -1.
         23    2    1    2    0    0  0.89374809115E+03  0.18064971329E+04 -0.40887686887E+03  0.20585904461E+04  0.91633996653E+02 0.  0.
         11    1    3    3    0    0  0.86678167161E+03  0.17087837097E+04 -0.38265665106E+03  0.19538880074E+04  0.00000000000E+00 0.  1.
        -11    1    3    3    0    0  0.26966419543E+02  0.97713423204E+02 -0.26220217808E+02  0.10470243875E+03  0.00000000000E+00 0. -1.
         22    1    1    2    0    0 -0.89374809115E+03 -0.18064971329E+04  0.30332420368E+03  0.20381911378E+04  0.00000000000E+00 0. -1.
<mgrwt>
<rscale>  0 0.40954216E+04</rscale>
<asrwt>0</asrwt>
<pdfrwt beam="1">  1        1 0.32325648E+00 0.40954216E+04</pdfrwt>
<pdfrwt beam="2">  1       -1 0.30701761E+00 0.40954216E+04</pdfrwt>
<totfact> 0.58739618E-02</totfact>
</mgrwt>
</event>
<event>
 6    1  0.1528034E-005  0.2313851E+04  0.7818608E-02  0.8472480E-01
          1   -1    0    0  501    0  0.00000000000E+00  0.00000000000E+00  0.16326116220E+04  0.16326116220E+04  0.00000000000E+00 0. -1.
         -1   -1    0    0    0  501 -0.00000000000E+00 -0.00000000000E+00 -0.81983799532E+03  0.81983799532E+03  0.00000000000E+00 0.  1.
         23    2    1    2    0    0 -0.35919937720E+03 -0.63923449816E+03 -0.53769985661E+03  0.91575720657E+03  0.10883560711E+03 0.  0.
         11    1    3    3    0    0 -0.81926757495E+02 -0.25125257812E+03 -0.19991860358E+03  0.33137184501E+03  0.00000000000E+00 0. -1.
        -11    1    3    3    0    0 -0.27727261970E+03 -0.38798192004E+03 -0.33778125303E+03  0.58438536156E+03  0.00000000000E+00 0.  1.
         22    1    1    2    0    0  0.35919937720E+03  0.63923449816E+03  0.13504734833E+04  0.15366924108E+04  0.00000000000E+00 0. -1.
<mgrwt>
<rscale>  0 0.23138514E+04</rscale>
<asrwt>0</asrwt>
<pdfrwt beam="1">  1        1 0.25117102E+00 0.23138514E+04</pdfrwt>
<pdfrwt beam="2">  1       -1 0.12612892E+00 0.23138514E+04</pdfrwt>
<totfact> 0.26181129E+00</totfact>
</mgrwt>
</event>
<event>
 6    1  0.1528034E-005  0.2941715E+04  0.7818608E-02  0.8260573E-01
         -1   -1    0    0    0  501 -0.00000000000E+00  0.00000000000E+00  0.25630696220E+04  0.25630696220E+04  0.00000000000E+00 0.  1.
          1   -1    0    0  501    0  0.00000000000E+00 -0.00000000000E+00 -0.84407452935E+03  0.84407452935E+03  0.00000000000E+00 0. -1.
         23    2    1    2    0    0  0.36268445031E+03 -0.14171630835E+04  0.69594851317E+03  0.16220627752E+04  0.82777401380E+02 0.  0.
         11    1    3    3    0    0  0.13345065545E+03 -0.37329534585E+03  0.18985020558E+03  0.43954703188E+03  0.00000000000E+00 0.  1.
        -11    1    3    3    0    0  0.22923379487E+03 -0.10438677376E+04  0.50609830759E+03  0.11825157433E+04  0.00000000000E+00 0. -1.
         22    1    1    2    0    0 -0.36268445031E+03  0.14171630835E+04  0.10230465795E+04  0.17850813761E+04  0.00000000000E+00 0.  1.
<mgrwt>
<rscale>  0 0.29417150E+04</rscale>
<asrwt>0</asrwt>
<pdfrwt beam="1">  1        1 0.12985762E+00 0.29417150E+04</pdfrwt>
<pdfrwt beam="2">  1       -1 0.39431840E+00 0.29417150E+04</pdfrwt>
<totfact> 0.13547296E-01</totfact>
</mgrwt>
</event>
<event>
 6    1  0.1528034E-005  0.1765896E+04  0.7818608E-02  0.8724649E-01
         -1   -1    0    0    0  501 -0.00000000000E+00  0.00000000000E+00  0.74956847010E+03  0.74956847010E+03  0.00000000000E+00 0.  1.
          1   -1    0    0  501    0  0.00000000000E+00 -0.00000000000E+00 -0.10400617910E+04  0.10400617910E+04  0.00000000000E+00 0. -1.
         23    2    1    2    0    0 -0.53056057043E+03 -0.70263787453E+03 -0.13826936081E+03  0.89611661509E+03  0.93338470567E+02 0.  0.
         11    1    3    3    0    0 -0.25288233003E+03 -0.35994156245E+03 -0.24345572374E+02  0.44056793813E+03  0.00000000000E+00 0.  1.
        -11    1    3    3    0    0 -0.27767824040E+03 -0.34269631209E+03 -0.11392378843E+03  0.45554867696E+03  0.00000000000E+00 0. -1.
         22    1    1    2    0    0  0.53056057043E+03  0.70263787453E+03 -0.15222396012E+03  0.89351364604E+03  0.00000000000E+00 0. -1.
<mgrwt>
<rscale>  0 0.17658964E+04</rscale>
<asrwt>0</asrwt>
<pdfrwt beam="1">  1        1 0.16000951E+00 0.17658964E+04</pdfrwt>
<pdfrwt beam="2">  1       -1 0.11531823E+00 0.17658964E+04</pdfrwt>
<totfact> 0.90902247E+00</totfact>
</mgrwt>
</event>
<event>
 6    1  0.1528034E-005  0.1663901E+04  0.7818608E-02  0.8782225E-01
         -2   -1    0    0    0  501 -0.00000000000E+00  0.00000000000E+00  0.30989182079E+03  0.30989182079E+03  0.00000000000E+00 0.  1.
          2   -1    0    0  501    0  0.00000000000E+00 -0.00000000000E+00 -0.22334955258E+04  0.22334955258E+04  0.00000000000E+00 0. -1.
         23    2    1    2    0    0 -0.79950340452E+03  0.10246673213E+03 -0.12635863181E+04  0.15015965442E+04  0.91851363917E+02 0.  0.
         11    1    3    3    0    0 -0.34270841584E+03  0.12746755081E+02 -0.59817526953E+03  0.68951083467E+03  0.00000000000E+00 0. -1.
        -11    1    3    3    0    0 -0.45679498868E+03  0.89719977053E+02 -0.66541104859E+03  0.81208570949E+03  0.00000000000E+00 0.  1.
         22    1    1    2    0    0  0.79950340452E+03 -0.10246673213E+03 -0.66001738687E+03  0.10417908024E+04  0.00000000000E+00 0.  1.
<mgrwt>
<rscale>  0 0.16639014E+04</rscale>
<asrwt>0</asrwt>
<pdfrwt beam="1">  1        2 0.34361469E+00 0.16639014E+04</pdfrwt>
<pdfrwt beam="2">  1       -2 0.47675665E-01 0.16639014E+04</pdfrwt>
<totfact> 0.19682336E+01</totfact>
</mgrwt>
</event>
<event>
 6    1  0.1528034E-005  0.3207600E+04  0.7818608E-02  0.8186813E-01
          1   -1    0    0  501    0  0.00000000000E+00  0.00000000000E+00  0.30897343681E+04  0.30897343681E+04  0.00000000000E+00 0. -1.
         -1   -1    0    0    0  501 -0.00000000000E+00 -0.00000000000E+00 -0.83249052067E+03  0.83249052067E+03  0.00000000000E+00 0.  1.
         23    2    1    2    0    0  0.33151548461E+03 -0.87671671256E+03  0.27193107484E+04  0.28772174574E+04  0.72073852382E+02 0.  0.
         11    1    3    3    0    0  0.83438327222E+02 -0.19528304805E+03  0.70818175995E+03  0.73933674901E+03  0.00000000000E+00 0. -1.
        -11    1    3    3    0    0  0.24807715739E+03 -0.68143366452E+03  0.20111289884E+04  0.21378807084E+04  0.00000000000E+00 0.  1.
         22    1    1    2    0    0 -0.33151548461E+03  0.87671671256E+03 -0.46206690097E+03  0.10450074314E+04  0.00000000000E+00 0.  1.
<mgrwt>
<rscale>  0 0.32076001E+04</rscale>
<asrwt>0</asrwt>
<pdfrwt beam="1">  1        1 0.47534375E+00 0.32076001E+04</pdfrwt>
<pdfrwt beam="2">  1       -1 0.12807547E+00 0.32076001E+04</pdfrwt>
<totfact> 0.22590296E-01</totfact>
</mgrwt>
</event>
<event>
 6    1  0.1528034E-005  0.3740465E+04  0.7818608E-02  0.8059053E-01
          2   -1    0    0  501    0  0.00000000000E+00  0.00000000000E+00  0.24624487430E+04  0.24624487430E+04  0.00000000000E+00 0. -1.
         -2   -1    0    0    0  501 -0.00000000000E+00 -0.00000000000E+00 -0.14204435693E+04  0.14204435693E+04  0.00000000000E+00 0.  1.
         23    2    1    2    0    0  0.11496143847E+04 -0.11405804051E+04 -0.44750246614E+03  0.16826264413E+04  0.91849822241E+02 0.  0.
         11    1    3    3    0    0  0.48507047296E+03 -0.47698900602E+03 -0.14117875245E+03  0.69479731990E+03  0.00000000000E+00 0.  1.
        -11    1    3    3    0    0  0.66454391172E+03 -0.66359139912E+03 -0.30632371369E+03  0.98782912144E+03  0.00000000000E+00 0. -1.
         22    1    1    2    0    0 -0.11496143847E+04  0.11405804051E+04  0.14895076398E+04  0.22002658710E+04  0.00000000000E+00 0. -1.
<mgrwt>
<rscale>  0 0.37404649E+04</rscale>
<asrwt>0</asrwt>
<pdfrwt beam="1">  1        2 0.37883827E+00 0.37404649E+04</pdfrwt>
<pdfrwt beam="2">  1       -2 0.21852978E+00 0.37404649E+04</pdfrwt>
<totfact> 0.29776530E-01</totfact>
</mgrwt>
</event>
<event>
 6    1  0.1528034E-005  0.1574646E+04  0.7818608E-02  0.8836277E-01
          2   -1    0    0  501    0  0.00000000000E+00  0.00000000000E+00  0.30493032640E+04  0.30493032640E+04  0.00000000000E+00 0. -1.
         -2   -1    0    0    0  501 -0.00000000000E+00 -0.00000000000E+00 -0.20328500370E+03  0.20328500370E+03  0.00000000000E+00 0.  1.
         23    2    1    2    0    0  0.52537078067E+02  0.17700184822E+03  0.30031408202E+04  0.30101479706E+04  0.89700724105E+02 0.  0.
         11    1    3    3    0    0  0.19976744335E+02  0.15329889721E+03  0.26883373431E+04  0.26927787307E+04  0.00000000000E+00 0.  1.
        -11    1    3    3    0    0  0.32560333731E+02  0.23702951016E+02  0.31480347712E+03  0.31736923988E+03  0.00000000000E+00 0. -1.
         22    1    1    2    0    0 -0.52537078067E+02 -0.17700184822E+03 -0.15712255990E+03  0.24244029714E+03  0.00000000000E+00 0.  1.
<mgrwt>
<rscale>  0 0.15746462E+04</rscale>
<asrwt>0</asrwt>
<pdfrwt beam="1">  1        2 0.46912355E+00 0.15746462E+04</pdfrwt>
<pdfrwt beam="2">  1       -2 0.31274618E-01 0.15746462E+04</pdfrwt>
<totfact> 0.14872282E+01</totfact>
</mgrwt>
</event>
<event>
 6    1  0.1528034E-005  0.6530946E+04  0.7818608E-02  0.7627844E-01
          2   -1    0    0  501    0  0.00000000000E+00  0.00000000000E+00  0.38114058846E+04  0.38114058846E+04  0.00000000000E+00 0. -1.
         -2   -1    0    0    0  501 -0.00000000000E+00 -0.00000000000E+00 -0.27977374112E+04  0.27977374112E+04  0.00000000000E+00 0.  1.
         23    2    1    2    0    0  0.22478897887E+04  0.23127026813E+04  0.10198608903E+04  0.33839858516E+04  0.98192737304E+02 0.  0.
         11    1    3    3    0    0  0.14942664961E+04  0.14851163949E+04  0.63521459757E+03  0.22004319241E+04  0.00000000000E+00 0.  1.
        -11    1    3    3    0    0  0.75362329261E+03  0.82758628639E+03  0.38464629277E+03  0.11835539274E+04  0.00000000000E+00 0. -1.
         22    1    1    2    0    0 -0.22478897887E+04 -0.23127026813E+04 -0.61924169597E+01  0.32251574443E+04  0.00000000000E+00 0.  1.
<mgrwt>
<rscale>  0 0.65309457E+04</rscale>
<asrwt>0</asrwt>
<pdfrwt beam="1">  1        2 0.58637014E+00 0.65309457E+04</pdfrwt>
<pdfrwt beam="2">  1       -2 0.43042114E+00 0.65309457E+04</pdfrwt>
<totfact> 0.14545444E-03</totfact>
</mgrwt>
</event>
<event>
 6    1  0.1528034E-005  0.1198214E+04  0.7818608E-02  0.9114421E-01
         -2   -1    0    0    0  501 -0.00000000000E+00  0.00000000000E+00  0.20465736557E+03  0.20465736557E+03  0.00000000000E+00 0.  1.
          2   -1    0    0  501    0  0.00000000000E+00 -0.00000000000E+00 -0.17538049551E+04  0.17538049551E+04  0.00000000000E+00 0. -1.
         23    2    1    2    0    0  0.44344838056E+03 -0.39427023471E+03 -0.69511331122E+03  0.91852480681E+03  0.91705076671E+02 0.  0.
         13    1    3    3    0    0  0.94568966640E+02 -0.52764407646E+02 -0.16967322675E+03  0.20128680047E+03  0.00000000000E+00 0.  1.
        -13    1    3    3    0    0  0.34887941392E+03 -0.34150582706E+03 -0.52544008447E+03  0.71723800634E+03  0.00000000000E+00 0. -1.
         22    1    1    2    0    0 -0.44344838056E+03  0.39427023471E+03 -0.85403427831E+03  0.10399375139E+04  0.00000000000E+00 0. -1.
<mgrwt>
<rscale>  0 0.11982138E+04</rscale>
<asrwt>0</asrwt>
<pdfrwt beam="1">  1        2 0.26981615E+00 0.11982138E+04</pdfrwt>
<pdfrwt beam="2">  1       -2 0.31485749E-01 0.11982138E+04</pdfrwt>
<totfact> 0.84610357E+01</totfact>
</mgrwt>
</event>
<event>
 6    1  0.1528034E-005  0.1796187E+04  0.7818608E-02  0.8708330E-01
         -1   -1    0    0    0  501 -0.00000000000E+00  0.00000000000E+00  0.32843254210E+03  0.32843254210E+03  0.00000000000E+00 0.  1.
          1   -1    0    0  501    0  0.00000000000E+00 -0.00000000000E+00 -0.24558219418E+04  0.24558219418E+04  0.00000000000E+00 0. -1.
         23    2    1    2    0    0  0.55036634342E+03  0.13507775233E+03 -0.21417146027E+04  0.22173732594E+04  0.93024841172E+02 0.  0.
         11    1    3    3    0    0  0.53533310249E+03  0.14693482247E+03 -0.20684399792E+04  0.21416384662E+04  0.00000000000E+00 0.  1.
        -11    1    3    3    0    0  0.15033240925E+02 -0.11857070141E+02 -0.73274623546E+02  0.75734793199E+02  0.00000000000E+00 0. -1.
         22    1    1    2    0    0 -0.55036634342E+03 -0.13507775233E+03  0.14325203065E+02  0.56688122440E+03  0.00000000000E+00 0. -1.
<mgrwt>
<rscale>  0 0.17961869E+04</rscale>
<asrwt>0</asrwt>
<pdfrwt beam="1">  1        1 0.37781875E+00 0.17961869E+04</pdfrwt>
<pdfrwt beam="2">  1       -1 0.50528085E-01 0.17961869E+04</pdfrwt>
<totfact> 0.54037670E+00</totfact>
</mgrwt>
</event>
<event>
 6    1  0.1528034E-005  0.1282437E+04  0.7818608E-02  0.9043610E-01
          1   -1    0    0  501    0  0.00000000000E+00  0.00000000000E+00  0.14901971471E+04  0.14901971471E+04  0.00000000000E+00 0. -1.
         -1   -1    0    0    0  501 -0.00000000000E+00 -0.00000000000E+00 -0.27591039146E+03  0.27591039146E+03  0.00000000000E+00 0.  1.
         23    2    1    2    0    0 -0.62059285445E+03 -0.97592566230E+02  0.45876164919E+03  0.78352014476E+03  0.93711079918E+02 0.  0.
         13    1    3    3    0    0 -0.27982733541E+03 -0.68893653559E+02  0.25906624221E+03  0.38751127854E+03  0.00000000000E+00 0. -1.
        -13    1    3    3    0    0 -0.34076551905E+03 -0.28698912671E+02  0.19969540698E+03  0.39600886622E+03  0.00000000000E+00 0.  1.
         22    1    1    2    0    0  0.62059285445E+03  0.97592566230E+02  0.75552510650E+03  0.98258739384E+03  0.00000000000E+00 0.  1.
<mgrwt>
<rscale>  0 0.12824366E+04</rscale>
<asrwt>0</asrwt>
<pdfrwt beam="1">  1        1 0.22926109E+00 0.12824366E+04</pdfrwt>
<pdfrwt beam="2">  1       -1 0.42447753E-01 0.12824366E+04</pdfrwt>
<totfact> 0.35684919E+01</totfact>
</mgrwt>
</event>
<event>
 6    1  0.1528034E-005  0.9897004E+03  0.7818608E-02  0.9319914E-01
          2   -1    0    0  501    0  0.00000000000E+00  0.00000000000E+00  0.47997008694E+03  0.47997008694E+03  0.00000000000E+00 0. -1.
         -2   -1    0    0    0  501 -0.00000000000E+00 -0.00000000000E+00 -0.51019160715E+03  0.51019160715E+03  0.00000000000E+00 0.  1.
         23    2    1    2    0    0 -0.46655991790E+03  0.14231131918E+03  0.37917727702E+02  0.49764405414E+03  0.91000999936E+02 0.  0.
         13    1    3    3    0    0 -0.32982370870E+03  0.11856933879E+03  0.64404615022E+02  0.35635701390E+03  0.00000000000E+00 0. -1.
        -13    1    3    3    0    0 -0.13673620920E+03  0.23741980392E+02 -0.26486887320E+02  0.14128704024E+03  0.00000000000E+00 0.  1.
         22    1    1    2    0    0  0.46655991790E+03 -0.14231131918E+03 -0.68139247915E+02  0.49251763995E+03  0.00000000000E+00 0.  1.
<mgrwt>
<rscale>  0 0.98970038E+03</rscale>
<asrwt>0</asrwt>
<pdfrwt beam="1">  1        2 0.73841553E-01 0.98970038E+03</pdfrwt>
<pdfrwt beam="2">  1       -2 0.78491016E-01 0.98970038E+03</pdfrwt>
<totfact> 0.93130893E+01</totfact>
</mgrwt>
</event>
<event>
 6    1  0.1528034E-005  0.2829386E+04  0.7818608E-02  0.8294203E-01
         -2   -1    0    0    0  501 -0.00000000000E+00  0.00000000000E+00  0.12902512064E+04  0.12902512064E+04  0.00000000000E+00 0.  1.
          2   -1    0    0  501    0  0.00000000000E+00 -0.00000000000E+00 -0.15511372992E+04  0.15511372992E+04  0.00000000000E+00 0. -1.
         23    2    1    2    0    0  0.66438412103E+03  0.77281084903E+03 -0.11137596650E+04  0.15124655586E+04  0.91916299096E+02 0.  0.
         13    1    3    3    0    0  0.19119528997E+03  0.28908492689E+03 -0.37607784673E+03  0.51142964390E+03  0.00000000000E+00 0.  1.
        -13    1    3    3    0    0  0.47318883106E+03  0.48372592214E+03 -0.73768181825E+03  0.10010359147E+04  0.00000000000E+00 0. -1.
         22    1    1    2    0    0 -0.66438412103E+03 -0.77281084903E+03  0.85287357222E+03  0.13289229469E+04  0.00000000000E+00 0.  1.
<mgrwt>
<rscale>  0 0.28293863E+04</rscale>
<asrwt>0</asrwt>
<pdfrwt beam="1">  1        2 0.23863651E+00 0.28293863E+04</pdfrwt>
<pdfrwt beam="2">  1       -2 0.19850019E+00 0.28293863E+04</pdfrwt>
<totfact> 0.14031178E+00</totfact>
</mgrwt>
</event>
<event>
 6    1  0.1528034E-005  0.1172483E+04  0.7818608E-02  0.9137289E-01
          1   -1    0    0  501    0  0.00000000000E+00  0.00000000000E+00  0.56821563744E+03  0.56821563744E+03  0.00000000000E+00 0. -1.
         -1   -1    0    0    0  501 -0.00000000000E+00 -0.00000000000E+00 -0.60483903360E+03  0.60483903360E+03  0.00000000000E+00 0.  1.
         23    2    1    2    0    0 -0.36551020628E+03 -0.45019219628E+03 -0.74497944930E+02  0.59193058281E+03  0.92526464203E+02 0.  0.
         11    1    3    3    0    0 -0.14325732952E+03 -0.23865808589E+03 -0.60090340024E+02  0.28476515480E+03  0.00000000000E+00 0.  1.
        -11    1    3    3    0    0 -0.22225287676E+03 -0.21153411039E+03 -0.14407604906E+02  0.30716542801E+03  0.00000000000E+00 0. -1.
         22    1    1    2    0    0  0.36551020628E+03  0.45019219628E+03  0.37874548769E+02  0.58112408824E+03  0.00000000000E+00 0.  1.
<mgrwt>
<rscale>  0 0.11724828E+04</rscale>
<asrwt>0</asrwt>
<pdfrwt beam="1">  1        1 0.87417790E-01 0.11724828E+04</pdfrwt>
<pdfrwt beam="2">  1       -1 0.93052159E-01 0.11724828E+04</pdfrwt>
<totfact> 0.41217699E+01</totfact>
</mgrwt>
</event>
<event>
 6    1  0.1528034E-005  0.5182545E+03  0.7818608E-02  0.1009121E+00
          2   -1    0    0  501    0  0.00000000000E+00  0.00000000000E+00  0.47062078582E+03  0.47062078582E+03  0.00000000000E+00 0. -1.
         -2   -1    0    0    0  501 -0.00000000000E+00 -0.00000000000E+00 -0.14267735866E+03  0.14267735866E+03  0.00000000000E+00 0.  1.
         23    2    1    2    0    0 -0.21744698024E+03 -0.25739765014E+02  0.23093871594E+02  0.23795966224E+03  0.90253804503E+02 0.  0.
         13    1    3    3    0    0 -0.77342330604E+02 -0.24775398350E+02  0.49888247294E+02  0.95312610314E+02  0.00000000000E+00 0. -1.
        -13    1    3    3    0    0 -0.14010464964E+03 -0.96436666476E+00 -0.26794375700E+02  0.14264705192E+03  0.00000000000E+00 0.  1.
         22    1    1    2    0    0  0.21744698024E+03  0.25739765014E+02  0.30484955557E+03  0.37533848224E+03  0.00000000000E+00 0.  1.
<mgrwt>
<rscale>  0 0.51825450E+03</rscale>
<asrwt>0</asrwt>
<pdfrwt beam="1">  1        2 0.72403197E-01 0.51825450E+03</pdfrwt>
<pdfrwt beam="2">  1       -2 0.21950363E-01 0.51825450E+03</pdfrwt>
<totfact> 0.11969516E+03</totfact>
</mgrwt>
</event>
<event>
 6    1  0.1528034E-005  0.3026772E+04  0.7818608E-02  0.8236127E-01
          2   -1    0    0  501    0  0.00000000000E+00  0.00000000000E+00  0.24769871702E+04  0.24769871702E+04  0.00000000000E+00 0.  1.
         -2   -1    0    0    0  501 -0.00000000000E+00 -0.00000000000E+00 -0.92464618446E+03  0.92464618446E+03  0.00000000000E+00 0. -1.
         23    2    1    2    0    0  0.10962658662E+04 -0.40522539809E+03  0.18549430999E+04  0.21943328486E+04  0.90974030120E+02 0.  0.
         11    1    3    3    0    0  0.85522393899E+03 -0.28878979543E+03  0.14820453691E+04  0.17352999763E+04  0.00000000000E+00 0. -1.
        -11    1    3    3    0    0  0.24104192716E+03 -0.11643560266E+03  0.37289773074E+03  0.45903287225E+03  0.00000000000E+00 0.  1.
         22    1    1    2    0    0 -0.10962658662E+04  0.40522539809E+03 -0.30260211410E+03  0.12073005061E+04  0.00000000000E+00 0. -1.
<mgrwt>
<rscale>  0 0.30267717E+04</rscale>
<asrwt>0</asrwt>
<pdfrwt beam="1">  1        2 0.38107495E+00 0.30267717E+04</pdfrwt>
<pdfrwt beam="2">  1       -2 0.14225326E+00 0.30267717E+04</pdfrwt>
<totfact> 0.10560997E+00</totfact>
</mgrwt>
</event>
<event>
 6    1  0.1528034E-005  0.1342216E+04  0.7818608E-02  0.8996741E-01
         -2   -1    0    0    0  501 -0.00000000000E+00  0.00000000000E+00  0.24151228832E+03  0.24151228832E+03  0.00000000000E+00 0.  1.
          2   -1    0    0  501    0  0.00000000000E+00 -0.00000000000E+00 -0.18648574674E+04  0.18648574674E+04  0.00000000000E+00 0. -1.
         23    2    1    2    0    0 -0.37684012296E+03 -0.17324423655E+03 -0.16371942323E+04  0.16913832017E+04  0.91379083009E+02 0.  0.
         13    1    3    3    0    0 -0.20714003587E+03 -0.13663590409E+03 -0.10592802107E+04  0.10879572278E+04  0.00000000000E+00 0.  1.
        -13    1    3    3    0    0 -0.16970008710E+03 -0.36608332470E+02 -0.57791402156E+03  0.60342597382E+03  0.00000000000E+00 0. -1.
         22    1    1    2    0    0  0.37684012296E+03  0.17324423655E+03  0.13849053211E+02  0.41498655406E+03  0.00000000000E+00 0.  1.
<mgrwt>
<rscale>  0 0.13422161E+04</rscale>
<asrwt>0</asrwt>
<pdfrwt beam="1">  1        2 0.28690115E+00 0.13422161E+04</pdfrwt>
<pdfrwt beam="2">  1       -2 0.37155736E-01 0.13422161E+04</pdfrwt>
<totfact> 0.53013257E+01</totfact>
</mgrwt>
</event>
<event>
 6    1  0.1528034E-005  0.2030251E+04  0.7818608E-02  0.8592607E-01
          2   -1    0    0  501    0  0.00000000000E+00  0.00000000000E+00  0.11442409732E+04  0.11442409732E+04  0.00000000000E+00 0. -1.
         -2   -1    0    0    0  501 -0.00000000000E+00 -0.00000000000E+00 -0.90057922893E+03  0.90057922893E+03  0.00000000000E+00 0.  1.
         23    2    1    2    0    0  0.46903984367E+03  0.81070027789E+03 -0.26681023974E+03  0.97813610550E+03  0.91264567785E+02 0.  0.
         11    1    3    3    0    0  0.22305322780E+03  0.31471897444E+03 -0.13826675407E+03  0.40977856286E+03  0.00000000000E+00 0.  1.
        -11    1    3    3    0    0  0.24598661587E+03  0.49598130346E+03 -0.12854348567E+03  0.56835754264E+03  0.00000000000E+00 0. -1.
         22    1    1    2    0    0 -0.46903984367E+03 -0.81070027789E+03  0.51047198400E+03  0.10666840966E+04  0.00000000000E+00 0. -1.
<mgrwt>
<rscale>  0 0.20302509E+04</rscale>
<asrwt>0</asrwt>
<pdfrwt beam="1">  1        2 0.17603707E+00 0.20302509E+04</pdfrwt>
<pdfrwt beam="2">  1       -2 0.13855065E+00 0.20302509E+04</pdfrwt>
<totfact> 0.69998905E+00</totfact>
</mgrwt>
</event>
<event>
 6    1  0.1528034E-005  0.2172940E+04  0.7818608E-02  0.8529776E-01
          2   -1    0    0  501    0  0.00000000000E+00  0.00000000000E+00  0.92016469340E+03  0.92016469340E+03  0.00000000000E+00 0.  1.
         -2   -1    0    0    0  501 -0.00000000000E+00 -0.00000000000E+00 -0.12828329132E+04  0.12828329132E+04  0.00000000000E+00 0. -1.
         23    2    1    2    0    0  0.10680364529E+04  0.12629134744E+03 -0.32389241951E+03  0.11268215374E+04  0.90383120408E+02 0.  0.
         11    1    3    3    0    0  0.60959896328E+03  0.11147169716E+03 -0.20863896270E+03  0.65388611551E+03  0.00000000000E+00 0.  1.
        -11    1    3    3    0    0  0.45843748966E+03  0.14819650286E+02 -0.11525345682E+03  0.47293542188E+03  0.00000000000E+00 0. -1.
         22    1    1    2    0    0 -0.10680364529E+04 -0.12629134744E+03 -0.38775800300E+02  0.10761760692E+04  0.00000000000E+00 0.  1.
<mgrwt>
<rscale>  0 0.21729405E+04</rscale>
<asrwt>0</asrwt>
<pdfrwt beam="1">  1        2 0.14156380E+00 0.21729405E+04</pdfrwt>
<pdfrwt beam="2">  1       -2 0.19735891E+00 0.21729405E+04</pdfrwt>
<totfact> 0.36028650E+00</totfact>
</mgrwt>
</event>
<event>
 6    1  0.1528034E-005  0.1456189E+04  0.7818608E-02  0.8914121E-01
          1   -1    0    0  501    0  0.00000000000E+00  0.00000000000E+00  0.10981137326E+04  0.10981137326E+04  0.00000000000E+00 0. -1.
         -1   -1    0    0    0  501 -0.00000000000E+00 -0.00000000000E+00 -0.48275684298E+03  0.48275684298E+03  0.00000000000E+00 0.  1.
         23    2    1    2    0    0  0.53043861421E+03 -0.41697328986E+03  0.19962320144E+02  0.68102250992E+03  0.90340007153E+02 0.  0.
         13    1    3    3    0    0  0.32901849128E+03 -0.24937928214E+03  0.55633371401E+02  0.41657924333E+03  0.00000000000E+00 0.  1.
        -13    1    3    3    0    0  0.20142012294E+03 -0.16759400772E+03 -0.35671051256E+02  0.26444326659E+03  0.00000000000E+00 0. -1.
         22    1    1    2    0    0 -0.53043861421E+03  0.41697328986E+03  0.59539456947E+03  0.89984806565E+03  0.00000000000E+00 0. -1.
<mgrwt>
<rscale>  0 0.14561894E+04</rscale>
<asrwt>0</asrwt>
<pdfrwt beam="1">  1        1 0.16894057E+00 0.14561894E+04</pdfrwt>
<pdfrwt beam="2">  1       -1 0.74270284E-01 0.14561894E+04</pdfrwt>
<totfact> 0.22536972E+01</totfact>
</mgrwt>
</event>
<event>
 6    1  0.1528034E-005  0.1010348E+04  0.7818608E-02  0.9297267E-01
         -2   -1    0    0    0  501 -0.00000000000E+00  0.00000000000E+00  0.18265421420E+03  0.18265421420E+03  0.00000000000E+00 0.  1.
          2   -1    0    0  501    0  0.00000000000E+00 -0.00000000000E+00 -0.13971804179E+04  0.13971804179E+04  0.00000000000E+00 0. -1.
         23    2    1    2    0    0  0.16252603306E+03  0.25929374909E+03 -0.12325744295E+04  0.12732833343E+04  0.91448157063E+02 0.  0.
         13    1    3    3    0    0  0.14810915788E+03  0.24110855692E+03 -0.99129954703E+03  0.10308949756E+04  0.00000000000E+00 0.  1.
        -13    1    3    3    0    0  0.14416875179E+02  0.18185192163E+02 -0.24127488246E+03  0.24238835865E+03  0.00000000000E+00 0. -1.
         22    1    1    2    0    0 -0.16252603306E+03 -0.25929374909E+03  0.18048225782E+02  0.30655129781E+03  0.00000000000E+00 0.  1.
<mgrwt>
<rscale>  0 0.10103482E+04</rscale>
<asrwt>0</asrwt>
<pdfrwt beam="1">  1        2 0.21495084E+00 0.10103482E+04</pdfrwt>
<pdfrwt beam="2">  1       -2 0.28100648E-01 0.10103482E+04</pdfrwt>
<totfact> 0.16763234E+02</totfact>
</mgrwt>
</event>
<event>
 6    1  0.1528034E-005  0.4644050E+04  0.7818608E-02  0.7885892E-01
         -2   -1    0    0    0  501 -0.00000000000E+00  0.00000000000E+00  0.24430514501E+04  0.24430514501E+04  0.00000000000E+00 0.  1.
          2   -1    0    0  501    0  0.00000000000E+00 -0.00000000000E+00 -0.22069939777E+04  0.22069939777E+04  0.00000000000E+00 0. -1.
         23    2    1    2    0    0 -0.22607677113E+04 -0.13654158976E+03  0.62655932645E+03  0.23517404114E+04  0.91608529725E+02 0.  0.
         13    1    3    3    0    0 -0.49310532241E+03 -0.33380771103E+02  0.97916187738E+02  0.50383996932E+03  0.00000000000E+00 0. -1.
        -13    1    3    3    0    0 -0.17676623889E+04 -0.10316081866E+03  0.52864313871E+03  0.18479004421E+04  0.00000000000E+00 0.  1.
         22    1    1    2    0    0  0.22607677113E+04  0.13654158976E+03 -0.39050185408E+03  0.22983050164E+04  0.00000000000E+00 0. -1.
<mgrwt>
<rscale>  0 0.46440499E+04</rscale>
<asrwt>0</asrwt>
<pdfrwt beam="1">  1        2 0.33953753E+00 0.46440499E+04</pdfrwt>
<pdfrwt beam="2">  1       -2 0.37585407E+00 0.46440499E+04</pdfrwt>
<totfact> 0.40811407E-02</totfact>
</mgrwt>
</event>
<event>
 6    1  0.1528034E-005  0.4840922E+04  0.7818608E-02  0.7853526E-01
         -1   -1    0    0    0  501 -0.00000000000E+00  0.00000000000E+00  0.48378767521E+04  0.48378767521E+04  0.00000000000E+00 0.  1.
          1   -1    0    0  501    0  0.00000000000E+00 -0.00000000000E+00 -0.12109923979E+04  0.12109923979E+04  0.00000000000E+00 0. -1.
         23    2    1    2    0    0  0.23920905815E+04  0.66357698174E+02  0.22611998242E+04  0.32935842411E+04  0.90398086127E+02 0.  0.
         13    1    3    3    0    0  0.13091383985E+04  0.54539864579E+02  0.11812438455E+04  0.17641300875E+04  0.00000000000E+00 0.  1.
        -13    1    3    3    0    0  0.10829521830E+04  0.11817833595E+02  0.10799559787E+04  0.15294541536E+04  0.00000000000E+00 0. -1.
         22    1    1    2    0    0 -0.23920905815E+04 -0.66357698174E+02  0.13656845299E+04  0.27552849089E+04  0.00000000000E+00 0.  1.
<mgrwt>
<rscale>  0 0.48409222E+04</rscale>
<asrwt>0</asrwt>
<pdfrwt beam="1">  1        1 0.18630653E+00 0.48409222E+04</pdfrwt>
<pdfrwt beam="2">  1       -1 0.74428872E+00 0.48409222E+04</pdfrwt>
<totfact> 0.10404900E-03</totfact>
</mgrwt>
</event>
<event>
 6    1  0.1528034E-005  0.1242890E+04  0.7818608E-02  0.9076122E-01
          1   -1    0    0  501    0  0.00000000000E+00  0.00000000000E+00  0.30020194484E+03  0.30020194484E+03  0.00000000000E+00 0. -1.
         -1   -1    0    0    0  501 -0.00000000000E+00 -0.00000000000E+00 -0.12864469306E+04  0.12864469306E+04  0.00000000000E+00 0.  1.
         23    2    1    2    0    0  0.18030175486E+03  0.57750542198E+03 -0.33372334686E+03  0.69681421415E+03  0.90319109685E+02 0.  0.
         11    1    3    3    0    0  0.13002254458E+03  0.31082459791E+03 -0.14817869588E+03  0.36806890480E+03  0.00000000000E+00 0.  1.
        -11    1    3    3    0    0  0.50279210287E+02  0.26668082406E+03 -0.18554465098E+03  0.32874530935E+03  0.00000000000E+00 0. -1.
         22    1    1    2    0    0 -0.18030175486E+03 -0.57750542198E+03 -0.65252163891E+03  0.88983466131E+03  0.00000000000E+00 0.  1.
<mgrwt>
<rscale>  0 0.12428900E+04</rscale>
<asrwt>0</asrwt>
<pdfrwt beam="1">  1        1 0.46184913E-01 0.12428900E+04</pdfrwt>
<pdfrwt beam="2">  1       -1 0.19791492E+00 0.12428900E+04</pdfrwt>
<totfact> 0.13449377E+01</totfact>
</mgrwt>
</event>
<event>
 6    1  0.1528034E-005  0.1678642E+04  0.7818608E-02  0.8773640E-01
         -4   -1    0    0    0  501 -0.00000000000E+00  0.00000000000E+00  0.14513602028E+04  0.14513602028E+04  0.00000000000E+00 0.  1.
          4   -1    0    0  501    0  0.00000000000E+00 -0.00000000000E+00 -0.48537900214E+03  0.48537900214E+03  0.00000000000E+00 0. -1.
         23    2    1    2    0    0 -0.38900619229E+03 -0.68900856898E+03  0.79817422036E+03  0.11279018861E+04  0.94983961111E+02 0.  0.
         11    1    3    3    0    0 -0.29496611472E+03 -0.56909218912E+03  0.60077083592E+03  0.87851950795E+03  0.00000000000E+00 0.  1.
        -11    1    3    3    0    0 -0.94040077573E+02 -0.11991637985E+03  0.19740338444E+03  0.24938237815E+03  0.00000000000E+00 0. -1.
         22    1    1    2    0    0  0.38900619229E+03  0.68900856898E+03  0.16780698034E+03  0.80883731888E+03  0.00000000000E+00 0. -1.
<mgrwt>
<rscale>  0 0.16786420E+04</rscale>
<asrwt>0</asrwt>
<pdfrwt beam="1">  1        4 0.74673693E-01 0.16786420E+04</pdfrwt>
<pdfrwt beam="2">  1       -4 0.22328618E+00 0.16786420E+04</pdfrwt>
<totfact> 0.28748925E-01</totfact>
</mgrwt>
</event>
<event>
 6    1  0.1528034E-005  0.4281265E+04  0.7818608E-02  0.7950091E-01
         -1   -1    0    0    0  501 -0.00000000000E+00  0.00000000000E+00  0.17991491042E+04  0.17991491042E+04  0.00000000000E+00 0.  1.
          1   -1    0    0  501    0  0.00000000000E+00 -0.00000000000E+00 -0.25469306089E+04  0.25469306089E+04  0.00000000000E+00 0. -1.
         23    2    1    2    0    0  0.17003036389E+02  0.11156123685E+04  0.14793845116E+04  0.18550661595E+04  0.88384744882E+02 0.  0.
         11    1    3    3    0    0  0.84743172798E+01  0.14328019364E+03  0.14545733456E+03  0.20434985716E+03  0.00000000000E+00 0. -1.
        -11    1    3    3    0    0  0.85287191089E+01  0.97233217482E+03  0.13339271770E+04  0.16507163023E+04  0.00000000000E+00 0.  1.
         22    1    1    2    0    0 -0.17003036389E+02 -0.11156123685E+04 -0.22271660163E+04  0.24910135536E+04  0.00000000000E+00 0. -1.
<mgrwt>
<rscale>  0 0.42812652E+04</rscale>
<asrwt>0</asrwt>
<pdfrwt beam="1">  1        1 0.39183548E+00 0.42812652E+04</pdfrwt>
<pdfrwt beam="2">  1       -1 0.27679217E+00 0.42812652E+04</pdfrwt>
<totfact> 0.44878652E-02</totfact>
</mgrwt>
</event>
<event>
 6    1  0.1528034E-005  0.2312648E+04  0.7818608E-02  0.8472951E-01
         -1   -1    0    0    0  501 -0.00000000000E+00  0.00000000000E+00  0.43817280067E+03  0.43817280067E+03  0.00000000000E+00 0.  1.
          1   -1    0    0  501    0  0.00000000000E+00 -0.00000000000E+00 -0.30515019783E+04  0.30515019783E+04  0.00000000000E+00 0. -1.
         23    2    1    2    0    0  0.12397044680E+02  0.42890445197E+03 -0.29260352839E+04  0.29587342695E+04  0.91177187806E+02 0.  0.
         11    1    3    3    0    0  0.46361919459E+02  0.30053948457E+03 -0.21548484397E+04  0.21761997168E+04  0.00000000000E+00 0. -1.
        -11    1    3    3    0    0 -0.33964874779E+02  0.12836496741E+03 -0.77118684417E+03  0.78253455272E+03  0.00000000000E+00 0.  1.
         22    1    1    2    0    0 -0.12397044680E+02 -0.42890445197E+03  0.31270610627E+03  0.53094050941E+03  0.00000000000E+00 0.  1.
<mgrwt>
<rscale>  0 0.23126480E+04</rscale>
<asrwt>0</asrwt>
<pdfrwt beam="1">  1        1 0.46946185E+00 0.23126480E+04</pdfrwt>
<pdfrwt beam="2">  1       -1 0.67411199E-01 0.23126480E+04</pdfrwt>
<totfact> 0.11034348E+00</totfact>
</mgrwt>
</event>
<event>
 6    1  0.1528034E-005  0.2918024E+04  0.7818608E-02  0.8267535E-01
          2   -1    0    0  501    0  0.00000000000E+00  0.00000000000E+00  0.19771099572E+04  0.19771099572E+04  0.00000000000E+00 0. -1.
         -2   -1    0    0    0  501 -0.00000000000E+00 -0.00000000000E+00 -0.10766803598E+04  0.10766803598E+04  0.00000000000E+00 0.  1.
         23    2    1    2    0    0 -0.13941751190E+04 -0.42526660532E+03  0.47993237186E+03  0.15367557542E+04  0.81897610293E+02 0.  0.
         13    1    3    3    0    0 -0.30756221768E+03 -0.76360449217E+02  0.13554918274E+03  0.34467233265E+03  0.00000000000E+00 0. -1.
        -13    1    3    3    0    0 -0.10866129013E+04 -0.34890615610E+03  0.34438318913E+03  0.11920834216E+04  0.00000000000E+00 0.  1.
         22    1    1    2    0    0  0.13941751190E+04  0.42526660532E+03  0.42049722548E+03  0.15170345628E+04  0.00000000000E+00 0.  1.
<mgrwt>
<rscale>  0 0.29180236E+04</rscale>
<asrwt>0</asrwt>
<pdfrwt beam="1">  1        2 0.30417076E+00 0.29180236E+04</pdfrwt>
<pdfrwt beam="2">  1       -2 0.16564313E+00 0.29180236E+04</pdfrwt>
<totfact> 0.13581783E+00</totfact>
</mgrwt>
</event>
<event>
 6    1  0.1528034E-005  0.2223550E+04  0.7818608E-02  0.8508689E-01
          2   -1    0    0  501    0  0.00000000000E+00  0.00000000000E+00  0.21891180962E+04  0.21891180962E+04  0.00000000000E+00 0. -1.
         -2   -1    0    0    0  501 -0.00000000000E+00 -0.00000000000E+00 -0.56463108482E+03  0.56463108482E+03  0.00000000000E+00 0.  1.
         23    2    1    2    0    0  0.73462766357E+03 -0.37703980043E+03 -0.10401420759E+03  0.83814137169E+03  0.99122088180E+02 0.  0.
         11    1    3    3    0    0  0.55909189528E+03 -0.25118270835E+03 -0.46851081945E+02  0.61471255414E+03  0.00000000000E+00 0. -1.
        -11    1    3    3    0    0  0.17553576829E+03 -0.12585709209E+03 -0.57163125646E+02  0.22342881755E+03  0.00000000000E+00 0.  1.
         22    1    1    2    0    0 -0.73462766357E+03  0.37703980043E+03  0.17285012190E+04  0.19156078093E+04  0.00000000000E+00 0. -1.
<mgrwt>
<rscale>  0 0.22235504E+04</rscale>
<asrwt>0</asrwt>
<pdfrwt beam="1">  1        2 0.33678740E+00 0.22235504E+04</pdfrwt>
<pdfrwt beam="2">  1       -2 0.86866322E-01 0.22235504E+04</pdfrwt>
<totfact> 0.54772717E+00</totfact>
</mgrwt>
</event>
<event>
 6    1  0.1528034E-005  0.1875329E+04  0.7818608E-02  0.8667235E-01
          1   -1    0    0  501    0  0.00000000000E+00  0.00000000000E+00  0.21521651144E+04  0.21521651144E+04  0.00000000000E+00 0. -1.
         -1   -1    0    0    0  501 -0.00000000000E+00 -0.00000000000E+00 -0.40852547822E+03  0.40852547822E+03  0.00000000000E+00 0.  1.
         23    2    1    2    0    0 -0.70416884518E+03  0.52466898352E+03  0.43399009387E+03  0.98388583982E+03  0.92480481295E+02 0.  0.
         13    1    3    3    0    0 -0.19776564122E+03  0.19321323894E+03  0.16091165046E+03  0.31989867739E+03  0.00000000000E+00 0. -1.
        -13    1    3    3    0    0 -0.50640320397E+03  0.33145574459E+03  0.27307844342E+03  0.66398716242E+03  0.00000000000E+00 0.  1.
         22    1    1    2    0    0  0.70416884518E+03 -0.52466898352E+03  0.13096495424E+04  0.15768047528E+04  0.00000000000E+00 0. -1.
<mgrwt>
<rscale>  0 0.18753285E+04</rscale>
<asrwt>0</asrwt>
<pdfrwt beam="1">  1        1 0.33110232E+00 0.18753285E+04</pdfrwt>
<pdfrwt beam="2">  1       -1 0.62850075E-01 0.18753285E+04</pdfrwt>
<totfact> 0.56546314E+00</totfact>
</mgrwt>
</event>
<event>
 6    1  0.1528034E-005  0.7044506E+03  0.7818608E-02  0.9709651E-01
          2   -1    0    0  501    0  0.00000000000E+00  0.00000000000E+00  0.13705535308E+04  0.13705535308E+04  0.00000000000E+00 0.  1.
         -2   -1    0    0    0  501 -0.00000000000E+00 -0.00000000000E+00 -0.90520122928E+02  0.90520122928E+02  0.00000000000E+00 0. -1.
         23    2    1    2    0    0  0.14563952986E+03 -0.17316782118E+03  0.11948771282E+04  0.12193102179E+04  0.88250149463E+02 0.  0.
         13    1    3    3    0    0  0.39089454481E+02 -0.76207155431E+02  0.26938387961E+03  0.28267152419E+03  0.00000000000E+00 0. -1.
        -13    1    3    3    0    0  0.10655007538E+03 -0.96960665750E+02  0.92549324864E+03  0.93663869370E+03  0.00000000000E+00 0.  1.
         22    1    1    2    0    0 -0.14563952986E+03  0.17316782118E+03  0.85156279619E+02  0.24176343584E+03  0.00000000000E+00 0. -1.
<mgrwt>
<rscale>  0 0.70445063E+03</rscale>
<asrwt>0</asrwt>
<pdfrwt beam="1">  1        2 0.21085438E+00 0.70445063E+03</pdfrwt>
<pdfrwt beam="2">  1       -2 0.13926174E-01 0.70445063E+03</pdfrwt>
<totfact> 0.60474122E+02</totfact>
</mgrwt>
</event>
<event>
 6    1  0.1528034E-005  0.1907277E+04  0.7818608E-02  0.8651243E-01
         -1   -1    0    0    0  501 -0.00000000000E+00  0.00000000000E+00  0.74268355114E+03  0.74268355114E+03  0.00000000000E+00 0.  1.
          1   -1    0    0  501    0  0.00000000000E+00 -0.00000000000E+00 -0.12245134377E+04  0.12245134377E+04  0.00000000000E+00 0. -1.
         23    2    1    2    0    0 -0.91544201938E+03  0.11604674170E+03 -0.19651925462E+01  0.92711475093E+03  0.89649106565E+02 0.  0.
         13    1    3    3    0    0 -0.15322511812E+03 -0.48201182931E+01 -0.23400580614E+02  0.15507661828E+03  0.00000000000E+00 0. -1.
        -13    1    3    3    0    0 -0.76221690126E+03  0.12086685999E+03  0.21435388068E+02  0.77203813265E+03  0.00000000000E+00 0.  1.
         22    1    1    2    0    0  0.91544201938E+03 -0.11604674170E+03 -0.47986469404E+03  0.10400822379E+04  0.00000000000E+00 0. -1.
<mgrwt>
<rscale>  0 0.19072766E+04</rscale>
<asrwt>0</asrwt>
<pdfrwt beam="1">  1        1 0.18838668E+00 0.19072766E+04</pdfrwt>
<pdfrwt beam="2">  1       -1 0.11425901E+00 0.19072766E+04</pdfrwt>
<totfact> 0.66848606E+00</totfact>
</mgrwt>
</event>
<event>
 6    1  0.1528034E-005  0.2856525E+04  0.7818608E-02  0.8285931E-01
          2   -1    0    0  501    0  0.00000000000E+00  0.00000000000E+00  0.25107518962E+04  0.25107518962E+04  0.00000000000E+00 0. -1.
         -2   -1    0    0    0  501 -0.00000000000E+00 -0.00000000000E+00 -0.81247915099E+03  0.81247915099E+03  0.00000000000E+00 0.  1.
         23    2    1    2    0    0  0.10346066551E+04  0.74248914203E+03  0.15986246844E+04  0.20458780056E+04  0.91185937704E+02 0.  0.
         11    1    3    3    0    0  0.13647038520E+03  0.11129366806E+03  0.17613768708E+03  0.24906812602E+03  0.00000000000E+00 0.  1.
        -11    1    3    3    0    0  0.89813626994E+03  0.63119547397E+03  0.14224869973E+04  0.17968098796E+04  0.00000000000E+00 0. -1.
         22    1    1    2    0    0 -0.10346066551E+04 -0.74248914203E+03  0.99648060803E+02  0.12773530416E+04  0.00000000000E+00 0.  1.
<mgrwt>
<rscale>  0 0.28565249E+04</rscale>
<asrwt>0</asrwt>
<pdfrwt beam="1">  1        2 0.38626952E+00 0.28565249E+04</pdfrwt>
<pdfrwt beam="2">  1       -2 0.12499679E+00 0.28565249E+04</pdfrwt>
<totfact> 0.14248342E+00</totfact>
</mgrwt>
</event>
<event>
 6    1  0.1528034E-005  0.6302639E+03  0.7818608E-02  0.9844534E-01
         -2   -1    0    0    0  501 -0.00000000000E+00  0.00000000000E+00  0.11691047182E+04  0.11691047182E+04  0.00000000000E+00 0.  1.
          2   -1    0    0  501    0  0.00000000000E+00 -0.00000000000E+00 -0.84943746599E+02  0.84943746599E+02  0.00000000000E+00 0. -1.
         23    2    1    2    0    0 -0.24772859663E+03 -0.12683323356E+03  0.81836981497E+03  0.86920945214E+03  0.91322455703E+02 0.  0.
         11    1    3    3    0    0 -0.20735063429E+03 -0.80549881727E+02  0.53768353850E+03  0.58188156575E+03  0.00000000000E+00 0. -1.
        -11    1    3    3    0    0 -0.40377962342E+02 -0.46283351829E+02  0.28068627647E+03  0.28732788639E+03  0.00000000000E+00 0.  1.
         22    1    1    2    0    0  0.24772859663E+03  0.12683323356E+03  0.26579115665E+03  0.38483901268E+03  0.00000000000E+00 0. -1.
<mgrwt>
<rscale>  0 0.63026387E+03</rscale>
<asrwt>0</asrwt>
<pdfrwt beam="1">  1        2 0.13068270E-01 0.63026387E+03</pdfrwt>
<pdfrwt beam="2">  1       -2 0.17986225E+00 0.63026387E+03</pdfrwt>
<totfact> 0.88053826E+01</totfact>
</mgrwt>
</event>
<event>
 6    1  0.1528034E-005  0.1047890E+04  0.7818608E-02  0.9257525E-01
          2   -1    0    0  501    0  0.00000000000E+00  0.00000000000E+00  0.21002894843E+04  0.21002894843E+04  0.00000000000E+00 0. -1.
         -2   -1    0    0    0  501 -0.00000000000E+00 -0.00000000000E+00 -0.13070510664E+03  0.13070510664E+03  0.00000000000E+00 0.  1.
         23    2    1    2    0    0 -0.38258812240E+03  0.31004036078E+03  0.13468555366E+04  0.14370865949E+04  0.93270295390E+02 0.  0.
         11    1    3    3    0    0 -0.25201449086E+03  0.22971264935E+03  0.81201259264E+03  0.88070633896E+03  0.00000000000E+00 0. -1.
        -11    1    3    3    0    0 -0.13057363154E+03  0.80327711428E+02  0.53484294394E+03  0.55638025590E+03  0.00000000000E+00 0.  1.
         22    1    1    2    0    0  0.38258812240E+03 -0.31004036078E+03  0.62272884105E+03  0.79390799605E+03  0.00000000000E+00 0.  1.
<mgrwt>
<rscale>  0 0.10478904E+04</rscale>
<asrwt>0</asrwt>
<pdfrwt beam="1">  1        2 0.32312144E+00 0.10478904E+04</pdfrwt>
<pdfrwt beam="2">  1       -2 0.20108479E-01 0.10478904E+04</pdfrwt>
<totfact> 0.12434438E+02</totfact>
</mgrwt>
</event>
<event>
 6    1  0.1528034E-005  0.2425067E+04  0.7818608E-02  0.8430178E-01
         -2   -1    0    0    0  501 -0.00000000000E+00  0.00000000000E+00  0.86813826597E+03  0.86813826597E+03  0.00000000000E+00 0.  1.
          2   -1    0    0  501    0  0.00000000000E+00 -0.00000000000E+00 -0.16935522515E+04  0.16935522515E+04  0.00000000000E+00 0. -1.
         23    2    1    2    0    0 -0.96012353934E+03 -0.54322148164E+03  0.11395689670E+03  0.11127790491E+04  0.91456267066E+02 0.  0.
         13    1    3    3    0    0 -0.39220746661E+03 -0.17190041317E+03  0.34592872373E+02  0.42961973387E+03  0.00000000000E+00 0.  1.
        -13    1    3    3    0    0 -0.56791607273E+03 -0.37132106847E+03  0.79364024326E+02  0.68315931518E+03  0.00000000000E+00 0. -1.
         22    1    1    2    0    0  0.96012353934E+03  0.54322148164E+03 -0.93937088219E+03  0.14489114684E+04  0.00000000000E+00 0. -1.
<mgrwt>
<rscale>  0 0.24250670E+04</rscale>
<asrwt>0</asrwt>
<pdfrwt beam="1">  1        2 0.26054650E+00 0.24250670E+04</pdfrwt>
<pdfrwt beam="2">  1       -2 0.13355973E+00 0.24250670E+04</pdfrwt>
<totfact> 0.35985238E+00</totfact>
</mgrwt>
</event>
<event>
 6    1  0.1528034E-005  0.9337693E+03  0.7818608E-02  0.9384326E-01
          1   -1    0    0  501    0  0.00000000000E+00  0.00000000000E+00  0.98845172880E+03  0.98845172880E+03  0.00000000000E+00 0.  1.
         -1   -1    0    0    0  501 -0.00000000000E+00 -0.00000000000E+00 -0.22052799428E+03  0.22052799428E+03  0.00000000000E+00 0. -1.
         23    2    1    2    0    0 -0.45954013053E+03 -0.41695795497E+02  0.35704099478E+03  0.59112836819E+03  0.95072629031E+02 0.  0.
         11    1    3    3    0    0 -0.19910012251E+03  0.28548177812E+02  0.14325237092E+03  0.24693541466E+03  0.00000000000E+00 0.  1.
        -11    1    3    3    0    0 -0.26044000802E+03 -0.70243973309E+02  0.21378862386E+03  0.34419295352E+03  0.00000000000E+00 0. -1.
         22    1    1    2    0    0  0.45954013053E+03  0.41695795497E+02  0.41088273974E+03  0.61785135490E+03  0.00000000000E+00 0.  1.
<mgrwt>
<rscale>  0 0.93376930E+03</rscale>
<asrwt>0</asrwt>
<pdfrwt beam="1">  1        1 0.15206949E+00 0.93376930E+03</pdfrwt>
<pdfrwt beam="2">  1       -1 0.33927384E-01 0.93376930E+03</pdfrwt>
<totfact> 0.12737201E+02</totfact>
</mgrwt>
</event>
<event>
 6    1  0.1528034E-005  0.2509062E+04  0.7818608E-02  0.8399764E-01
         -2   -1    0    0    0  501 -0.00000000000E+00  0.00000000000E+00  0.55059513348E+03  0.55059513348E+03  0.00000000000E+00 0.  1.
          2   -1    0    0  501    0  0.00000000000E+00 -0.00000000000E+00 -0.28584481310E+04  0.28584481310E+04  0.00000000000E+00 0. -1.
         23    2    1    2    0    0  0.74835268645E+03 -0.86286934725E+03 -0.45580826709E+03  0.12331193372E+04  0.90812277261E+02 0.  0.
         11    1    3    3    0    0  0.70033930237E+03 -0.77886185252E+03 -0.43490673467E+03  0.11341273260E+04  0.00000000000E+00 0.  1.
        -11    1    3    3    0    0  0.48013384079E+02 -0.84007494735E+02 -0.20901532421E+02  0.98992011193E+02  0.00000000000E+00 0. -1.
         22    1    1    2    0    0 -0.74835268645E+03  0.86286934725E+03 -0.18520447304E+04  0.21759239272E+04  0.00000000000E+00 0. -1.
<mgrwt>
<rscale>  0 0.25090617E+04</rscale>
<asrwt>0</asrwt>
<pdfrwt beam="1">  1        2 0.43976125E+00 0.25090617E+04</pdfrwt>
<pdfrwt beam="2">  1       -2 0.84706943E-01 0.25090617E+04</pdfrwt>
<totfact> 0.23059223E+00</totfact>
</mgrwt>
</event>
<event>
 6    1  0.1528034E-005  0.2881768E+04  0.7818608E-02  0.8278323E-01
         -2   -1    0    0    0  501 -0.00000000000E+00  0.00000000000E+00  0.14759810130E+04  0.14759810130E+04  0.00000000000E+00 0.  1.
          2   -1    0    0  501    0  0.00000000000E+00 -0.00000000000E+00 -0.14066217395E+04  0.14066217395E+04  0.00000000000E+00 0. -1.
         23    2    1    2    0    0 -0.51559065943E+03  0.77379561730E+02  0.13768639434E+04  0.14749842720E+04  0.89459261052E+02 0.  0.
         13    1    3    3    0    0 -0.34816182809E+03  0.29244270543E+02  0.10131350894E+04  0.10716877322E+04  0.00000000000E+00 0. -1.
        -13    1    3    3    0    0 -0.16742883134E+03  0.48135291187E+02  0.36372885397E+03  0.40329653982E+03  0.00000000000E+00 0.  1.
         22    1    1    2    0    0  0.51559065943E+03 -0.77379561730E+02 -0.13075046699E+04  0.14076184804E+04  0.00000000000E+00 0. -1.
<mgrwt>
<rscale>  0 0.28817682E+04</rscale>
<asrwt>0</asrwt>
<pdfrwt beam="1">  1        2 0.21640334E+00 0.28817682E+04</pdfrwt>
<pdfrwt beam="2">  1       -2 0.22707400E+00 0.28817682E+04</pdfrwt>
<totfact> 0.11058806E+00</totfact>
</mgrwt>
</event>
<event>
 6    1  0.1528034E-005  0.3564929E+03  0.7818608E-02  0.1059981E+00
          2   -1    0    0  501    0  0.00000000000E+00  0.00000000000E+00  0.50471536046E+03  0.50471536046E+03  0.00000000000E+00 0. -1.
         -2   -1    0    0    0  501 -0.00000000000E+00 -0.00000000000E+00 -0.62949929627E+02  0.62949929627E+02  0.00000000000E+00 0.  1.
         23    2    1    2    0    0 -0.60591648370E+02 -0.88558190917E+02  0.33519181486E+02  0.14555286296E+03  0.92456472769E+02 0.  0.
         11    1    3    3    0    0 -0.36919196636E+02 -0.34653640243E+02  0.62084956319E+02  0.80115189968E+02  0.00000000000E+00 0. -1.
        -11    1    3    3    0    0 -0.23672451734E+02 -0.53904550674E+02 -0.28565774833E+02  0.65437672990E+02  0.00000000000E+00 0.  1.
         22    1    1    2    0    0  0.60591648370E+02  0.88558190917E+02  0.40824624934E+03  0.42211242713E+03  0.00000000000E+00 0. -1.
<mgrwt>
<rscale>  0 0.35649290E+03</rscale>
<asrwt>0</asrwt>
<pdfrwt beam="1">  1        2 0.77648514E-01 0.35649290E+03</pdfrwt>
<pdfrwt beam="2">  1       -2 0.96846049E-02 0.35649290E+03</pdfrwt>
<totfact> 0.43199576E+03</totfact>
</mgrwt>
</event>
<event>
 6    1  0.1528034E-005  0.7082698E+03  0.7818608E-02  0.9703193E-01
          2   -1    0    0  501    0  0.00000000000E+00  0.00000000000E+00  0.19242980603E+04  0.19242980603E+04  0.00000000000E+00 0. -1.
         -2   -1    0    0    0  501 -0.00000000000E+00 -0.00000000000E+00 -0.65172612363E+02  0.65172612363E+02  0.00000000000E+00 0.  1.
         23    2    1    2    0    0 -0.17792774824E+03 -0.29691107438E+03  0.10586384857E+04  0.11173503562E+04  0.89117368674E+02 0.  0.
         13    1    3    3    0    0 -0.12515487809E+03 -0.21629009489E+03  0.62436343942E+03  0.67251383119E+03  0.00000000000E+00 0. -1.
        -13    1    3    3    0    0 -0.52772870145E+02 -0.80620979491E+02  0.43427504623E+03  0.44483652496E+03  0.00000000000E+00 0.  1.
         22    1    1    2    0    0  0.17792774824E+03  0.29691107438E+03  0.80048696225E+03  0.87212031648E+03  0.00000000000E+00 0.  1.
<mgrwt>
<rscale>  0 0.70826981E+03</rscale>
<asrwt>0</asrwt>
<pdfrwt beam="1">  1        2 0.29604581E+00 0.70826981E+03</pdfrwt>
<pdfrwt beam="2">  1       -2 0.10026557E-01 0.70826981E+03</pdfrwt>
<totfact> 0.51544495E+02</totfact>
</mgrwt>
</event>
<event>
 6    1  0.1528034E-005  0.2211972E+04  0.7818608E-02  0.8513462E-01
          2   -1    0    0  501    0  0.00000000000E+00  0.00000000000E+00  0.27240384359E+04  0.27240384359E+04  0.00000000000E+00 0. -1.
         -2   -1    0    0    0  501 -0.00000000000E+00 -0.00000000000E+00 -0.44904110747E+03  0.44904110747E+03  0.00000000000E+00 0.  1.
         23    2    1    2    0    0  0.80092663399E+03  0.22679760951E+03  0.21799923647E+04  0.23352570252E+04  0.90211058380E+02 0.  0.
         13    1    3    3    0    0  0.43524021144E+03  0.13916998973E+03  0.10770890729E+04  0.11700099139E+04  0.00000000000E+00 0.  1.
        -13    1    3    3    0    0  0.36568642254E+03  0.87627619782E+02  0.11029032918E+04  0.11652471113E+04  0.00000000000E+00 0. -1.
         22    1    1    2    0    0 -0.80092663399E+03 -0.22679760951E+03  0.95004963690E+02  0.83782251810E+03  0.00000000000E+00 0.  1.
<mgrwt>
<rscale>  0 0.22119722E+04</rscale>
<asrwt>0</asrwt>
<pdfrwt beam="1">  1        2 0.41908283E+00 0.22119722E+04</pdfrwt>
<pdfrwt beam="2">  1       -2 0.69083249E-01 0.22119722E+04</pdfrwt>
<totfact> 0.44903798E+00</totfact>
</mgrwt>
</event>
<event>
 6    1  0.1528034E-005  0.1465927E+04  0.7818608E-02  0.8907433E-01
          1   -1    0    0  501    0  0.00000000000E+00  0.00000000000E+00  0.43496300143E+03  0.43496300143E+03  0.00000000000E+00 0. -1.
         -1   -1    0    0    0  501 -0.00000000000E+00 -0.00000000000E+00 -0.12351284462E+04  0.12351284462E+04  0.00000000000E+00 0.  1.
         23    2    1    2    0    0  0.46746786000E+02  0.42554324542E+03  0.27216935231E+03  0.51545980388E+03  0.91380180289E+02 0.  0.
         11    1    3    3    0    0  0.16149136695E+02  0.27478262203E+03  0.22208472953E+03  0.35367769378E+03  0.00000000000E+00 0. -1.
        -11    1    3    3    0    0  0.30597649305E+02  0.15076062340E+03  0.50084622779E+02  0.16178211010E+03  0.00000000000E+00 0.  1.
         22    1    1    2    0    0 -0.46746786000E+02 -0.42554324542E+03 -0.10723347971E+04  0.11546316437E+04  0.00000000000E+00 0.  1.
<mgrwt>
<rscale>  0 0.14659266E+04</rscale>
<asrwt>0</asrwt>
<pdfrwt beam="1">  1        1 0.66917386E-01 0.14659266E+04</pdfrwt>
<pdfrwt beam="2">  1       -1 0.19001976E+00 0.14659266E+04</pdfrwt>
<totfact> 0.91850243E+00</totfact>
</mgrwt>
</event>
<event>
 6    1  0.1528034E-005  0.2935269E+04  0.7818608E-02  0.8262461E-01
         -2   -1    0    0    0  501 -0.00000000000E+00  0.00000000000E+00  0.88812882094E+03  0.88812882094E+03  0.00000000000E+00 0.  1.
          2   -1    0    0  501    0  0.00000000000E+00 -0.00000000000E+00 -0.24252679348E+04  0.24252679348E+04  0.00000000000E+00 0. -1.
         23    2    1    2    0    0 -0.77980715172E+03 -0.32705440529E+03  0.58284214997E+03  0.10309891811E+04  0.90387730454E+02 0.  0.
         13    1    3    3    0    0 -0.48668880581E+03 -0.22887148194E+03  0.32454088598E+03  0.62815200040E+03  0.00000000000E+00 0. -1.
        -13    1    3    3    0    0 -0.29311834591E+03 -0.98182923351E+02  0.25830126399E+03  0.40283718067E+03  0.00000000000E+00 0.  1.
         22    1    1    2    0    0  0.77980715172E+03  0.32705440529E+03 -0.21199812638E+04  0.22824075746E+04  0.00000000000E+00 0. -1.
<mgrwt>
<rscale>  0 0.29352685E+04</rscale>
<asrwt>0</asrwt>
<pdfrwt beam="1">  1        2 0.37311813E+00 0.29352685E+04</pdfrwt>
<pdfrwt beam="2">  1       -2 0.13663521E+00 0.29352685E+04</pdfrwt>
<totfact> 0.12655044E+00</totfact>
</mgrwt>
</event>
<event>
 6    1  0.1528034E-005  0.1753418E+04  0.7818608E-02  0.8731471E-01
          2   -1    0    0  501    0  0.00000000000E+00  0.00000000000E+00  0.15695925364E+04  0.15695925364E+04  0.00000000000E+00 0.  1.
         -2   -1    0    0    0  501 -0.00000000000E+00 -0.00000000000E+00 -0.48969300530E+03  0.48969300530E+03  0.00000000000E+00 0. -1.
         23    2    1    2    0    0 -0.21423009433E+03  0.68095135972E+03 -0.51112658245E+02  0.72183353879E+03  0.94031198381E+02 0.  0.
         11    1    3    3    0    0 -0.68886304992E+02  0.18607629496E+03 -0.55513568992E+02  0.20603753761E+03  0.00000000000E+00 0.  1.
        -11    1    3    3    0    0 -0.14534378934E+03  0.49487506476E+03  0.44009107467E+01  0.51579600118E+03  0.00000000000E+00 0. -1.
         22    1    1    2    0    0  0.21423009433E+03 -0.68095135972E+03  0.11310121893E+04  0.13374520029E+04  0.00000000000E+00 0.  1.
<mgrwt>
<rscale>  0 0.17534178E+04</rscale>
<asrwt>0</asrwt>
<pdfrwt beam="1">  1        2 0.24147577E+00 0.17534178E+04</pdfrwt>
<pdfrwt beam="2">  1       -2 0.75337386E-01 0.17534178E+04</pdfrwt>
<totfact> 0.17374170E+01</totfact>
</mgrwt>
</event>
<event>
 6    1  0.1528034E-005  0.1316466E+04  0.7818608E-02  0.9016608E-01
         -1   -1    0    0    0  501 -0.00000000000E+00  0.00000000000E+00  0.21155955588E+03  0.21155955588E+03  0.00000000000E+00 0.  1.
          1   -1    0    0  501    0  0.00000000000E+00 -0.00000000000E+00 -0.20479846320E+04  0.20479846320E+04  0.00000000000E+00 0. -1.
         23    2    1    2    0    0 -0.43115200226E+03  0.44721606569E+03 -0.12811078408E+04  0.14263146335E+04  0.85099209695E+02 0.  0.
         11    1    3    3    0    0 -0.25847278716E+03  0.31250906879E+03 -0.77025733767E+03  0.87049782654E+03  0.00000000000E+00 0. -1.
        -11    1    3    3    0    0 -0.17267921510E+03  0.13470699690E+03 -0.51085050310E+03  0.55581680692E+03  0.00000000000E+00 0.  1.
         22    1    1    2    0    0  0.43115200226E+03 -0.44721606569E+03 -0.55531723532E+03  0.83322955439E+03  0.00000000000E+00 0.  1.
<mgrwt>
<rscale>  0 0.13164661E+04</rscale>
<asrwt>0</asrwt>
<pdfrwt beam="1">  1        1 0.31507456E+00 0.13164661E+04</pdfrwt>
<pdfrwt beam="2">  1       -1 0.32547624E-01 0.13164661E+04</pdfrwt>
<totfact> 0.24003199E+01</totfact>
</mgrwt>
</event>
<event>
 6    1  0.1528034E-005  0.2008236E+04  0.7818608E-02  0.8602780E-01
         -2   -1    0    0    0  501 -0.00000000000E+00  0.00000000000E+00  0.34799286789E+03  0.34799286789E+03  0.00000000000E+00 0. -1.
          2   -1    0    0  501    0  0.00000000000E+00 -0.00000000000E+00 -0.28973369203E+04  0.28973369203E+04  0.00000000000E+00 0.  1.
         23    2    1    2    0    0 -0.91387647758E+03  0.23826554134E+03 -0.18184723227E+04  0.20511295664E+04  0.91379566559E+02 0.  0.
         11    1    3    3    0    0 -0.71379620435E+03  0.19495111392E+03 -0.13404458612E+04  0.15311126886E+04  0.00000000000E+00 0.  1.
        -11    1    3    3    0    0 -0.20008027323E+03  0.43314427425E+02 -0.47802646144E+03  0.52001687780E+03  0.00000000000E+00 0. -1.
         22    1    1    2    0    0  0.91387647758E+03 -0.23826554134E+03 -0.73087172971E+03  0.11942002218E+04  0.00000000000E+00 0. -1.
<mgrwt>
<rscale>  0 0.20082356E+04</rscale>
<asrwt>0</asrwt>
<pdfrwt beam="1">  1        2 0.44574416E+00 0.20082356E+04</pdfrwt>
<pdfrwt beam="2">  1       -2 0.53537362E-01 0.20082356E+04</pdfrwt>
<totfact> 0.61676451E+00</totfact>
</mgrwt>
</event>
<event>
 6    1  0.1528034E-005  0.4084371E+04  0.7818608E-02  0.7987739E-01
          2   -1    0    0  501    0  0.00000000000E+00  0.00000000000E+00  0.20559820988E+04  0.20559820988E+04  0.00000000000E+00 0. -1.
         -2   -1    0    0    0  501 -0.00000000000E+00 -0.00000000000E+00 -0.20284813187E+04  0.20284813187E+04  0.00000000000E+00 0.  1.
         23    2    1    2    0    0 -0.35024583683E+03 -0.16524201603E+04  0.11597430223E+04  0.20509597841E+04  0.90926485091E+02 0.  0.
         11    1    3    3    0    0 -0.22279671720E+03 -0.88283657434E+03  0.65963798699E+03  0.11243491753E+04  0.00000000000E+00 0.  1.
        -11    1    3    3    0    0 -0.12744911963E+03 -0.76958358597E+03  0.50010503532E+03  0.92661060875E+03  0.00000000000E+00 0. -1.
         22    1    1    2    0    0  0.35024583683E+03  0.16524201603E+04 -0.11322422422E+04  0.20335036335E+04  0.00000000000E+00 0.  1.
<mgrwt>
<rscale>  0 0.40843708E+04</rscale>
<asrwt>0</asrwt>
<pdfrwt beam="1">  1        2 0.31630494E+00 0.40843708E+04</pdfrwt>
<pdfrwt beam="2">  1       -2 0.31207405E+00 0.40843708E+04</pdfrwt>
<totfact> 0.13055326E-01</totfact>
</mgrwt>
</event>
<event>
 6    1  0.1528034E-005  0.2424519E+04  0.7818608E-02  0.8430381E-01
         -1   -1    0    0    0  501 -0.00000000000E+00  0.00000000000E+00  0.46887633261E+03  0.46887633261E+03  0.00000000000E+00 0.  1.
          1   -1    0    0  501    0  0.00000000000E+00 -0.00000000000E+00 -0.31342433489E+04  0.31342433489E+04  0.00000000000E+00 0. -1.
         23    2    1    2    0    0 -0.95770535268E+02 -0.12011720653E+04 -0.11624110371E+04  0.16767596421E+04  0.91308008410E+02 0.  0.
         11    1    3    3    0    0  0.17284952505E+02 -0.10107297777E+03 -0.97290795416E+02  0.14135068196E+03  0.00000000000E+00 0.  1.
        -11    1    3    3    0    0 -0.11305548777E+03 -0.11000990875E+04 -0.10651202417E+04  0.15354089602E+04  0.00000000000E+00 0. -1.
         22    1    1    2    0    0  0.95770535268E+02  0.12011720653E+04 -0.15029559792E+04  0.19263600393E+04  0.00000000000E+00 0. -1.
<mgrwt>
<rscale>  0 0.24245185E+04</rscale>
<asrwt>0</asrwt>
<pdfrwt beam="1">  1        1 0.48219129E+00 0.24245185E+04</pdfrwt>
<pdfrwt beam="2">  1       -1 0.72134819E-01 0.24245185E+04</pdfrwt>
<totfact> 0.82570242E-01</totfact>
</mgrwt>
</event>
<event>
 6    1  0.1528034E-005  0.2627793E+04  0.7818608E-02  0.8358821E-01
          2   -1    0    0  501    0  0.00000000000E+00  0.00000000000E+00  0.11438620789E+04  0.11438620789E+04  0.00000000000E+00 0. -1.
         -2   -1    0    0    0  501 -0.00000000000E+00 -0.00000000000E+00 -0.15092066113E+04  0.15092066113E+04  0.00000000000E+00 0.  1.
         23    2    1    2    0    0 -0.83734598111E+03  0.93616690789E+03 -0.56335796631E+03  0.13815475179E+04  0.11723725785E+03 0.  0.
         11    1    3    3    0    0 -0.34869644265E+03  0.31750542546E+03 -0.17831950242E+03  0.50417928285E+03  0.00000000000E+00 0. -1.
        -11    1    3    3    0    0 -0.48864953846E+03  0.61866148243E+03 -0.38503846389E+03  0.87736823509E+03  0.00000000000E+00 0.  1.
         22    1    1    2    0    0  0.83734598111E+03 -0.93616690789E+03  0.19801343397E+03  0.12715211723E+04  0.00000000000E+00 0.  1.
<mgrwt>
<rscale>  0 0.26277932E+04</rscale>
<asrwt>0</asrwt>
<pdfrwt beam="1">  1        2 0.17597878E+00 0.26277932E+04</pdfrwt>
<pdfrwt beam="2">  1       -2 0.23218563E+00 0.26277932E+04</pdfrwt>
<totfact> 0.14971786E+00</totfact>
</mgrwt>
</event>
<event>
 6    1  0.1528034E-005  0.1865767E+04  0.7818608E-02  0.8672086E-01
          2   -1    0    0  501    0  0.00000000000E+00  0.00000000000E+00  0.16927694012E+04  0.16927694012E+04  0.00000000000E+00 0. -1.
         -2   -1    0    0    0  501 -0.00000000000E+00 -0.00000000000E+00 -0.51411134284E+03  0.51411134284E+03  0.00000000000E+00 0.  1.
         23    2    1    2    0    0 -0.57935306170E+03  0.12520769613E+03  0.14396975263E+04  0.15592168334E+04  0.84268790919E+02 0.  0.
         13    1    3    3    0    0 -0.28019972010E+03  0.77199275698E+02  0.60393583918E+03  0.67023138479E+03  0.00000000000E+00 0.  1.
        -13    1    3    3    0    0 -0.29915334160E+03  0.48008420431E+02  0.83576168709E+03  0.88898544860E+03  0.00000000000E+00 0. -1.
         22    1    1    2    0    0  0.57935306170E+03 -0.12520769613E+03 -0.26103946795E+03  0.64766391060E+03  0.00000000000E+00 0.  1.
<mgrwt>
<rscale>  0 0.18657673E+04</rscale>
<asrwt>0</asrwt>
<pdfrwt beam="1">  1        2 0.26042606E+00 0.18657673E+04</pdfrwt>
<pdfrwt beam="2">  1       -2 0.79094053E-01 0.18657673E+04</pdfrwt>
<totfact> 0.13181771E+01</totfact>
</mgrwt>
</event>
<event>
 6    1  0.1528034E-005  0.1127395E+04  0.7818608E-02  0.9178895E-01
          2   -1    0    0  501    0  0.00000000000E+00  0.00000000000E+00  0.30304613682E+04  0.30304613682E+04  0.00000000000E+00 0. -1.
         -2   -1    0    0    0  501 -0.00000000000E+00 -0.00000000000E+00 -0.10485363576E+03  0.10485363576E+03  0.00000000000E+00 0.  1.
         23    2    1    2    0    0  0.13413175511E+03  0.29761222741E+03  0.27377985754E+04  0.27587029421E+04  0.91304533012E+02 0.  0.
         13    1    3    3    0    0  0.48785230083E+02  0.59950544782E+02  0.95295788399E+03  0.95608723198E+03  0.00000000000E+00 0. -1.
        -13    1    3    3    0    0  0.85346525023E+02  0.23766168263E+03  0.17848406914E+04  0.18026157102E+04  0.00000000000E+00 0.  1.
         22    1    1    2    0    0 -0.13413175511E+03 -0.29761222741E+03  0.18780915696E+03  0.37661206177E+03  0.00000000000E+00 0.  1.
<mgrwt>
<rscale>  0 0.11273950E+04</rscale>
<asrwt>0</asrwt>
<pdfrwt beam="1">  1        2 0.46622476E+00 0.11273950E+04</pdfrwt>
<pdfrwt beam="2">  1       -2 0.16131331E-01 0.11273950E+04</pdfrwt>
<totfact> 0.52178353E+01</totfact>
</mgrwt>
</event>
<event>
 6    1  0.1528034E-005  0.1857045E+04  0.7818608E-02  0.8676538E-01
         -1   -1    0    0    0  501 -0.00000000000E+00  0.00000000000E+00  0.13015117158E+04  0.13015117158E+04  0.00000000000E+00 0.  1.
          1   -1    0    0  501    0  0.00000000000E+00 -0.00000000000E+00 -0.66242525918E+03  0.66242525918E+03  0.00000000000E+00 0. -1.
         23    2    1    2    0    0 -0.86670320359E+03  0.24068826585E+03  0.55464728230E+03  0.10604795833E+04  0.88758404153E+02 0.  0.
         11    1    3    3    0    0 -0.55763593373E+03  0.19729843649E+03  0.35086819633E+03  0.68774486463E+03  0.00000000000E+00 0.  1.
        -11    1    3    3    0    0 -0.30906726986E+03  0.43389829361E+02  0.20377908597E+03  0.37273471862E+03  0.00000000000E+00 0. -1.
         22    1    1    2    0    0  0.86670320359E+03 -0.24068826585E+03  0.84439174278E+02  0.90345739168E+03  0.00000000000E+00 0. -1.
<mgrwt>
<rscale>  0 0.18570452E+04</rscale>
<asrwt>0</asrwt>
<pdfrwt beam="1">  1        1 0.10191158E+00 0.18570452E+04</pdfrwt>
<pdfrwt beam="2">  1       -1 0.20023257E+00 0.18570452E+04</pdfrwt>
<totfact> 0.41685051E+00</totfact>
</mgrwt>
</event>
<event>
 6    1  0.1528034E-005  0.2472014E+04  0.7818608E-02  0.8413024E-01
         -2   -1    0    0    0  501 -0.00000000000E+00  0.00000000000E+00  0.96610025855E+03  0.96610025855E+03  0.00000000000E+00 0.  1.
          2   -1    0    0  501    0  0.00000000000E+00 -0.00000000000E+00 -0.15813197403E+04  0.15813197403E+04  0.00000000000E+00 0. -1.
         23    2    1    2    0    0  0.42004954669E+02  0.12239330798E+04 -0.46642618983E+03  0.13137603847E+04  0.92932005674E+02 0.  0.
         11    1    3    3    0    0  0.25489422909E+02  0.34242170021E+03 -0.89070155030E+02  0.35473345482E+03  0.00000000000E+00 0.  1.
        -11    1    3    3    0    0  0.16515531760E+02  0.88151137960E+03 -0.37735603480E+03  0.95902692984E+03  0.00000000000E+00 0. -1.
         22    1    1    2    0    0 -0.42004954669E+02 -0.12239330798E+04 -0.14879329196E+03  0.12336596142E+04  0.00000000000E+00 0. -1.
<mgrwt>
<rscale>  0 0.24720141E+04</rscale>
<asrwt>0</asrwt>
<pdfrwt beam="1">  1        2 0.24327995E+00 0.24720141E+04</pdfrwt>
<pdfrwt beam="2">  1       -2 0.14863081E+00 0.24720141E+04</pdfrwt>
<totfact> 0.31355820E+00</totfact>
</mgrwt>
</event>
<event>
 6    1  0.1528034E-005  0.1198104E+04  0.7818608E-02  0.9114517E-01
         -2   -1    0    0    0  501 -0.00000000000E+00  0.00000000000E+00  0.12913220392E+03  0.12913220392E+03  0.00000000000E+00 0.  1.
          2   -1    0    0  501    0  0.00000000000E+00 -0.00000000000E+00 -0.27790392147E+04  0.27790392147E+04  0.00000000000E+00 0. -1.
         23    2    1    2    0    0  0.39779407840E+03  0.80174446793E+02 -0.23908118480E+04  0.24267169824E+04  0.91136983010E+02 0.  0.
         11    1    3    3    0    0  0.21739897109E+03  0.50998482918E+02 -0.15706324801E+04  0.15864266593E+04  0.00000000000E+00 0. -1.
        -11    1    3    3    0    0  0.18039510731E+03  0.29175963874E+02 -0.82017936794E+03  0.84029032316E+03  0.00000000000E+00 0.  1.
         22    1    1    2    0    0 -0.39779407840E+03 -0.80174446793E+02 -0.25909516276E+03  0.48145443615E+03  0.00000000000E+00 0.  1.
<mgrwt>
<rscale>  0 0.11981043E+04</rscale>
<asrwt>0</asrwt>
<pdfrwt beam="1">  1        2 0.42754451E+00 0.11981043E+04</pdfrwt>
<pdfrwt beam="2">  1       -2 0.19866492E-01 0.11981043E+04</pdfrwt>
<totfact> 0.51361035E+01</totfact>
</mgrwt>
</event>
<event>
 6    1  0.1528034E-005  0.2356703E+04  0.7818608E-02  0.8455894E-01
          2   -1    0    0  501    0  0.00000000000E+00  0.00000000000E+00  0.19134203904E+04  0.19134203904E+04  0.00000000000E+00 0. -1.
         -2   -1    0    0    0  501 -0.00000000000E+00 -0.00000000000E+00 -0.72567010913E+03  0.72567010913E+03  0.00000000000E+00 0.  1.
         23    2    1    2    0    0  0.59605816194E+02 -0.84145503107E+03  0.15134133203E+04  0.17348472593E+04  0.87611143471E+02 0.  0.
         13    1    3    3    0    0 -0.46368274027E+00 -0.43104552051E+03  0.83462991697E+03  0.93936550610E+03  0.00000000000E+00 0. -1.
        -13    1    3    3    0    0  0.60069498934E+02 -0.41040951056E+03  0.67878340330E+03  0.79548175319E+03  0.00000000000E+00 0.  1.
         22    1    1    2    0    0 -0.59605816194E+02  0.84145503107E+03 -0.32566303896E+03  0.90424324027E+03  0.00000000000E+00 0.  1.
<mgrwt>
<rscale>  0 0.23567028E+04</rscale>
<asrwt>0</asrwt>
<pdfrwt beam="1">  1        2 0.29437237E+00 0.23567028E+04</pdfrwt>
<pdfrwt beam="2">  1       -2 0.11164156E+00 0.23567028E+04</pdfrwt>
<totfact> 0.42693639E+00</totfact>
</mgrwt>
</event>
<event>
 6    1  0.1528034E-005  0.1360858E+04  0.7818608E-02  0.8982649E-01
          2   -1    0    0  501    0  0.00000000000E+00  0.00000000000E+00  0.18412555059E+04  0.18412555059E+04  0.00000000000E+00 0. -1.
         -2   -1    0    0    0  501 -0.00000000000E+00 -0.00000000000E+00 -0.25145008600E+03  0.25145008600E+03  0.00000000000E+00 0.  1.
         23    2    1    2    0    0  0.37704144518E+03 -0.56200854832E+03  0.75931074306E+03  0.10213815195E+04  0.93024427782E+02 0.  0.
         11    1    3    3    0    0  0.26317020130E+03 -0.33355371619E+03  0.42721706817E+03  0.60252058867E+03  0.00000000000E+00 0. -1.
        -11    1    3    3    0    0  0.11387124388E+03 -0.22845483213E+03  0.33209367489E+03  0.41886093087E+03  0.00000000000E+00 0.  1.
         22    1    1    2    0    0 -0.37704144518E+03  0.56200854832E+03  0.83049467689E+03  0.10713240724E+04  0.00000000000E+00 0. -1.
<mgrwt>
<rscale>  0 0.13608583E+04</rscale>
<asrwt>0</asrwt>
<pdfrwt beam="1">  1        2 0.28327007E+00 0.13608583E+04</pdfrwt>
<pdfrwt beam="2">  1       -2 0.38684630E-01 0.13608583E+04</pdfrwt>
<totfact> 0.50450594E+01</totfact>
</mgrwt>
</event>
<event>
 6    1  0.1528034E-005  0.2519471E+04  0.7818608E-02  0.8396082E-01
         -1   -1    0    0    0  501 -0.00000000000E+00  0.00000000000E+00  0.15137755254E+04  0.15137755254E+04  0.00000000000E+00 0.  1.
          1   -1    0    0  501    0  0.00000000000E+00 -0.00000000000E+00 -0.10483280705E+04  0.10483280705E+04  0.00000000000E+00 0. -1.
         23    2    1    2    0    0  0.20857042799E+02 -0.12204902384E+04 -0.76648920072E+02  0.12264764332E+04  0.91312354282E+02 0.  0.
         13    1    3    3    0    0 -0.77807956406E+01 -0.17112904822E+03  0.19097833617E+02  0.17236710583E+03  0.00000000000E+00 0. -1.
        -13    1    3    3    0    0  0.28637838439E+02 -0.10493611901E+04 -0.95746753689E+02  0.10541093273E+04  0.00000000000E+00 0.  1.
         22    1    1    2    0    0 -0.20857042799E+02  0.12204902384E+04  0.54209637491E+03  0.13356271627E+04  0.00000000000E+00 0.  1.
<mgrwt>
<rscale>  0 0.25194709E+04</rscale>
<asrwt>0</asrwt>
<pdfrwt beam="1">  1        1 0.16128124E+00 0.25194709E+04</pdfrwt>
<pdfrwt beam="2">  1       -1 0.23288854E+00 0.25194709E+04</pdfrwt>
<totfact> 0.11118551E+00</totfact>
</mgrwt>
</event>
<event>
 6    1  0.1528034E-005  0.1211317E+04  0.7818608E-02  0.9103008E-01
         -2   -1    0    0    0  501 -0.00000000000E+00  0.00000000000E+00  0.13397901543E+03  0.13397901543E+03  0.00000000000E+00 0.  1.
          2   -1    0    0  501    0  0.00000000000E+00 -0.00000000000E+00 -0.27379084096E+04  0.27379084096E+04  0.00000000000E+00 0. -1.
         23    2    1    2    0    0  0.70499689363E+02 -0.22084768626E+03 -0.26272184748E+04  0.26388932448E+04  0.87958720160E+02 0.  0.
         13    1    3    3    0    0  0.81984013656E+02 -0.15023327604E+03 -0.15824571341E+04  0.15916852694E+04  0.00000000000E+00 0. -1.
        -13    1    3    3    0    0 -0.11484324293E+02 -0.70614410216E+02 -0.10447613407E+04  0.10472079754E+04  0.00000000000E+00 0.  1.
         22    1    1    2    0    0 -0.70499689363E+02  0.22084768626E+03  0.23289080653E+02  0.23299418019E+03  0.00000000000E+00 0.  1.
<mgrwt>
<rscale>  0 0.12113171E+04</rscale>
<asrwt>0</asrwt>
<pdfrwt beam="1">  1        2 0.42121669E+00 0.12113171E+04</pdfrwt>
<pdfrwt beam="2">  1       -2 0.20612156E-01 0.12113171E+04</pdfrwt>
<totfact> 0.50858271E+01</totfact>
</mgrwt>
</event>
<event>
 6    1  0.1528034E-005  0.1571217E+04  0.7818608E-02  0.8838429E-01
          2   -1    0    0  501    0  0.00000000000E+00  0.00000000000E+00  0.72034363713E+03  0.72034363713E+03  0.00000000000E+00 0. -1.
         -2   -1    0    0    0  501 -0.00000000000E+00 -0.00000000000E+00 -0.85678601712E+03  0.85678601712E+03  0.00000000000E+00 0.  1.
         23    2    1    2    0    0  0.31555553312E+03  0.47752030318E+03 -0.60444706816E+03  0.83778580828E+03  0.94487395542E+02 0.  0.
         11    1    3    3    0    0  0.81087567739E+02  0.20312661033E+03 -0.24457585649E+03  0.32810510975E+03  0.00000000000E+00 0. -1.
        -11    1    3    3    0    0  0.23446796538E+03  0.27439369285E+03 -0.35987121167E+03  0.50968069853E+03  0.00000000000E+00 0.  1.
         22    1    1    2    0    0 -0.31555553312E+03 -0.47752030318E+03  0.46800468817E+03  0.73934384597E+03  0.00000000000E+00 0. -1.
<mgrwt>
<rscale>  0 0.15712165E+04</rscale>
<asrwt>0</asrwt>
<pdfrwt beam="1">  1        2 0.11082210E+00 0.15712165E+04</pdfrwt>
<pdfrwt beam="2">  1       -2 0.13181323E+00 0.15712165E+04</pdfrwt>
<totfact> 0.15913509E+01</totfact>
</mgrwt>
</event>
<event>
 6    1  0.1528034E-005  0.1926534E+04  0.7818608E-02  0.8641760E-01
         -1   -1    0    0    0  501 -0.00000000000E+00  0.00000000000E+00  0.80781193884E+03  0.80781193884E+03  0.00000000000E+00 0.  1.
          1   -1    0    0  501    0  0.00000000000E+00 -0.00000000000E+00 -0.11486380796E+04  0.11486380796E+04  0.00000000000E+00 0. -1.
         23    2    1    2    0    0 -0.43081407013E+03 -0.85517738333E+03 -0.25488576750E+03  0.99503706462E+03  0.90569782524E+02 0.  0.
         11    1    3    3    0    0 -0.35291380616E+03 -0.64619096264E+03 -0.16481394703E+03  0.75450285083E+03  0.00000000000E+00 0. -1.
        -11    1    3    3    0    0 -0.77900263973E+02 -0.20898642070E+03 -0.90071820465E+02  0.24053421379E+03  0.00000000000E+00 0.  1.
         22    1    1    2    0    0  0.43081407013E+03  0.85517738333E+03 -0.85940373264E+02  0.96141295381E+03  0.00000000000E+00 0. -1.
<mgrwt>
<rscale>  0 0.19265342E+04</rscale>
<asrwt>0</asrwt>
<pdfrwt beam="1">  1        1 0.17671355E+00 0.19265342E+04</pdfrwt>
<pdfrwt beam="2">  1       -1 0.12427876E+00 0.19265342E+04</pdfrwt>
<totfact> 0.61801618E+00</totfact>
</mgrwt>
</event>
<event>
 6    1  0.1528034E-005  0.2727563E+04  0.7818608E-02  0.8326117E-01
         -2   -1    0    0    0  501 -0.00000000000E+00  0.00000000000E+00  0.22509027855E+04  0.22509027855E+04  0.00000000000E+00 0.  1.
          2   -1    0    0  501    0  0.00000000000E+00 -0.00000000000E+00 -0.82629055806E+03  0.82629055806E+03  0.00000000000E+00 0. -1.
         23    2    1    2    0    0  0.28356866438E+03 -0.93005917889E+03 -0.36347784350E+03  0.10418340717E+04  0.88774020086E+02 0.  0.
         13    1    3    3    0    0  0.20438718405E+03 -0.65656716223E+03 -0.21350207524E+03  0.72002617707E+03  0.00000000000E+00 0.  1.
        -13    1    3    3    0    0  0.79181480330E+02 -0.27349201665E+03 -0.14997576826E+03  0.32180789466E+03  0.00000000000E+00 0. -1.
         22    1    1    2    0    0 -0.28356866438E+03  0.93005917889E+03  0.17880900710E+04  0.20353592719E+04  0.00000000000E+00 0.  1.
<mgrwt>
<rscale>  0 0.27275628E+04</rscale>
<asrwt>0</asrwt>
<pdfrwt beam="1">  1        2 0.12712163E+00 0.27275628E+04</pdfrwt>
<pdfrwt beam="2">  1       -2 0.34629273E+00 0.27275628E+04</pdfrwt>
<totfact> 0.47402116E-01</totfact>
</mgrwt>
</event>
<event>
 6    1  0.1528034E-005  0.2436995E+04  0.7818608E-02  0.8425782E-01
          2   -1    0    0  501    0  0.00000000000E+00  0.00000000000E+00  0.16488180445E+04  0.16488180445E+04  0.00000000000E+00 0. -1.
         -2   -1    0    0    0  501 -0.00000000000E+00 -0.00000000000E+00 -0.90048517676E+03  0.90048517676E+03  0.00000000000E+00 0.  1.
         23    2    1    2    0    0 -0.86095850310E+03  0.77035369332E+03  0.77437802979E+03  0.13937199455E+04  0.89997758729E+02 0.  0.
         11    1    3    3    0    0 -0.69222586941E+03  0.57942320026E+03  0.63041302805E+03  0.11010578937E+04  0.00000000000E+00 0. -1.
        -11    1    3    3    0    0 -0.16873263370E+03  0.19093049306E+03  0.14396500175E+03  0.29266205183E+03  0.00000000000E+00 0.  1.
         22    1    1    2    0    0  0.86095850310E+03 -0.77035369332E+03 -0.26045162016E+02  0.11555832758E+04  0.00000000000E+00 0.  1.
<mgrwt>
<rscale>  0 0.24369950E+04</rscale>
<asrwt>0</asrwt>
<pdfrwt beam="1">  1        2 0.25366431E+00 0.24369950E+04</pdfrwt>
<pdfrwt beam="2">  1       -2 0.13853618E+00 0.24369950E+04</pdfrwt>
<totfact> 0.34659912E+00</totfact>
</mgrwt>
</event>
<event>
 6    1  0.1528034E-005  0.4524739E+04  0.7818608E-02  0.7906320E-01
         -1   -1    0    0    0  501 -0.00000000000E+00  0.00000000000E+00  0.25532981297E+04  0.25532981297E+04  0.00000000000E+00 0.  1.
          1   -1    0    0  501    0  0.00000000000E+00 -0.00000000000E+00 -0.20045898169E+04  0.20045898169E+04  0.00000000000E+00 0. -1.
         23    2    1    2    0    0 -0.27194564126E+03 -0.17327208854E+04  0.17124117905E+04  0.24530169570E+04  0.93069611190E+02 0.  0.
         11    1    3    3    0    0 -0.75836203100E+02 -0.60029984389E+03  0.53487929977E+03  0.80759327486E+03  0.00000000000E+00 0. -1.
        -11    1    3    3    0    0 -0.19610943816E+03 -0.11324210416E+04  0.11775324907E+04  0.16454236822E+04  0.00000000000E+00 0.  1.
         22    1    1    2    0    0  0.27194564126E+03  0.17327208854E+04 -0.11637034777E+04  0.21048709896E+04  0.00000000000E+00 0. -1.
<mgrwt>
<rscale>  0 0.45247389E+04</rscale>
<asrwt>0</asrwt>
<pdfrwt beam="1">  1        1 0.30839843E+00 0.45247389E+04</pdfrwt>
<pdfrwt beam="2">  1       -1 0.39281510E+00 0.45247389E+04</pdfrwt>
<totfact> 0.17767395E-02</totfact>
</mgrwt>
</event>
<event>
 6    1  0.1528034E-005  0.2827287E+04  0.7818608E-02  0.8294847E-01
          1   -1    0    0  501    0  0.00000000000E+00  0.00000000000E+00  0.10625181474E+04  0.10625181474E+04  0.00000000000E+00 0. -1.
         -1   -1    0    0    0  501 -0.00000000000E+00 -0.00000000000E+00 -0.18808031786E+04  0.18808031786E+04  0.00000000000E+00 0.  1.
         23    2    1    2    0    0 -0.98925360725E+03  0.57547425863E+03 -0.12707222624E+04  0.17126740289E+04  0.93402031736E+02 0.  0.
         13    1    3    3    0    0 -0.31748956343E+03  0.15189461979E+03 -0.43953743298E+03  0.56308503212E+03  0.00000000000E+00 0. -1.
        -13    1    3    3    0    0 -0.67176404382E+03  0.42357963884E+03 -0.83118482940E+03  0.11495889968E+04  0.00000000000E+00 0.  1.
         22    1    1    2    0    0  0.98925360725E+03 -0.57547425863E+03  0.45243723118E+03  0.12306472971E+04  0.00000000000E+00 0. -1.
<mgrwt>
<rscale>  0 0.28272867E+04</rscale>
<asrwt>0</asrwt>
<pdfrwt beam="1">  1        1 0.16346433E+00 0.28272867E+04</pdfrwt>
<pdfrwt beam="2">  1       -1 0.28935433E+00 0.28272867E+04</pdfrwt>
<totfact> 0.45258581E-01</totfact>
</mgrwt>
</event>
<event>
 6    1  0.1528034E-005  0.3729791E+04  0.7818608E-02  0.8061392E-01
          2   -1    0    0  501    0  0.00000000000E+00  0.00000000000E+00  0.28292049143E+04  0.28292049143E+04  0.00000000000E+00 0. -1.
         -2   -1    0    0    0  501 -0.00000000000E+00 -0.00000000000E+00 -0.12292621363E+04  0.12292621363E+04  0.00000000000E+00 0.  1.
         23    2    1    2    0    0  0.15902400787E+04  0.82681626667E+03  0.13564033375E+04  0.22496552567E+04  0.92898402713E+02 0.  0.
         13    1    3    3    0    0  0.12196388852E+04  0.61816397142E+03  0.10800324067E+04  0.17424453235E+04  0.00000000000E+00 0. -1.
        -13    1    3    3    0    0  0.37060119349E+03  0.20865229525E+03  0.27637093080E+03  0.50720993318E+03  0.00000000000E+00 0.  1.
         22    1    1    2    0    0 -0.15902400787E+04 -0.82681626667E+03  0.24353944059E+03  0.18088117939E+04  0.00000000000E+00 0.  1.
<mgrwt>
<rscale>  0 0.37297906E+04</rscale>
<asrwt>0</asrwt>
<pdfrwt beam="1">  1        2 0.43526229E+00 0.37297906E+04</pdfrwt>
<pdfrwt beam="2">  1       -2 0.18911725E+00 0.37297906E+04</pdfrwt>
<totfact> 0.28119166E-01</totfact>
</mgrwt>
</event>
<event>
 6    1  0.1528034E-005  0.2520311E+04  0.7818608E-02  0.8395785E-01
          2   -1    0    0  501    0  0.00000000000E+00  0.00000000000E+00  0.34054402976E+04  0.34054402976E+04  0.00000000000E+00 0. -1.
         -2   -1    0    0    0  501 -0.00000000000E+00 -0.00000000000E+00 -0.46631035888E+03  0.46631035888E+03  0.00000000000E+00 0.  1.
         23    2    1    2    0    0 -0.76404703424E+03  0.30226800614E+03  0.71824565609E+01  0.82684509863E+03  0.92127147853E+02 0.  0.
         13    1    3    3    0    0 -0.27522632366E+03  0.93812927322E+02 -0.39228960426E+02  0.29340979177E+03  0.00000000000E+00 0.  1.
        -13    1    3    3    0    0 -0.48882071058E+03  0.20845507882E+03  0.46411416987E+02  0.53343530686E+03  0.00000000000E+00 0. -1.
         22    1    1    2    0    0  0.76404703424E+03 -0.30226800614E+03  0.29319474822E+04  0.30449055579E+04  0.00000000000E+00 0. -1.
<mgrwt>
<rscale>  0 0.25203112E+04</rscale>
<asrwt>0</asrwt>
<pdfrwt beam="1">  1        2 0.52391388E+00 0.25203112E+04</pdfrwt>
<pdfrwt beam="2">  1       -2 0.71740057E-01 0.25203112E+04</pdfrwt>
<totfact> 0.14839224E+00</totfact>
</mgrwt>
</event>
<event>
 6    1  0.1528034E-005  0.2452295E+04  0.7818608E-02  0.8420180E-01
         -2   -1    0    0    0  501 -0.00000000000E+00  0.00000000000E+00  0.22631679306E+04  0.22631679306E+04  0.00000000000E+00 0.  1.
          2   -1    0    0  501    0  0.00000000000E+00 -0.00000000000E+00 -0.66430689382E+03  0.66430689382E+03  0.00000000000E+00 0. -1.
         23    2    1    2    0    0  0.41169442726E+03 -0.63760480127E+03  0.19475690772E+04  0.20922326551E+04  0.91542277417E+02 0.  0.
         13    1    3    3    0    0  0.58146573094E+02 -0.45794859841E+02  0.22403984014E+03  0.23594923844E+03  0.00000000000E+00 0. -1.
        -13    1    3    3    0    0  0.35354785417E+03 -0.59180994143E+03  0.17235292370E+04  0.18562834166E+04  0.00000000000E+00 0.  1.
         22    1    1    2    0    0 -0.41169442726E+03  0.63760480127E+03 -0.34870804039E+03  0.83524216936E+03  0.00000000000E+00 0. -1.
<mgrwt>
<rscale>  0 0.24522953E+04</rscale>
<asrwt>0</asrwt>
<pdfrwt beam="1">  1        2 0.10220106E+00 0.24522953E+04</pdfrwt>
<pdfrwt beam="2">  1       -2 0.34817968E+00 0.24522953E+04</pdfrwt>
<totfact> 0.62632132E-01</totfact>
</mgrwt>
</event>
<event>
 6    1  0.1528034E-005  0.1119390E+04  0.7818608E-02  0.9186496E-01
          1   -1    0    0  501    0  0.00000000000E+00  0.00000000000E+00  0.83570013946E+03  0.83570013946E+03  0.00000000000E+00 0. -1.
         -1   -1    0    0    0  501 -0.00000000000E+00 -0.00000000000E+00 -0.37484573853E+03  0.37484573853E+03  0.00000000000E+00 0.  1.
         23    2    1    2    0    0  0.50384316937E+03 -0.28547679091E+02 -0.20296571746E+02  0.51328038493E+03  0.91498051532E+02 0.  0.
         11    1    3    3    0    0  0.93402508044E+02 -0.40850086863E+02  0.30699925103E+01  0.10199109255E+03  0.00000000000E+00 0. -1.
        -11    1    3    3    0    0  0.41044066132E+03  0.12302407772E+02 -0.23366564256E+02  0.41128929238E+03  0.00000000000E+00 0.  1.
         22    1    1    2    0    0 -0.50384316937E+03  0.28547679091E+02  0.48115097268E+03  0.69726549306E+03  0.00000000000E+00 0. -1.
<mgrwt>
<rscale>  0 0.11193903E+04</rscale>
<asrwt>0</asrwt>
<pdfrwt beam="1">  1        1 0.12856925E+00 0.11193903E+04</pdfrwt>
<pdfrwt beam="2">  1       -1 0.57668575E-01 0.11193903E+04</pdfrwt>
<totfact> 0.62426807E+01</totfact>
</mgrwt>
</event>
<event>
 6    1  0.1528034E-005  0.5709841E+04  0.7818608E-02  0.7727457E-01
          2   -1    0    0  501    0  0.00000000000E+00  0.00000000000E+00  0.32786279884E+04  0.32786279884E+04  0.00000000000E+00 0. -1.
         -2   -1    0    0    0  501 -0.00000000000E+00 -0.00000000000E+00 -0.24859701831E+04  0.24859701831E+04  0.00000000000E+00 0.  1.
         23    2    1    2    0    0 -0.19603819240E+04  0.51575325580E+02  0.24901272878E+04  0.31709212552E+04  0.90831687010E+02 0.  0.
         13    1    3    3    0    0 -0.12553683811E+04  0.24013914896E+02  0.16624498186E+04  0.20833304682E+04  0.00000000000E+00 0.  1.
        -13    1    3    3    0    0 -0.70501354296E+03  0.27561410684E+02  0.82767746913E+03  0.10875907870E+04  0.00000000000E+00 0. -1.
         22    1    1    2    0    0  0.19603819240E+04 -0.51575325580E+02 -0.16974694825E+04  0.25936769163E+04  0.00000000000E+00 0.  1.
<mgrwt>
<rscale>  0 0.57098411E+04</rscale>
<asrwt>0</asrwt>
<pdfrwt beam="1">  1        2 0.50440431E+00 0.57098411E+04</pdfrwt>
<pdfrwt beam="2">  1       -2 0.38245695E+00 0.57098411E+04</pdfrwt>
<totfact> 0.76432899E-03</totfact>
</mgrwt>
</event>
<event>
 6    1  0.1528034E-005  0.8009483E+03  0.7818608E-02  0.9558645E-01
          1   -1    0    0  501    0  0.00000000000E+00  0.00000000000E+00  0.13486149316E+04  0.13486149316E+04  0.00000000000E+00 0. -1.
         -1   -1    0    0    0  501 -0.00000000000E+00 -0.00000000000E+00 -0.11892167653E+03  0.11892167653E+03  0.00000000000E+00 0.  1.
         23    2    1    2    0    0  0.23759561163E+03 -0.36780462063E+02  0.11977509806E+04  0.12249983927E+04  0.90604489666E+02 0.  0.
         11    1    3    3    0    0  0.83231102765E+02  0.20655227962E+02  0.28949426403E+03  0.30192877275E+03  0.00000000000E+00 0. -1.
        -11    1    3    3    0    0  0.15436450887E+03 -0.57435690025E+02  0.90825671655E+03  0.92306961993E+03  0.00000000000E+00 0.  1.
         22    1    1    2    0    0 -0.23759561163E+03  0.36780462063E+02  0.31942274511E+02  0.24253821546E+03  0.00000000000E+00 0.  1.
<mgrwt>
<rscale>  0 0.80094831E+03</rscale>
<asrwt>0</asrwt>
<pdfrwt beam="1">  1        1 0.20747921E+00 0.80094831E+03</pdfrwt>
<pdfrwt beam="2">  1       -1 0.18295643E-01 0.80094831E+03</pdfrwt>
<totfact> 0.20073628E+02</totfact>
</mgrwt>
</event>
<event>
 6    1  0.1528034E-005  0.1588521E+04  0.7818608E-02  0.8827631E-01
         -2   -1    0    0    0  501 -0.00000000000E+00  0.00000000000E+00  0.60699313908E+03  0.60699313908E+03  0.00000000000E+00 0.  1.
          2   -1    0    0  501    0  0.00000000000E+00 -0.00000000000E+00 -0.10393030565E+04  0.10393030565E+04  0.00000000000E+00 0. -1.
         23    2    1    2    0    0 -0.27501257168E+03  0.37468165676E+03  0.44731415929E+03  0.65143099123E+03  0.90852191742E+02 0.  0.
         13    1    3    3    0    0 -0.32034699466E+02  0.10565965719E+03  0.11929566441E+03  0.16254734902E+03  0.00000000000E+00 0. -1.
        -13    1    3    3    0    0 -0.24297787221E+03  0.26902199958E+03  0.32801849487E+03  0.48888364221E+03  0.00000000000E+00 0.  1.
         22    1    1    2    0    0  0.27501257168E+03 -0.37468165676E+03 -0.87962407668E+03  0.99486520432E+03  0.00000000000E+00 0. -1.
<mgrwt>
<rscale>  0 0.15885211E+04</rscale>
<asrwt>0</asrwt>
<pdfrwt beam="1">  1        2 0.15989278E+00 0.15885211E+04</pdfrwt>
<pdfrwt beam="2">  1       -2 0.93383561E-01 0.15885211E+04</pdfrwt>
<totfact> 0.22141224E+01</totfact>
</mgrwt>
</event>
<event>
 6    1  0.1528034E-005  0.1839625E+04  0.7818608E-02  0.8685507E-01
         -2   -1    0    0    0  501 -0.00000000000E+00  0.00000000000E+00  0.88462452165E+03  0.88462452165E+03  0.00000000000E+00 0.  1.
          2   -1    0    0  501    0  0.00000000000E+00 -0.00000000000E+00 -0.95640011903E+03  0.95640011903E+03  0.00000000000E+00 0. -1.
         23    2    1    2    0    0  0.23006135953E+03 -0.36211235764E+03 -0.84761329100E+03  0.95447079824E+03  0.92263887334E+02 0.  0.
         11    1    3    3    0    0  0.14696915129E+03 -0.14930121764E+03 -0.43545270539E+03  0.48322856254E+03  0.00000000000E+00 0. -1.
        -11    1    3    3    0    0  0.83092208241E+02 -0.21281114001E+03 -0.41216058560E+03  0.47124223570E+03  0.00000000000E+00 0.  1.
         22    1    1    2    0    0 -0.23006135953E+03  0.36211235764E+03  0.77583769362E+03  0.88655384244E+03  0.00000000000E+00 0.  1.
<mgrwt>
<rscale>  0 0.18396250E+04</rscale>
<asrwt>0</asrwt>
<pdfrwt beam="1">  1        2 0.14713848E+00 0.18396250E+04</pdfrwt>
<pdfrwt beam="2">  1       -2 0.13609608E+00 0.18396250E+04</pdfrwt>
<totfact> 0.97773494E+00</totfact>
</mgrwt>
</event>
<event>
 6    1  0.1528034E-005  0.2217118E+04  0.7818608E-02  0.8511337E-01
          2   -1    0    0  501    0  0.00000000000E+00  0.00000000000E+00  0.15634039660E+04  0.15634039660E+04  0.00000000000E+00 0. -1.
         -2   -1    0    0    0  501 -0.00000000000E+00 -0.00000000000E+00 -0.78604321238E+03  0.78604321238E+03  0.00000000000E+00 0.  1.
         23    2    1    2    0    0  0.76237083940E+03 -0.70276766399E+03 -0.20342345189E+02  0.10412339235E+04  0.93073015316E+02 0.  0.
         11    1    3    3    0    0  0.42964816183E+03 -0.34350752513E+03 -0.36560952055E+02  0.55129997823E+03  0.00000000000E+00 0. -1.
        -11    1    3    3    0    0  0.33272267757E+03 -0.35926013886E+03  0.16218606866E+02  0.48993394529E+03  0.00000000000E+00 0.  1.
         22    1    1    2    0    0 -0.76237083940E+03  0.70276766399E+03  0.79770309878E+03  0.13082132548E+04  0.00000000000E+00 0. -1.
<mgrwt>
<rscale>  0 0.22171180E+04</rscale>
<asrwt>0</asrwt>
<pdfrwt beam="1">  1        2 0.24052369E+00 0.22171180E+04</pdfrwt>
<pdfrwt beam="2">  1       -2 0.12092972E+00 0.22171180E+04</pdfrwt>
<totfact> 0.55596000E+00</totfact>
</mgrwt>
</event>
<event>
 6    1  0.1528034E-005  0.3729989E+04  0.7818608E-02  0.8061348E-01
          1   -1    0    0  501    0  0.00000000000E+00  0.00000000000E+00  0.15987674559E+04  0.15987674559E+04  0.00000000000E+00 0.  1.
         -1   -1    0    0    0  501 -0.00000000000E+00 -0.00000000000E+00 -0.21755536042E+04  0.21755536042E+04  0.00000000000E+00 0. -1.
         23    2    1    2    0    0  0.45669717015E+03  0.13451656622E+04  0.93236750547E+03  0.17017410944E+04  0.92577659985E+02 0.  0.
         11    1    3    3    0    0  0.20912444310E+03  0.74317266671E+03  0.53131429622E+03  0.93719449775E+03  0.00000000000E+00 0. -1.
        -11    1    3    3    0    0  0.24757272705E+03  0.60199299547E+03  0.40105320925E+03  0.76454659663E+03  0.00000000000E+00 0.  1.
         22    1    1    2    0    0 -0.45669717015E+03 -0.13451656622E+04 -0.15091536538E+04  0.20725799658E+04  0.00000000000E+00 0. -1.
<mgrwt>
<rscale>  0 0.37299889E+04</rscale>
<asrwt>0</asrwt>
<pdfrwt beam="1">  1        1 0.24596422E+00 0.37299889E+04</pdfrwt>
<pdfrwt beam="2">  1       -1 0.33470056E+00 0.37299889E+04</pdfrwt>
<totfact> 0.87707553E-02</totfact>
</mgrwt>
</event>
<event>
 6    1  0.1528034E-005  0.4728736E+03  0.7818608E-02  0.1021112E+00
         -1   -1    0    0    0  501 -0.00000000000E+00  0.00000000000E+00  0.28775142714E+03  0.28775142714E+03  0.00000000000E+00 0.  1.
          1   -1    0    0  501    0  0.00000000000E+00 -0.00000000000E+00 -0.19427309729E+03  0.19427309729E+03  0.00000000000E+00 0. -1.
         23    2    1    2    0    0  0.22117609782E+03 -0.54271926403E+02  0.24941108500E+02  0.24419757274E+03  0.84534533736E+02 0.  0.
         13    1    3    3    0    0  0.10965814629E+03 -0.66906222666E+02 -0.31793589463E+01  0.12849692605E+03  0.00000000000E+00 0. -1.
        -13    1    3    3    0    0  0.11151795153E+03  0.12634296263E+02  0.28120467446E+02  0.11570064669E+03  0.00000000000E+00 0.  1.
         22    1    1    2    0    0 -0.22117609782E+03  0.54271926403E+02  0.68537221343E+02  0.23782695170E+03  0.00000000000E+00 0. -1.
<mgrwt>
<rscale>  0 0.47287360E+03</rscale>
<asrwt>0</asrwt>
<pdfrwt beam="1">  1        1 0.29888169E-01 0.47287360E+03</pdfrwt>
<pdfrwt beam="2">  1       -1 0.44269450E-01 0.47287360E+03</pdfrwt>
<totfact> 0.78459815E+02</totfact>
</mgrwt>
</event>
<event>
 6    1  0.1528034E-005  0.2089094E+04  0.7818608E-02  0.8566063E-01
         -1   -1    0    0    0  501 -0.00000000000E+00  0.00000000000E+00  0.12762480803E+04  0.12762480803E+04  0.00000000000E+00 0.  1.
          1   -1    0    0  501    0  0.00000000000E+00 -0.00000000000E+00 -0.85491122813E+03  0.85491122813E+03  0.00000000000E+00 0. -1.
         23    2    1    2    0    0  0.11371245372E+03  0.89849988228E+03  0.73772667541E+03  0.11718183467E+04  0.93193505337E+02 0.  0.
         11    1    3    3    0    0  0.57723025705E+02  0.19391022197E+03  0.19101229237E+03  0.27824237226E+03  0.00000000000E+00 0.  1.
        -11    1    3    3    0    0  0.55989428018E+02  0.70458966031E+03  0.54671438304E+03  0.89357597443E+03  0.00000000000E+00 0. -1.
         22    1    1    2    0    0 -0.11371245372E+03 -0.89849988228E+03 -0.31638982326E+03  0.95934096173E+03  0.00000000000E+00 0. -1.
<mgrwt>
<rscale>  0 0.20890944E+04</rscale>
<asrwt>0</asrwt>
<pdfrwt beam="1">  1        1 0.13152480E+00 0.20890944E+04</pdfrwt>
<pdfrwt beam="2">  1       -1 0.19634586E+00 0.20890944E+04</pdfrwt>
<totfact> 0.29131837E+00</totfact>
</mgrwt>
</event>
<event>
 6    1  0.1528034E-005  0.3639830E+04  0.7818608E-02  0.8081429E-01
          1   -1    0    0  501    0  0.00000000000E+00  0.00000000000E+00  0.18269349343E+04  0.18269349343E+04  0.00000000000E+00 0. -1.
         -1   -1    0    0    0  501 -0.00000000000E+00 -0.00000000000E+00 -0.18129221755E+04  0.18129221755E+04  0.00000000000E+00 0.  1.
         23    2    1    2    0    0  0.60336095332E+03 -0.10462001111E+04 -0.13529029549E+04  0.18158402017E+04  0.91378992802E+02 0.  0.
         13    1    3    3    0    0  0.22893000969E+03 -0.44508269301E+03 -0.61773992115E+03  0.79505355992E+03  0.00000000000E+00 0.  1.
        -13    1    3    3    0    0  0.37443094363E+03 -0.60111741809E+03 -0.73516303374E+03  0.10207866418E+04  0.00000000000E+00 0. -1.
         22    1    1    2    0    0 -0.60336095332E+03  0.10462001111E+04  0.13669157137E+04  0.18240169080E+04  0.00000000000E+00 0. -1.
<mgrwt>
<rscale>  0 0.36398301E+04</rscale>
<asrwt>0</asrwt>
<pdfrwt beam="1">  1        1 0.28106691E+00 0.36398301E+04</pdfrwt>
<pdfrwt beam="2">  1       -1 0.27891110E+00 0.36398301E+04</pdfrwt>
<totfact> 0.14246954E-01</totfact>
</mgrwt>
</event>
<event>
 6    1  0.1528034E-005  0.2108957E+04  0.7818608E-02  0.8557308E-01
         -2   -1    0    0    0  501 -0.00000000000E+00  0.00000000000E+00  0.24105193764E+04  0.24105193764E+04  0.00000000000E+00 0.  1.
          2   -1    0    0  501    0  0.00000000000E+00 -0.00000000000E+00 -0.46128017955E+03  0.46128017955E+03  0.00000000000E+00 0. -1.
         23    2    1    2    0    0 -0.63080062635E+03 -0.62963936212E+03  0.21412309266E+03  0.92116297996E+03  0.91309256421E+02 0.  0.
         13    1    3    3    0    0 -0.27307050535E+03 -0.30993385444E+03  0.13722054619E+03  0.43526540560E+03  0.00000000000E+00 0. -1.
        -13    1    3    3    0    0 -0.35773012101E+03 -0.31970550768E+03  0.76902546466E+02  0.48589757436E+03  0.00000000000E+00 0.  1.
         22    1    1    2    0    0  0.63080062635E+03  0.62963936212E+03  0.17351161042E+04  0.19506365760E+04  0.00000000000E+00 0.  1.
<mgrwt>
<rscale>  0 0.21089569E+04</rscale>
<asrwt>0</asrwt>
<pdfrwt beam="1">  1        2 0.70966183E-01 0.21089569E+04</pdfrwt>
<pdfrwt beam="2">  1       -2 0.37084913E+00 0.21089569E+04</pdfrwt>
<totfact> 0.71523439E-01</totfact>
</mgrwt>
</event>
<event>
 6    1  0.1528034E-005  0.1445617E+04  0.7818608E-02  0.8921445E-01
          2   -1    0    0  501    0  0.00000000000E+00  0.00000000000E+00  0.39930341474E+03  0.39930341474E+03  0.00000000000E+00 0. -1.
         -2   -1    0    0    0  501 -0.00000000000E+00 -0.00000000000E+00 -0.13084084362E+04  0.13084084362E+04  0.00000000000E+00 0.  1.
         23    2    1    2    0    0 -0.29131926504E+03  0.18948691336E+03 -0.12013188210E+04  0.12536621740E+04  0.87918895425E+02 0.  0.
         11    1    3    3    0    0 -0.28370330152E+03  0.15605949736E+03 -0.10678987205E+04  0.11159076159E+04  0.00000000000E+00 0.  1.
        -11    1    3    3    0    0 -0.76159635259E+01  0.33427416006E+02 -0.13342010055E+03  0.13775455808E+03  0.00000000000E+00 0. -1.
         22    1    1    2    0    0  0.29131926504E+03 -0.18948691336E+03  0.29221379955E+03  0.45404967698E+03  0.00000000000E+00 0. -1.
<mgrwt>
<rscale>  0 0.14456168E+04</rscale>
<asrwt>0</asrwt>
<pdfrwt beam="1">  1        2 0.61431295E-01 0.14456168E+04</pdfrwt>
<pdfrwt beam="2">  1       -2 0.20129360E+00 0.14456168E+04</pdfrwt>
<totfact> 0.10071130E+01</totfact>
</mgrwt>
</event>
<event>
 6    1  0.1528034E-005  0.7623258E+03  0.7818608E-02  0.9616209E-01
         -1   -1    0    0    0  501 -0.00000000000E+00  0.00000000000E+00  0.28260443809E+03  0.28260443809E+03  0.00000000000E+00 0.  1.
          1   -1    0    0  501    0  0.00000000000E+00 -0.00000000000E+00 -0.51409372822E+03  0.51409372822E+03  0.00000000000E+00 0. -1.
         23    2    1    2    0    0  0.19605570670E+03  0.89297230631E+02 -0.43902149482E+03  0.49756366227E+03  0.91749057605E+02 0.  0.
         11    1    3    3    0    0  0.92258443155E+02  0.23631530441E+02 -0.10541263215E+03  0.14206298807E+03  0.00000000000E+00 0. -1.
        -11    1    3    3    0    0  0.10379726354E+03  0.65665700190E+02 -0.33360886267E+03  0.35550067420E+03  0.00000000000E+00 0.  1.
         22    1    1    2    0    0 -0.19605570670E+03 -0.89297230631E+02  0.20753220468E+03  0.29913450404E+03  0.00000000000E+00 0.  1.
<mgrwt>
<rscale>  0 0.76232583E+03</rscale>
<asrwt>0</asrwt>
<pdfrwt beam="1">  1        1 0.79091343E-01 0.76232583E+03</pdfrwt>
<pdfrwt beam="2">  1       -1 0.43477606E-01 0.76232583E+03</pdfrwt>
<totfact> 0.22536734E+02</totfact>
</mgrwt>
</event>
<event>
 6    1  0.1528034E-005  0.2424800E+04  0.7818608E-02  0.8430277E-01
         -1   -1    0    0    0  501 -0.00000000000E+00  0.00000000000E+00  0.11197581645E+04  0.11197581645E+04  0.00000000000E+00 0.  1.
          1   -1    0    0  501    0  0.00000000000E+00 -0.00000000000E+00 -0.13127068829E+04  0.13127068829E+04  0.00000000000E+00 0. -1.
         23    2    1    2    0    0 -0.25497775617E+03 -0.11834916299E+04 -0.81954064832E+02  0.12167406101E+04  0.89861834269E+02 0.  0.
         13    1    3    3    0    0 -0.14196538064E+03 -0.45387279613E+03 -0.24451612257E+02  0.47618543206E+03  0.00000000000E+00 0. -1.
        -13    1    3    3    0    0 -0.11301237553E+03 -0.72961883382E+03 -0.57502452575E+02  0.74055517805E+03  0.00000000000E+00 0.  1.
         22    1    1    2    0    0  0.25497775617E+03  0.11834916299E+04 -0.11099465354E+03  0.12157244373E+04  0.00000000000E+00 0.  1.
<mgrwt>
<rscale>  0 0.24248004E+04</rscale>
<asrwt>0</asrwt>
<pdfrwt beam="1">  1        1 0.20195490E+00 0.24248004E+04</pdfrwt>
<pdfrwt beam="2">  1       -1 0.17227049E+00 0.24248004E+04</pdfrwt>
<totfact> 0.18758974E+00</totfact>
</mgrwt>
</event>
<event>
 6    1  0.1528034E-005  0.1713936E+04  0.7818608E-02  0.8753456E-01
          1   -1    0    0  501    0  0.00000000000E+00  0.00000000000E+00  0.20432298172E+03  0.20432298172E+03  0.00000000000E+00 0. -1.
         -1   -1    0    0    0  501 -0.00000000000E+00 -0.00000000000E+00 -0.35942798529E+04  0.35942798529E+04  0.00000000000E+00 0.  1.
         23    2    1    2    0    0 -0.53554756195E+02 -0.71624093725E+03 -0.67353123707E+03  0.98882750235E+03  0.90919249845E+02 0.  0.
         11    1    3    3    0    0 -0.64184846854E+02 -0.49075644929E+03 -0.41763778592E+03  0.64759779749E+03  0.00000000000E+00 0. -1.
        -11    1    3    3    0    0  0.10630090660E+02 -0.22548448796E+03 -0.25589345115E+03  0.34122970486E+03  0.00000000000E+00 0.  1.
         22    1    1    2    0    0  0.53554756195E+02  0.71624093725E+03 -0.27164256341E+04  0.28097753323E+04  0.00000000000E+00 0.  1.
<mgrwt>
<rscale>  0 0.17139358E+04</rscale>
<asrwt>0</asrwt>
<pdfrwt beam="1">  1        1 0.31434304E-01 0.17139358E+04</pdfrwt>
<pdfrwt beam="2">  1       -1 0.55296615E+00 0.17139358E+04</pdfrwt>
<totfact> 0.98153833E-02</totfact>
</mgrwt>
</event>
<event>
 6    1  0.1528034E-005  0.2054469E+04  0.7818608E-02  0.8581570E-01
          4   -1    0    0  501    0  0.00000000000E+00  0.00000000000E+00  0.70090635655E+03  0.70090635655E+03  0.00000000000E+00 0. -1.
         -4   -1    0    0    0  501 -0.00000000000E+00 -0.00000000000E+00 -0.15054948264E+04  0.15054948264E+04  0.00000000000E+00 0.  1.
         23    2    1    2    0    0 -0.45658809467E+03  0.67330252915E+03  0.26687492139E+03  0.86109720886E+03  0.91963011546E+02 0.  0.
         13    1    3    3    0    0 -0.38870582554E+03  0.51199173573E+03  0.22577781572E+03  0.68132472311E+03  0.00000000000E+00 0. -1.
        -13    1    3    3    0    0 -0.67882269135E+02  0.16131079342E+03  0.41097105671E+02  0.17977248575E+03  0.00000000000E+00 0.  1.
         22    1    1    2    0    0  0.45658809467E+03 -0.67330252915E+03 -0.10714633912E+04  0.13453039741E+04  0.00000000000E+00 0.  1.
<mgrwt>
<rscale>  0 0.20544692E+04</rscale>
<asrwt>0</asrwt>
<pdfrwt beam="1">  1        4 0.10783175E+00 0.20544692E+04</pdfrwt>
<pdfrwt beam="2">  1       -4 0.23161459E+00 0.20544692E+04</pdfrwt>
<totfact> 0.10482937E-01</totfact>
</mgrwt>
</event>
<event>
 6    1  0.1528034E-005  0.1725670E+04  0.7818608E-02  0.8746858E-01
          2   -1    0    0  501    0  0.00000000000E+00  0.00000000000E+00  0.48127013812E+04  0.48127013812E+04  0.00000000000E+00 0. -1.
         -2   -1    0    0    0  501 -0.00000000000E+00 -0.00000000000E+00 -0.15469161272E+03  0.15469161272E+03  0.00000000000E+00 0.  1.
         23    2    1    2    0    0 -0.34686350570E+03 -0.76568290065E+03  0.28669132873E+04  0.29888553519E+04  0.86486541517E+02 0.  0.
         11    1    3    3    0    0 -0.52131194170E+02 -0.10470349243E+03  0.51485237697E+03  0.52797107194E+03  0.00000000000E+00 0. -1.
        -11    1    3    3    0    0 -0.29473231153E+03 -0.66097940822E+03  0.23520609103E+04  0.24608842799E+04  0.00000000000E+00 0.  1.
         22    1    1    2    0    0  0.34686350570E+03  0.76568290065E+03  0.17910964812E+04  0.19785376421E+04  0.00000000000E+00 0.  1.
<mgrwt>
<rscale>  0 0.17256703E+04</rscale>
<asrwt>0</asrwt>
<pdfrwt beam="1">  1        2 0.74041548E+00 0.17256703E+04</pdfrwt>
<pdfrwt beam="2">  1       -2 0.23798713E-01 0.17256703E+04</pdfrwt>
<totfact> 0.88597084E-01</totfact>
</mgrwt>
</event>
<event>
 6    1  0.1528034E-005  0.1857169E+04  0.7818608E-02  0.8676475E-01
         -2   -1    0    0    0  501 -0.00000000000E+00  0.00000000000E+00  0.61550403454E+03  0.61550403454E+03  0.00000000000E+00 0.  1.
          2   -1    0    0  501    0  0.00000000000E+00 -0.00000000000E+00 -0.14009149449E+04  0.14009149449E+04  0.00000000000E+00 0. -1.
         23    2    1    2    0    0 -0.83862825381E+03 -0.38158334405E+03 -0.28942973048E+03  0.97004403356E+03  0.91173798970E+02 0.  0.
         13    1    3    3    0    0 -0.73800812385E+03 -0.33515650155E+03 -0.28482468606E+03  0.85913385057E+03  0.00000000000E+00 0. -1.
        -13    1    3    3    0    0 -0.10062012996E+03 -0.46426842505E+02 -0.46050444147E+01  0.11091018299E+03  0.00000000000E+00 0.  1.
         22    1    1    2    0    0  0.83862825381E+03  0.38158334405E+03 -0.49598117985E+03  0.10463749459E+04  0.00000000000E+00 0.  1.
<mgrwt>
<rscale>  0 0.18571686E+04</rscale>
<asrwt>0</asrwt>
<pdfrwt beam="1">  1        2 0.21552538E+00 0.18571686E+04</pdfrwt>
<pdfrwt beam="2">  1       -2 0.94692928E-01 0.18571686E+04</pdfrwt>
<totfact> 0.12756757E+01</totfact>
</mgrwt>
</event>
<event>
 6    1  0.1528034E-005  0.2275668E+04  0.7818608E-02  0.8487577E-01
          2   -1    0    0  501    0  0.00000000000E+00  0.00000000000E+00  0.16178358882E+04  0.16178358882E+04  0.00000000000E+00 0. -1.
         -2   -1    0    0    0  501 -0.00000000000E+00 -0.00000000000E+00 -0.80024569165E+03  0.80024569165E+03  0.00000000000E+00 0.  1.
         23    2    1    2    0    0  0.57389913389E+03 -0.75952767179E+03  0.10681841384E+04  0.14336833760E+04  0.90488501443E+02 0.  0.
         13    1    3    3    0    0  0.27699672410E+03 -0.33215786813E+03  0.54513003078E+03  0.69586118227E+03  0.00000000000E+00 0. -1.
        -13    1    3    3    0    0  0.29690240980E+03 -0.42736980366E+03  0.52305410761E+03  0.73782219370E+03  0.00000000000E+00 0.  1.
         22    1    1    2    0    0 -0.57389913389E+03  0.75952767179E+03 -0.25059394185E+03  0.98439820388E+03  0.00000000000E+00 0.  1.
<mgrwt>
<rscale>  0 0.22756680E+04</rscale>
<asrwt>0</asrwt>
<pdfrwt beam="1">  1        2 0.24889783E+00 0.22756680E+04</pdfrwt>
<pdfrwt beam="2">  1       -2 0.12311472E+00 0.22756680E+04</pdfrwt>
<totfact> 0.49321643E+00</totfact>
</mgrwt>
</event>
<event>
 6    1  0.1528034E-005  0.4015838E+03  0.7818608E-02  0.1043233E+00
         -1   -1    0    0    0  501 -0.00000000000E+00  0.00000000000E+00  0.37124058247E+02  0.37124058247E+02  0.00000000000E+00 0.  1.
          1   -1    0    0  501    0  0.00000000000E+00 -0.00000000000E+00 -0.10860176504E+04  0.10860176504E+04  0.00000000000E+00 0. -1.
         23    2    1    2    0    0 -0.16176427128E+03 -0.82855740795E+02 -0.71177497109E+03  0.74015121540E+03  0.90373994889E+02 0.  0.
         11    1    3    3    0    0 -0.25067383302E+02 -0.50749011117E+02 -0.13217654526E+03  0.14378621266E+03  0.00000000000E+00 0. -1.
        -11    1    3    3    0    0 -0.13669688798E+03 -0.32106729679E+02 -0.57959842583E+03  0.59636500274E+03  0.00000000000E+00 0.  1.
         22    1    1    2    0    0  0.16176427128E+03  0.82855740795E+02 -0.33711862110E+03  0.38299049328E+03  0.00000000000E+00 0. -1.
<mgrwt>
<rscale>  0 0.40158378E+03</rscale>
<asrwt>0</asrwt>
<pdfrwt beam="1">  1        1 0.16707965E+00 0.40158378E+03</pdfrwt>
<pdfrwt beam="2">  1       -1 0.57113932E-02 0.40158378E+03</pdfrwt>
<totfact> 0.19894987E+03</totfact>
</mgrwt>
</event>
<event>
 6    1  0.1528034E-005  0.3253555E+04  0.7818608E-02  0.8174815E-01
         -4   -1    0    0    0  501 -0.00000000000E+00  0.00000000000E+00  0.24238979809E+04  0.24238979809E+04  0.00000000000E+00 0.  1.
          4   -1    0    0  501    0  0.00000000000E+00 -0.00000000000E+00 -0.10917973240E+04  0.10917973240E+04  0.00000000000E+00 0. -1.
         23    2    1    2    0    0 -0.45613576974E+03  0.72519574207E+03  0.21592152471E+04  0.23248606186E+04  0.93796097433E+02 0.  0.
         11    1    3    3    0    0 -0.24311457264E+03  0.42982288405E+03  0.11327723985E+04  0.12357288189E+04  0.00000000000E+00 0. -1.
        -11    1    3    3    0    0 -0.21302119711E+03  0.29537285802E+03  0.10264428486E+04  0.10891317997E+04  0.00000000000E+00 0.  1.
         22    1    1    2    0    0  0.45613576974E+03 -0.72519574207E+03 -0.82711459023E+03  0.11908346863E+04  0.00000000000E+00 0. -1.
<mgrwt>
<rscale>  0 0.32535552E+04</rscale>
<asrwt>0</asrwt>
<pdfrwt beam="1">  1        4 0.16796882E+00 0.32535552E+04</pdfrwt>
<pdfrwt beam="2">  1       -4 0.37290738E+00 0.32535552E+04</pdfrwt>
<totfact> 0.37901957E-03</totfact>
</mgrwt>
</event>
<event>
 6    1  0.1528034E-005  0.2152908E+04  0.7818608E-02  0.8538288E-01
         -1   -1    0    0    0  501 -0.00000000000E+00  0.00000000000E+00  0.13319213531E+04  0.13319213531E+04  0.00000000000E+00 0.  1.
          1   -1    0    0  501    0  0.00000000000E+00 -0.00000000000E+00 -0.86998642149E+03  0.86998642149E+03  0.00000000000E+00 0. -1.
         23    2    1    2    0    0 -0.67151876384E+03 -0.57814660748E+03 -0.39013039884E+03  0.97259647257E+03  0.92472809067E+02 0.  0.
         13    1    3    3    0    0 -0.44186431321E+03 -0.40728553670E+03 -0.30533410040E+03  0.67405822638E+03  0.00000000000E+00 0.  1.
        -13    1    3    3    0    0 -0.22965445063E+03 -0.17086107079E+03 -0.84796298446E+02  0.29853824618E+03  0.00000000000E+00 0. -1.
         22    1    1    2    0    0  0.67151876384E+03  0.57814660748E+03  0.85206533048E+03  0.12293113020E+04  0.00000000000E+00 0.  1.
<mgrwt>
<rscale>  0 0.21529083E+04</rscale>
<asrwt>0</asrwt>
<pdfrwt beam="1">  1        1 0.13384407E+00 0.21529083E+04</pdfrwt>
<pdfrwt beam="2">  1       -1 0.20491098E+00 0.21529083E+04</pdfrwt>
<totfact> 0.24560781E+00</totfact>
</mgrwt>
</event>
<event>
 6    1  0.1528034E-005  0.2862208E+04  0.7818608E-02  0.8284211E-01
          2   -1    0    0  501    0  0.00000000000E+00  0.00000000000E+00  0.16143763741E+04  0.16143763741E+04  0.00000000000E+00 0. -1.
         -2   -1    0    0    0  501 -0.00000000000E+00 -0.00000000000E+00 -0.12686376031E+04  0.12686376031E+04  0.00000000000E+00 0.  1.
         23    2    1    2    0    0  0.47856628326E+03  0.13305495470E+04  0.38283262263E+03  0.14685304183E+04  0.10311638157E+03 0.  0.
         11    1    3    3    0    0  0.97315695214E+02  0.17232372479E+03  0.40188858303E+02  0.20194294985E+03  0.00000000000E+00 0. -1.
        -11    1    3    3    0    0  0.38125058805E+03  0.11582258222E+04  0.34264376433E+03  0.12665874685E+04  0.00000000000E+00 0.  1.
         22    1    1    2    0    0 -0.47856628326E+03 -0.13305495470E+04 -0.37093851681E+02  0.14144835589E+04  0.00000000000E+00 0.  1.
<mgrwt>
<rscale>  0 0.28622079E+04</rscale>
<asrwt>0</asrwt>
<pdfrwt beam="1">  1        2 0.24836560E+00 0.28622079E+04</pdfrwt>
<pdfrwt beam="2">  1       -2 0.19517502E+00 0.28622079E+04</pdfrwt>
<totfact> 0.13567109E+00</totfact>
</mgrwt>
</event>
<event>
 6    1  0.1528034E-005  0.1862391E+04  0.7818608E-02  0.8673806E-01
         -1   -1    0    0    0  501 -0.00000000000E+00  0.00000000000E+00  0.29392769637E+03  0.29392769637E+03  0.00000000000E+00 0.  1.
          1   -1    0    0  501    0  0.00000000000E+00 -0.00000000000E+00 -0.29501315897E+04  0.29501315897E+04  0.00000000000E+00 0. -1.
         23    2    1    2    0    0  0.85051296358E+03 -0.34373354372E+03 -0.10762730685E+04  0.14171201897E+04  0.91328330827E+02 0.  0.
         11    1    3    3    0    0  0.22961884661E+03 -0.49938605122E+02 -0.27441691971E+03  0.36128011961E+03  0.00000000000E+00 0.  1.
        -11    1    3    3    0    0  0.62089411696E+03 -0.29379493859E+03 -0.80185614875E+03  0.10558400701E+04  0.00000000000E+00 0. -1.
         22    1    1    2    0    0 -0.85051296358E+03  0.34373354372E+03 -0.15799308249E+04  0.18269390963E+04  0.00000000000E+00 0. -1.
<mgrwt>
<rscale>  0 0.18623913E+04</rscale>
<asrwt>0</asrwt>
<pdfrwt beam="1">  1        1 0.45386638E+00 0.18623913E+04</pdfrwt>
<pdfrwt beam="2">  1       -1 0.45219647E-01 0.18623913E+04</pdfrwt>
<totfact> 0.29674747E+00</totfact>
</mgrwt>
</event>
<event>
 6    1  0.1528034E-005  0.3042826E+04  0.7818608E-02  0.8231606E-01
         -2   -1    0    0    0  501 -0.00000000000E+00  0.00000000000E+00  0.16950061893E+04  0.16950061893E+04  0.00000000000E+00 0.  1.
          2   -1    0    0  501    0  0.00000000000E+00 -0.00000000000E+00 -0.13655982769E+04  0.13655982769E+04  0.00000000000E+00 0. -1.
         23    2    1    2    0    0 -0.11030264586E+04 -0.20516676992E+03  0.11963839354E+04  0.16427158259E+04  0.91760513338E+02 0.  0.
         11    1    3    3    0    0 -0.34124879843E+03 -0.24001272302E+02  0.38816747487E+03  0.51739809822E+03  0.00000000000E+00 0.  1.
        -11    1    3    3    0    0 -0.76177766020E+03 -0.18116549762E+03  0.80821646056E+03  0.11253177277E+04  0.00000000000E+00 0. -1.
         22    1    1    2    0    0  0.11030264586E+04  0.20516676992E+03 -0.86697602295E+03  0.14178886403E+04  0.00000000000E+00 0. -1.
<mgrwt>
<rscale>  0 0.30428260E+04</rscale>
<asrwt>0</asrwt>
<pdfrwt beam="1">  1        2 0.21009204E+00 0.30428260E+04</pdfrwt>
<pdfrwt beam="2">  1       -2 0.26077018E+00 0.30428260E+04</pdfrwt>
<totfact> 0.71298194E-01</totfact>
</mgrwt>
</event>
<event>
 6    1  0.1528034E-005  0.9554778E+03  0.7818608E-02  0.9358771E-01
          1   -1    0    0  501    0  0.00000000000E+00  0.00000000000E+00  0.41189667326E+03  0.41189667326E+03  0.00000000000E+00 0.  1.
         -1   -1    0    0    0  501 -0.00000000000E+00 -0.00000000000E+00 -0.55410610393E+03  0.55410610393E+03  0.00000000000E+00 0. -1.
         23    2    1    2    0    0  0.46384303661E+03  0.79198010669E+02 -0.13174570464E+03  0.49533072887E+03  0.81073502275E+02 0.  0.
         13    1    3    3    0    0  0.42465818401E+03  0.62400873827E+02 -0.96303946287E+02  0.43988963658E+03  0.00000000000E+00 0. -1.
        -13    1    3    3    0    0  0.39184852594E+02  0.16797136842E+02 -0.35441758354E+02  0.55441092288E+02  0.00000000000E+00 0.  1.
         22    1    1    2    0    0 -0.46384303661E+03 -0.79198010669E+02 -0.10463726036E+02  0.47067204832E+03  0.00000000000E+00 0.  1.
<mgrwt>
<rscale>  0 0.95547781E+03</rscale>
<asrwt>0</asrwt>
<pdfrwt beam="1">  1        1 0.63368720E-01 0.95547781E+03</pdfrwt>
<pdfrwt beam="2">  1       -1 0.85247092E-01 0.95547781E+03</pdfrwt>
<totfact> 0.78936983E+01</totfact>
</mgrwt>
</event>
<event>
 6    1  0.1528034E-005  0.1930559E+04  0.7818608E-02  0.8639793E-01
         -1   -1    0    0    0  501 -0.00000000000E+00  0.00000000000E+00  0.10288451021E+04  0.10288451021E+04  0.00000000000E+00 0.  1.
          1   -1    0    0  501    0  0.00000000000E+00 -0.00000000000E+00 -0.90564160715E+03  0.90564160715E+03  0.00000000000E+00 0. -1.
         23    2    1    2    0    0 -0.80355763030E+03  0.52640107632E+03 -0.64708376408E+01  0.96514755760E+03  0.93085862701E+02 0.  0.
         13    1    3    3    0    0 -0.47624100795E+03  0.32108263129E+03  0.41150024113E+02  0.57584101821E+03  0.00000000000E+00 0.  1.
        -13    1    3    3    0    0 -0.32731662236E+03  0.20531844503E+03 -0.47620861753E+02  0.38930653939E+03  0.00000000000E+00 0. -1.
         22    1    1    2    0    0  0.80355763030E+03 -0.52640107632E+03  0.12967433259E+03  0.96933915164E+03  0.00000000000E+00 0. -1.
<mgrwt>
<rscale>  0 0.19305594E+04</rscale>
<asrwt>0</asrwt>
<pdfrwt beam="1">  1        1 0.13932948E+00 0.19305594E+04</pdfrwt>
<pdfrwt beam="2">  1       -1 0.15828386E+00 0.19305594E+04</pdfrwt>
<totfact> 0.50598982E+00</totfact>
</mgrwt>
</event>
<event>
 6    1  0.1528034E-005  0.3487519E+04  0.7818608E-02  0.8116754E-01
          2   -1    0    0  501    0  0.00000000000E+00  0.00000000000E+00  0.22235407329E+04  0.22235407329E+04  0.00000000000E+00 0.  1.
         -2   -1    0    0    0  501 -0.00000000000E+00 -0.00000000000E+00 -0.13675021398E+04  0.13675021398E+04  0.00000000000E+00 0. -1.
         23    2    1    2    0    0 -0.70138152027E+02  0.16568885213E+04  0.97931106917E+03  0.19280951778E+04  0.91114829197E+02 0.  0.
         11    1    3    3    0    0 -0.88727539191E+02  0.14877967414E+04  0.86730543443E+03  0.17244217688E+04  0.00000000000E+00 0. -1.
        -11    1    3    3    0    0  0.18589387164E+02  0.16909177986E+03  0.11200563474E+03  0.20367340903E+03  0.00000000000E+00 0.  1.
         22    1    1    2    0    0  0.70138152027E+02 -0.16568885213E+04 -0.12327247603E+03  0.16629476948E+04  0.00000000000E+00 0. -1.
<mgrwt>
<rscale>  0 0.34875187E+04</rscale>
<asrwt>0</asrwt>
<pdfrwt beam="1">  1        2 0.34208319E+00 0.34875187E+04</pdfrwt>
<pdfrwt beam="2">  1       -2 0.21038494E+00 0.34875187E+04</pdfrwt>
<totfact> 0.46907385E-01</totfact>
</mgrwt>
</event>
<event>
 6    1  0.1528034E-005  0.6628005E+04  0.7818608E-02  0.7617065E-01
         -2   -1    0    0    0  501 -0.00000000000E+00  0.00000000000E+00  0.32529442695E+04  0.32529442695E+04  0.00000000000E+00 0.  1.
          2   -1    0    0  501    0  0.00000000000E+00 -0.00000000000E+00 -0.33762065620E+04  0.33762065620E+04  0.00000000000E+00 0. -1.
         23    2    1    2    0    0 -0.84125317831E+03  0.31803870879E+04  0.33411431118E+03  0.33077411463E+04  0.83367734465E+02 0.  0.
         11    1    3    3    0    0 -0.80807718768E+03  0.30284317903E+04  0.33468017322E+03  0.31522053658E+04  0.00000000000E+00 0. -1.
        -11    1    3    3    0    0 -0.33175990630E+02  0.15195529760E+03 -0.56586203143E+00  0.15553578052E+03  0.00000000000E+00 0.  1.
         22    1    1    2    0    0  0.84125317831E+03 -0.31803870879E+04 -0.45737660375E+03  0.33214096852E+04  0.00000000000E+00 0.  1.
<mgrwt>
<rscale>  0 0.66280048E+04</rscale>
<asrwt>0</asrwt>
<pdfrwt beam="1">  1        2 0.51941639E+00 0.66280048E+04</pdfrwt>
<pdfrwt beam="2">  1       -2 0.50045297E+00 0.66280048E+04</pdfrwt>
<totfact> 0.10532140E-03</totfact>
</mgrwt>
</event>
<event>
 6    1  0.1528034E-005  0.3196086E+04  0.7818608E-02  0.8189852E-01
         -2   -1    0    0    0  501 -0.00000000000E+00  0.00000000000E+00  0.12860073271E+04  0.12860073271E+04  0.00000000000E+00 0.  1.
          2   -1    0    0  501    0  0.00000000000E+00 -0.00000000000E+00 -0.19857902262E+04  0.19857902262E+04  0.00000000000E+00 0. -1.
         23    2    1    2    0    0 -0.45690048797E+03 -0.14063504987E+04  0.26658014135E+03  0.15053215962E+04  0.91369332376E+02 0.  0.
         13    1    3    3    0    0 -0.82447472955E+02 -0.36791860119E+03  0.49206933876E+02  0.38024072013E+03  0.00000000000E+00 0. -1.
        -13    1    3    3    0    0 -0.37445301501E+03 -0.10384318975E+04  0.21737320747E+03  0.11250808760E+04  0.00000000000E+00 0.  1.
         22    1    1    2    0    0  0.45690048797E+03  0.14063504987E+04 -0.96636304039E+03  0.17664759571E+04  0.00000000000E+00 0. -1.
<mgrwt>
<rscale>  0 0.31960856E+04</rscale>
<asrwt>0</asrwt>
<pdfrwt beam="1">  1        2 0.30550619E+00 0.31960856E+04</pdfrwt>
<pdfrwt beam="2">  1       -2 0.19784728E+00 0.31960856E+04</pdfrwt>
<totfact> 0.78761979E-01</totfact>
</mgrwt>
</event>
<event>
 6    1  0.1528034E-005  0.6862693E+03  0.7818608E-02  0.9741006E-01
          1   -1    0    0  501    0  0.00000000000E+00  0.00000000000E+00  0.55074836322E+03  0.55074836322E+03  0.00000000000E+00 0. -1.
         -1   -1    0    0    0  501 -0.00000000000E+00 -0.00000000000E+00 -0.21378438914E+03  0.21378438914E+03  0.00000000000E+00 0.  1.
         23    2    1    2    0    0  0.21890415439E+03  0.12535879383E+03 -0.77819284837E+02  0.27906492862E+03  0.90485011457E+02 0.  0.
         13    1    3    3    0    0  0.14148197440E+03  0.44518029967E+02 -0.11057002871E+02  0.14873218006E+03  0.00000000000E+00 0.  1.
        -13    1    3    3    0    0  0.77422179983E+02  0.80840763861E+02 -0.66762281966E+02  0.13033274856E+03  0.00000000000E+00 0. -1.
         22    1    1    2    0    0 -0.21890415439E+03 -0.12535879383E+03  0.41478325892E+03  0.48546782373E+03  0.00000000000E+00 0. -1.
<mgrwt>
<rscale>  0 0.68626934E+03</rscale>
<asrwt>0</asrwt>
<pdfrwt beam="1">  1        1 0.84730517E-01 0.68626934E+03</pdfrwt>
<pdfrwt beam="2">  1       -1 0.32889906E-01 0.68626934E+03</pdfrwt>
<totfact> 0.33970907E+02</totfact>
</mgrwt>
</event>
<event>
 6    1  0.1528034E-005  0.2755822E+04  0.7818608E-02  0.8317117E-01
         -2   -1    0    0    0  501 -0.00000000000E+00  0.00000000000E+00  0.89547540620E+03  0.89547540620E+03  0.00000000000E+00 0.  1.
          2   -1    0    0  501    0  0.00000000000E+00 -0.00000000000E+00 -0.21202576987E+04  0.21202576987E+04  0.00000000000E+00 0. -1.
         23    2    1    2    0    0  0.10110584788E+04  0.75290094957E+03 -0.87441248039E+01  0.12642057963E+04  0.95082849900E+02 0.  0.
         13    1    3    3    0    0  0.81016762637E+03  0.55420350772E+03 -0.10575926628E+02  0.98164400931E+03  0.00000000000E+00 0. -1.
        -13    1    3    3    0    0  0.20089085242E+03  0.19869744185E+03  0.18318018245E+01  0.28256178701E+03  0.00000000000E+00 0.  1.
         22    1    1    2    0    0 -0.10110584788E+04 -0.75290094957E+03 -0.12160381677E+04  0.17515273086E+04  0.00000000000E+00 0. -1.
<mgrwt>
<rscale>  0 0.27558219E+04</rscale>
<asrwt>0</asrwt>
<pdfrwt beam="1">  1        2 0.32619349E+00 0.27558219E+04</pdfrwt>
<pdfrwt beam="2">  1       -2 0.13776545E+00 0.27558219E+04</pdfrwt>
<totfact> 0.18720713E+00</totfact>
</mgrwt>
</event>
<event>
 6    1  0.1528034E-005  0.1027773E+04  0.7818608E-02  0.9278597E-01
         -2   -1    0    0    0  501 -0.00000000000E+00  0.00000000000E+00  0.21671598558E+03  0.21671598558E+03  0.00000000000E+00 0.  1.
          2   -1    0    0  501    0  0.00000000000E+00 -0.00000000000E+00 -0.12185514780E+04  0.12185514780E+04  0.00000000000E+00 0. -1.
         23    2    1    2    0    0 -0.15619213829E+03 -0.24996503128E+03  0.75829025180E+02  0.31802115527E+03  0.92243770571E+02 0.  0.
         13    1    3    3    0    0 -0.10007377895E+03 -0.14563594163E+03 -0.12119158166E+01  0.17670896261E+03  0.00000000000E+00 0.  1.
        -13    1    3    3    0    0 -0.56118359340E+02 -0.10432908966E+03  0.77040940997E+02  0.14131219266E+03  0.00000000000E+00 0. -1.
         22    1    1    2    0    0  0.15619213829E+03  0.24996503128E+03 -0.10776645176E+04  0.11172463083E+04  0.00000000000E+00 0. -1.
<mgrwt>
<rscale>  0 0.10277735E+04</rscale>
<asrwt>0</asrwt>
<pdfrwt beam="1">  1        2 0.18746946E+00 0.10277735E+04</pdfrwt>
<pdfrwt beam="2">  1       -2 0.33340921E-01 0.10277735E+04</pdfrwt>
<totfact> 0.15450749E+02</totfact>
</mgrwt>
</event>
<event>
 6    1  0.1528034E-005  0.4740076E+04  0.7818608E-02  0.7869904E-01
          2   -1    0    0  501    0  0.00000000000E+00  0.00000000000E+00  0.36521373096E+04  0.36521373096E+04  0.00000000000E+00 0. -1.
         -2   -1    0    0    0  501 -0.00000000000E+00 -0.00000000000E+00 -0.15380255226E+04  0.15380255226E+04  0.00000000000E+00 0.  1.
         23    2    1    2    0    0 -0.17912899438E+04 -0.14008788941E+04  0.17851623094E+04  0.28924707080E+04  0.91656900398E+02 0.  0.
         13    1    3    3    0    0 -0.89881277184E+03 -0.65444280735E+03  0.90451013702E+03  0.14332823779E+04  0.00000000000E+00 0. -1.
        -13    1    3    3    0    0 -0.89247717197E+03 -0.74643608670E+03  0.88065217238E+03  0.14591883301E+04  0.00000000000E+00 0.  1.
         22    1    1    2    0    0  0.17912899438E+04  0.14008788941E+04  0.32894947759E+03  0.22976921242E+04  0.00000000000E+00 0. -1.
<mgrwt>
<rscale>  0 0.47400761E+04</rscale>
<asrwt>0</asrwt>
<pdfrwt beam="1">  1        2 0.56186728E+00 0.47400761E+04</pdfrwt>
<pdfrwt beam="2">  1       -2 0.23661931E+00 0.47400761E+04</pdfrwt>
<totfact> 0.36472865E-02</totfact>
</mgrwt>
</event>
<event>
 6    1  0.1528034E-005  0.2829965E+04  0.7818608E-02  0.8294025E-01
         -1   -1    0    0    0  501 -0.00000000000E+00  0.00000000000E+00  0.16542509568E+04  0.16542509568E+04  0.00000000000E+00 0. -1.
          1   -1    0    0  501    0  0.00000000000E+00 -0.00000000000E+00 -0.12103211295E+04  0.12103211295E+04  0.00000000000E+00 0.  1.
         23    2    1    2    0    0 -0.50128863803E+03  0.78790159461E+03  0.12962013321E+04  0.16002754679E+04  0.93083072712E+02 0.  0.
         13    1    3    3    0    0 -0.24835590034E+03  0.36346474950E+03  0.68637262865E+03  0.81541073252E+03  0.00000000000E+00 0. -1.
        -13    1    3    3    0    0 -0.25293273769E+03  0.42443684512E+03  0.60982870347E+03  0.78486473539E+03  0.00000000000E+00 0.  1.
         22    1    1    2    0    0  0.50128863803E+03 -0.78790159461E+03 -0.85227150477E+03  0.12642966184E+04  0.00000000000E+00 0.  1.
<mgrwt>
<rscale>  0 0.28299646E+04</rscale>
<asrwt>0</asrwt>
<pdfrwt beam="1">  1        1 0.18620325E+00 0.28299646E+04</pdfrwt>
<pdfrwt beam="2">  1       -1 0.25450015E+00 0.28299646E+04</pdfrwt>
<totfact> 0.59084717E-01</totfact>
</mgrwt>
</event>
<event>
 6    1  0.1528034E-005  0.2153899E+04  0.7818608E-02  0.8537865E-01
         -2   -1    0    0    0  501 -0.00000000000E+00  0.00000000000E+00  0.51601474262E+03  0.51601474262E+03  0.00000000000E+00 0.  1.
          2   -1    0    0  501    0  0.00000000000E+00 -0.00000000000E+00 -0.22476502747E+04  0.22476502747E+04  0.00000000000E+00 0. -1.
         23    2    1    2    0    0  0.61276386970E+03  0.28632127576E+03  0.20431797476E+03  0.71296381685E+03  0.95457510732E+02 0.  0.
         13    1    3    3    0    0  0.24574801535E+03  0.11853685302E+03  0.13157286664E+03  0.30291003913E+03  0.00000000000E+00 0. -1.
        -13    1    3    3    0    0  0.36701585435E+03  0.16778442275E+03  0.72745108122E+02  0.41005377772E+03  0.00000000000E+00 0.  1.
         22    1    1    2    0    0 -0.61276386970E+03 -0.28632127576E+03 -0.19359535068E+04  0.20507012005E+04  0.00000000000E+00 0. -1.
<mgrwt>
<rscale>  0 0.21538994E+04</rscale>
<asrwt>0</asrwt>
<pdfrwt beam="1">  1        2 0.34579235E+00 0.21538994E+04</pdfrwt>
<pdfrwt beam="2">  1       -2 0.79386883E-01 0.21538994E+04</pdfrwt>
<totfact> 0.62630807E+00</totfact>
</mgrwt>
</event>
<event>
 6    1  0.1528034E-005  0.3529777E+04  0.7818608E-02  0.8106769E-01
         -2   -1    0    0    0  501 -0.00000000000E+00  0.00000000000E+00  0.11512979236E+04  0.11512979236E+04  0.00000000000E+00 0.  1.
          2   -1    0    0  501    0  0.00000000000E+00 -0.00000000000E+00 -0.27054961429E+04  0.27054961429E+04  0.00000000000E+00 0. -1.
         23    2    1    2    0    0  0.19563925405E+03  0.17509497065E+04 -0.86747522052E+03  0.19658450801E+04  0.89073163486E+02 0.  0.
         13    1    3    3    0    0  0.16726820793E+03  0.11434513598E+04 -0.55067938376E+03  0.12801200917E+04  0.00000000000E+00 0. -1.
        -13    1    3    3    0    0  0.28371046120E+02  0.60749834671E+03 -0.31679583677E+03  0.68572498839E+03  0.00000000000E+00 0.  1.
         22    1    1    2    0    0 -0.19563925405E+03 -0.17509497065E+04 -0.68672299879E+03  0.18909489865E+04  0.00000000000E+00 0.  1.
<mgrwt>
<rscale>  0 0.35297774E+04</rscale>
<asrwt>0</asrwt>
<pdfrwt beam="1">  1        2 0.41623017E+00 0.35297774E+04</pdfrwt>
<pdfrwt beam="2">  1       -2 0.17712276E+00 0.35297774E+04</pdfrwt>
<totfact> 0.41006745E-01</totfact>
</mgrwt>
</event>
<event>
 6    1  0.1528034E-005  0.3777483E+04  0.7818608E-02  0.8051004E-01
          1   -1    0    0  501    0  0.00000000000E+00  0.00000000000E+00  0.12236692956E+04  0.12236692956E+04  0.00000000000E+00 0. -1.
         -1   -1    0    0    0  501 -0.00000000000E+00 -0.00000000000E+00 -0.29152852803E+04  0.29152852803E+04  0.00000000000E+00 0.  1.
         23    2    1    2    0    0  0.16957752555E+04 -0.82099428125E+03 -0.72373945050E+03  0.20208256109E+04  0.10125231126E+03 0.  0.
         13    1    3    3    0    0  0.12308739830E+04 -0.54555181014E+03 -0.52313995293E+03  0.14444213201E+04  0.00000000000E+00 0. -1.
        -13    1    3    3    0    0  0.46490127244E+03 -0.27544247111E+03 -0.20059949757E+03  0.57640429078E+03  0.00000000000E+00 0.  1.
         22    1    1    2    0    0 -0.16957752555E+04  0.82099428125E+03 -0.96787653419E+03  0.21181289650E+04  0.00000000000E+00 0.  1.
<mgrwt>
<rscale>  0 0.37774833E+04</rscale>
<asrwt>0</asrwt>
<pdfrwt beam="1">  1        1 0.18825681E+00 0.37774833E+04</pdfrwt>
<pdfrwt beam="2">  1       -1 0.44850543E+00 0.37774833E+04</pdfrwt>
<totfact> 0.27111379E-02</totfact>
</mgrwt>
</event>
<event>
 6    1  0.1528034E-005  0.8618779E+03  0.7818608E-02  0.9474532E-01
         -2   -1    0    0    0  501 -0.00000000000E+00  0.00000000000E+00  0.97420520522E+02  0.97420520522E+02  0.00000000000E+00 0.  1.
          2   -1    0    0  501    0  0.00000000000E+00 -0.00000000000E+00 -0.19062552174E+04  0.19062552174E+04  0.00000000000E+00 0. -1.
         23    2    1    2    0    0  0.10170006579E+03 -0.33474480608E+03 -0.14799227606E+04  0.15234882221E+04  0.91912985081E+02 0.  0.
         11    1    3    3    0    0  0.11031504832E+02 -0.18714359493E+03 -0.82645782066E+03  0.84745321319E+03  0.00000000000E+00 0. -1.
        -11    1    3    3    0    0  0.90668560953E+02 -0.14760121115E+03 -0.65346493995E+03  0.67603500888E+03  0.00000000000E+00 0.  1.
         22    1    1    2    0    0 -0.10170006579E+03  0.33474480608E+03 -0.32891193631E+03  0.48018751590E+03  0.00000000000E+00 0.  1.
<mgrwt>
<rscale>  0 0.86187789E+03</rscale>
<asrwt>0</asrwt>
<pdfrwt beam="1">  1        2 0.29327001E+00 0.86187789E+03</pdfrwt>
<pdfrwt beam="2">  1       -2 0.14987774E-01 0.86187789E+03</pdfrwt>
<totfact> 0.26769104E+02</totfact>
</mgrwt>
</event>
<event>
 6    1  0.1528034E-005  0.4904156E+04  0.7818608E-02  0.7843465E-01
         -2   -1    0    0    0  501 -0.00000000000E+00  0.00000000000E+00  0.24033500602E+04  0.24033500602E+04  0.00000000000E+00 0.  1.
          2   -1    0    0  501    0  0.00000000000E+00 -0.00000000000E+00 -0.25017936341E+04  0.25017936341E+04  0.00000000000E+00 0. -1.
         23    2    1    2    0    0  0.13801307705E+04  0.59253547033E+03  0.18883507072E+04  0.24145191254E+04  0.90415630142E+02 0.  0.
         11    1    3    3    0    0  0.65207796898E+03  0.24087896612E+03  0.91680214784E+03  0.11505453195E+04  0.00000000000E+00 0.  1.
        -11    1    3    3    0    0  0.72805280151E+03  0.35165650420E+03  0.97154855940E+03  0.12639738059E+04  0.00000000000E+00 0. -1.
         22    1    1    2    0    0 -0.13801307705E+04 -0.59253547033E+03 -0.19867942812E+04  0.24906245689E+04  0.00000000000E+00 0. -1.
<mgrwt>
<rscale>  0 0.49041557E+04</rscale>
<asrwt>0</asrwt>
<pdfrwt beam="1">  1        2 0.38489132E+00 0.49041557E+04</pdfrwt>
<pdfrwt beam="2">  1       -2 0.36974617E+00 0.49041557E+04</pdfrwt>
<totfact> 0.29693716E-02</totfact>
</mgrwt>
</event>
<event>
 6    1  0.1528034E-005  0.1389429E+04  0.7818608E-02  0.8961506E-01
         -2   -1    0    0    0  501 -0.00000000000E+00  0.00000000000E+00  0.18086965227E+04  0.18086965227E+04  0.00000000000E+00 0. -1.
          2   -1    0    0  501    0  0.00000000000E+00 -0.00000000000E+00 -0.26683776085E+03  0.26683776085E+03  0.00000000000E+00 0.  1.
         23    2    1    2    0    0  0.43799661173E+03 -0.48212221136E+03  0.11245205397E+04  0.13019361642E+04  0.78793863708E+02 0.  0.
         13    1    3    3    0    0  0.20537247988E+03 -0.27016392898E+03  0.53194086507E+03  0.63097344473E+03  0.00000000000E+00 0. -1.
        -13    1    3    3    0    0  0.23262413185E+03 -0.21195828237E+03  0.59257967460E+03  0.67096271948E+03  0.00000000000E+00 0.  1.
         22    1    1    2    0    0 -0.43799661173E+03  0.48212221136E+03  0.41733822218E+03  0.77359811935E+03  0.00000000000E+00 0.  1.
<mgrwt>
<rscale>  0 0.13894294E+04</rscale>
<asrwt>0</asrwt>
<pdfrwt beam="1">  1        2 0.41051964E-01 0.13894294E+04</pdfrwt>
<pdfrwt beam="2">  1       -2 0.27826100E+00 0.13894294E+04</pdfrwt>
<totfact> 0.52765052E+00</totfact>
</mgrwt>
</event>
<event>
 6    1  0.1528034E-005  0.1591855E+04  0.7818608E-02  0.8825568E-01
          2   -1    0    0  501    0  0.00000000000E+00  0.00000000000E+00  0.13474922064E+04  0.13474922064E+04  0.00000000000E+00 0. -1.
         -2   -1    0    0    0  501 -0.00000000000E+00 -0.00000000000E+00 -0.47013286856E+03  0.47013286856E+03  0.00000000000E+00 0.  1.
         23    2    1    2    0    0  0.40860805420E+03  0.17954461482E+03 -0.30887278229E+03  0.55020902113E+03  0.90170730395E+02 0.  0.
         13    1    3    3    0    0  0.27883279819E+03  0.16212996047E+03 -0.24163944591E+03  0.40301795897E+03  0.00000000000E+00 0. -1.
        -13    1    3    3    0    0  0.12977525601E+03  0.17414654346E+02 -0.67233336379E+02  0.14719106216E+03  0.00000000000E+00 0.  1.
         22    1    1    2    0    0 -0.40860805420E+03 -0.17954461482E+03  0.11862321201E+04  0.12674160538E+04  0.00000000000E+00 0. -1.
<mgrwt>
<rscale>  0 0.15918547E+04</rscale>
<asrwt>0</asrwt>
<pdfrwt beam="1">  1        2 0.20730649E+00 0.15918547E+04</pdfrwt>
<pdfrwt beam="2">  1       -2 0.72328134E-01 0.15918547E+04</pdfrwt>
<totfact> 0.25754731E+01</totfact>
</mgrwt>
</event>
<event>
 6    1  0.1528034E-005  0.2982112E+04  0.7818608E-02  0.8248857E-01
         -1   -1    0    0    0  501 -0.00000000000E+00  0.00000000000E+00  0.71304517012E+03  0.71304517012E+03  0.00000000000E+00 0.  1.
          1   -1    0    0  501    0  0.00000000000E+00 -0.00000000000E+00 -0.31179622304E+04  0.31179622304E+04  0.00000000000E+00 0. -1.
         23    2    1    2    0    0 -0.10988571760E+04  0.65549301489E+03 -0.22355935345E+03  0.13020788466E+04  0.90952473495E+02 0.  0.
         11    1    3    3    0    0 -0.89545147835E+03  0.55140165268E+03 -0.21540098922E+03  0.10734405986E+04  0.00000000000E+00 0.  1.
        -11    1    3    3    0    0 -0.20340569762E+03  0.10409136221E+03 -0.81583642309E+01  0.22863824793E+03  0.00000000000E+00 0. -1.
         22    1    1    2    0    0  0.10988571760E+04 -0.65549301489E+03 -0.21813577068E+04  0.25289285539E+04  0.00000000000E+00 0. -1.
<mgrwt>
<rscale>  0 0.29821119E+04</rscale>
<asrwt>0</asrwt>
<pdfrwt beam="1">  1        1 0.47968650E+00 0.29821119E+04</pdfrwt>
<pdfrwt beam="2">  1       -1 0.10969926E+00 0.29821119E+04</pdfrwt>
<totfact> 0.32018883E-01</totfact>
</mgrwt>
</event>
<event>
 6    1  0.1528034E-005  0.1490964E+04  0.7818608E-02  0.8890484E-01
         -2   -1    0    0    0  501 -0.00000000000E+00  0.00000000000E+00  0.16072430882E+03  0.16072430882E+03  0.00000000000E+00 0.  1.
          2   -1    0    0  501    0  0.00000000000E+00 -0.00000000000E+00 -0.34577429403E+04  0.34577429403E+04  0.00000000000E+00 0. -1.
         23    2    1    2    0    0  0.55241215082E+03  0.11185831734E+03 -0.48016457964E+03  0.74577892337E+03  0.89200400641E+02 0.  0.
         11    1    3    3    0    0  0.36102653306E+03  0.10664348036E+03 -0.35202835403E+03  0.51539979775E+03  0.00000000000E+00 0.  1.
        -11    1    3    3    0    0  0.19138561777E+03  0.52148369806E+01 -0.12813622561E+03  0.23037912563E+03  0.00000000000E+00 0. -1.
         22    1    1    2    0    0 -0.55241215082E+03 -0.11185831734E+03 -0.28168540518E+04  0.28726883257E+04  0.00000000000E+00 0. -1.
<mgrwt>
<rscale>  0 0.14909639E+04</rscale>
<asrwt>0</asrwt>
<pdfrwt beam="1">  1        2 0.53196042E+00 0.14909639E+04</pdfrwt>
<pdfrwt beam="2">  1       -2 0.24726818E-01 0.14909639E+04</pdfrwt>
<totfact> 0.12481325E+01</totfact>
</mgrwt>
</event>
<event>
 6    1  0.1528034E-005  0.2545785E+04  0.7818608E-02  0.8386854E-01
         -2   -1    0    0    0  501 -0.00000000000E+00  0.00000000000E+00  0.77222780484E+03  0.77222780484E+03  0.00000000000E+00 0.  1.
          2   -1    0    0  501    0  0.00000000000E+00 -0.00000000000E+00 -0.20981568367E+04  0.20981568367E+04  0.00000000000E+00 0. -1.
         23    2    1    2    0    0  0.11820964469E+04  0.34748263969E+03 -0.10165827508E+04  0.16000337781E+04  0.92581894321E+02 0.  0.
         11    1    3    3    0    0  0.35037001093E+03  0.71913123169E+02 -0.33359464919E+03  0.48909715989E+03  0.00000000000E+00 0. -1.
        -11    1    3    3    0    0  0.83172643596E+03  0.27556951653E+03 -0.68298810161E+03  0.11109366182E+04  0.00000000000E+00 0.  1.
         22    1    1    2    0    0 -0.11820964469E+04 -0.34748263969E+03 -0.30934628105E+03  0.12703508634E+04  0.00000000000E+00 0.  1.
<mgrwt>
<rscale>  0 0.25457848E+04</rscale>
<asrwt>0</asrwt>
<pdfrwt beam="1">  1        2 0.32279335E+00 0.25457848E+04</pdfrwt>
<pdfrwt beam="2">  1       -2 0.11880428E+00 0.25457848E+04</pdfrwt>
<totfact> 0.28487616E+00</totfact>
</mgrwt>
</event>
<event>
 6    1  0.1528034E-005  0.1637614E+04  0.7818608E-02  0.8797768E-01
         -2   -1    0    0    0  501 -0.00000000000E+00  0.00000000000E+00  0.36268693970E+04  0.36268693970E+04  0.00000000000E+00 0.  1.
          2   -1    0    0  501    0  0.00000000000E+00 -0.00000000000E+00 -0.18485492404E+03  0.18485492404E+03  0.00000000000E+00 0. -1.
         23    2    1    2    0    0 -0.30208262352E+03  0.43315514952E+03  0.27763599424E+03  0.60358335599E+03  0.91399274258E+02 0.  0.
         11    1    3    3    0    0 -0.70854073311E+02  0.68771782132E+02  0.19290882210E+02  0.10060813018E+03  0.00000000000E+00 0. -1.
        -11    1    3    3    0    0 -0.23122855021E+03  0.36438336739E+03  0.25834511203E+03  0.50297522580E+03  0.00000000000E+00 0.  1.
         22    1    1    2    0    0  0.30208262352E+03 -0.43315514952E+03  0.31643784787E+04  0.32081409650E+04  0.00000000000E+00 0.  1.
<mgrwt>
<rscale>  0 0.16376137E+04</rscale>
<asrwt>0</asrwt>
<pdfrwt beam="1">  1        2 0.28439222E-01 0.16376137E+04</pdfrwt>
<pdfrwt beam="2">  1       -2 0.55797985E+00 0.16376137E+04</pdfrwt>
<totfact> 0.13891467E-01</totfact>
</mgrwt>
</event>
<event>
 6    1  0.1528034E-005  0.4389742E+04  0.7818608E-02  0.7930229E-01
          2   -1    0    0  501    0  0.00000000000E+00  0.00000000000E+00  0.31215744681E+04  0.31215744681E+04  0.00000000000E+00 0. -1.
         -2   -1    0    0    0  501 -0.00000000000E+00 -0.00000000000E+00 -0.15432788153E+04  0.15432788153E+04  0.00000000000E+00 0.  1.
         23    2    1    2    0    0 -0.13637328130E+04  0.89800302157E+03 -0.76757519892E+03  0.18066568827E+04  0.93063385909E+02 0.  0.
         13    1    3    3    0    0 -0.11045881762E+04  0.69315752497E+03 -0.63874232556E+03  0.14520930245E+04  0.00000000000E+00 0. -1.
        -13    1    3    3    0    0 -0.25914463675E+03  0.20484549661E+03 -0.12883287336E+03  0.35456385814E+03  0.00000000000E+00 0.  1.
         22    1    1    2    0    0  0.13637328130E+04 -0.89800302157E+03  0.23458708518E+04  0.28581964007E+04  0.00000000000E+00 0. -1.
<mgrwt>
<rscale>  0 0.43897425E+04</rscale>
<asrwt>0</asrwt>
<pdfrwt beam="1">  1        2 0.48024222E+00 0.43897425E+04</pdfrwt>
<pdfrwt beam="2">  1       -2 0.23742751E+00 0.43897425E+04</pdfrwt>
<totfact> 0.85568596E-02</totfact>
</mgrwt>
</event>
<event>
 6    1  0.1528034E-005  0.5173003E+04  0.7818608E-02  0.7802360E-01
          2   -1    0    0  501    0  0.00000000000E+00  0.00000000000E+00  0.28127086182E+04  0.28127086182E+04  0.00000000000E+00 0. -1.
         -2   -1    0    0    0  501 -0.00000000000E+00 -0.00000000000E+00 -0.23784862713E+04  0.23784862713E+04  0.00000000000E+00 0.  1.
         23    2    1    2    0    0  0.11512078468E+04  0.42177583016E+03  0.25017270902E+04  0.27874997714E+04  0.91335557356E+02 0.  0.
         13    1    3    3    0    0  0.14224599842E+03  0.84705354602E+02  0.34947853620E+03  0.38670941084E+03  0.00000000000E+00 0. -1.
        -13    1    3    3    0    0  0.10089618484E+04  0.33707047556E+03  0.21522485540E+04  0.24007903605E+04  0.00000000000E+00 0.  1.
         22    1    1    2    0    0 -0.11512078468E+04 -0.42177583016E+03 -0.20675047433E+04  0.24036951182E+04  0.00000000000E+00 0.  1.
<mgrwt>
<rscale>  0 0.51730025E+04</rscale>
<asrwt>0</asrwt>
<pdfrwt beam="1">  1        2 0.43272440E+00 0.51730025E+04</pdfrwt>
<pdfrwt beam="2">  1       -2 0.36592097E+00 0.51730025E+04</pdfrwt>
<totfact> 0.20113719E-02</totfact>
</mgrwt>
</event>
<event>
 6    1  0.1528034E-005  0.1576312E+04  0.7818608E-02  0.8835234E-01
          1   -1    0    0  501    0  0.00000000000E+00  0.00000000000E+00  0.44747412459E+03  0.44747412459E+03  0.00000000000E+00 0. -1.
         -1   -1    0    0    0  501 -0.00000000000E+00 -0.00000000000E+00 -0.13882145154E+04  0.13882145154E+04  0.00000000000E+00 0.  1.
         23    2    1    2    0    0 -0.42384666704E+03  0.15018570064E+03 -0.12219724106E+04  0.13053178350E+04  0.91849530485E+02 0.  0.
         11    1    3    3    0    0 -0.13179922581E+03  0.62592490692E+02 -0.28824300820E+03  0.32306793030E+03  0.00000000000E+00 0.  1.
        -11    1    3    3    0    0 -0.29204744123E+03  0.87593209944E+02 -0.93372940239E+03  0.98224990468E+03  0.00000000000E+00 0. -1.
         22    1    1    2    0    0  0.42384666704E+03 -0.15018570064E+03  0.28123201979E+03  0.53037080500E+03  0.00000000000E+00 0. -1.
<mgrwt>
<rscale>  0 0.15763122E+04</rscale>
<asrwt>0</asrwt>
<pdfrwt beam="1">  1        1 0.68842174E-01 0.15763122E+04</pdfrwt>
<pdfrwt beam="2">  1       -1 0.21357146E+00 0.15763122E+04</pdfrwt>
<totfact> 0.60304736E+00</totfact>
</mgrwt>
</event>
<event>
 6    1  0.1528034E-005  0.2366458E+04  0.7818608E-02  0.8452169E-01
          2   -1    0    0  501    0  0.00000000000E+00  0.00000000000E+00  0.25827940588E+04  0.25827940588E+04  0.00000000000E+00 0. -1.
         -2   -1    0    0    0  501 -0.00000000000E+00 -0.00000000000E+00 -0.54206052356E+03  0.54206052356E+03  0.00000000000E+00 0.  1.
         23    2    1    2    0    0 -0.79928489429E+03  0.75653644800E+03  0.45429627213E+03  0.11940550254E+04  0.90435398981E+02 0.  0.
         13    1    3    3    0    0 -0.33431617700E+02  0.53237046171E+02  0.41478117140E+02  0.75314609131E+02  0.00000000000E+00 0. -1.
        -13    1    3    3    0    0 -0.76585327658E+03  0.70329940183E+03  0.41281815499E+03  0.11187404163E+04  0.00000000000E+00 0.  1.
         22    1    1    2    0    0  0.79928489429E+03 -0.75653644800E+03  0.15864372631E+04  0.19307995569E+04  0.00000000000E+00 0. -1.
<mgrwt>
<rscale>  0 0.23664579E+04</rscale>
<asrwt>0</asrwt>
<pdfrwt beam="1">  1        2 0.39735292E+00 0.23664579E+04</pdfrwt>
<pdfrwt beam="2">  1       -2 0.83393929E-01 0.23664579E+04</pdfrwt>
<totfact> 0.35341468E+00</totfact>
</mgrwt>
</event>
<event>
 6    1  0.1528034E-005  0.2728419E+04  0.7818608E-02  0.8325842E-01
         -1   -1    0    0    0  501 -0.00000000000E+00  0.00000000000E+00  0.94811670852E+03  0.94811670852E+03  0.00000000000E+00 0.  1.
          1   -1    0    0  501    0  0.00000000000E+00 -0.00000000000E+00 -0.19629101314E+04  0.19629101314E+04  0.00000000000E+00 0. -1.
         23    2    1    2    0    0  0.11239025246E+04 -0.47304522688E+03  0.14095374182E+03  0.12309434550E+04  0.91788672721E+02 0.  0.
         11    1    3    3    0    0  0.20867950463E+03 -0.11830326795E+03  0.51173260773E+02  0.24527841625E+03  0.00000000000E+00 0. -1.
        -11    1    3    3    0    0  0.91522302002E+03 -0.35474195893E+03  0.89780481050E+02  0.98566503873E+03  0.00000000000E+00 0.  1.
         22    1    1    2    0    0 -0.11239025246E+04  0.47304522688E+03 -0.11557471647E+04  0.16800833849E+04  0.00000000000E+00 0. -1.
<mgrwt>
<rscale>  0 0.27284192E+04</rscale>
<asrwt>0</asrwt>
<pdfrwt beam="1">  1        1 0.30198617E+00 0.27284192E+04</pdfrwt>
<pdfrwt beam="2">  1       -1 0.14586411E+00 0.27284192E+04</pdfrwt>
<totfact> 0.10343509E+00</totfact>
</mgrwt>
</event>
<event>
 6    1  0.1528034E-005  0.1642929E+04  0.7818608E-02  0.8794600E-01
          4   -1    0    0  501    0  0.00000000000E+00  0.00000000000E+00  0.88722492928E+03  0.88722492928E+03  0.00000000000E+00 0.  1.
         -4   -1    0    0    0  501 -0.00000000000E+00 -0.00000000000E+00 -0.76057841704E+03  0.76057841704E+03  0.00000000000E+00 0. -1.
         23    2    1    2    0    0  0.80792181456E+03 -0.74562660160E+02  0.17505393565E+03  0.83500538411E+03  0.91065154595E+02 0.  0.
         11    1    3    3    0    0  0.61251271957E+03 -0.59884599223E+02  0.92413701416E+02  0.62233294069E+03  0.00000000000E+00 0.  1.
        -11    1    3    3    0    0  0.19540909499E+03 -0.14678060937E+02  0.82640234231E+02  0.21267244342E+03  0.00000000000E+00 0. -1.
         22    1    1    2    0    0 -0.80792181456E+03  0.74562660160E+02 -0.48407423403E+02  0.81279796221E+03  0.00000000000E+00 0. -1.
<mgrwt>
<rscale>  0 0.16429293E+04</rscale>
<asrwt>0</asrwt>
<pdfrwt beam="1">  1        4 0.13649614E+00 0.16429293E+04</pdfrwt>
<pdfrwt beam="2">  1       -4 0.11701206E+00 0.16429293E+04</pdfrwt>
<totfact> 0.41144085E-01</totfact>
</mgrwt>
</event>
<event>
 6    1  0.1528034E-005  0.3142218E+04  0.7818608E-02  0.8204246E-01
          2   -1    0    0  501    0  0.00000000000E+00  0.00000000000E+00  0.25331876005E+04  0.25331876005E+04  0.00000000000E+00 0.  1.
         -2   -1    0    0    0  501 -0.00000000000E+00 -0.00000000000E+00 -0.97441780965E+03  0.97441780965E+03  0.00000000000E+00 0. -1.
         23    2    1    2    0    0 -0.94425489734E+03  0.15461591337E+03  0.21692117920E+04  0.23726327988E+04  0.91559856702E+02 0.  0.
         13    1    3    3    0    0 -0.64788725676E+03  0.14281184525E+03  0.15518415267E+04  0.16877100594E+04  0.00000000000E+00 0. -1.
        -13    1    3    3    0    0 -0.29636764058E+03  0.11804068121E+02  0.61737026532E+03  0.68492273937E+03  0.00000000000E+00 0.  1.
         22    1    1    2    0    0  0.94425489734E+03 -0.15461591337E+03 -0.61044200116E+03  0.11349726114E+04  0.00000000000E+00 0. -1.
<mgrwt>
<rscale>  0 0.31422178E+04</rscale>
<asrwt>0</asrwt>
<pdfrwt beam="1">  1        2 0.38972117E+00 0.31422178E+04</pdfrwt>
<pdfrwt beam="2">  1       -2 0.14991043E+00 0.31422178E+04</pdfrwt>
<totfact> 0.84526400E-01</totfact>
</mgrwt>
</event>
<event>
 6    1  0.1528034E-005  0.3611778E+04  0.7818608E-02  0.8087799E-01
         -1   -1    0    0    0  501 -0.00000000000E+00  0.00000000000E+00  0.14418020476E+04  0.14418020476E+04  0.00000000000E+00 0.  1.
          1   -1    0    0  501    0  0.00000000000E+00 -0.00000000000E+00 -0.22619154816E+04  0.22619154816E+04  0.00000000000E+00 0. -1.
         23    2    1    2    0    0 -0.52436704838E+03 -0.46232603568E+03  0.12957495189E+04  0.14753588955E+04  0.94925708319E+02 0.  0.
         13    1    3    3    0    0 -0.46702029248E+03 -0.41754383214E+03  0.10910171858E+04  0.12580815972E+04  0.00000000000E+00 0.  1.
        -13    1    3    3    0    0 -0.57346755898E+02 -0.44782203541E+02  0.20473233309E+03  0.21727729835E+03  0.00000000000E+00 0. -1.
         22    1    1    2    0    0  0.52436704838E+03  0.46232603568E+03 -0.21158629529E+04  0.22283586337E+04  0.00000000000E+00 0. -1.
<mgrwt>
<rscale>  0 0.36117776E+04</rscale>
<asrwt>0</asrwt>
<pdfrwt beam="1">  1        1 0.34798700E+00 0.36117776E+04</pdfrwt>
<pdfrwt beam="2">  1       -1 0.22181570E+00 0.36117776E+04</pdfrwt>
<totfact> 0.17094756E-01</totfact>
</mgrwt>
</event>
<event>
 6    1  0.1528034E-005  0.7258912E+03  0.7818608E-02  0.9673951E-01
         -2   -1    0    0    0  501 -0.00000000000E+00  0.00000000000E+00  0.67909430365E+03  0.67909430365E+03  0.00000000000E+00 0.  1.
          2   -1    0    0  501    0  0.00000000000E+00 -0.00000000000E+00 -0.19397824488E+03  0.19397824488E+03  0.00000000000E+00 0. -1.
         23    2    1    2    0    0 -0.31038755612E+03  0.13399183067E+02  0.45803242515E+03  0.56121762023E+03  0.93013663851E+02 0.  0.
         11    1    3    3    0    0 -0.24830688270E+03  0.31483846969E+02  0.41116870905E+03  0.48135979051E+03  0.00000000000E+00 0. -1.
        -11    1    3    3    0    0 -0.62080673417E+02 -0.18084663902E+02  0.46863716100E+02  0.79857829717E+02  0.00000000000E+00 0.  1.
         22    1    1    2    0    0  0.31038755612E+03 -0.13399183067E+02  0.27083633615E+02  0.31185492831E+03  0.00000000000E+00 0. -1.
<mgrwt>
<rscale>  0 0.72589123E+03</rscale>
<asrwt>0</asrwt>
<pdfrwt beam="1">  1        2 0.29842807E-01 0.72589123E+03</pdfrwt>
<pdfrwt beam="2">  1       -2 0.10447605E+00 0.72589123E+03</pdfrwt>
<totfact> 0.13449021E+02</totfact>
</mgrwt>
</event>
<event>
 6    1  0.1528034E-005  0.2565930E+04  0.7818608E-02  0.8379867E-01
         -2   -1    0    0    0  501 -0.00000000000E+00  0.00000000000E+00  0.56955229557E+03  0.56955229557E+03  0.00000000000E+00 0.  1.
          2   -1    0    0  501    0  0.00000000000E+00 -0.00000000000E+00 -0.28899882944E+04  0.28899882944E+04  0.00000000000E+00 0. -1.
         23    2    1    2    0    0  0.98220424807E+03  0.69232669324E+03 -0.56140466672E+03  0.13292277814E+04  0.87349069341E+02 0.  0.
         13    1    3    3    0    0  0.74246624870E+03  0.56627659818E+03 -0.42432297533E+03  0.10256584731E+04  0.00000000000E+00 0. -1.
        -13    1    3    3    0    0  0.23973799937E+03  0.12605009505E+03 -0.13708169139E+03  0.30356930827E+03  0.00000000000E+00 0.  1.
         22    1    1    2    0    0 -0.98220424807E+03 -0.69232669324E+03 -0.17590313322E+04  0.21303128086E+04  0.00000000000E+00 0. -1.
<mgrwt>
<rscale>  0 0.25659302E+04</rscale>
<asrwt>0</asrwt>
<pdfrwt beam="1">  1        2 0.44461359E+00 0.25659302E+04</pdfrwt>
<pdfrwt beam="2">  1       -2 0.87623429E-01 0.25659302E+04</pdfrwt>
<totfact> 0.20315060E+00</totfact>
</mgrwt>
</event>
<event>
 6    1  0.1528034E-005  0.4606891E+04  0.7818608E-02  0.7892186E-01
         -2   -1    0    0    0  501 -0.00000000000E+00  0.00000000000E+00  0.29912333317E+04  0.29912333317E+04  0.00000000000E+00 0.  1.
          2   -1    0    0  501    0  0.00000000000E+00 -0.00000000000E+00 -0.17738037927E+04  0.17738037927E+04  0.00000000000E+00 0. -1.
         23    2    1    2    0    0 -0.18834767681E+04 -0.13236725703E+04  0.65653076269E+03  0.23956065500E+04  0.91127882739E+02 0.  0.
         13    1    3    3    0    0 -0.14513549072E+04 -0.10180302206E+04  0.54515570037E+03  0.18547267546E+04  0.00000000000E+00 0.  1.
        -13    1    3    3    0    0 -0.43212186082E+03 -0.30564234974E+03  0.11137506232E+03  0.54087979538E+03  0.00000000000E+00 0. -1.
         22    1    1    2    0    0  0.18834767681E+04  0.13236725703E+04  0.56089877633E+03  0.23694305743E+04  0.00000000000E+00 0. -1.
<mgrwt>
<rscale>  0 0.46068909E+04</rscale>
<asrwt>0</asrwt>
<pdfrwt beam="1">  1        2 0.27289289E+00 0.46068909E+04</pdfrwt>
<pdfrwt beam="2">  1       -2 0.46018974E+00 0.46068909E+04</pdfrwt>
<totfact> 0.19970144E-02</totfact>
</mgrwt>
</event>
<event>
 6    1  0.1528034E-005  0.2611237E+04  0.7818608E-02  0.8364394E-01
          2   -1    0    0  501    0  0.00000000000E+00  0.00000000000E+00  0.22695456528E+04  0.22695456528E+04  0.00000000000E+00 0. -1.
         -2   -1    0    0    0  501 -0.00000000000E+00 -0.00000000000E+00 -0.75109305195E+03  0.75109305195E+03  0.00000000000E+00 0.  1.
         23    2    1    2    0    0  0.52742702656E+03 -0.11866184323E+04  0.62240212495E+03  0.14429349849E+04  0.91838952641E+02 0.  0.
         11    1    3    3    0    0  0.78816494592E+02 -0.24194062792E+03  0.94245458927E+02  0.27134758850E+03  0.00000000000E+00 0. -1.
        -11    1    3    3    0    0  0.44861053197E+03 -0.94467780442E+03  0.52815666603E+03  0.11715873964E+04  0.00000000000E+00 0.  1.
         22    1    1    2    0    0 -0.52742702656E+03  0.11866184323E+04  0.89605047594E+03  0.15777037199E+04  0.00000000000E+00 0.  1.
<mgrwt>
<rscale>  0 0.26112372E+04</rscale>
<asrwt>0</asrwt>
<pdfrwt beam="1">  1        2 0.34916087E+00 0.26112372E+04</pdfrwt>
<pdfrwt beam="2">  1       -2 0.11555278E+00 0.26112372E+04</pdfrwt>
<totfact> 0.24292875E+00</totfact>
</mgrwt>
</event>
<event>
 6    1  0.1528034E-005  0.2705179E+04  0.7818608E-02  0.8333326E-01
         -1   -1    0    0    0  501 -0.00000000000E+00  0.00000000000E+00  0.48071029153E+03  0.48071029153E+03  0.00000000000E+00 0.  1.
          1   -1    0    0  501    0  0.00000000000E+00 -0.00000000000E+00 -0.38058239421E+04  0.38058239421E+04  0.00000000000E+00 0. -1.
         23    2    1    2    0    0 -0.10657767870E+04 -0.77678484404E+03 -0.21292598355E+04  0.25062698711E+04  0.91467841047E+02 0.  0.
         13    1    3    3    0    0 -0.86023549655E+03 -0.59395881504E+03 -0.16352507829E+04  0.19408341780E+04  0.00000000000E+00 0. -1.
        -13    1    3    3    0    0 -0.20554129043E+03 -0.18282602901E+03 -0.49400905260E+03  0.56543569307E+03  0.00000000000E+00 0.  1.
         22    1    1    2    0    0  0.10657767870E+04  0.77678484404E+03 -0.11958538150E+04  0.17802643625E+04  0.00000000000E+00 0.  1.
<mgrwt>
<rscale>  0 0.27051793E+04</rscale>
<asrwt>0</asrwt>
<pdfrwt beam="1">  1        1 0.58551138E+00 0.27051793E+04</pdfrwt>
<pdfrwt beam="2">  1       -1 0.73955429E-01 0.27051793E+04</pdfrwt>
<totfact> 0.22656898E-01</totfact>
</mgrwt>
</event>
<event>
 6    1  0.1528034E-005  0.9229252E+03  0.7818608E-02  0.9397369E-01
          2   -1    0    0  501    0  0.00000000000E+00  0.00000000000E+00  0.23825631532E+03  0.23825631532E+03  0.00000000000E+00 0. -1.
         -2   -1    0    0    0  501 -0.00000000000E+00 -0.00000000000E+00 -0.89377573058E+03  0.89377573058E+03  0.00000000000E+00 0.  1.
         23    2    1    2    0    0 -0.23799178386E+03  0.52064178956E+02  0.14283266512E+03  0.29733640546E+03  0.93043000099E+02 0.  0.
         13    1    3    3    0    0 -0.10226012085E+03 -0.26190856829E+01  0.15700996429E+02  0.10349160940E+03  0.00000000000E+00 0.  1.
        -13    1    3    3    0    0 -0.13573166301E+03  0.54683264638E+02  0.12713166869E+03  0.19384479606E+03  0.00000000000E+00 0. -1.
         22    1    1    2    0    0  0.23799178386E+03 -0.52064178956E+02 -0.79835208039E+03  0.83469564044E+03  0.00000000000E+00 0.  1.
<mgrwt>
<rscale>  0 0.92292516E+03</rscale>
<asrwt>0</asrwt>
<pdfrwt beam="1">  1        2 0.36654817E-01 0.92292516E+03</pdfrwt>
<pdfrwt beam="2">  1       -2 0.13750396E+00 0.92292516E+03</pdfrwt>
<totfact> 0.53534008E+01</totfact>
</mgrwt>
</event>
<event>
 6    1  0.1528034E-005  0.3536461E+04  0.7818608E-02  0.8105203E-01
          1   -1    0    0  501    0  0.00000000000E+00  0.00000000000E+00  0.28181358425E+04  0.28181358425E+04  0.00000000000E+00 0. -1.
         -1   -1    0    0    0  501 -0.00000000000E+00 -0.00000000000E+00 -0.11094709576E+04  0.11094709576E+04  0.00000000000E+00 0.  1.
         23    2    1    2    0    0  0.17151919802E+04 -0.37642096785E+01  0.13270855210E+04  0.21704783161E+04  0.89008103907E+02 0.  0.
         11    1    3    3    0    0  0.69074193110E+03  0.41641431352E+02  0.52641070467E+03  0.86946342889E+03  0.00000000000E+00 0. -1.
        -11    1    3    3    0    0  0.10244500491E+04 -0.45405641031E+02  0.80067481629E+03  0.13010148872E+04  0.00000000000E+00 0.  1.
         22    1    1    2    0    0 -0.17151919802E+04  0.37642096785E+01  0.38157936387E+03  0.17571284840E+04  0.00000000000E+00 0.  1.
<mgrwt>
<rscale>  0 0.35364614E+04</rscale>
<asrwt>0</asrwt>
<pdfrwt beam="1">  1        1 0.43355936E+00 0.35364614E+04</pdfrwt>
<pdfrwt beam="2">  1       -1 0.17068784E+00 0.35364614E+04</pdfrwt>
<totfact> 0.15993848E-01</totfact>
</mgrwt>
</event>
<event>
 6    1  0.1528034E-005  0.4853305E+04  0.7818608E-02  0.7851543E-01
         -2   -1    0    0    0  501 -0.00000000000E+00  0.00000000000E+00  0.28523129538E+04  0.28523129538E+04  0.00000000000E+00 0.  1.
          2   -1    0    0  501    0  0.00000000000E+00 -0.00000000000E+00 -0.20645152160E+04  0.20645152160E+04  0.00000000000E+00 0. -1.
         23    2    1    2    0    0 -0.18163717557E+04 -0.14860631064E+04 -0.22792603655E+03  0.23596256559E+04  0.91066165328E+02 0.  0.
         11    1    3    3    0    0 -0.16931615009E+04 -0.13599903003E+04 -0.22471036817E+03  0.21833149646E+04  0.00000000000E+00 0. -1.
        -11    1    3    3    0    0 -0.12321025481E+03 -0.12607280614E+03 -0.32156683826E+01  0.17631069128E+03  0.00000000000E+00 0.  1.
         22    1    1    2    0    0  0.18163717557E+04  0.14860631064E+04  0.10157237744E+04  0.25572025139E+04  0.00000000000E+00 0. -1.
<mgrwt>
<rscale>  0 0.48533055E+04</rscale>
<asrwt>0</asrwt>
<pdfrwt beam="1">  1        2 0.31761772E+00 0.48533055E+04</pdfrwt>
<pdfrwt beam="2">  1       -2 0.43881738E+00 0.48533055E+04</pdfrwt>
<totfact> 0.18677926E-02</totfact>
</mgrwt>
</event>
<event>
 6    1  0.1528034E-005  0.8080547E+03  0.7818608E-02  0.9548431E-01
          4   -1    0    0  501    0  0.00000000000E+00  0.00000000000E+00  0.39264860997E+03  0.39264860997E+03  0.00000000000E+00 0.  1.
         -4   -1    0    0    0  501 -0.00000000000E+00 -0.00000000000E+00 -0.41573585374E+03  0.41573585374E+03  0.00000000000E+00 0. -1.
         23    2    1    2    0    0  0.13182504850E+03  0.34257231682E+03 -0.16708502779E+03  0.41408889251E+03  0.93907234688E+02 0.  0.
         11    1    3    3    0    0  0.88708567765E+02  0.10533409606E+03 -0.63873350689E+02  0.15180344764E+03  0.00000000000E+00 0.  1.
        -11    1    3    3    0    0  0.43116480732E+02  0.23723822076E+03 -0.10321167710E+03  0.26228544487E+03  0.00000000000E+00 0. -1.
         22    1    1    2    0    0 -0.13182504850E+03 -0.34257231682E+03  0.14399778402E+03  0.39429557120E+03  0.00000000000E+00 0.  1.
<mgrwt>
<rscale>  0 0.80805471E+03</rscale>
<asrwt>0</asrwt>
<pdfrwt beam="1">  1        4 0.60407478E-01 0.80805471E+03</pdfrwt>
<pdfrwt beam="2">  1       -4 0.63959362E-01 0.80805471E+03</pdfrwt>
<totfact> 0.11729750E+01</totfact>
</mgrwt>
</event>
<event>
 6    1  0.1528034E-005  0.2130709E+04  0.7818608E-02  0.8547835E-01
          1   -1    0    0  501    0  0.00000000000E+00  0.00000000000E+00  0.54415456794E+03  0.54415456794E+03  0.00000000000E+00 0. -1.
         -1   -1    0    0    0  501 -0.00000000000E+00 -0.00000000000E+00 -0.20857683856E+04  0.20857683856E+04  0.00000000000E+00 0.  1.
         23    2    1    2    0    0  0.40465783584E+03  0.28095767161E+03  0.39086737289E+03  0.63563893937E+03  0.92597952027E+02 0.  0.
         11    1    3    3    0    0  0.47538440130E+02  0.73153001505E+02  0.82508741843E+02  0.12007896319E+03  0.00000000000E+00 0.  1.
        -11    1    3    3    0    0  0.35711939571E+03  0.20780467010E+03  0.30835863104E+03  0.51555997619E+03  0.00000000000E+00 0. -1.
         22    1    1    2    0    0 -0.40465783584E+03 -0.28095767161E+03 -0.19324811905E+04  0.19942840141E+04  0.00000000000E+00 0.  1.
<mgrwt>
<rscale>  0 0.21307092E+04</rscale>
<asrwt>0</asrwt>
<pdfrwt beam="1">  1        1 0.83716088E-01 0.21307092E+04</pdfrwt>
<pdfrwt beam="2">  1       -1 0.32088744E+00 0.21307092E+04</pdfrwt>
<totfact> 0.87303591E-01</totfact>
</mgrwt>
</event>
<event>
 6    1  0.1922895E-005  0.4090019E+04  0.7818608E-02  0.7986629E-01
          1   -1    0    0  501    0  0.00000000000E+00  0.00000000000E+00  0.22180262696E+04  0.22180262696E+04  0.00000000000E+00 0. -1.
         -1   -1    0    0    0  501 -0.00000000000E+00 -0.00000000000E+00 -0.18854886591E+04  0.18854886591E+04  0.00000000000E+00 0.  1.
         23    2    1    2    0    0  0.97748708397E+03  0.10921476327E+04 -0.12630690700E+04  0.19368981813E+04  0.89239219810E+02 0.  0.
         13    1    3    3    0    0  0.69071246653E+03  0.70988360208E+03 -0.86092255523E+03  0.13123284978E+04  0.00000000000E+00 0. -1.
        -13    1    3    3    0    0  0.28677461744E+03  0.38226403058E+03 -0.40214651477E+03  0.62456968356E+03  0.00000000000E+00 0.  1.
         22    1    1    2    0    0 -0.97748708397E+03 -0.10921476327E+04  0.15956066805E+04  0.21666167473E+04  0.00000000000E+00 0. -1.
<mgrwt>
<rscale>  0 0.40900188E+04</rscale>
<asrwt>0</asrwt>
<pdfrwt beam="1">  1        1 0.34123481E+00 0.40900188E+04</pdfrwt>
<pdfrwt beam="2">  1       -1 0.29007518E+00 0.40900188E+04</pdfrwt>
<totfact> 0.63012135E-02</totfact>
</mgrwt>
</event>
<event>
 6    1  0.1528034E-005  0.2529316E+03  0.7818608E-02  0.1111466E+00
          2   -1    0    0  501    0  0.00000000000E+00  0.00000000000E+00  0.15443892854E+03  0.15443892854E+03  0.00000000000E+00 0. -1.
         -2   -1    0    0    0  501 -0.00000000000E+00 -0.00000000000E+00 -0.10355939970E+03  0.10355939970E+03  0.00000000000E+00 0.  1.
         23    2    1    2    0    0  0.37358249777E+02 -0.59156844712E+02 -0.57960723180E+02  0.12860987603E+03  0.91026829445E+02 0.  0.
         13    1    3    3    0    0 -0.87291324656E+01  0.25943230898E+01 -0.50366321887E+02  0.51182952692E+02  0.00000000000E+00 0.  1.
        -13    1    3    3    0    0  0.46087382243E+02 -0.61751167802E+02 -0.75944012933E+01  0.77426923340E+02  0.00000000000E+00 0. -1.
         22    1    1    2    0    0 -0.37358249777E+02  0.59156844712E+02  0.10884025202E+03  0.12938845220E+03  0.00000000000E+00 0. -1.
<mgrwt>
<rscale>  0 0.25293163E+03</rscale>
<asrwt>0</asrwt>
<pdfrwt beam="1">  1        2 0.23759835E-01 0.25293163E+03</pdfrwt>
<pdfrwt beam="2">  1       -2 0.15932215E-01 0.25293163E+03</pdfrwt>
<totfact> 0.69611954E+03</totfact>
</mgrwt>
</event>
<event>
 6    1  0.1528034E-005  0.7998450E+03  0.7818608E-02  0.9560242E-01
          1   -1    0    0  501    0  0.00000000000E+00  0.00000000000E+00  0.50751830934E+03  0.50751830934E+03  0.00000000000E+00 0. -1.
         -1   -1    0    0    0  501 -0.00000000000E+00 -0.00000000000E+00 -0.31513737174E+03  0.31513737174E+03  0.00000000000E+00 0.  1.
         23    2    1    2    0    0  0.23851643619E+03  0.30576636078E+03  0.17322075453E+03  0.43438995979E+03  0.91137531506E+02 0.  0.
         11    1    3    3    0    0  0.79627361555E+02  0.16967311184E+03  0.61743534363E+02  0.19733663022E+03  0.00000000000E+00 0. -1.
        -11    1    3    3    0    0  0.15888907463E+03  0.13609324894E+03  0.11147722017E+03  0.23705332957E+03  0.00000000000E+00 0.  1.
         22    1    1    2    0    0 -0.23851643619E+03 -0.30576636078E+03  0.19160183074E+02  0.38826572129E+03  0.00000000000E+00 0.  1.
<mgrwt>
<rscale>  0 0.79984495E+03</rscale>
<asrwt>0</asrwt>
<pdfrwt beam="1">  1        1 0.78079740E-01 0.79984495E+03</pdfrwt>
<pdfrwt beam="2">  1       -1 0.48482672E-01 0.79984495E+03</pdfrwt>
<totfact> 0.18688606E+02</totfact>
</mgrwt>
</event>
<event>
 6    1  0.1528034E-005  0.2834580E+04  0.7818608E-02  0.8292612E-01
          1   -1    0    0  501    0  0.00000000000E+00  0.00000000000E+00  0.24490893101E+04  0.24490893101E+04  0.00000000000E+00 0.  1.
         -1   -1    0    0    0  501 -0.00000000000E+00 -0.00000000000E+00 -0.82018670401E+03  0.82018670401E+03  0.00000000000E+00 0. -1.
         23    2    1    2    0    0  0.58775809922E+03 -0.71366881570E+03 -0.42135755866E+03  0.10201985355E+04  0.92087446728E+02 0.  0.
         13    1    3    3    0    0  0.44919423499E+03 -0.51629019478E+03 -0.35027484724E+03  0.76878052433E+03  0.00000000000E+00 0.  1.
        -13    1    3    3    0    0  0.13856386423E+03 -0.19737862093E+03 -0.71082711415E+02  0.25141801115E+03  0.00000000000E+00 0. -1.
         22    1    1    2    0    0 -0.58775809922E+03  0.71366881570E+03  0.20502601647E+04  0.22490774786E+04  0.00000000000E+00 0.  1.
<mgrwt>
<rscale>  0 0.28345797E+04</rscale>
<asrwt>0</asrwt>
<pdfrwt beam="1">  1        1 0.37678297E+00 0.28345797E+04</pdfrwt>
<pdfrwt beam="2">  1       -1 0.12618257E+00 0.28345797E+04</pdfrwt>
<totfact> 0.69303121E-01</totfact>
</mgrwt>
</event>
<event>
 6    1  0.1528034E-005  0.2673506E+04  0.7818608E-02  0.8343653E-01
         -2   -1    0    0    0  501 -0.00000000000E+00  0.00000000000E+00  0.14622837207E+04  0.14622837207E+04  0.00000000000E+00 0.  1.
          2   -1    0    0  501    0  0.00000000000E+00 -0.00000000000E+00 -0.12219987970E+04  0.12219987970E+04  0.00000000000E+00 0. -1.
         23    2    1    2    0    0  0.10874396580E+04 -0.74892469743E+03 -0.78665484674E+02  0.13259222653E+04  0.92023816771E+02 0.  0.
         13    1    3    3    0    0  0.49704077486E+03 -0.33097193720E+03 -0.80509502505E+02  0.60255600161E+03  0.00000000000E+00 0.  1.
        -13    1    3    3    0    0  0.59039888317E+03 -0.41795276023E+03  0.18440178309E+01  0.72336626368E+03  0.00000000000E+00 0. -1.
         22    1    1    2    0    0 -0.10874396580E+04  0.74892469743E+03  0.31895040843E+03  0.13583602524E+04  0.00000000000E+00 0.  1.
<mgrwt>
<rscale>  0 0.26735063E+04</rscale>
<asrwt>0</asrwt>
<pdfrwt beam="1">  1        2 0.18799982E+00 0.26735063E+04</pdfrwt>
<pdfrwt beam="2">  1       -2 0.22496673E+00 0.26735063E+04</pdfrwt>
<totfact> 0.14855883E+00</totfact>
</mgrwt>
</event>
<event>
 6    1  0.1528034E-005  0.1838168E+04  0.7818608E-02  0.8686262E-01
         -1   -1    0    0    0  501 -0.00000000000E+00  0.00000000000E+00  0.64019735547E+03  0.64019735547E+03  0.00000000000E+00 0.  1.
          1   -1    0    0  501    0  0.00000000000E+00 -0.00000000000E+00 -0.13194604259E+04  0.13194604259E+04  0.00000000000E+00 0. -1.
         23    2    1    2    0    0 -0.44603149253E+03  0.58476019965E+03 -0.92401156080E+03  0.11845510745E+04  0.92061393751E+02 0.  0.
         13    1    3    3    0    0 -0.32051020113E+03  0.34954270950E+03 -0.57431101440E+03  0.74480872448E+03  0.00000000000E+00 0.  1.
        -13    1    3    3    0    0 -0.12552129141E+03  0.23521749015E+03 -0.34970054639E+03  0.43974235004E+03  0.00000000000E+00 0. -1.
         22    1    1    2    0    0  0.44603149253E+03 -0.58476019965E+03  0.24474849040E+03  0.77510670683E+03  0.00000000000E+00 0.  1.
<mgrwt>
<rscale>  0 0.18381676E+04</rscale>
<asrwt>0</asrwt>
<pdfrwt beam="1">  1        1 0.20299391E+00 0.18381676E+04</pdfrwt>
<pdfrwt beam="2">  1       -1 0.98491900E-01 0.18381676E+04</pdfrwt>
<totfact> 0.81310947E+00</totfact>
</mgrwt>
</event>
<event>
 6    1  0.1528034E-005  0.2987423E+04  0.7818608E-02  0.8247332E-01
         -2   -1    0    0    0  501 -0.00000000000E+00  0.00000000000E+00  0.15595233226E+04  0.15595233226E+04  0.00000000000E+00 0.  1.
          2   -1    0    0  501    0  0.00000000000E+00 -0.00000000000E+00 -0.14306764788E+04  0.14306764788E+04  0.00000000000E+00 0. -1.
         23    2    1    2    0    0 -0.36918359609E+03 -0.56260958662E+03  0.13978162493E+04  0.15538469802E+04  0.87886838483E+02 0.  0.
         11    1    3    3    0    0 -0.18672100812E+03 -0.21786257641E+03  0.53939427913E+03  0.61096237644E+03  0.00000000000E+00 0. -1.
        -11    1    3    3    0    0 -0.18246258797E+03 -0.34474701021E+03  0.85842197021E+03  0.94288460375E+03  0.00000000000E+00 0.  1.
         22    1    1    2    0    0  0.36918359609E+03  0.56260958662E+03 -0.12689694055E+04  0.14363528211E+04  0.00000000000E+00 0. -1.
<mgrwt>
<rscale>  0 0.29874225E+04</rscale>
<asrwt>0</asrwt>
<pdfrwt beam="1">  1        2 0.22010408E+00 0.29874225E+04</pdfrwt>
<pdfrwt beam="2">  1       -2 0.23992666E+00 0.29874225E+04</pdfrwt>
<totfact> 0.88312736E-01</totfact>
</mgrwt>
</event>
<event>
 6    1  0.1528034E-005  0.2029207E+04  0.7818608E-02  0.8593086E-01
         -1   -1    0    0    0  501 -0.00000000000E+00  0.00000000000E+00  0.10446080799E+04  0.10446080799E+04  0.00000000000E+00 0. -1.
          1   -1    0    0  501    0  0.00000000000E+00 -0.00000000000E+00 -0.98546051463E+03  0.98546051463E+03  0.00000000000E+00 0.  1.
         23    2    1    2    0    0 -0.72784975056E+03 -0.36307485089E+03 -0.57381481000E+03  0.99942317767E+03  0.89412779572E+02 0.  0.
         11    1    3    3    0    0 -0.13417851301E+03 -0.10462825240E+03 -0.10358271325E+03  0.19919920441E+03  0.00000000000E+00 0.  1.
        -11    1    3    3    0    0 -0.59367123756E+03 -0.25844659849E+03 -0.47023209675E+03  0.80022397326E+03  0.00000000000E+00 0. -1.
         22    1    1    2    0    0  0.72784975056E+03  0.36307485089E+03  0.63296237525E+03  0.10306454168E+04  0.00000000000E+00 0.  1.
<mgrwt>
<rscale>  0 0.20292068E+04</rscale>
<asrwt>0</asrwt>
<pdfrwt beam="1">  1        1 0.15160931E+00 0.20292068E+04</pdfrwt>
<pdfrwt beam="2">  1       -1 0.16070894E+00 0.20292068E+04</pdfrwt>
<totfact> 0.41492460E+00</totfact>
</mgrwt>
</event>
<event>
 6    1  0.1528034E-005  0.1788249E+04  0.7818608E-02  0.8712573E-01
          1   -1    0    0  501    0  0.00000000000E+00  0.00000000000E+00  0.12139156584E+04  0.12139156584E+04  0.00000000000E+00 0. -1.
         -1   -1    0    0    0  501 -0.00000000000E+00 -0.00000000000E+00 -0.65857862935E+03  0.65857862935E+03  0.00000000000E+00 0.  1.
         23    2    1    2    0    0  0.55134168493E+03  0.69970339932E+03  0.24628379659E+03  0.92958580806E+03  0.99556845675E+02 0.  0.
         13    1    3    3    0    0  0.17499381419E+03  0.16701407236E+03  0.96119867980E+02  0.26029899038E+03  0.00000000000E+00 0. -1.
        -13    1    3    3    0    0  0.37634787074E+03  0.53268932696E+03  0.15016392861E+03  0.66928681768E+03  0.00000000000E+00 0.  1.
         22    1    1    2    0    0 -0.55134168493E+03 -0.69970339932E+03  0.30905323242E+03  0.94290847967E+03  0.00000000000E+00 0.  1.
<mgrwt>
<rscale>  0 0.17882493E+04</rscale>
<asrwt>0</asrwt>
<pdfrwt beam="1">  1        1 0.18675625E+00 0.17882493E+04</pdfrwt>
<pdfrwt beam="2">  1       -1 0.10131979E+00 0.17882493E+04</pdfrwt>
<totfact> 0.91190673E+00</totfact>
</mgrwt>
</event>
<event>
 6    1  0.1528034E-005  0.1931852E+04  0.7818608E-02  0.8639162E-01
         -1   -1    0    0    0  501 -0.00000000000E+00  0.00000000000E+00  0.64419510849E+03  0.64419510849E+03  0.00000000000E+00 0.  1.
          1   -1    0    0  501    0  0.00000000000E+00 -0.00000000000E+00 -0.14483385655E+04  0.14483385655E+04  0.00000000000E+00 0. -1.
         23    2    1    2    0    0  0.45396732932E+03 -0.84018658768E+03 -0.54304711463E+03  0.11024977462E+04  0.92743051257E+02 0.  0.
         13    1    3    3    0    0  0.15024440774E+03 -0.28249902720E+03 -0.13250970209E+03  0.34632052145E+03  0.00000000000E+00 0. -1.
        -13    1    3    3    0    0  0.30372292158E+03 -0.55768756048E+03 -0.41053741255E+03  0.75617722480E+03  0.00000000000E+00 0.  1.
         22    1    1    2    0    0 -0.45396732932E+03  0.84018658768E+03 -0.26109634237E+03  0.99003592774E+03  0.00000000000E+00 0. -1.
<mgrwt>
<rscale>  0 0.19318516E+04</rscale>
<asrwt>0</asrwt>
<pdfrwt beam="1">  1        1 0.22282131E+00 0.19318516E+04</pdfrwt>
<pdfrwt beam="2">  1       -1 0.99106941E-01 0.19318516E+04</pdfrwt>
<totfact> 0.64508539E+00</totfact>
</mgrwt>
</event>
<event>
 6    1  0.1528034E-005  0.2670576E+04  0.7818608E-02  0.8344616E-01
          1   -1    0    0  501    0  0.00000000000E+00  0.00000000000E+00  0.49402447190E+04  0.49402447190E+04  0.00000000000E+00 0. -1.
         -1   -1    0    0    0  501 -0.00000000000E+00 -0.00000000000E+00 -0.36091208213E+03  0.36091208213E+03  0.00000000000E+00 0.  1.
         23    2    1    2    0    0  0.38587812522E+03 -0.97413672667E+03  0.39304802408E+04  0.40687389655E+04  0.90097481131E+02 0.  0.
         11    1    3    3    0    0  0.86079458103E+02 -0.20504245017E+03  0.70061908599E+03  0.73506406737E+03  0.00000000000E+00 0. -1.
        -11    1    3    3    0    0  0.29979866712E+03 -0.76909427650E+03  0.32298611548E+04  0.33336748981E+04  0.00000000000E+00 0.  1.
         22    1    1    2    0    0 -0.38587812522E+03  0.97413672667E+03  0.64885239608E+03  0.12324178357E+04  0.00000000000E+00 0.  1.
<mgrwt>
<rscale>  0 0.26705760E+04</rscale>
<asrwt>0</asrwt>
<pdfrwt beam="1">  1        1 0.76003760E+00 0.26705760E+04</pdfrwt>
<pdfrwt beam="2">  1       -1 0.55524939E-01 0.26705760E+04</pdfrwt>
<totfact> 0.29672780E-02</totfact>
</mgrwt>
</event>
<event>
 6    1  0.1528034E-005  0.3453184E+04  0.7818608E-02  0.8124975E-01
         -2   -1    0    0    0  501 -0.00000000000E+00  0.00000000000E+00  0.18198528204E+04  0.18198528204E+04  0.00000000000E+00 0.  1.
          2   -1    0    0  501    0  0.00000000000E+00 -0.00000000000E+00 -0.16381101707E+04  0.16381101707E+04  0.00000000000E+00 0. -1.
         23    2    1    2    0    0 -0.65691998007E+03 -0.78500462061E+03  0.14818427451E+04  0.18032616970E+04  0.90103894922E+02 0.  0.
         11    1    3    3    0    0 -0.22361873999E+02 -0.38830992779E+02  0.39332888852E+02  0.59623615744E+02  0.00000000000E+00 0.  1.
        -11    1    3    3    0    0 -0.63455810607E+03 -0.74617362783E+03  0.14425098563E+04  0.17436380812E+04  0.00000000000E+00 0. -1.
         22    1    1    2    0    0  0.65691998007E+03  0.78500462061E+03 -0.13001000955E+04  0.16547012942E+04  0.00000000000E+00 0. -1.
<mgrwt>
<rscale>  0 0.34531837E+04</rscale>
<asrwt>0</asrwt>
<pdfrwt beam="1">  1        2 0.25201695E+00 0.34531837E+04</pdfrwt>
<pdfrwt beam="2">  1       -2 0.27997736E+00 0.34531837E+04</pdfrwt>
<totfact> 0.36893946E-01</totfact>
</mgrwt>
</event>
<event>
 6    1  0.1528034E-005  0.2603645E+04  0.7818608E-02  0.8366964E-01
          2   -1    0    0  501    0  0.00000000000E+00  0.00000000000E+00  0.17656302793E+04  0.17656302793E+04  0.00000000000E+00 0. -1.
         -2   -1    0    0    0  501 -0.00000000000E+00 -0.00000000000E+00 -0.95985126975E+03  0.95985126975E+03  0.00000000000E+00 0.  1.
         23    2    1    2    0    0  0.91680352908E+03  0.63054003039E+03  0.11073274840E+04  0.15726411770E+04  0.94428142322E+02 0.  0.
         13    1    3    3    0    0  0.62149413372E+03  0.45154555943E+03  0.81754333411E+03  0.11218402086E+04  0.00000000000E+00 0.  1.
        -13    1    3    3    0    0  0.29530939536E+03  0.17899447096E+03  0.28978414988E+03  0.45080096843E+03  0.00000000000E+00 0. -1.
         22    1    1    2    0    0 -0.91680352908E+03 -0.63054003039E+03 -0.30154847446E+03  0.11528403720E+04  0.00000000000E+00 0.  1.
<mgrwt>
<rscale>  0 0.26036455E+04</rscale>
<asrwt>0</asrwt>
<pdfrwt beam="1">  1        2 0.27163543E+00 0.26036455E+04</pdfrwt>
<pdfrwt beam="2">  1       -2 0.14766943E+00 0.26036455E+04</pdfrwt>
<totfact> 0.24904146E+00</totfact>
</mgrwt>
</event>
<event>
 6    1  0.1528034E-005  0.4464008E+04  0.7818608E-02  0.7916968E-01
          2   -1    0    0  501    0  0.00000000000E+00  0.00000000000E+00  0.28203812721E+04  0.28203812721E+04  0.00000000000E+00 0. -1.
         -2   -1    0    0    0  501 -0.00000000000E+00 -0.00000000000E+00 -0.17663717086E+04  0.17663717086E+04  0.00000000000E+00 0.  1.
         23    2    1    2    0    0 -0.12199713409E+04  0.38215213995E+03 -0.13514447903E+04  0.18626786464E+04  0.93799721125E+02 0.  0.
         11    1    3    3    0    0 -0.63940307227E+03  0.15865912039E+03 -0.65888450304E+03  0.93173912318E+03  0.00000000000E+00 0. -1.
        -11    1    3    3    0    0 -0.58056826865E+03  0.22349301957E+03 -0.69256028726E+03  0.93093952320E+03  0.00000000000E+00 0.  1.
         22    1    1    2    0    0  0.12199713409E+04 -0.38215213995E+03  0.24054543538E+04  0.27240743343E+04  0.00000000000E+00 0. -1.
<mgrwt>
<rscale>  0 0.44640079E+04</rscale>
<asrwt>0</asrwt>
<pdfrwt beam="1">  1        2 0.43390481E+00 0.44640079E+04</pdfrwt>
<pdfrwt beam="2">  1       -2 0.27174949E+00 0.44640079E+04</pdfrwt>
<totfact> 0.80745263E-02</totfact>
</mgrwt>
</event>
<event>
 6    1  0.1927960E-005  0.3406562E+04  0.7818608E-02  0.8136298E-01
         -2   -1    0    0    0  501 -0.00000000000E+00  0.00000000000E+00  0.14042290977E+04  0.14042290977E+04  0.00000000000E+00 0.  1.
          2   -1    0    0  501    0  0.00000000000E+00 -0.00000000000E+00 -0.20660203953E+04  0.20660203953E+04  0.00000000000E+00 0. -1.
         23    2    1    2    0    0 -0.12926497830E+03  0.14581851153E+04 -0.12154297000E+04  0.19051524526E+04  0.96556962213E+02 0.  0.
         13    1    3    3    0    0 -0.10524135911E+03  0.77954269388E+03 -0.61069541811E+03  0.99584710119E+03  0.00000000000E+00 0. -1.
        -13    1    3    3    0    0 -0.24023619187E+02  0.67864242146E+03 -0.60473428191E+03  0.90930535146E+03  0.00000000000E+00 0.  1.
         22    1    1    2    0    0  0.12926497830E+03 -0.14581851153E+04  0.55363840237E+03  0.15650970404E+04  0.00000000000E+00 0.  1.
<mgrwt>
<rscale>  0 0.34065619E+04</rscale>
<asrwt>0</asrwt>
<pdfrwt beam="1">  1        2 0.31784929E+00 0.34065619E+04</pdfrwt>
<pdfrwt beam="2">  1       -2 0.21603525E+00 0.34065619E+04</pdfrwt>
<totfact> 0.53240090E-01</totfact>
</mgrwt>
</event>
<event>
 6    1  0.1528034E-005  0.2721456E+04  0.7818608E-02  0.8328077E-01
         -1   -1    0    0    0  501 -0.00000000000E+00  0.00000000000E+00  0.10692698142E+04  0.10692698142E+04  0.00000000000E+00 0. -1.
          1   -1    0    0  501    0  0.00000000000E+00 -0.00000000000E+00 -0.17316313017E+04  0.17316313017E+04  0.00000000000E+00 0.  1.
         23    2    1    2    0    0  0.62832094075E+03 -0.11254959979E+04 -0.77198268296E+03  0.15072453454E+04  0.11959440829E+03 0.  0.
         13    1    3    3    0    0  0.88459854069E+02 -0.15413200462E+03 -0.60642570912E+02  0.18777471086E+03  0.00000000000E+00 0.  1.
        -13    1    3    3    0    0  0.53986108668E+03 -0.97136399330E+03 -0.71134011205E+03  0.13194706345E+04  0.00000000000E+00 0. -1.
         22    1    1    2    0    0 -0.62832094075E+03  0.11254959979E+04  0.10962119545E+03  0.12936557705E+04  0.00000000000E+00 0. -1.
<mgrwt>
<rscale>  0 0.27214563E+04</rscale>
<asrwt>0</asrwt>
<pdfrwt beam="1">  1        1 0.26640481E+00 0.27214563E+04</pdfrwt>
<pdfrwt beam="2">  1       -1 0.16450305E+00 0.27214563E+04</pdfrwt>
<totfact> 0.10683139E+00</totfact>
</mgrwt>
</event>
<event>
 6    1  0.1528034E-005  0.1507733E+04  0.7818608E-02  0.8879327E-01
         -2   -1    0    0    0  501 -0.00000000000E+00  0.00000000000E+00  0.28085357873E+03  0.28085357873E+03  0.00000000000E+00 0.  1.
          2   -1    0    0  501    0  0.00000000000E+00 -0.00000000000E+00 -0.20235272354E+04  0.20235272354E+04  0.00000000000E+00 0. -1.
         23    2    1    2    0    0  0.22278104932E+03  0.71258448628E+03 -0.74871152785E+03  0.10612521967E+04  0.90990257709E+02 0.  0.
         11    1    3    3    0    0  0.30188549710E+02  0.14697804180E+03 -0.10601045012E+03  0.18371747016E+03  0.00000000000E+00 0.  1.
        -11    1    3    3    0    0  0.19259249961E+03  0.56560644447E+03 -0.64270107773E+03  0.87753472652E+03  0.00000000000E+00 0. -1.
         22    1    1    2    0    0 -0.22278104932E+03 -0.71258448628E+03 -0.99396212883E+03  0.12431286175E+04  0.00000000000E+00 0.  1.
<mgrwt>
<rscale>  0 0.15077332E+04</rscale>
<asrwt>0</asrwt>
<pdfrwt beam="1">  1        2 0.31131189E+00 0.15077332E+04</pdfrwt>
<pdfrwt beam="2">  1       -2 0.43208241E-01 0.15077332E+04</pdfrwt>
<totfact> 0.31805652E+01</totfact>
</mgrwt>
</event>
<event>
 6    1  0.1528034E-005  0.1336929E+04  0.7818608E-02  0.9000782E-01
         -2   -1    0    0    0  501 -0.00000000000E+00  0.00000000000E+00  0.87041837152E+03  0.87041837152E+03  0.00000000000E+00 0. -1.
          2   -1    0    0  501    0  0.00000000000E+00 -0.00000000000E+00 -0.51336775140E+03  0.51336775140E+03  0.00000000000E+00 0.  1.
         23    2    1    2    0    0 -0.26503096625E+03 -0.60810383978E+03  0.22642594972E+03  0.70769848249E+03  0.97656225543E+02 0.  0.
         13    1    3    3    0    0 -0.18913241342E+03 -0.50719254563E+03  0.15707224387E+03  0.56363732838E+03  0.00000000000E+00 0.  1.
        -13    1    3    3    0    0 -0.75898552831E+02 -0.10091129414E+03  0.69353705845E+02  0.14406115411E+03  0.00000000000E+00 0. -1.
         22    1    1    2    0    0  0.26503096625E+03  0.60810383978E+03  0.13062467041E+03  0.67608764043E+03  0.00000000000E+00 0.  1.
<mgrwt>
<rscale>  0 0.13369289E+04</rscale>
<asrwt>0</asrwt>
<pdfrwt beam="1">  1        2 0.78979655E-01 0.13369289E+04</pdfrwt>
<pdfrwt beam="2">  1       -2 0.13391052E+00 0.13369289E+04</pdfrwt>
<totfact> 0.23498647E+01</totfact>
</mgrwt>
</event>
<event>
 6    1  0.2269805E-005  0.1247994E+04  0.7818608E-02  0.9071854E-01
         -1   -1    0    0    0  501 -0.00000000000E+00  0.00000000000E+00  0.24598389537E+03  0.24598389537E+03  0.00000000000E+00 0.  1.
          1   -1    0    0  501    0  0.00000000000E+00 -0.00000000000E+00 -0.15829179988E+04  0.15829179988E+04  0.00000000000E+00 0. -1.
         23    2    1    2    0    0 -0.31938677317E+03 -0.50988833128E+03 -0.43967877534E+03  0.74859585187E+03  0.71304296456E+02 0.  0.
         11    1    3    3    0    0 -0.13538227545E+03 -0.24758823464E+03 -0.16722567066E+03  0.32801329145E+03  0.00000000000E+00 0.  1.
        -11    1    3    3    0    0 -0.18400449772E+03 -0.26230009664E+03 -0.27245310467E+03  0.42058256042E+03  0.00000000000E+00 0. -1.
         22    1    1    2    0    0  0.31938677317E+03  0.50988833128E+03 -0.89725532810E+03  0.10803060423E+04  0.00000000000E+00 0.  1.
<mgrwt>
<rscale>  0 0.12479941E+04</rscale>
<asrwt>0</asrwt>
<pdfrwt beam="1">  1        1 0.24352584E+00 0.12479941E+04</pdfrwt>
<pdfrwt beam="2">  1       -1 0.37843677E-01 0.12479941E+04</pdfrwt>
<totfact> 0.38104220E+01</totfact>
</mgrwt>
</event>
<event>
 6    1  0.1528034E-005  0.3198425E+04  0.7818608E-02  0.8189233E-01
         -2   -1    0    0    0  501 -0.00000000000E+00  0.00000000000E+00  0.16641692420E+04  0.16641692420E+04  0.00000000000E+00 0.  1.
          2   -1    0    0  501    0  0.00000000000E+00 -0.00000000000E+00 -0.15367908858E+04  0.15367908858E+04  0.00000000000E+00 0. -1.
         23    2    1    2    0    0 -0.10423565628E+04 -0.91530316392E+03 -0.73022010597E+03  0.15700823862E+04  0.87465481124E+02 0.  0.
         11    1    3    3    0    0 -0.89188075163E+03 -0.81737462936E+03 -0.65150350044E+03  0.13740485330E+04  0.00000000000E+00 0. -1.
        -11    1    3    3    0    0 -0.15047581116E+03 -0.97928534557E+02 -0.78716605539E+02  0.19603385323E+03  0.00000000000E+00 0.  1.
         22    1    1    2    0    0  0.10423565628E+04  0.91530316392E+03  0.85759846221E+03  0.16308777417E+04  0.00000000000E+00 0.  1.
<mgrwt>
<rscale>  0 0.31984247E+04</rscale>
<asrwt>0</asrwt>
<pdfrwt beam="1">  1        2 0.23642937E+00 0.31984247E+04</pdfrwt>
<pdfrwt beam="2">  1       -2 0.25602604E+00 0.31984247E+04</pdfrwt>
<totfact> 0.60141215E-01</totfact>
</mgrwt>
</event>
<event>
 6    1  0.1528034E-005  0.3463709E+04  0.7818608E-02  0.8122445E-01
         -1   -1    0    0    0  501 -0.00000000000E+00  0.00000000000E+00  0.32635123201E+04  0.32635123201E+04  0.00000000000E+00 0.  1.
          1   -1    0    0  501    0  0.00000000000E+00 -0.00000000000E+00 -0.91904649397E+03  0.91904649397E+03  0.00000000000E+00 0. -1.
         23    2    1    2    0    0 -0.11156087590E+04  0.63046549031E+03  0.25776871031E+04  0.28800758768E+04  0.91085768583E+02 0.  0.
         11    1    3    3    0    0 -0.18197933346E+03  0.80587104905E+02  0.46282221203E+03  0.50380071381E+03  0.00000000000E+00 0. -1.
        -11    1    3    3    0    0 -0.93362942555E+03  0.54987838541E+03  0.21148648911E+04  0.23762751630E+04  0.00000000000E+00 0.  1.
         22    1    1    2    0    0  0.11156087590E+04 -0.63046549031E+03 -0.23322127700E+03  0.13024829372E+04  0.00000000000E+00 0. -1.
<mgrwt>
<rscale>  0 0.34637087E+04</rscale>
<asrwt>0</asrwt>
<pdfrwt beam="1">  1        1 0.14139177E+00 0.34637087E+04</pdfrwt>
<pdfrwt beam="2">  1       -1 0.50207881E+00 0.34637087E+04</pdfrwt>
<totfact> 0.20733495E-02</totfact>
</mgrwt>
</event>
<event>
 6    1  0.1528034E-005  0.4519701E+04  0.7818608E-02  0.7907197E-01
         -2   -1    0    0    0  501 -0.00000000000E+00  0.00000000000E+00  0.34691173214E+04  0.34691173214E+04  0.00000000000E+00 0.  1.
          2   -1    0    0  501    0  0.00000000000E+00 -0.00000000000E+00 -0.14721108604E+04  0.14721108604E+04  0.00000000000E+00 0. -1.
         23    2    1    2    0    0 -0.12602007490E+04  0.18276916308E+04  0.54265003367E+03  0.22872283244E+04  0.91551753467E+02 0.  0.
         11    1    3    3    0    0 -0.37476245462E+03  0.52536148049E+03  0.19937557893E+03  0.67542742323E+03  0.00000000000E+00 0.  1.
        -11    1    3    3    0    0 -0.88543829442E+03  0.13023301503E+04  0.34327445474E+03  0.16118009011E+04  0.00000000000E+00 0. -1.
         22    1    1    2    0    0  0.12602007490E+04 -0.18276916308E+04  0.14543564273E+04  0.26539998574E+04  0.00000000000E+00 0. -1.
<mgrwt>
<rscale>  0 0.45197014E+04</rscale>
<asrwt>0</asrwt>
<pdfrwt beam="1">  1        2 0.22647859E+00 0.45197014E+04</pdfrwt>
<pdfrwt beam="2">  1       -2 0.53371036E+00 0.45197014E+04</pdfrwt>
<totfact> 0.10447940E-02</totfact>
</mgrwt>
</event>
<event>
 6    1  0.1528034E-005  0.2552349E+04  0.7818608E-02  0.8384570E-01
          1   -1    0    0  501    0  0.00000000000E+00  0.00000000000E+00  0.25058169857E+04  0.25058169857E+04  0.00000000000E+00 0. -1.
         -1   -1    0    0    0  501 -0.00000000000E+00 -0.00000000000E+00 -0.64993606188E+03  0.64993606188E+03  0.00000000000E+00 0.  1.
         23    2    1    2    0    0  0.38500830987E+03  0.14593574948E+03  0.24205461363E+04  0.24569144082E+04  0.88635036665E+02 0.  0.
         11    1    3    3    0    0  0.10183423611E+03  0.37886687323E+02  0.89335450446E+03  0.89993771083E+03  0.00000000000E+00 0.  1.
        -11    1    3    3    0    0  0.28317407376E+03  0.10804906216E+03  0.15271916318E+04  0.15569766974E+04  0.00000000000E+00 0. -1.
         22    1    1    2    0    0 -0.38500830987E+03 -0.14593574948E+03 -0.56466521249E+03  0.69883863935E+03  0.00000000000E+00 0.  1.
<mgrwt>
<rscale>  0 0.25523486E+04</rscale>
<asrwt>0</asrwt>
<pdfrwt beam="1">  1        1 0.38551030E+00 0.25523486E+04</pdfrwt>
<pdfrwt beam="2">  1       -1 0.99990164E-01 0.25523486E+04</pdfrwt>
<totfact> 0.11312361E+00</totfact>
</mgrwt>
</event>
<event>
 6    1  0.2159644E-005  0.3030428E+04  0.7818608E-02  0.8235095E-01
         -2   -1    0    0    0  501 -0.00000000000E+00  0.00000000000E+00  0.11971647509E+04  0.11971647509E+04  0.00000000000E+00 0. -1.
          2   -1    0    0  501    0  0.00000000000E+00 -0.00000000000E+00 -0.19177592797E+04  0.19177592797E+04  0.00000000000E+00 0.  1.
         23    2    1    2    0    0  0.52531981555E+03  0.49307472502E+03 -0.17292011797E+04  0.18754197066E+04  0.89323921071E+02 0.  0.
         11    1    3    3    0    0  0.34637528855E+03  0.35802341588E+03 -0.11022653600E+04  0.12096055269E+04  0.00000000000E+00 0.  1.
        -11    1    3    3    0    0  0.17894452700E+03  0.13505130914E+03 -0.62693581971E+03  0.66581417969E+03  0.00000000000E+00 0. -1.
         22    1    1    2    0    0 -0.52531981555E+03 -0.49307472502E+03  0.10086066509E+04  0.12395043240E+04  0.00000000000E+00 0. -1.
<mgrwt>
<rscale>  0 0.30304282E+04</rscale>
<asrwt>0</asrwt>
<pdfrwt beam="1">  1        2 0.29503989E+00 0.30304282E+04</pdfrwt>
<pdfrwt beam="2">  1       -2 0.18417919E+00 0.30304282E+04</pdfrwt>
<totfact> 0.10758895E+00</totfact>
</mgrwt>
</event>
<event>
 6    1  0.1528034E-005  0.1203292E+04  0.7818608E-02  0.9109980E-01
         -2   -1    0    0    0  501 -0.00000000000E+00  0.00000000000E+00  0.28602564218E+03  0.28602564218E+03  0.00000000000E+00 0.  1.
          2   -1    0    0  501    0  0.00000000000E+00 -0.00000000000E+00 -0.12655433427E+04  0.12655433427E+04  0.00000000000E+00 0. -1.
         23    2    1    2    0    0  0.53608763204E+03 -0.91322286029E+02 -0.81488816456E+03  0.98338539370E+03  0.85290108735E+02 0.  0.
         13    1    3    3    0    0  0.25109778923E+03 -0.85959329120E+02 -0.38938907973E+03  0.47123556894E+03  0.00000000000E+00 0.  1.
        -13    1    3    3    0    0  0.28498984281E+03 -0.53629569089E+01 -0.42549908482E+03  0.51214982475E+03  0.00000000000E+00 0. -1.
         22    1    1    2    0    0 -0.53608763204E+03  0.91322286029E+02 -0.16462953594E+03  0.56818359115E+03  0.00000000000E+00 0.  1.
<mgrwt>
<rscale>  0 0.12032919E+04</rscale>
<asrwt>0</asrwt>
<pdfrwt beam="1">  1        2 0.19469898E+00 0.12032919E+04</pdfrwt>
<pdfrwt beam="2">  1       -2 0.44003944E-01 0.12032919E+04</pdfrwt>
<totfact> 0.83631525E+01</totfact>
</mgrwt>
</event>
<event>
 6    1  0.1528034E-005  0.2218320E+04  0.7818608E-02  0.8510841E-01
         -2   -1    0    0    0  501 -0.00000000000E+00  0.00000000000E+00  0.41407869641E+03  0.41407869641E+03  0.00000000000E+00 0.  1.
          2   -1    0    0  501    0  0.00000000000E+00 -0.00000000000E+00 -0.29710203546E+04  0.29710203546E+04  0.00000000000E+00 0. -1.
         23    2    1    2    0    0 -0.46336580791E+03  0.74321845667E+03 -0.23142820370E+04  0.24762727540E+04  0.94571979846E+02 0.  0.
         13    1    3    3    0    0 -0.43462447633E+03  0.66466199833E+03 -0.21487023628E+04  0.22907631591E+04  0.00000000000E+00 0.  1.
        -13    1    3    3    0    0 -0.28741331580E+02  0.78556458338E+02 -0.16557967422E+03  0.18550959491E+03  0.00000000000E+00 0. -1.
         22    1    1    2    0    0  0.46336580791E+03 -0.74321845667E+03 -0.24265962116E+03  0.90882629694E+03  0.00000000000E+00 0.  1.
<mgrwt>
<rscale>  0 0.22183203E+04</rscale>
<asrwt>0</asrwt>
<pdfrwt beam="1">  1        2 0.45708007E+00 0.22183203E+04</pdfrwt>
<pdfrwt beam="2">  1       -2 0.63704413E-01 0.22183203E+04</pdfrwt>
<totfact> 0.37809354E+00</totfact>
</mgrwt>
</event>
<event>
 6    1  0.1528034E-005  0.4331693E+04  0.7818608E-02  0.7940784E-01
         -2   -1    0    0    0  501 -0.00000000000E+00  0.00000000000E+00  0.17803569235E+04  0.17803569235E+04  0.00000000000E+00 0. -1.
          2   -1    0    0  501    0  0.00000000000E+00 -0.00000000000E+00 -0.26348034489E+04  0.26348034489E+04  0.00000000000E+00 0.  1.
         23    2    1    2    0    0 -0.18227117864E+04  0.11361269386E+04 -0.70417150446E+03  0.22621055058E+04  0.90560115995E+02 0.  0.
         13    1    3    3    0    0 -0.80857892546E+03  0.46186514064E+03 -0.33368704102E+03  0.98917456911E+03  0.00000000000E+00 0.  1.
        -13    1    3    3    0    0 -0.10141328609E+04  0.67426179794E+03 -0.37048446344E+03  0.12729309366E+04  0.00000000000E+00 0. -1.
         22    1    1    2    0    0  0.18227117864E+04 -0.11361269386E+04 -0.15027502098E+03  0.21530548666E+04  0.00000000000E+00 0. -1.
<mgrwt>
<rscale>  0 0.43316928E+04</rscale>
<asrwt>0</asrwt>
<pdfrwt beam="1">  1        2 0.40535437E+00 0.43316928E+04</pdfrwt>
<pdfrwt beam="2">  1       -2 0.27390107E+00 0.43316928E+04</pdfrwt>
<totfact> 0.10228842E-01</totfact>
</mgrwt>
</event>
<event>
 6    1  0.1528034E-005  0.3783957E+04  0.7818608E-02  0.8049606E-01
         -1   -1    0    0    0  501 -0.00000000000E+00  0.00000000000E+00  0.11973562055E+04  0.11973562055E+04  0.00000000000E+00 0.  1.
          1   -1    0    0  501    0  0.00000000000E+00 -0.00000000000E+00 -0.29895725561E+04  0.29895725561E+04  0.00000000000E+00 0. -1.
         23    2    1    2    0    0 -0.69056090684E+03 -0.16346912887E+04 -0.17414427122E+03  0.17854193967E+04  0.91138462779E+02 0.  0.
         11    1    3    3    0    0 -0.29445572548E+03 -0.60203536474E+03 -0.90021742056E+02  0.67620608449E+03  0.00000000000E+00 0.  1.
        -11    1    3    3    0    0 -0.39610518136E+03 -0.10326559240E+04 -0.84122529165E+02  0.11092133122E+04  0.00000000000E+00 0. -1.
         22    1    1    2    0    0  0.69056090684E+03  0.16346912887E+04 -0.16180720795E+04  0.24015093649E+04  0.00000000000E+00 0. -1.
<mgrwt>
<rscale>  0 0.37839573E+04</rscale>
<asrwt>0</asrwt>
<pdfrwt beam="1">  1        1 0.45993424E+00 0.37839573E+04</pdfrwt>
<pdfrwt beam="2">  1       -1 0.18420865E+00 0.37839573E+04</pdfrwt>
<totfact> 0.94049711E-02</totfact>
</mgrwt>
</event>
<event>
 6    1  0.1528034E-005  0.4127847E+04  0.7818608E-02  0.7979241E-01
          2   -1    0    0  501    0  0.00000000000E+00  0.00000000000E+00  0.31195259797E+04  0.31195259797E+04  0.00000000000E+00 0. -1.
         -2   -1    0    0    0  501 -0.00000000000E+00 -0.00000000000E+00 -0.13655219086E+04  0.13655219086E+04  0.00000000000E+00 0.  1.
         23    2    1    2    0    0  0.23862918165E+03 -0.15874366173E+04 -0.53040265559E+03  0.16930212063E+04  0.89971815238E+02 0.  0.
         11    1    3    3    0    0  0.39431696189E+02 -0.35674825791E+03 -0.15557997803E+03  0.39118960588E+03  0.00000000000E+00 0.  1.
        -11    1    3    3    0    0  0.19919748546E+03 -0.12306883594E+04 -0.37482267756E+03  0.13018316004E+04  0.00000000000E+00 0. -1.
         22    1    1    2    0    0 -0.23862918165E+03  0.15874366173E+04  0.22844067267E+04  0.27920266820E+04  0.00000000000E+00 0. -1.
<mgrwt>
<rscale>  0 0.41278474E+04</rscale>
<asrwt>0</asrwt>
<pdfrwt beam="1">  1        2 0.47992707E+00 0.41278474E+04</pdfrwt>
<pdfrwt beam="2">  1       -2 0.21008030E+00 0.41278474E+04</pdfrwt>
<totfact> 0.13046252E-01</totfact>
</mgrwt>
</event>
<event>
 6    1  0.1528034E-005  0.3704369E+04  0.7818608E-02  0.8066994E-01
         -1   -1    0    0    0  501 -0.00000000000E+00  0.00000000000E+00  0.11244934474E+04  0.11244934474E+04  0.00000000000E+00 0. -1.
          1   -1    0    0  501    0  0.00000000000E+00 -0.00000000000E+00 -0.30507849553E+04  0.30507849553E+04  0.00000000000E+00 0.  1.
         23    2    1    2    0    0  0.26180188395E+03  0.12301374248E+04  0.56699848589E+03  0.13827395394E+04  0.93290087791E+02 0.  0.
         11    1    3    3    0    0  0.24066587240E+03  0.99509781835E+03  0.48553939549E+03  0.11330879202E+04  0.00000000000E+00 0. -1.
        -11    1    3    3    0    0  0.21136011552E+02  0.23503960641E+03  0.81459090402E+02  0.24965161921E+03  0.00000000000E+00 0.  1.
         22    1    1    2    0    0 -0.26180188395E+03 -0.12301374248E+04 -0.24932899938E+04  0.27925388634E+04  0.00000000000E+00 0.  1.
<mgrwt>
<rscale>  0 0.37043691E+04</rscale>
<asrwt>0</asrwt>
<pdfrwt beam="1">  1        1 0.46935153E+00 0.37043691E+04</pdfrwt>
<pdfrwt beam="2">  1       -1 0.17299899E+00 0.37043691E+04</pdfrwt>
<totfact> 0.10285824E-01</totfact>
</mgrwt>
</event>
<event>
 6    1  0.1528034E-005  0.3913272E+04  0.7818608E-02  0.8022275E-01
         -2   -1    0    0    0  501 -0.00000000000E+00  0.00000000000E+00  0.10898709261E+04  0.10898709261E+04  0.00000000000E+00 0.  1.
          2   -1    0    0  501    0  0.00000000000E+00 -0.00000000000E+00 -0.35127311802E+04  0.35127311802E+04  0.00000000000E+00 0. -1.
         23    2    1    2    0    0  0.15168561820E+04 -0.79298808234E+03 -0.23245543455E+04  0.28881497660E+04  0.90406803745E+02 0.  0.
         11    1    3    3    0    0  0.47500081585E+03 -0.20516184810E+03 -0.72917835471E+03  0.89410191362E+03  0.00000000000E+00 0. -1.
        -11    1    3    3    0    0  0.10418553661E+04 -0.58782623424E+03 -0.15953759908E+04  0.19940478524E+04  0.00000000000E+00 0.  1.
         22    1    1    2    0    0 -0.15168561820E+04  0.79298808234E+03 -0.98305908680E+02  0.17144523403E+04  0.00000000000E+00 0.  1.
<mgrwt>
<rscale>  0 0.39132716E+04</rscale>
<asrwt>0</asrwt>
<pdfrwt beam="1">  1        2 0.54042019E+00 0.39132716E+04</pdfrwt>
<pdfrwt beam="2">  1       -2 0.16767245E+00 0.39132716E+04</pdfrwt>
<totfact> 0.13985654E-01</totfact>
</mgrwt>
</event>
<event>
 6    1  0.1528034E-005  0.5697997E+04  0.7818608E-02  0.7729017E-01
          2   -1    0    0  501    0  0.00000000000E+00  0.00000000000E+00  0.19225040088E+04  0.19225040088E+04  0.00000000000E+00 0. -1.
         -2   -1    0    0    0  501 -0.00000000000E+00 -0.00000000000E+00 -0.42219895711E+04  0.42219895711E+04  0.00000000000E+00 0.  1.
         23    2    1    2    0    0  0.18556097201E+04  0.15271107269E+04  0.49849576175E+03  0.24561261776E+04  0.93290783012E+02 0.  0.
         13    1    3    3    0    0  0.11549899091E+04  0.99306611867E+03  0.34712067958E+03  0.15622659097E+04  0.00000000000E+00 0. -1.
        -13    1    3    3    0    0  0.70061981094E+03  0.53404460819E+03  0.15137508217E+03  0.89386026789E+03  0.00000000000E+00 0.  1.
         22    1    1    2    0    0 -0.18556097201E+04 -0.15271107269E+04 -0.27979813240E+04  0.36883674023E+04  0.00000000000E+00 0.  1.
<mgrwt>
<rscale>  0 0.56979968E+04</rscale>
<asrwt>0</asrwt>
<pdfrwt beam="1">  1        2 0.29576985E+00 0.56979968E+04</pdfrwt>
<pdfrwt beam="2">  1       -2 0.64953686E+00 0.56979968E+04</pdfrwt>
<totfact> 0.17450707E-03</totfact>
</mgrwt>
</event>
<event>
 6    1  0.1528034E-005  0.2045574E+04  0.7818608E-02  0.8585605E-01
         -1   -1    0    0    0  501 -0.00000000000E+00  0.00000000000E+00  0.35447300848E+03  0.35447300848E+03  0.00000000000E+00 0.  1.
          1   -1    0    0  501    0  0.00000000000E+00 -0.00000000000E+00 -0.29511210131E+04  0.29511210131E+04  0.00000000000E+00 0. -1.
         23    2    1    2    0    0  0.12233964138E+03 -0.43510478510E+03 -0.27799709829E+04  0.28178538486E+04  0.88195716862E+02 0.  0.
         11    1    3    3    0    0  0.14479972999E+02 -0.15237644990E+03 -0.11359405841E+04  0.11462064660E+04  0.00000000000E+00 0.  1.
        -11    1    3    3    0    0  0.10785966838E+03 -0.28272833520E+03 -0.16440303988E+04  0.16716473826E+04  0.00000000000E+00 0. -1.
         22    1    1    2    0    0 -0.12233964138E+03  0.43510478510E+03  0.18332297835E+03  0.48774017290E+03  0.00000000000E+00 0.  1.
<mgrwt>
<rscale>  0 0.20455735E+04</rscale>
<asrwt>0</asrwt>
<pdfrwt beam="1">  1        1 0.45401860E+00 0.20455735E+04</pdfrwt>
<pdfrwt beam="2">  1       -1 0.54534311E-01 0.20455735E+04</pdfrwt>
<totfact> 0.20393399E+00</totfact>
</mgrwt>
</event>
<event>
 6    1  0.1528034E-005  0.3689296E+04  0.7818608E-02  0.8070338E-01
          2   -1    0    0  501    0  0.00000000000E+00  0.00000000000E+00  0.30080204423E+04  0.30080204423E+04  0.00000000000E+00 0.  1.
         -2   -1    0    0    0  501 -0.00000000000E+00 -0.00000000000E+00 -0.11312178337E+04  0.11312178337E+04  0.00000000000E+00 0. -1.
         23    2    1    2    0    0  0.92748809327E+03  0.41255618409E+03  0.26655796734E+04  0.28537010241E+04  0.88644070550E+02 0.  0.
         11    1    3    3    0    0  0.48037736261E+03  0.26185069344E+03  0.14199695805E+04  0.15217233013E+04  0.00000000000E+00 0. -1.
        -11    1    3    3    0    0  0.44711073065E+03  0.15070549065E+03  0.12456100929E+04  0.13319777228E+04  0.00000000000E+00 0.  1.
         22    1    1    2    0    0 -0.92748809327E+03 -0.41255618409E+03 -0.78877706484E+03  0.12855372520E+04  0.00000000000E+00 0. -1.
<mgrwt>
<rscale>  0 0.36892961E+04</rscale>
<asrwt>0</asrwt>
<pdfrwt beam="1">  1        2 0.46277237E+00 0.36892961E+04</pdfrwt>
<pdfrwt beam="2">  1       -2 0.17403351E+00 0.36892961E+04</pdfrwt>
<totfact> 0.27773269E-01</totfact>
</mgrwt>
</event>
<event>
 6    1  0.1528034E-005  0.1511842E+04  0.7818608E-02  0.8876616E-01
          2   -1    0    0  501    0  0.00000000000E+00  0.00000000000E+00  0.87791964420E+03  0.87791964420E+03  0.00000000000E+00 0. -1.
         -2   -1    0    0    0  501 -0.00000000000E+00 -0.00000000000E+00 -0.65087610641E+03  0.65087610641E+03  0.00000000000E+00 0.  1.
         23    2    1    2    0    0 -0.68398640881E+03  0.29129383555E+03  0.23628330709E+03  0.78530743234E+03  0.90490087865E+02 0.  0.
         13    1    3    3    0    0 -0.40635975780E+03  0.14598711567E+03  0.97843255138E+02  0.44273445007E+03  0.00000000000E+00 0.  1.
        -13    1    3    3    0    0 -0.27762665101E+03  0.14530671988E+03  0.13844005195E+03  0.34257298226E+03  0.00000000000E+00 0. -1.
         22    1    1    2    0    0  0.68398640881E+03 -0.29129383555E+03 -0.92397692966E+01  0.74348831827E+03  0.00000000000E+00 0.  1.
<mgrwt>
<rscale>  0 0.15118425E+04</rscale>
<asrwt>0</asrwt>
<pdfrwt beam="1">  1        2 0.13506456E+00 0.15118425E+04</pdfrwt>
<pdfrwt beam="2">  1       -2 0.10013479E+00 0.15118425E+04</pdfrwt>
<totfact> 0.24133351E+01</totfact>
</mgrwt>
</event>
<event>
 6    1  0.1528034E-005  0.8330411E+03  0.7818608E-02  0.9513386E-01
          2   -1    0    0  501    0  0.00000000000E+00  0.00000000000E+00  0.43966206348E+03  0.43966206348E+03  0.00000000000E+00 0.  1.
         -2   -1    0    0    0  501 -0.00000000000E+00 -0.00000000000E+00 -0.39459711246E+03  0.39459711246E+03  0.00000000000E+00 0. -1.
         23    2    1    2    0    0 -0.16854205267E+03 -0.12940865587E+01  0.39710646967E+03  0.44394990237E+03  0.10483257790E+03 0.  0.
         11    1    3    3    0    0  0.17376425359E+01  0.19447824336E+02  0.90855651977E+02  0.92930010057E+02  0.00000000000E+00 0. -1.
        -11    1    3    3    0    0 -0.17027969520E+03 -0.20741910894E+02  0.30625081769E+03  0.35101989232E+03  0.00000000000E+00 0.  1.
         22    1    1    2    0    0  0.16854205267E+03  0.12940865587E+01 -0.35204151865E+03  0.39030927356E+03  0.00000000000E+00 0. -1.
<mgrwt>
<rscale>  0 0.83304113E+03</rscale>
<asrwt>0</asrwt>
<pdfrwt beam="1">  1        2 0.67640317E-01 0.83304113E+03</pdfrwt>
<pdfrwt beam="2">  1       -2 0.60707248E-01 0.83304113E+03</pdfrwt>
<totfact> 0.18162667E+02</totfact>
</mgrwt>
</event>
<event>
 6    1  0.1528034E-005  0.1444314E+04  0.7818608E-02  0.8922352E-01
          1   -1    0    0  501    0  0.00000000000E+00  0.00000000000E+00  0.14094122966E+04  0.14094122966E+04  0.00000000000E+00 0. -1.
         -1   -1    0    0    0  501 -0.00000000000E+00 -0.00000000000E+00 -0.37001990872E+03  0.37001990872E+03  0.00000000000E+00 0.  1.
         23    2    1    2    0    0  0.34604087468E+03 -0.53554662586E+03  0.11154688878E+03  0.65362061112E+03  0.90679211912E+02 0.  0.
         11    1    3    3    0    0  0.26936179634E+03 -0.45412515337E+03  0.11997092154E+03  0.54145955921E+03  0.00000000000E+00 0. -1.
        -11    1    3    3    0    0  0.76679078337E+02 -0.81421472493E+02 -0.84240327652E+01  0.11216105191E+03  0.00000000000E+00 0.  1.
         22    1    1    2    0    0 -0.34604087468E+03  0.53554662586E+03  0.92784549905E+03  0.11258115942E+04  0.00000000000E+00 0. -1.
<mgrwt>
<rscale>  0 0.14443138E+04</rscale>
<asrwt>0</asrwt>
<pdfrwt beam="1">  1        1 0.21683266E+00 0.14443138E+04</pdfrwt>
<pdfrwt beam="2">  1       -1 0.56926140E-01 0.14443138E+04</pdfrwt>
<totfact> 0.22967889E+01</totfact>
</mgrwt>
</event>
<event>
 6    1  0.1528034E-005  0.3301480E+04  0.7818608E-02  0.8162519E-01
          1   -1    0    0  501    0  0.00000000000E+00  0.00000000000E+00  0.22732354802E+04  0.22732354802E+04  0.00000000000E+00 0. -1.
         -1   -1    0    0    0  501 -0.00000000000E+00 -0.00000000000E+00 -0.11987063716E+04  0.11987063716E+04  0.00000000000E+00 0.  1.
         23    2    1    2    0    0 -0.37824645035E+03 -0.94614838254E+03  0.19018837910E+04  0.21593936015E+04  0.86900131097E+02 0.  0.
         11    1    3    3    0    0 -0.17747682525E+03 -0.55398489785E+03  0.11107167217E+04  0.12538297039E+04  0.00000000000E+00 0. -1.
        -11    1    3    3    0    0 -0.20076962510E+03 -0.39216348469E+03  0.79116706928E+03  0.90556389758E+03  0.00000000000E+00 0.  1.
         22    1    1    2    0    0  0.37824645035E+03  0.94614838254E+03 -0.82735468238E+03  0.13125482503E+04  0.00000000000E+00 0.  1.
<mgrwt>
<rscale>  0 0.33014796E+04</rscale>
<asrwt>0</asrwt>
<pdfrwt beam="1">  1        1 0.34972854E+00 0.33014796E+04</pdfrwt>
<pdfrwt beam="2">  1       -1 0.18441636E+00 0.33014796E+04</pdfrwt>
<totfact> 0.31161377E-01</totfact>
</mgrwt>
</event>
<event>
 6    1  0.1528034E-005  0.3003320E+04  0.7818608E-02  0.8242784E-01
         -2   -1    0    0    0  501 -0.00000000000E+00  0.00000000000E+00  0.87147466541E+03  0.87147466541E+03  0.00000000000E+00 0.  1.
          2   -1    0    0  501    0  0.00000000000E+00 -0.00000000000E+00 -0.25875476790E+04  0.25875476790E+04  0.00000000000E+00 0. -1.
         23    2    1    2    0    0 -0.50900010100E+03 -0.10383359217E+04  0.24208465305E+03  0.11849062444E+04  0.90417030811E+02 0.  0.
         13    1    3    3    0    0 -0.13706608300E+03 -0.28325876443E+03  0.25103926540E+02  0.31567838992E+03  0.00000000000E+00 0. -1.
        -13    1    3    3    0    0 -0.37193401799E+03 -0.75507715732E+03  0.21698072651E+03  0.86922785443E+03  0.00000000000E+00 0.  1.
         22    1    1    2    0    0  0.50900010100E+03  0.10383359217E+04 -0.19581576667E+04  0.22741161001E+04  0.00000000000E+00 0. -1.
<mgrwt>
<rscale>  0 0.30033197E+04</rscale>
<asrwt>0</asrwt>
<pdfrwt beam="1">  1        2 0.39808426E+00 0.30033197E+04</pdfrwt>
<pdfrwt beam="2">  1       -2 0.13407302E+00 0.30033197E+04</pdfrwt>
<totfact> 0.10631620E+00</totfact>
</mgrwt>
</event>
<event>
 6    1  0.1528034E-005  0.2134023E+04  0.7818608E-02  0.8546402E-01
          2   -1    0    0  501    0  0.00000000000E+00  0.00000000000E+00  0.17535907748E+04  0.17535907748E+04  0.00000000000E+00 0. -1.
         -2   -1    0    0    0  501 -0.00000000000E+00 -0.00000000000E+00 -0.64924703464E+03  0.64924703464E+03  0.00000000000E+00 0.  1.
         23    2    1    2    0    0 -0.86707060720E+03 -0.25917135330E+03 -0.79135495536E+02  0.91300415108E+03  0.91284856343E+02 0.  0.
         11    1    3    3    0    0 -0.54301954000E+03 -0.20198686711E+03 -0.28469991567E+02  0.58006849228E+03  0.00000000000E+00 0.  1.
        -11    1    3    3    0    0 -0.32405106720E+03 -0.57184486183E+02 -0.50665503969E+02  0.33293565880E+03  0.00000000000E+00 0. -1.
         22    1    1    2    0    0  0.86707060720E+03  0.25917135330E+03  0.11834792357E+04  0.14898336583E+04  0.00000000000E+00 0. -1.
<mgrwt>
<rscale>  0 0.21340231E+04</rscale>
<asrwt>0</asrwt>
<pdfrwt beam="1">  1        2 0.26978319E+00 0.21340231E+04</pdfrwt>
<pdfrwt beam="2">  1       -2 0.99884160E-01 0.21340231E+04</pdfrwt>
<totfact> 0.69699832E+00</totfact>
</mgrwt>
</event>
<event>
 6    1  0.1528034E-005  0.1218686E+04  0.7818608E-02  0.9096656E-01
         -2   -1    0    0    0  501 -0.00000000000E+00  0.00000000000E+00  0.23145715261E+03  0.23145715261E+03  0.00000000000E+00 0.  1.
          2   -1    0    0  501    0  0.00000000000E+00 -0.00000000000E+00 -0.16041803130E+04  0.16041803130E+04  0.00000000000E+00 0. -1.
         23    2    1    2    0    0 -0.39721275781E+03  0.37674588748E+03 -0.10811144062E+04  0.12153543817E+04  0.92533643135E+02 0.  0.
         13    1    3    3    0    0 -0.27959452180E+03  0.27652180788E+03 -0.68020280915E+03  0.78569285884E+03  0.00000000000E+00 0.  1.
        -13    1    3    3    0    0 -0.11761823601E+03  0.10022407959E+03 -0.40091159706E+03  0.42966152286E+03  0.00000000000E+00 0. -1.
         22    1    1    2    0    0  0.39721275781E+03 -0.37674588748E+03 -0.29160875423E+03  0.62028308396E+03  0.00000000000E+00 0. -1.
<mgrwt>
<rscale>  0 0.12186862E+04</rscale>
<asrwt>0</asrwt>
<pdfrwt beam="1">  1        2 0.24679698E+00 0.12186862E+04</pdfrwt>
<pdfrwt beam="2">  1       -2 0.35608791E-01 0.12186862E+04</pdfrwt>
<totfact> 0.80988024E+01</totfact>
</mgrwt>
</event>
<event>
 6    1  0.1528034E-005  0.1664748E+04  0.7818608E-02  0.8781729E-01
          1   -1    0    0  501    0  0.00000000000E+00  0.00000000000E+00  0.12267837796E+04  0.12267837796E+04  0.00000000000E+00 0. -1.
         -1   -1    0    0    0  501 -0.00000000000E+00 -0.00000000000E+00 -0.56476645620E+03  0.56476645620E+03  0.00000000000E+00 0.  1.
         23    2    1    2    0    0 -0.12129967458E+02  0.67930503271E+03  0.84466247686E+03  0.10880150798E+04  0.93379069010E+02 0.  0.
         13    1    3    3    0    0 -0.37035691506E+02  0.60371397940E+03  0.72311385137E+03  0.94272787878E+03  0.00000000000E+00 0. -1.
        -13    1    3    3    0    0  0.24905724048E+02  0.75591053308E+02  0.12154862548E+03  0.14528720104E+03  0.00000000000E+00 0.  1.
         22    1    1    2    0    0  0.12129967458E+02 -0.67930503271E+03 -0.18264515348E+03  0.70353515595E+03  0.00000000000E+00 0.  1.
<mgrwt>
<rscale>  0 0.16647478E+04</rscale>
<asrwt>0</asrwt>
<pdfrwt beam="1">  1        1 0.18873597E+00 0.16647478E+04</pdfrwt>
<pdfrwt beam="2">  1       -1 0.86887147E-01 0.16647478E+04</pdfrwt>
<totfact> 0.12725686E+01</totfact>
</mgrwt>
</event>
<event>
 6    1  0.1528034E-005  0.2993494E+04  0.7818608E-02  0.8245591E-01
          1   -1    0    0  501    0  0.00000000000E+00  0.00000000000E+00  0.18565365345E+04  0.18565365345E+04  0.00000000000E+00 0. -1.
         -1   -1    0    0    0  501 -0.00000000000E+00 -0.00000000000E+00 -0.12066829399E+04  0.12066829399E+04  0.00000000000E+00 0.  1.
         23    2    1    2    0    0  0.37857700016E+03 -0.66584712409E+02  0.18039746023E+04  0.18467699813E+04  0.92091959644E+02 0.  0.
         13    1    3    3    0    0  0.21523247643E+01 -0.54313643245E+01  0.46259797068E+01  0.74519734678E+01  0.00000000000E+00 0. -1.
        -13    1    3    3    0    0  0.37642467539E+03 -0.61153348085E+02  0.17993486226E+04  0.18393180078E+04  0.00000000000E+00 0.  1.
         22    1    1    2    0    0 -0.37857700016E+03  0.66584712409E+02 -0.11541210076E+04  0.12164494931E+04  0.00000000000E+00 0.  1.
<mgrwt>
<rscale>  0 0.29934936E+04</rscale>
<asrwt>0</asrwt>
<pdfrwt beam="1">  1        1 0.28562101E+00 0.29934936E+04</pdfrwt>
<pdfrwt beam="2">  1       -1 0.18564353E+00 0.29934936E+04</pdfrwt>
<totfact> 0.60229188E-01</totfact>
</mgrwt>
</event>
<event>
 6    1  0.1528034E-005  0.3144293E+04  0.7818608E-02  0.8203686E-01
          2   -1    0    0  501    0  0.00000000000E+00  0.00000000000E+00  0.25217056952E+04  0.25217056952E+04  0.00000000000E+00 0. -1.
         -2   -1    0    0    0  501 -0.00000000000E+00 -0.00000000000E+00 -0.98014789469E+03  0.98014789469E+03  0.00000000000E+00 0.  1.
         23    2    1    2    0    0 -0.78121577552E+03  0.13569110470E+04  0.62878555367E+03  0.16894908083E+04  0.86615480436E+02 0.  0.
         11    1    3    3    0    0 -0.19046569379E+03  0.40160930004E+03  0.16045650963E+03  0.47256058010E+03  0.00000000000E+00 0.  1.
        -11    1    3    3    0    0 -0.59075008173E+03  0.95530174699E+03  0.46832904404E+03  0.12169302282E+04  0.00000000000E+00 0. -1.
         22    1    1    2    0    0  0.78121577552E+03 -0.13569110470E+04  0.91277224687E+03  0.18123627816E+04  0.00000000000E+00 0. -1.
<mgrwt>
<rscale>  0 0.31442929E+04</rscale>
<asrwt>0</asrwt>
<pdfrwt beam="1">  1        2 0.38795472E+00 0.31442929E+04</pdfrwt>
<pdfrwt beam="2">  1       -2 0.15079198E+00 0.31442929E+04</pdfrwt>
<totfact> 0.84497513E-01</totfact>
</mgrwt>
</event>
<event>
 6    1  0.1528034E-005  0.2060356E+04  0.7818608E-02  0.8578911E-01
          2   -1    0    0  501    0  0.00000000000E+00  0.00000000000E+00  0.26577782139E+04  0.26577782139E+04  0.00000000000E+00 0. -1.
         -2   -1    0    0    0  501 -0.00000000000E+00 -0.00000000000E+00 -0.39930614005E+03  0.39930614005E+03  0.00000000000E+00 0.  1.
         23    2    1    2    0    0 -0.46403864678E+03 -0.45960267068E+03 -0.46326617828E+02  0.66153358435E+03  0.94414231452E+02 0.  0.
         11    1    3    3    0    0 -0.16070241202E+03 -0.18127699096E+03 -0.60206342432E+02  0.24962254776E+03  0.00000000000E+00 0.  1.
        -11    1    3    3    0    0 -0.30333623475E+03 -0.27832567972E+03  0.13879724604E+02  0.41191103659E+03  0.00000000000E+00 0. -1.
         22    1    1    2    0    0  0.46403864678E+03  0.45960267068E+03  0.23047986917E+04  0.23955507696E+04  0.00000000000E+00 0. -1.
<mgrwt>
<rscale>  0 0.20603564E+04</rscale>
<asrwt>0</asrwt>
<pdfrwt beam="1">  1        2 0.40888894E+00 0.20603564E+04</pdfrwt>
<pdfrwt beam="2">  1       -2 0.61431716E-01 0.20603564E+04</pdfrwt>
<totfact> 0.64129306E+00</totfact>
</mgrwt>
</event>
<event>
 6    1  0.1528034E-005  0.3420908E+04  0.7818608E-02  0.8132794E-01
          1   -1    0    0  501    0  0.00000000000E+00  0.00000000000E+00  0.13947921158E+04  0.13947921158E+04  0.00000000000E+00 0. -1.
         -1   -1    0    0    0  501 -0.00000000000E+00 -0.00000000000E+00 -0.20975550282E+04  0.20975550282E+04  0.00000000000E+00 0.  1.
         23    2    1    2    0    0 -0.14184056723E+03 -0.10327359877E+04  0.10311756426E+04  0.14691800032E+04  0.92218809579E+02 0.  0.
         11    1    3    3    0    0 -0.55875917767E+02 -0.47579129653E+03  0.53728451075E+03  0.71984312286E+03  0.00000000000E+00 0.  1.
        -11    1    3    3    0    0 -0.85964649462E+02 -0.55694469119E+03  0.49389113190E+03  0.74933688029E+03  0.00000000000E+00 0. -1.
         22    1    1    2    0    0  0.14184056723E+03  0.10327359877E+04 -0.17339385551E+04  0.20231671408E+04  0.00000000000E+00 0.  1.
<mgrwt>
<rscale>  0 0.34209082E+04</rscale>
<asrwt>0</asrwt>
<pdfrwt beam="1">  1        1 0.21458340E+00 0.34209082E+04</pdfrwt>
<pdfrwt beam="2">  1       -1 0.32270077E+00 0.34209082E+04</pdfrwt>
<totfact> 0.14949747E-01</totfact>
</mgrwt>
</event>
<event>
 6    1  0.1528034E-005  0.1976810E+04  0.7818608E-02  0.8617540E-01
          2   -1    0    0  501    0  0.00000000000E+00  0.00000000000E+00  0.84441778383E+03  0.84441778383E+03  0.00000000000E+00 0. -1.
         -2   -1    0    0    0  501 -0.00000000000E+00 -0.00000000000E+00 -0.11569441463E+04  0.11569441463E+04  0.00000000000E+00 0.  1.
         23    2    1    2    0    0 -0.86872985455E+03  0.33208217384E+03  0.17569375270E+03  0.95096723707E+03  0.92196859394E+02 0.  0.
         11    1    3    3    0    0 -0.52162757191E+03  0.21824403512E+03  0.64412562524E+02  0.56909995682E+03  0.00000000000E+00 0. -1.
        -11    1    3    3    0    0 -0.34710228263E+03  0.11383813872E+03  0.11128119018E+03  0.38186728025E+03  0.00000000000E+00 0.  1.
         22    1    1    2    0    0  0.86872985455E+03 -0.33208217384E+03 -0.48822011517E+03  0.10503946931E+04  0.00000000000E+00 0.  1.
<mgrwt>
<rscale>  0 0.19768098E+04</rscale>
<asrwt>0</asrwt>
<pdfrwt beam="1">  1        2 0.12991043E+00 0.19768098E+04</pdfrwt>
<pdfrwt beam="2">  1       -2 0.17799141E+00 0.19768098E+04</pdfrwt>
<totfact> 0.55790788E+00</totfact>
</mgrwt>
</event>
<event>
 6    1  0.1528034E-005  0.2039413E+04  0.7818608E-02  0.8588412E-01
         -2   -1    0    0    0  501 -0.00000000000E+00  0.00000000000E+00  0.19451764690E+04  0.19451764690E+04  0.00000000000E+00 0.  1.
          2   -1    0    0  501    0  0.00000000000E+00 -0.00000000000E+00 -0.53455387736E+03  0.53455387736E+03  0.00000000000E+00 0. -1.
         23    2    1    2    0    0 -0.28361995199E+02 -0.90560426594E+03  0.14429474105E+03  0.92264662530E+03  0.97633670493E+02 0.  0.
         13    1    3    3    0    0 -0.47237993057E+02 -0.21312883663E+03  0.25192148453E+02  0.21974979712E+03  0.00000000000E+00 0.  1.
        -13    1    3    3    0    0  0.18875997858E+02 -0.69247542931E+03  0.11910259260E+03  0.70289682818E+03  0.00000000000E+00 0. -1.
         22    1    1    2    0    0  0.28361995199E+02  0.90560426594E+03  0.12663278506E+04  0.15570837211E+04  0.00000000000E+00 0.  1.
<mgrwt>
<rscale>  0 0.20394133E+04</rscale>
<asrwt>0</asrwt>
<pdfrwt beam="1">  1        2 0.82239059E-01 0.20394133E+04</pdfrwt>
<pdfrwt beam="2">  1       -2 0.29925792E+00 0.20394133E+04</pdfrwt>
<totfact> 0.16951732E+00</totfact>
</mgrwt>
</event>
<event>
 6    1  0.1528034E-005  0.2472325E+04  0.7818608E-02  0.8412912E-01
         -1   -1    0    0    0  501 -0.00000000000E+00  0.00000000000E+00  0.17980791190E+04  0.17980791190E+04  0.00000000000E+00 0.  1.
          1   -1    0    0  501    0  0.00000000000E+00 -0.00000000000E+00 -0.84985033109E+03  0.84985033109E+03  0.00000000000E+00 0. -1.
         23    2    1    2    0    0  0.74873906203E+03 -0.75731458915E+03  0.11435819671E+04  0.15652021370E+04  0.89120391742E+02 0.  0.
         13    1    3    3    0    0  0.46201429084E+03 -0.40465201055E+03  0.65833102262E+03  0.90033337710E+03  0.00000000000E+00 0.  1.
        -13    1    3    3    0    0  0.28672477119E+03 -0.35266257860E+03  0.48525094452E+03  0.66486875992E+03  0.00000000000E+00 0. -1.
         22    1    1    2    0    0 -0.74873906203E+03  0.75731458915E+03 -0.19535317918E+03  0.10827273131E+04  0.00000000000E+00 0. -1.
<mgrwt>
<rscale>  0 0.24723253E+04</rscale>
<asrwt>0</asrwt>
<pdfrwt beam="1">  1        1 0.13074621E+00 0.24723253E+04</pdfrwt>
<pdfrwt beam="2">  1       -1 0.27662756E+00 0.24723253E+04</pdfrwt>
<totfact> 0.83499215E-01</totfact>
</mgrwt>
</event>
<event>
 6    1  0.1528034E-005  0.2345571E+04  0.7818608E-02  0.8460167E-01
          1   -1    0    0  501    0  0.00000000000E+00  0.00000000000E+00  0.11267510802E+04  0.11267510802E+04  0.00000000000E+00 0. -1.
         -1   -1    0    0    0  501 -0.00000000000E+00 -0.00000000000E+00 -0.12207004642E+04  0.12207004642E+04  0.00000000000E+00 0.  1.
         23    2    1    2    0    0  0.24169043498E+03 -0.70909307873E+03 -0.94783475539E+03  0.12115169125E+04  0.90306395435E+02 0.  0.
         13    1    3    3    0    0  0.20875706256E+03 -0.53150288774E+03 -0.76377971093E+03  0.95364263625E+03  0.00000000000E+00 0. -1.
        -13    1    3    3    0    0  0.32933372420E+02 -0.17759019099E+03 -0.18405504446E+03  0.25787427624E+03  0.00000000000E+00 0.  1.
         22    1    1    2    0    0 -0.24169043498E+03  0.70909307873E+03  0.85388537140E+03  0.11359346320E+04  0.00000000000E+00 0. -1.
<mgrwt>
<rscale>  0 0.23455708E+04</rscale>
<asrwt>0</asrwt>
<pdfrwt beam="1">  1        1 0.17334632E+00 0.23455708E+04</pdfrwt>
<pdfrwt beam="2">  1       -1 0.18780007E+00 0.23455708E+04</pdfrwt>
<totfact> 0.19958893E+00</totfact>
</mgrwt>
</event>
<event>
 6    1  0.1528034E-005  0.7387227E+03  0.7818608E-02  0.9653211E-01
         -1   -1    0    0    0  501 -0.00000000000E+00  0.00000000000E+00  0.63885406105E+02  0.63885406105E+02  0.00000000000E+00 0.  1.
          1   -1    0    0  501    0  0.00000000000E+00 -0.00000000000E+00 -0.21355083907E+04  0.21355083907E+04  0.00000000000E+00 0. -1.
         23    2    1    2    0    0  0.33661113561E+03  0.11380826136E+03 -0.12846511459E+04  0.13359217059E+04  0.89993669198E+02 0.  0.
         13    1    3    3    0    0  0.26663951014E+03  0.97485219441E+02 -0.11342363029E+04  0.11692270897E+04  0.00000000000E+00 0.  1.
        -13    1    3    3    0    0  0.69971625476E+02  0.16323041915E+02 -0.15041484303E+03  0.16669461621E+03  0.00000000000E+00 0. -1.
         22    1    1    2    0    0 -0.33661113561E+03 -0.11380826136E+03 -0.78697183864E+03  0.86347209091E+03  0.00000000000E+00 0.  1.
<mgrwt>
<rscale>  0 0.73872274E+03</rscale>
<asrwt>0</asrwt>
<pdfrwt beam="1">  1        1 0.32853973E+00 0.73872274E+03</pdfrwt>
<pdfrwt beam="2">  1       -1 0.98285247E-02 0.73872274E+03</pdfrwt>
<totfact> 0.16161076E+02</totfact>
</mgrwt>
</event>
<event>
 6    1  0.1528034E-005  0.3471672E+04  0.7818608E-02  0.8120536E-01
          2   -1    0    0  501    0  0.00000000000E+00  0.00000000000E+00  0.32464842474E+04  0.32464842474E+04  0.00000000000E+00 0. -1.
         -2   -1    0    0    0  501 -0.00000000000E+00 -0.00000000000E+00 -0.92811994987E+03  0.92811994987E+03  0.00000000000E+00 0.  1.
         23    2    1    2    0    0  0.65658559630E+03 -0.29746609212E+03 -0.73717106655E+03  0.10351954819E+04  0.92832015370E+02 0.  0.
         13    1    3    3    0    0  0.52960397896E+03 -0.23871979940E+03 -0.53788509577E+03  0.79169937060E+03  0.00000000000E+00 0.  1.
        -13    1    3    3    0    0  0.12698161735E+03 -0.58746292722E+02 -0.19928597078E+03  0.24349611126E+03  0.00000000000E+00 0. -1.
         22    1    1    2    0    0 -0.65658559630E+03  0.29746609212E+03  0.30555353641E+04  0.31394087154E+04  0.00000000000E+00 0. -1.
<mgrwt>
<rscale>  0 0.34716721E+04</rscale>
<asrwt>0</asrwt>
<pdfrwt beam="1">  1        2 0.49945911E+00 0.34716721E+04</pdfrwt>
<pdfrwt beam="2">  1       -2 0.14278769E+00 0.34716721E+04</pdfrwt>
<totfact> 0.33926274E-01</totfact>
</mgrwt>
</event>
<event>
 6    1  0.1528034E-005  0.3134620E+04  0.7818608E-02  0.8206301E-01
         -2   -1    0    0    0  501 -0.00000000000E+00  0.00000000000E+00  0.27828807785E+04  0.27828807785E+04  0.00000000000E+00 0.  1.
          2   -1    0    0  501    0  0.00000000000E+00 -0.00000000000E+00 -0.88270416532E+03  0.88270416532E+03  0.00000000000E+00 0. -1.
         23    2    1    2    0    0  0.10423498338E+04 -0.27523981846E+03 -0.37731281111E+03  0.11458214209E+04  0.91058429611E+02 0.  0.
         13    1    3    3    0    0  0.71115949584E+03 -0.15313861076E+03 -0.28191146468E+03  0.78017519606E+03  0.00000000000E+00 0. -1.
        -13    1    3    3    0    0  0.33119033793E+03 -0.12210120769E+03 -0.95401346427E+02  0.36564622486E+03  0.00000000000E+00 0.  1.
         22    1    1    2    0    0 -0.10423498338E+04  0.27523981846E+03  0.22774894243E+04  0.25197635229E+04  0.00000000000E+00 0.  1.
<mgrwt>
<rscale>  0 0.31346199E+04</rscale>
<asrwt>0</asrwt>
<pdfrwt beam="1">  1        2 0.13580064E+00 0.31346199E+04</pdfrwt>
<pdfrwt beam="2">  1       -2 0.42813550E+00 0.31346199E+04</pdfrwt>
<totfact> 0.12341292E-01</totfact>
</mgrwt>
</event>
<event>
 6    1  0.1528034E-005  0.2171026E+04  0.7818608E-02  0.8530585E-01
         -1   -1    0    0    0  501 -0.00000000000E+00  0.00000000000E+00  0.98700629512E+03  0.98700629512E+03  0.00000000000E+00 0.  1.
          1   -1    0    0  501    0  0.00000000000E+00 -0.00000000000E+00 -0.11938514623E+04  0.11938514623E+04  0.00000000000E+00 0. -1.
         23    2    1    2    0    0 -0.53724102505E+02 -0.10568532529E+04 -0.33781390286E+03  0.11145661055E+04  0.91182746348E+02 0.  0.
         13    1    3    3    0    0  0.65346410077E+01 -0.47175536458E+03 -0.18562714682E+03  0.50700420430E+03  0.00000000000E+00 0. -1.
        -13    1    3    3    0    0 -0.60258743513E+02 -0.58509788829E+03 -0.15218675604E+03  0.60756190118E+03  0.00000000000E+00 0.  1.
         22    1    1    2    0    0  0.53724102505E+02  0.10568532529E+04  0.13096873568E+03  0.10662916519E+04  0.00000000000E+00 0.  1.
<mgrwt>
<rscale>  0 0.21710264E+04</rscale>
<asrwt>0</asrwt>
<pdfrwt beam="1">  1        1 0.18366946E+00 0.21710264E+04</pdfrwt>
<pdfrwt beam="2">  1       -1 0.15184712E+00 0.21710264E+04</pdfrwt>
<totfact> 0.33312906E+00</totfact>
</mgrwt>
</event>
<event>
 6    1  0.1528034E-005  0.2996680E+04  0.7818608E-02  0.8244680E-01
         -2   -1    0    0    0  501 -0.00000000000E+00  0.00000000000E+00  0.89620291249E+03  0.89620291249E+03  0.00000000000E+00 0.  1.
          2   -1    0    0  501    0  0.00000000000E+00 -0.00000000000E+00 -0.25050387593E+04  0.25050387593E+04  0.00000000000E+00 0. -1.
         23    2    1    2    0    0 -0.70827790138E+03  0.49540889980E+03 -0.21923682027E+04  0.23583622090E+04  0.91139503916E+02 0.  0.
         13    1    3    3    0    0 -0.19495428636E+03  0.18184232448E+03 -0.72691979096E+03  0.77426493349E+03  0.00000000000E+00 0. -1.
        -13    1    3    3    0    0 -0.51332361502E+03  0.31356657532E+03 -0.14654484117E+04  0.15840972755E+04  0.00000000000E+00 0.  1.
         22    1    1    2    0    0  0.70827790138E+03 -0.49540889980E+03  0.58353235586E+03  0.10428794628E+04  0.00000000000E+00 0.  1.
<mgrwt>
<rscale>  0 0.29966802E+04</rscale>
<asrwt>0</asrwt>
<pdfrwt beam="1">  1        2 0.38539058E+00 0.29966802E+04</pdfrwt>
<pdfrwt beam="2">  1       -2 0.13787737E+00 0.29966802E+04</pdfrwt>
<totfact> 0.11061425E+00</totfact>
</mgrwt>
</event>
<event>
 6    1  0.1528034E-005  0.4455823E+04  0.7818608E-02  0.7918417E-01
          1   -1    0    0  501    0  0.00000000000E+00  0.00000000000E+00  0.21849897596E+04  0.21849897596E+04  0.00000000000E+00 0. -1.
         -1   -1    0    0    0  501 -0.00000000000E+00 -0.00000000000E+00 -0.22716764057E+04  0.22716764057E+04  0.00000000000E+00 0.  1.
         23    2    1    2    0    0 -0.11165303316E+04 -0.16829564725E+04  0.89508310553E+03  0.22110361167E+04  0.92328075853E+02 0.  0.
         11    1    3    3    0    0 -0.43709289677E+03 -0.69810042371E+03  0.40864755000E+03  0.91944941247E+03  0.00000000000E+00 0.  1.
        -11    1    3    3    0    0 -0.67943743487E+03 -0.98485604879E+03  0.48643555553E+03  0.12915867042E+04  0.00000000000E+00 0. -1.
         22    1    1    2    0    0  0.11165303316E+04  0.16829564725E+04 -0.98176975163E+03  0.22456300486E+04  0.00000000000E+00 0.  1.
<mgrwt>
<rscale>  0 0.44558230E+04</rscale>
<asrwt>0</asrwt>
<pdfrwt beam="1">  1        1 0.33615227E+00 0.44558230E+04</pdfrwt>
<pdfrwt beam="2">  1       -1 0.34948868E+00 0.44558230E+04</pdfrwt>
<totfact> 0.26338327E-02</totfact>
</mgrwt>
</event>
<event>
 6    1  0.1528034E-005  0.5520704E+03  0.7818608E-02  0.1001016E+00
         -2   -1    0    0    0  501 -0.00000000000E+00  0.00000000000E+00  0.26389436923E+03  0.26389436923E+03  0.00000000000E+00 0.  1.
          2   -1    0    0  501    0  0.00000000000E+00 -0.00000000000E+00 -0.28873454899E+03  0.28873454899E+03  0.00000000000E+00 0. -1.
         23    2    1    2    0    0 -0.17135169878E+03 -0.13664629568E+03 -0.16792661316E+03  0.29088984543E+03  0.91563857330E+02 0.  0.
         11    1    3    3    0    0 -0.61636381486E+02 -0.36698268889E+02 -0.71596619139E+01  0.72090687477E+02  0.00000000000E+00 0.  1.
        -11    1    3    3    0    0 -0.10971531730E+03 -0.99948026795E+02 -0.16076695125E+03  0.21879915796E+03  0.00000000000E+00 0. -1.
         22    1    1    2    0    0  0.17135169878E+03  0.13664629568E+03  0.14308643340E+03  0.26173907279E+03  0.00000000000E+00 0.  1.
<mgrwt>
<rscale>  0 0.55207036E+03</rscale>
<asrwt>0</asrwt>
<pdfrwt beam="1">  1        2 0.44420700E-01 0.55207036E+03</pdfrwt>
<pdfrwt beam="2">  1       -2 0.40599134E-01 0.55207036E+03</pdfrwt>
<totfact> 0.66223901E+02</totfact>
</mgrwt>
</event>
<event>
 6    1  0.1528034E-005  0.2397187E+04  0.7818608E-02  0.8440557E-01
         -1   -1    0    0    0  501 -0.00000000000E+00  0.00000000000E+00  0.50667478216E+03  0.50667478216E+03  0.00000000000E+00 0.  1.
          1   -1    0    0  501    0  0.00000000000E+00 -0.00000000000E+00 -0.28354012064E+04  0.28354012064E+04  0.00000000000E+00 0. -1.
         23    2    1    2    0    0 -0.34825809840E+03 -0.10900630549E+04 -0.67721130308E+03  0.13328414671E+04  0.91269165930E+02 0.  0.
         11    1    3    3    0    0 -0.32824006900E+03 -0.92195149043E+03 -0.58115982169E+03  0.11381927921E+04  0.00000000000E+00 0. -1.
        -11    1    3    3    0    0 -0.20018029399E+02 -0.16811156447E+03 -0.96051481392E+02  0.19464867502E+03  0.00000000000E+00 0.  1.
         22    1    1    2    0    0  0.34825809840E+03  0.10900630549E+04 -0.16515151211E+04  0.20092345214E+04  0.00000000000E+00 0.  1.
<mgrwt>
<rscale>  0 0.23971869E+04</rscale>
<asrwt>0</asrwt>
<pdfrwt beam="1">  1        1 0.43621556E+00 0.23971869E+04</pdfrwt>
<pdfrwt beam="2">  1       -1 0.77949968E-01 0.23971869E+04</pdfrwt>
<totfact> 0.11616691E+00</totfact>
</mgrwt>
</event>
<event>
 6    1  0.1528034E-005  0.1512142E+04  0.7818608E-02  0.8876418E-01
         -2   -1    0    0    0  501 -0.00000000000E+00  0.00000000000E+00  0.22938267466E+03  0.22938267466E+03  0.00000000000E+00 0.  1.
          2   -1    0    0  501    0  0.00000000000E+00 -0.00000000000E+00 -0.24920961118E+04  0.24920961118E+04  0.00000000000E+00 0. -1.
         23    2    1    2    0    0 -0.34279057442E+03  0.66212885352E+03 -0.13300995436E+04  0.15274567301E+04  0.89661976209E+02 0.  0.
         11    1    3    3    0    0 -0.50545003569E+02  0.15290286506E+03 -0.34342024895E+03  0.37930403494E+03  0.00000000000E+00 0. -1.
        -11    1    3    3    0    0 -0.29224557085E+03  0.50922598846E+03 -0.98667929462E+03  0.11481526952E+04  0.00000000000E+00 0.  1.
         22    1    1    2    0    0  0.34279057442E+03 -0.66212885352E+03 -0.93261389361E+03  0.11940220564E+04  0.00000000000E+00 0. -1.
<mgrwt>
<rscale>  0 0.15121424E+04</rscale>
<asrwt>0</asrwt>
<pdfrwt beam="1">  1        2 0.38339942E+00 0.15121424E+04</pdfrwt>
<pdfrwt beam="2">  1       -2 0.35289641E-01 0.15121424E+04</pdfrwt>
<totfact> 0.25676352E+01</totfact>
</mgrwt>
</event>
<event>
 6    1  0.1528034E-005  0.1267554E+04  0.7818608E-02  0.9055698E-01
          2   -1    0    0  501    0  0.00000000000E+00  0.00000000000E+00  0.18744575515E+04  0.18744575515E+04  0.00000000000E+00 0.  1.
         -2   -1    0    0    0  501 -0.00000000000E+00 -0.00000000000E+00 -0.21428787393E+03  0.21428787393E+03  0.00000000000E+00 0. -1.
         23    2    1    2    0    0  0.51650129141E+03  0.35838558577E+03  0.75434669193E+03  0.98614436729E+03  0.90708155127E+02 0.  0.
         11    1    3    3    0    0  0.18272775122E+03  0.10479536367E+03  0.19409483120E+03  0.28643376688E+03  0.00000000000E+00 0. -1.
        -11    1    3    3    0    0  0.33377354019E+03  0.25359022210E+03  0.56025186073E+03  0.69971060041E+03  0.00000000000E+00 0.  1.
         22    1    1    2    0    0 -0.51650129141E+03 -0.35838558577E+03  0.90582298567E+03  0.11026010582E+04  0.00000000000E+00 0. -1.
<mgrwt>
<rscale>  0 0.12675544E+04</rscale>
<asrwt>0</asrwt>
<pdfrwt beam="1">  1        2 0.28837807E+00 0.12675544E+04</pdfrwt>
<pdfrwt beam="2">  1       -2 0.32967366E-01 0.12675544E+04</pdfrwt>
<totfact> 0.66199831E+01</totfact>
</mgrwt>
</event>
<event>
 6    1  0.1528034E-005  0.2614053E+04  0.7818608E-02  0.8363443E-01
         -1   -1    0    0    0  501 -0.00000000000E+00  0.00000000000E+00  0.93389300998E+03  0.93389300998E+03  0.00000000000E+00 0.  1.
          1   -1    0    0  501    0  0.00000000000E+00 -0.00000000000E+00 -0.18292442597E+04  0.18292442597E+04  0.00000000000E+00 0. -1.
         23    2    1    2    0    0  0.11183161890E+04 -0.67309364981E+02 -0.11565313660E+04  0.16127561579E+04  0.90862396479E+02 0.  0.
         11    1    3    3    0    0  0.10086549195E+04 -0.85647249122E+02 -0.10265456122E+04  0.14417059659E+04  0.00000000000E+00 0. -1.
        -11    1    3    3    0    0  0.10966126948E+03  0.18337884141E+02 -0.12998575375E+03  0.17105019203E+03  0.00000000000E+00 0.  1.
         22    1    1    2    0    0 -0.11183161890E+04  0.67309364981E+02  0.26118011626E+03  0.11503811118E+04  0.00000000000E+00 0.  1.
<mgrwt>
<rscale>  0 0.26140531E+04</rscale>
<asrwt>0</asrwt>
<pdfrwt beam="1">  1        1 0.28142219E+00 0.26140531E+04</pdfrwt>
<pdfrwt beam="2">  1       -1 0.14367585E+00 0.26140531E+04</pdfrwt>
<totfact> 0.13401932E+00</totfact>
</mgrwt>
</event>
<event>
 6    1  0.1528034E-005  0.8236725E+03  0.7818608E-02  0.9526370E-01
          2   -1    0    0  501    0  0.00000000000E+00  0.00000000000E+00  0.43773984042E+03  0.43773984042E+03  0.00000000000E+00 0. -1.
         -2   -1    0    0    0  501 -0.00000000000E+00 -0.00000000000E+00 -0.38746556765E+03  0.38746556765E+03  0.00000000000E+00 0.  1.
         23    2    1    2    0    0  0.16887040835E+03 -0.32534503329E+03  0.20499196785E+03  0.42733084155E+03  0.78888121763E+02 0.  0.
         13    1    3    3    0    0  0.76343262792E+02 -0.80867868301E+02  0.39852377560E+02  0.11813601438E+03  0.00000000000E+00 0.  1.
        -13    1    3    3    0    0  0.92527145558E+02 -0.24447716499E+03  0.16513959029E+03  0.30919482717E+03  0.00000000000E+00 0. -1.
         22    1    1    2    0    0 -0.16887040835E+03  0.32534503329E+03 -0.15471769508E+03  0.39787456651E+03  0.00000000000E+00 0.  1.
<mgrwt>
<rscale>  0 0.82367255E+03</rscale>
<asrwt>0</asrwt>
<pdfrwt beam="1">  1        2 0.67344591E-01 0.82367255E+03</pdfrwt>
<pdfrwt beam="2">  1       -2 0.59610087E-01 0.82367255E+03</pdfrwt>
<totfact> 0.18978240E+02</totfact>
</mgrwt>
</event>
<event>
 6    1  0.1528034E-005  0.8081127E+03  0.7818608E-02  0.9548348E-01
         -2   -1    0    0    0  501 -0.00000000000E+00  0.00000000000E+00  0.68868473601E+02  0.68868473601E+02  0.00000000000E+00 0.  1.
          2   -1    0    0  501    0  0.00000000000E+00 -0.00000000000E+00 -0.23706283108E+04  0.23706283108E+04  0.00000000000E+00 0. -1.
         23    2    1    2    0    0  0.48861040511E+02 -0.39577018147E+03 -0.11772930866E+04  0.12464138405E+04  0.92233465820E+02 0.  0.
         11    1    3    3    0    0  0.34973347866E+02 -0.32307866791E+03 -0.10503690808E+04  0.10994899575E+04  0.00000000000E+00 0.  1.
        -11    1    3    3    0    0  0.13887692645E+02 -0.72691513564E+02 -0.12692400580E+03  0.14692388301E+03  0.00000000000E+00 0. -1.
         22    1    1    2    0    0 -0.48861040511E+02  0.39577018147E+03 -0.11244667506E+04  0.11930829439E+04  0.00000000000E+00 0.  1.
<mgrwt>
<rscale>  0 0.80811275E+03</rscale>
<asrwt>0</asrwt>
<pdfrwt beam="1">  1        2 0.36471198E+00 0.80811275E+03</pdfrwt>
<pdfrwt beam="2">  1       -2 0.10595152E-01 0.80811275E+03</pdfrwt>
<totfact> 0.26548960E+02</totfact>
</mgrwt>
</event>
<event>
 6    1  0.1528034E-005  0.9856329E+03  0.7818608E-02  0.9324444E-01
         -1   -1    0    0    0  501 -0.00000000000E+00  0.00000000000E+00  0.45845401053E+03  0.45845401053E+03  0.00000000000E+00 0.  1.
          1   -1    0    0  501    0  0.00000000000E+00 -0.00000000000E+00 -0.52975445601E+03  0.52975445601E+03  0.00000000000E+00 0. -1.
         23    2    1    2    0    0 -0.50862715576E+02  0.92361095067E+02 -0.51415326923E+03  0.53297642547E+03  0.92696807569E+02 0.  0.
         13    1    3    3    0    0 -0.71195215422E+02  0.74627606757E+02 -0.30227249726E+03  0.31938487908E+03  0.00000000000E+00 0.  1.
        -13    1    3    3    0    0  0.20332499846E+02  0.17733488310E+02 -0.21188077197E+03  0.21359154639E+03  0.00000000000E+00 0. -1.
         22    1    1    2    0    0  0.50862715576E+02 -0.92361095067E+02  0.44285282374E+03  0.45523204107E+03  0.00000000000E+00 0.  1.
<mgrwt>
<rscale>  0 0.98563290E+03</rscale>
<asrwt>0</asrwt>
<pdfrwt beam="1">  1        1 0.81500686E-01 0.98563290E+03</pdfrwt>
<pdfrwt beam="2">  1       -1 0.70531386E-01 0.98563290E+03</pdfrwt>
<totfact> 0.83396331E+01</totfact>
</mgrwt>
</event>
<event>
 6    1  0.1528034E-005  0.2746274E+04  0.7818608E-02  0.8320145E-01
         -1   -1    0    0    0  501 -0.00000000000E+00  0.00000000000E+00  0.75483065301E+03  0.75483065301E+03  0.00000000000E+00 0.  1.
          1   -1    0    0  501    0  0.00000000000E+00 -0.00000000000E+00 -0.24979179257E+04  0.24979179257E+04  0.00000000000E+00 0. -1.
         23    2    1    2    0    0  0.10752354209E+04 -0.80508916318E+03 -0.12012779746E+04  0.18043504682E+04  0.91170549366E+02 0.  0.
         11    1    3    3    0    0  0.44104231521E+03 -0.37654622825E+03 -0.55248464273E+03  0.80096483460E+03  0.00000000000E+00 0. -1.
        -11    1    3    3    0    0  0.63419310565E+03 -0.42854293493E+03 -0.64879333184E+03  0.10033856336E+04  0.00000000000E+00 0.  1.
         22    1    1    2    0    0 -0.10752354209E+04  0.80508916318E+03 -0.54180929816E+03  0.14483981105E+04  0.00000000000E+00 0. -1.
<mgrwt>
<rscale>  0 0.27462739E+04</rscale>
<asrwt>0</asrwt>
<pdfrwt beam="1">  1        1 0.38429507E+00 0.27462739E+04</pdfrwt>
<pdfrwt beam="2">  1       -1 0.11612779E+00 0.27462739E+04</pdfrwt>
<totfact> 0.79225601E-01</totfact>
</mgrwt>
</event>
<event>
 6    1  0.1528034E-005  0.3109337E+04  0.7818608E-02  0.8213180E-01
          2   -1    0    0  501    0  0.00000000000E+00  0.00000000000E+00  0.14949852278E+04  0.14949852278E+04  0.00000000000E+00 0.  1.
         -2   -1    0    0    0  501 -0.00000000000E+00 -0.00000000000E+00 -0.16167344524E+04  0.16167344524E+04  0.00000000000E+00 0. -1.
         23    2    1    2    0    0  0.10107679300E+04 -0.47317068075E+03  0.10197727772E+04  0.15152815255E+04  0.10295281966E+03 0.  0.
         11    1    3    3    0    0  0.77294570818E+03 -0.37321475150E+03  0.83901224680E+03  0.12002815790E+04  0.00000000000E+00 0. -1.
        -11    1    3    3    0    0  0.23782222184E+03 -0.99955929247E+02  0.18076053036E+03  0.31499994655E+03  0.00000000000E+00 0.  1.
         22    1    1    2    0    0 -0.10107679300E+04  0.47317068075E+03 -0.11415220017E+04  0.15964381547E+04  0.00000000000E+00 0. -1.
<mgrwt>
<rscale>  0 0.31093370E+04</rscale>
<asrwt>0</asrwt>
<pdfrwt beam="1">  1        2 0.22999773E+00 0.31093370E+04</pdfrwt>
<pdfrwt beam="2">  1       -2 0.24872838E+00 0.31093370E+04</pdfrwt>
<totfact> 0.70926067E-01</totfact>
</mgrwt>
</event>
<event>
 6    1  0.1528034E-005  0.1987294E+04  0.7818608E-02  0.8612584E-01
          1   -1    0    0  501    0  0.00000000000E+00  0.00000000000E+00  0.12124986248E+04  0.12124986248E+04  0.00000000000E+00 0. -1.
         -1   -1    0    0    0  501 -0.00000000000E+00 -0.00000000000E+00 -0.81429702391E+03  0.81429702391E+03  0.00000000000E+00 0.  1.
         23    2    1    2    0    0  0.81976446140E+03 -0.49191537865E+03 -0.68807074872E+02  0.96279770924E+03  0.90832281938E+02 0.  0.
         11    1    3    3    0    0  0.23196671148E+03 -0.95285883391E+02 -0.31117636654E+02  0.25269796620E+03  0.00000000000E+00 0.  1.
        -11    1    3    3    0    0  0.58779774992E+03 -0.39662949526E+03 -0.37689438217E+02  0.71009974304E+03  0.00000000000E+00 0. -1.
         22    1    1    2    0    0 -0.81976446140E+03  0.49191537865E+03  0.46700867575E+03  0.10639979395E+04  0.00000000000E+00 0. -1.
<mgrwt>
<rscale>  0 0.19872937E+04</rscale>
<asrwt>0</asrwt>
<pdfrwt beam="1">  1        1 0.18653825E+00 0.19872937E+04</pdfrwt>
<pdfrwt beam="2">  1       -1 0.12527647E+00 0.19872937E+04</pdfrwt>
<totfact> 0.54083952E+00</totfact>
</mgrwt>
</event>
<event>
 6    1  0.1528034E-005  0.2664756E+04  0.7818608E-02  0.8346532E-01
          2   -1    0    0  501    0  0.00000000000E+00  0.00000000000E+00  0.22424490597E+04  0.22424490597E+04  0.00000000000E+00 0. -1.
         -2   -1    0    0    0  501 -0.00000000000E+00 -0.00000000000E+00 -0.79164811505E+03  0.79164811505E+03  0.00000000000E+00 0.  1.
         23    2    1    2    0    0  0.11598184415E+04 -0.65238586433E+03  0.70247758068E+03  0.15074099146E+04  0.89575476925E+02 0.  0.
         11    1    3    3    0    0  0.78548293634E+03 -0.45618125052E+03  0.52385929641E+03  0.10485768160E+04  0.00000000000E+00 0. -1.
        -11    1    3    3    0    0  0.37433550515E+03 -0.19620461381E+03  0.17861828427E+03  0.45883309861E+03  0.00000000000E+00 0.  1.
         22    1    1    2    0    0 -0.11598184415E+04  0.65238586433E+03  0.74832336396E+03  0.15266872601E+04  0.00000000000E+00 0. -1.
<mgrwt>
<rscale>  0 0.26647556E+04</rscale>
<asrwt>0</asrwt>
<pdfrwt beam="1">  1        2 0.34499216E+00 0.26647556E+04</pdfrwt>
<pdfrwt beam="2">  1       -2 0.12179202E+00 0.26647556E+04</pdfrwt>
<totfact> 0.22001002E+00</totfact>
</mgrwt>
</event>
<event>
 6    1  0.1528034E-005  0.4682076E+04  0.7818608E-02  0.7879514E-01
         -2   -1    0    0    0  501 -0.00000000000E+00  0.00000000000E+00  0.24316151166E+04  0.24316151166E+04  0.00000000000E+00 0. -1.
          2   -1    0    0  501    0  0.00000000000E+00 -0.00000000000E+00 -0.22538348085E+04  0.22538348085E+04  0.00000000000E+00 0.  1.
         23    2    1    2    0    0 -0.46668449302E+02  0.19055109750E+04  0.14475256362E+04  0.23951653973E+04  0.91306038917E+02 0.  0.
         11    1    3    3    0    0  0.26399546051E+02  0.47250388026E+03  0.34573800346E+03  0.58608158129E+03  0.00000000000E+00 0. -1.
        -11    1    3    3    0    0 -0.73067995353E+02  0.14330070947E+04  0.11017876328E+04  0.18090838160E+04  0.00000000000E+00 0.  1.
         22    1    1    2    0    0  0.46668449302E+02 -0.19055109750E+04 -0.12697453282E+04  0.22902845278E+04  0.00000000000E+00 0.  1.
<mgrwt>
<rscale>  0 0.46820759E+04</rscale>
<asrwt>0</asrwt>
<pdfrwt beam="1">  1        2 0.34674382E+00 0.46820759E+04</pdfrwt>
<pdfrwt beam="2">  1       -2 0.37409463E+00 0.46820759E+04</pdfrwt>
<totfact> 0.39294777E-02</totfact>
</mgrwt>
</event>
<event>
 6    1  0.1528034E-005  0.1179434E+04  0.7818608E-02  0.9131050E-01
          2   -1    0    0  501    0  0.00000000000E+00  0.00000000000E+00  0.18394362657E+04  0.18394362657E+04  0.00000000000E+00 0. -1.
         -2   -1    0    0    0  501 -0.00000000000E+00 -0.00000000000E+00 -0.18906137224E+03  0.18906137224E+03  0.00000000000E+00 0.  1.
         23    2    1    2    0    0  0.47164270586E+03  0.19826311206E+03  0.33900835676E+03  0.62086228134E+03  0.93745415099E+02 0.  0.
         13    1    3    3    0    0  0.72404703360E+02  0.73492521790E+01  0.79788822682E+02  0.10799402206E+03  0.00000000000E+00 0. -1.
        -13    1    3    3    0    0  0.39923800250E+03  0.19091385988E+03  0.25921953408E+03  0.51286825928E+03  0.00000000000E+00 0.  1.
         22    1    1    2    0    0 -0.47164270586E+03 -0.19826311206E+03  0.13113665367E+04  0.14076353566E+04  0.00000000000E+00 0. -1.
<mgrwt>
<rscale>  0 0.11794343E+04</rscale>
<asrwt>0</asrwt>
<pdfrwt beam="1">  1        2 0.28299018E+00 0.11794343E+04</pdfrwt>
<pdfrwt beam="2">  1       -2 0.29086366E-01 0.11794343E+04</pdfrwt>
<totfact> 0.88102459E+01</totfact>
</mgrwt>
</event>
<event>
 6    1  0.1528034E-005  0.4635631E+04  0.7818608E-02  0.7887313E-01
         -2   -1    0    0    0  501 -0.00000000000E+00  0.00000000000E+00  0.24558688181E+04  0.24558688181E+04  0.00000000000E+00 0.  1.
          2   -1    0    0  501    0  0.00000000000E+00 -0.00000000000E+00 -0.21875227132E+04  0.21875227132E+04  0.00000000000E+00 0. -1.
         23    2    1    2    0    0 -0.13182173089E+04 -0.19012997182E+04  0.25881040202E+03  0.23297951055E+04  0.91240986993E+02 0.  0.
         11    1    3    3    0    0 -0.53444446150E+03 -0.76018476818E+03  0.14858142933E+03  0.94105696179E+03  0.00000000000E+00 0. -1.
        -11    1    3    3    0    0 -0.78377284741E+03 -0.11411149500E+04  0.11022897269E+03  0.13887381437E+04  0.00000000000E+00 0.  1.
         22    1    1    2    0    0  0.13182173089E+04  0.19012997182E+04  0.95357029540E+01  0.23135964258E+04  0.00000000000E+00 0.  1.
<mgrwt>
<rscale>  0 0.46356311E+04</rscale>
<asrwt>0</asrwt>
<pdfrwt beam="1">  1        2 0.33654195E+00 0.46356311E+04</pdfrwt>
<pdfrwt beam="2">  1       -2 0.37782597E+00 0.46356311E+04</pdfrwt>
<totfact> 0.40675961E-02</totfact>
</mgrwt>
</event>
<event>
 6    1  0.1528034E-005  0.3215329E+04  0.7818608E-02  0.8184781E-01
          1   -1    0    0  501    0  0.00000000000E+00  0.00000000000E+00  0.29096999163E+04  0.29096999163E+04  0.00000000000E+00 0. -1.
         -1   -1    0    0    0  501 -0.00000000000E+00 -0.00000000000E+00 -0.88826523335E+03  0.88826523335E+03  0.00000000000E+00 0.  1.
         23    2    1    2    0    0 -0.13333037653E+04  0.64728468711E+03  0.27997277154E+03  0.15111844462E+04  0.92829311701E+02 0.  0.
         11    1    3    3    0    0 -0.12644648723E+03  0.83177606361E+02  0.82993448073E+01  0.15157871703E+03  0.00000000000E+00 0. -1.
        -11    1    3    3    0    0 -0.12068572780E+04  0.56410708075E+03  0.27167342673E+03  0.13596057292E+04  0.00000000000E+00 0.  1.
         22    1    1    2    0    0  0.13333037653E+04 -0.64728468711E+03  0.17414619114E+04  0.22867807034E+04  0.00000000000E+00 0. -1.
<mgrwt>
<rscale>  0 0.32153291E+04</rscale>
<asrwt>0</asrwt>
<pdfrwt beam="1">  1        1 0.44764614E+00 0.32153291E+04</pdfrwt>
<pdfrwt beam="2">  1       -1 0.13665619E+00 0.32153291E+04</pdfrwt>
<totfact> 0.25911343E-01</totfact>
</mgrwt>
</event>
<event>
 6    1  0.1528034E-005  0.3272343E+04  0.7818608E-02  0.8169969E-01
          2   -1    0    0  501    0  0.00000000000E+00  0.00000000000E+00  0.14165044718E+04  0.14165044718E+04  0.00000000000E+00 0. -1.
         -2   -1    0    0    0  501 -0.00000000000E+00 -0.00000000000E+00 -0.18899035724E+04  0.18899035724E+04  0.00000000000E+00 0.  1.
         23    2    1    2    0    0  0.14728549014E+04  0.60395322016E+02 -0.95130304570E+03  0.17567818518E+04  0.91410253347E+02 0.  0.
         13    1    3    3    0    0  0.39968971564E+03  0.51176634771E+02 -0.28512183331E+03  0.49362473253E+03  0.00000000000E+00 0. -1.
        -13    1    3    3    0    0  0.10731651858E+04  0.92186872446E+01 -0.66618121239E+03  0.12631571192E+04  0.00000000000E+00 0.  1.
         22    1    1    2    0    0 -0.14728549014E+04 -0.60395322016E+02  0.47790394507E+03  0.15496261924E+04  0.00000000000E+00 0. -1.
<mgrwt>
<rscale>  0 0.32723428E+04</rscale>
<asrwt>0</asrwt>
<pdfrwt beam="1">  1        2 0.21792376E+00 0.32723428E+04</pdfrwt>
<pdfrwt beam="2">  1       -2 0.29075440E+00 0.32723428E+04</pdfrwt>
<totfact> 0.42907137E-01</totfact>
</mgrwt>
</event>
<event>
 6    1  0.1528034E-005  0.9185620E+03  0.7818608E-02  0.9402671E-01
          2   -1    0    0  501    0  0.00000000000E+00  0.00000000000E+00  0.12831420822E+04  0.12831420822E+04  0.00000000000E+00 0. -1.
         -2   -1    0    0    0  501 -0.00000000000E+00 -0.00000000000E+00 -0.16439258956E+03  0.16439258956E+03  0.00000000000E+00 0.  1.
         23    2    1    2    0    0 -0.67052827756E+02  0.32598277682E+03  0.10528970922E+04  0.11082746076E+04  0.94442927346E+02 0.  0.
         11    1    3    3    0    0 -0.50499056190E+02  0.15501852358E+03  0.65309192136E+03  0.67313442571E+03  0.00000000000E+00 0. -1.
        -11    1    3    3    0    0 -0.16553771566E+02  0.17096425324E+03  0.39980517085E+03  0.43514018187E+03  0.00000000000E+00 0.  1.
         22    1    1    2    0    0  0.67052827756E+02 -0.32598277682E+03  0.65852400399E+02  0.33926006415E+03  0.00000000000E+00 0.  1.
<mgrwt>
<rscale>  0 0.91856203E+03</rscale>
<asrwt>0</asrwt>
<pdfrwt beam="1">  1        2 0.19740647E+00 0.91856203E+03</pdfrwt>
<pdfrwt beam="2">  1       -2 0.25291168E-01 0.91856203E+03</pdfrwt>
<totfact> 0.23768694E+02</totfact>
</mgrwt>
</event>
<event>
 6    1  0.1528034E-005  0.1029331E+04  0.7818608E-02  0.9276948E-01
          2   -1    0    0  501    0  0.00000000000E+00  0.00000000000E+00  0.13740033399E+04  0.13740033399E+04  0.00000000000E+00 0. -1.
         -2   -1    0    0    0  501 -0.00000000000E+00 -0.00000000000E+00 -0.19278011244E+03  0.19278011244E+03  0.00000000000E+00 0.  1.
         23    2    1    2    0    0  0.21737043246E+03  0.35850382772E+03  0.10388056795E+04  0.11239994673E+04  0.92101375830E+02 0.  0.
         11    1    3    3    0    0  0.49339133117E+02  0.13690716945E+03  0.27483123248E+03  0.31098252274E+03  0.00000000000E+00 0. -1.
        -11    1    3    3    0    0  0.16803129934E+03  0.22159665828E+03  0.76397444697E+03  0.81301694456E+03  0.00000000000E+00 0.  1.
         22    1    1    2    0    0 -0.21737043246E+03 -0.35850382772E+03  0.14241754796E+03  0.44278398499E+03  0.00000000000E+00 0.  1.
<mgrwt>
<rscale>  0 0.10293309E+04</rscale>
<asrwt>0</asrwt>
<pdfrwt beam="1">  1        2 0.21138512E+00 0.10293309E+04</pdfrwt>
<pdfrwt beam="2">  1       -2 0.29658480E-01 0.10293309E+04</pdfrwt>
<totfact> 0.15621406E+02</totfact>
</mgrwt>
</event>
<event>
 6    1  0.1528034E-005  0.6713647E+04  0.7818608E-02  0.7607710E-01
         -2   -1    0    0    0  501 -0.00000000000E+00  0.00000000000E+00  0.43106020444E+04  0.43106020444E+04  0.00000000000E+00 0. -1.
          2   -1    0    0  501    0  0.00000000000E+00 -0.00000000000E+00 -0.26140812698E+04  0.26140812698E+04  0.00000000000E+00 0.  1.
         23    2    1    2    0    0  0.20433294454E+04  0.94926623793E+03 -0.17174942427E+04  0.28342309980E+04  0.82324135450E+02 0.  0.
         11    1    3    3    0    0  0.12113008412E+04  0.51895686395E+03 -0.99339183401E+03  0.16502706719E+04  0.00000000000E+00 0.  1.
        -11    1    3    3    0    0  0.83202860420E+03  0.43030937398E+03 -0.72410240868E+03  0.11839603261E+04  0.00000000000E+00 0. -1.
         22    1    1    2    0    0 -0.20433294454E+04 -0.94926623793E+03  0.34140150173E+04  0.40904523162E+04  0.00000000000E+00 0. -1.
<mgrwt>
<rscale>  0 0.67136470E+04</rscale>
<asrwt>0</asrwt>
<pdfrwt beam="1">  1        2 0.40216635E+00 0.67136470E+04</pdfrwt>
<pdfrwt beam="2">  1       -2 0.66316955E+00 0.67136470E+04</pdfrwt>
<totfact> 0.59353835E-04</totfact>
</mgrwt>
</event>
<event>
 6    1  0.1528034E-005  0.1424622E+04  0.7818608E-02  0.8936186E-01
          1   -1    0    0  501    0  0.00000000000E+00  0.00000000000E+00  0.19568471593E+04  0.19568471593E+04  0.00000000000E+00 0. -1.
         -1   -1    0    0    0  501 -0.00000000000E+00 -0.00000000000E+00 -0.25928794843E+03  0.25928794843E+03  0.00000000000E+00 0.  1.
         23    2    1    2    0    0 -0.45741349904E+03  0.48493902302E+03  0.47515574097E+03  0.82377624293E+03  0.91876847362E+02 0.  0.
         11    1    3    3    0    0 -0.20928430473E+03  0.19605912188E+03  0.25592595657E+03  0.38436596458E+03  0.00000000000E+00 0. -1.
        -11    1    3    3    0    0 -0.24812919431E+03  0.28887990113E+03  0.21922978440E+03  0.43941027835E+03  0.00000000000E+00 0.  1.
         22    1    1    2    0    0  0.45741349904E+03 -0.48493902302E+03  0.12224034699E+04  0.13923588648E+04  0.00000000000E+00 0. -1.
<mgrwt>
<rscale>  0 0.14246219E+04</rscale>
<asrwt>0</asrwt>
<pdfrwt beam="1">  1        1 0.30105340E+00 0.14246219E+04</pdfrwt>
<pdfrwt beam="2">  1       -1 0.39890455E-01 0.14246219E+04</pdfrwt>
<totfact> 0.19005280E+01</totfact>
</mgrwt>
</event>
<event>
 6    1  0.1528034E-005  0.4265974E+04  0.7818608E-02  0.7952940E-01
         -2   -1    0    0    0  501 -0.00000000000E+00  0.00000000000E+00  0.14861925570E+04  0.14861925570E+04  0.00000000000E+00 0.  1.
          2   -1    0    0  501    0  0.00000000000E+00 -0.00000000000E+00 -0.30612673639E+04  0.30612673639E+04  0.00000000000E+00 0. -1.
         23    2    1    2    0    0  0.16990734290E+04  0.11794236899E+04 -0.23640133326E+03  0.20837356210E+04  0.90431135713E+02 0.  0.
         11    1    3    3    0    0  0.64264219957E+03  0.47337000201E+03 -0.53104459700E+02  0.79993014640E+03  0.00000000000E+00 0.  1.
        -11    1    3    3    0    0  0.10564312294E+04  0.70605368793E+03 -0.18329687356E+03  0.12838054746E+04  0.00000000000E+00 0. -1.
         22    1    1    2    0    0 -0.16990734290E+04 -0.11794236899E+04 -0.13386734736E+04  0.24637243000E+04  0.00000000000E+00 0. -1.
<mgrwt>
<rscale>  0 0.42659736E+04</rscale>
<asrwt>0</asrwt>
<pdfrwt beam="1">  1        2 0.47096420E+00 0.42659736E+04</pdfrwt>
<pdfrwt beam="2">  1       -2 0.22864501E+00 0.42659736E+04</pdfrwt>
<totfact> 0.10716062E-01</totfact>
</mgrwt>
</event>
<event>
 6    1  0.1528034E-005  0.3592780E+04  0.7818608E-02  0.8092147E-01
         -1   -1    0    0    0  501 -0.00000000000E+00  0.00000000000E+00  0.17840206455E+04  0.17840206455E+04  0.00000000000E+00 0.  1.
          1   -1    0    0  501    0  0.00000000000E+00 -0.00000000000E+00 -0.18088453429E+04  0.18088453429E+04  0.00000000000E+00 0. -1.
         23    2    1    2    0    0 -0.46929547771E+03  0.15266280535E+03  0.17137158546E+04  0.17856395421E+04  0.90235060808E+02 0.  0.
         13    1    3    3    0    0 -0.36089339480E+03  0.14660872728E+03  0.14214829104E+04  0.14738900318E+04  0.00000000000E+00 0.  1.
        -13    1    3    3    0    0 -0.10840208291E+03  0.60540780711E+01  0.29223294423E+03  0.31174951024E+03  0.00000000000E+00 0. -1.
         22    1    1    2    0    0  0.46929547771E+03 -0.15266280535E+03 -0.17385405520E+04  0.18072264464E+04  0.00000000000E+00 0. -1.
<mgrwt>
<rscale>  0 0.35927802E+04</rscale>
<asrwt>0</asrwt>
<pdfrwt beam="1">  1        1 0.27828390E+00 0.35927802E+04</pdfrwt>
<pdfrwt beam="2">  1       -1 0.27446472E+00 0.35927802E+04</pdfrwt>
<totfact> 0.15722786E-01</totfact>
</mgrwt>
</event>
<event>
 6    1  0.1528034E-005  0.1229447E+04  0.7818608E-02  0.9087465E-01
          1   -1    0    0  501    0  0.00000000000E+00  0.00000000000E+00  0.30192904063E+03  0.30192904063E+03  0.00000000000E+00 0. -1.
         -1   -1    0    0    0  501 -0.00000000000E+00 -0.00000000000E+00 -0.12515683956E+04  0.12515683956E+04  0.00000000000E+00 0.  1.
         23    2    1    2    0    0 -0.34327636003E+03 -0.67357467107E+02  0.15598296217E+03  0.39385249234E+03  0.91724661358E+02 0.  0.
         11    1    3    3    0    0 -0.21627555652E+03 -0.34946326821E+02  0.14414379249E+03  0.26224758344E+03  0.00000000000E+00 0. -1.
        -11    1    3    3    0    0 -0.12700080351E+03 -0.32411140286E+02  0.11839169679E+02  0.13160490889E+03  0.00000000000E+00 0.  1.
         22    1    1    2    0    0  0.34327636003E+03  0.67357467107E+02 -0.11056223172E+04  0.11596449439E+04  0.00000000000E+00 0.  1.
<mgrwt>
<rscale>  0 0.12294468E+04</rscale>
<asrwt>0</asrwt>
<pdfrwt beam="1">  1        1 0.46450622E-01 0.12294468E+04</pdfrwt>
<pdfrwt beam="2">  1       -1 0.19254898E+00 0.12294468E+04</pdfrwt>
<totfact> 0.14562538E+01</totfact>
</mgrwt>
</event>
<event>
 6    1  0.1528034E-005  0.3786317E+04  0.7818608E-02  0.8049098E-01
         -1   -1    0    0    0  501 -0.00000000000E+00  0.00000000000E+00  0.17931863978E+04  0.17931863978E+04  0.00000000000E+00 0.  1.
          1   -1    0    0  501    0  0.00000000000E+00 -0.00000000000E+00 -0.19987039827E+04  0.19987039827E+04  0.00000000000E+00 0. -1.
         23    2    1    2    0    0  0.66725222837E+03  0.17701109192E+04 -0.64424711891E+02  0.18949387730E+04  0.90134385058E+02 0.  0.
         11    1    3    3    0    0  0.44868913206E+03  0.10663645042E+04 -0.43823493414E+02  0.11577459530E+04  0.00000000000E+00 0. -1.
        -11    1    3    3    0    0  0.21856309631E+03  0.70374641502E+03 -0.20601218478E+02  0.73719282005E+03  0.00000000000E+00 0.  1.
         22    1    1    2    0    0 -0.66725222837E+03 -0.17701109192E+04 -0.14109287298E+03  0.18969516075E+04  0.00000000000E+00 0.  1.
<mgrwt>
<rscale>  0 0.37863168E+04</rscale>
<asrwt>0</asrwt>
<pdfrwt beam="1">  1        1 0.30749292E+00 0.37863168E+04</pdfrwt>
<pdfrwt beam="2">  1       -1 0.27587483E+00 0.37863168E+04</pdfrwt>
<totfact> 0.11258588E-01</totfact>
</mgrwt>
</event>
<event>
 6    1  0.1528034E-005  0.2035208E+04  0.7818608E-02  0.8590335E-01
          2   -1    0    0  501    0  0.00000000000E+00  0.00000000000E+00  0.13131114486E+04  0.13131114486E+04  0.00000000000E+00 0.  1.
         -2   -1    0    0    0  501 -0.00000000000E+00 -0.00000000000E+00 -0.78859830581E+03  0.78859830581E+03  0.00000000000E+00 0. -1.
         23    2    1    2    0    0 -0.88108999650E+03  0.24965744812E+03  0.71618124315E+03  0.11660895943E+04  0.90559072106E+02 0.  0.
         11    1    3    3    0    0 -0.44728296703E+03  0.10585260625E+03  0.30768837372E+03  0.55311749400E+03  0.00000000000E+00 0.  1.
        -11    1    3    3    0    0 -0.43380702948E+03  0.14380484188E+03  0.40849286942E+03  0.61297210030E+03  0.00000000000E+00 0. -1.
         22    1    1    2    0    0  0.88108999650E+03 -0.24965744812E+03 -0.19166810034E+03  0.93562016012E+03  0.00000000000E+00 0.  1.
<mgrwt>
<rscale>  0 0.20352076E+04</rscale>
<asrwt>0</asrwt>
<pdfrwt beam="1">  1        2 0.20201715E+00 0.20352076E+04</pdfrwt>
<pdfrwt beam="2">  1       -2 0.12132282E+00 0.20352076E+04</pdfrwt>
<totfact> 0.77764770E+00</totfact>
</mgrwt>
</event>
<event>
 6    1  0.1528034E-005  0.2630566E+04  0.7818608E-02  0.8357892E-01
          1   -1    0    0  501    0  0.00000000000E+00  0.00000000000E+00  0.13924598359E+04  0.13924598359E+04  0.00000000000E+00 0. -1.
         -1   -1    0    0    0  501 -0.00000000000E+00 -0.00000000000E+00 -0.12423837740E+04  0.12423837740E+04  0.00000000000E+00 0.  1.
         23    2    1    2    0    0 -0.35856807862E+03 -0.12475427036E+04  0.27766883134E+03  0.13305377489E+04  0.91087084897E+02 0.  0.
         11    1    3    3    0    0 -0.22590430423E+03 -0.64730943222E+03  0.12132755031E+03  0.69624897140E+03  0.00000000000E+00 0. -1.
        -11    1    3    3    0    0 -0.13266377439E+03 -0.60023327136E+03  0.15634128103E+03  0.63428877748E+03  0.00000000000E+00 0.  1.
         22    1    1    2    0    0  0.35856807862E+03  0.12475427036E+04 -0.12759276938E+03  0.13043058610E+04  0.00000000000E+00 0.  1.
<mgrwt>
<rscale>  0 0.26305661E+04</rscale>
<asrwt>0</asrwt>
<pdfrwt beam="1">  1        1 0.21422459E+00 0.26305661E+04</pdfrwt>
<pdfrwt beam="2">  1       -1 0.19113596E+00 0.26305661E+04</pdfrwt>
<totfact> 0.11852529E+00</totfact>
</mgrwt>
</event>
<event>
 6    1  0.1528034E-005  0.1425418E+04  0.7818608E-02  0.8935623E-01
         -1   -1    0    0    0  501 -0.00000000000E+00  0.00000000000E+00  0.98655849595E+03  0.98655849595E+03  0.00000000000E+00 0.  1.
          1   -1    0    0  501    0  0.00000000000E+00 -0.00000000000E+00 -0.51487454178E+03  0.51487454178E+03  0.00000000000E+00 0. -1.
         23    2    1    2    0    0  0.31651310608E+03 -0.75829504543E+02  0.90021544316E+03  0.96331604567E+03  0.10797823699E+03 0.  0.
         13    1    3    3    0    0  0.25823098559E+03 -0.24351823364E+02  0.60980686393E+03  0.66267689300E+03  0.00000000000E+00 0.  1.
        -13    1    3    3    0    0  0.58282120492E+02 -0.51477681178E+02  0.29040857923E+03  0.30063915267E+03  0.00000000000E+00 0. -1.
         22    1    1    2    0    0 -0.31651310608E+03  0.75829504543E+02 -0.42853148899E+03  0.53811699206E+03  0.00000000000E+00 0. -1.
<mgrwt>
<rscale>  0 0.14254176E+04</rscale>
<asrwt>0</asrwt>
<pdfrwt beam="1">  1        1 0.79211468E-01 0.14254176E+04</pdfrwt>
<pdfrwt beam="2">  1       -1 0.15177823E+00 0.14254176E+04</pdfrwt>
<totfact> 0.13995492E+01</totfact>
</mgrwt>
</event>
<event>
 6    1  0.1528034E-005  0.1690182E+04  0.7818608E-02  0.8766984E-01
          2   -1    0    0  501    0  0.00000000000E+00  0.00000000000E+00  0.22748125056E+04  0.22748125056E+04  0.00000000000E+00 0. -1.
         -2   -1    0    0    0  501 -0.00000000000E+00 -0.00000000000E+00 -0.31395056043E+03  0.31395056043E+03  0.00000000000E+00 0.  1.
         23    2    1    2    0    0  0.30765650347E+03  0.78308986362E+03  0.10475474922E+04  0.13469798528E+04  0.95481500193E+02 0.  0.
         13    1    3    3    0    0  0.11335743918E+03  0.19634916763E+03  0.24163672156E+03  0.33134756654E+03  0.00000000000E+00 0. -1.
        -13    1    3    3    0    0  0.19429906429E+03  0.58674069599E+03  0.80591077066E+03  0.10156322863E+04  0.00000000000E+00 0.  1.
         22    1    1    2    0    0 -0.30765650347E+03 -0.78308986362E+03  0.91331445299E+03  0.12417832132E+04  0.00000000000E+00 0.  1.
<mgrwt>
<rscale>  0 0.16901818E+04</rscale>
<asrwt>0</asrwt>
<pdfrwt beam="1">  1        2 0.34997114E+00 0.16901818E+04</pdfrwt>
<pdfrwt beam="2">  1       -2 0.48300088E-01 0.16901818E+04</pdfrwt>
<totfact> 0.18129957E+01</totfact>
</mgrwt>
</event>
<event>
 6    1  0.1528034E-005  0.3390548E+04  0.7818608E-02  0.8140230E-01
         -1   -1    0    0    0  501 -0.00000000000E+00  0.00000000000E+00  0.11477282766E+04  0.11477282766E+04  0.00000000000E+00 0.  1.
          1   -1    0    0  501    0  0.00000000000E+00 -0.00000000000E+00 -0.25040370705E+04  0.25040370705E+04  0.00000000000E+00 0. -1.
         23    2    1    2    0    0 -0.12417701307E+04 -0.77087261208E+03  0.24361945402E+03  0.14847378807E+04  0.94119574910E+02 0.  0.
         13    1    3    3    0    0 -0.89634561320E+03 -0.60231906412E+03  0.19375801802E+03  0.10971626510E+04  0.00000000000E+00 0. -1.
        -13    1    3    3    0    0 -0.34542451754E+03 -0.16855354796E+03  0.49861436005E+02  0.38757522966E+03  0.00000000000E+00 0.  1.
         22    1    1    2    0    0  0.12417701307E+04  0.77087261208E+03 -0.15999282479E+04  0.21670274664E+04  0.00000000000E+00 0. -1.
<mgrwt>
<rscale>  0 0.33905481E+04</rscale>
<asrwt>0</asrwt>
<pdfrwt beam="1">  1        1 0.38523647E+00 0.33905481E+04</pdfrwt>
<pdfrwt beam="2">  1       -1 0.17657358E+00 0.33905481E+04</pdfrwt>
<totfact> 0.24410325E-01</totfact>
</mgrwt>
</event>
<event>
 6    1  0.1528034E-005  0.4835154E+04  0.7818608E-02  0.7854452E-01
         -2   -1    0    0    0  501 -0.00000000000E+00  0.00000000000E+00  0.23525227766E+04  0.23525227766E+04  0.00000000000E+00 0.  1.
          2   -1    0    0  501    0  0.00000000000E+00 -0.00000000000E+00 -0.24844303993E+04  0.24844303993E+04  0.00000000000E+00 0. -1.
         23    2    1    2    0    0  0.13741603564E+04 -0.19757755452E+04 -0.28633439363E+03  0.24253451401E+04  0.91137113265E+02 0.  0.
         13    1    3    3    0    0  0.90259220963E+03 -0.13712433563E+04 -0.18871059003E+03  0.16524505214E+04  0.00000000000E+00 0. -1.
        -13    1    3    3    0    0  0.47156814680E+03 -0.60453218898E+03 -0.97623803607E+02  0.77289461871E+03  0.00000000000E+00 0.  1.
         22    1    1    2    0    0 -0.13741603564E+04  0.19757755452E+04  0.15442677094E+03  0.24116080357E+04  0.00000000000E+00 0.  1.
<mgrwt>
<rscale>  0 0.48351542E+04</rscale>
<asrwt>0</asrwt>
<pdfrwt beam="1">  1        2 0.38222006E+00 0.48351542E+04</pdfrwt>
<pdfrwt beam="2">  1       -2 0.36192658E+00 0.48351542E+04</pdfrwt>
<totfact> 0.34277111E-02</totfact>
</mgrwt>
</event>
<event>
 6    1  0.1528034E-005  0.1378291E+04  0.7818608E-02  0.8969685E-01
          1   -1    0    0  501    0  0.00000000000E+00  0.00000000000E+00  0.37815140373E+04  0.37815140373E+04  0.00000000000E+00 0. -1.
         -1   -1    0    0    0  501 -0.00000000000E+00 -0.00000000000E+00 -0.12559024693E+03  0.12559024693E+03  0.00000000000E+00 0.  1.
         23    2    1    2    0    0  0.61312077928E+03  0.19474808243E+03  0.11794505637E+04  0.13484398772E+04  0.11551001902E+03 0.  0.
         13    1    3    3    0    0  0.11531465433E+03  0.76461318710E+02  0.31248077530E+03  0.34174264834E+03  0.00000000000E+00 0. -1.
        -13    1    3    3    0    0  0.49780612495E+03  0.11828676372E+03  0.86696978844E+03  0.10066972289E+04  0.00000000000E+00 0.  1.
         22    1    1    2    0    0 -0.61312077928E+03 -0.19474808243E+03  0.24764732266E+04  0.25586644070E+04  0.00000000000E+00 0. -1.
<mgrwt>
<rscale>  0 0.13782907E+04</rscale>
<asrwt>0</asrwt>
<pdfrwt beam="1">  1        1 0.58177130E+00 0.13782907E+04</pdfrwt>
<pdfrwt beam="2">  1       -1 0.19321579E-01 0.13782907E+04</pdfrwt>
<totfact> 0.31894924E+00</totfact>
</mgrwt>
</event>
<event>
 6    1  0.1528034E-005  0.1067646E+04  0.7818608E-02  0.9237313E-01
          2   -1    0    0  501    0  0.00000000000E+00  0.00000000000E+00  0.44579651475E+03  0.44579651475E+03  0.00000000000E+00 0. -1.
         -2   -1    0    0    0  501 -0.00000000000E+00 -0.00000000000E+00 -0.63923144428E+03  0.63923144428E+03  0.00000000000E+00 0.  1.
         23    2    1    2    0    0  0.14788914078E+03 -0.32197388479E+03  0.30298082803E+03  0.47513699763E+03  0.91757309826E+02 0.  0.
         13    1    3    3    0    0  0.55220395453E+02 -0.55664809234E+02  0.10300214546E+03  0.12945000977E+03  0.00000000000E+00 0. -1.
        -13    1    3    3    0    0  0.92668745331E+02 -0.26630907556E+03  0.19997868257E+03  0.34568698785E+03  0.00000000000E+00 0.  1.
         22    1    1    2    0    0 -0.14788914078E+03  0.32197388479E+03 -0.49641575756E+03  0.60989096141E+03  0.00000000000E+00 0.  1.
<mgrwt>
<rscale>  0 0.10676463E+04</rscale>
<asrwt>0</asrwt>
<pdfrwt beam="1">  1        2 0.68584079E-01 0.10676463E+04</pdfrwt>
<pdfrwt beam="2">  1       -2 0.98343299E-01 0.10676463E+04</pdfrwt>
<totfact> 0.60106608E+01</totfact>
</mgrwt>
</event>
<event>
 6    1  0.1528034E-005  0.2207571E+04  0.7818608E-02  0.8515283E-01
          2   -1    0    0  501    0  0.00000000000E+00  0.00000000000E+00  0.13295668448E+04  0.13295668448E+04  0.00000000000E+00 0. -1.
         -2   -1    0    0    0  501 -0.00000000000E+00 -0.00000000000E+00 -0.91634549566E+03  0.91634549566E+03  0.00000000000E+00 0.  1.
         23    2    1    2    0    0  0.85902255852E+03 -0.68218295096E+03  0.31307698862E+03  0.11444032722E+04  0.91369107977E+02 0.  0.
         11    1    3    3    0    0  0.56442821077E+03 -0.42290776158E+03  0.24150552510E+03  0.74548983801E+03  0.00000000000E+00 0.  1.
        -11    1    3    3    0    0  0.29459434774E+03 -0.25927518937E+03  0.71571463513E+02  0.39891343414E+03  0.00000000000E+00 0. -1.
         22    1    1    2    0    0 -0.85902255852E+03  0.68218295096E+03  0.10014436051E+03  0.11015090683E+04  0.00000000000E+00 0.  1.
<mgrwt>
<rscale>  0 0.22075711E+04</rscale>
<asrwt>0</asrwt>
<pdfrwt beam="1">  1        2 0.20454875E+00 0.22075711E+04</pdfrwt>
<pdfrwt beam="2">  1       -2 0.14097623E+00 0.22075711E+04</pdfrwt>
<totfact> 0.51203060E+00</totfact>
</mgrwt>
</event>
<event>
 6    1  0.1528034E-005  0.4957225E+04  0.7818608E-02  0.7835140E-01
          2   -1    0    0  501    0  0.00000000000E+00  0.00000000000E+00  0.37158838764E+04  0.37158838764E+04  0.00000000000E+00 0. -1.
         -2   -1    0    0    0  501 -0.00000000000E+00 -0.00000000000E+00 -0.16533134159E+04  0.16533134159E+04  0.00000000000E+00 0.  1.
         23    2    1    2    0    0  0.10353096626E+04 -0.17136743250E+03  0.34627437486E+04  0.36194206977E+04  0.91537009936E+02 0.  0.
         13    1    3    3    0    0  0.56343148448E+03 -0.65682846916E+02  0.19944106889E+04  0.20735098915E+04  0.00000000000E+00 0.  1.
        -13    1    3    3    0    0  0.47187817812E+03 -0.10568458559E+03  0.14683330597E+04  0.15459108062E+04  0.00000000000E+00 0. -1.
         22    1    1    2    0    0 -0.10353096626E+04  0.17136743250E+03 -0.14001732881E+04  0.17497765946E+04  0.00000000000E+00 0.  1.
<mgrwt>
<rscale>  0 0.49572253E+04</rscale>
<asrwt>0</asrwt>
<pdfrwt beam="1">  1        2 0.57167444E+00 0.49572253E+04</pdfrwt>
<pdfrwt beam="2">  1       -2 0.25435591E+00 0.49572253E+04</pdfrwt>
<totfact> 0.24999553E-02</totfact>
</mgrwt>
</event>
<event>
 6    1  0.1528034E-005  0.3582790E+04  0.7818608E-02  0.8094445E-01
         -1   -1    0    0    0  501 -0.00000000000E+00  0.00000000000E+00  0.15198735508E+04  0.15198735508E+04  0.00000000000E+00 0.  1.
          1   -1    0    0  501    0  0.00000000000E+00 -0.00000000000E+00 -0.21114226608E+04  0.21114226608E+04  0.00000000000E+00 0. -1.
         23    2    1    2    0    0  0.16258366148E+04  0.28016092368E+03 -0.10003713692E+04  0.19315990383E+04  0.92179863152E+02 0.  0.
         11    1    3    3    0    0  0.11904127506E+04  0.17984316073E+03 -0.76714095028E+03  0.14275613181E+04  0.00000000000E+00 0.  1.
        -11    1    3    3    0    0  0.43542386423E+03  0.10031776295E+03 -0.23323041889E+03  0.50403772022E+03  0.00000000000E+00 0. -1.
         22    1    1    2    0    0 -0.16258366148E+04 -0.28016092368E+03  0.40882225922E+03  0.16996971733E+04  0.00000000000E+00 0.  1.
<mgrwt>
<rscale>  0 0.35827897E+04</rscale>
<asrwt>0</asrwt>
<pdfrwt beam="1">  1        1 0.32483426E+00 0.35827897E+04</pdfrwt>
<pdfrwt beam="2">  1       -1 0.23382670E+00 0.35827897E+04</pdfrwt>
<totfact> 0.18060363E-01</totfact>
</mgrwt>
</event>
<event>
 6    1  0.1528034E-005  0.4462905E+04  0.7818608E-02  0.7917163E-01
          2   -1    0    0  501    0  0.00000000000E+00  0.00000000000E+00  0.20249803703E+04  0.20249803703E+04  0.00000000000E+00 0. -1.
         -2   -1    0    0    0  501 -0.00000000000E+00 -0.00000000000E+00 -0.24589774719E+04  0.24589774719E+04  0.00000000000E+00 0.  1.
         23    2    1    2    0    0  0.21584435639E+04 -0.19451745591E+03 -0.74738514476E+03  0.22942255014E+04  0.90390472235E+02 0.  0.
         11    1    3    3    0    0  0.16581408030E+04 -0.12307479804E+03 -0.60236780820E+03  0.17684527997E+04  0.00000000000E+00 0.  1.
        -11    1    3    3    0    0  0.50030276088E+03 -0.71442657874E+02 -0.14501733656E+03  0.52577270166E+03  0.00000000000E+00 0. -1.
         22    1    1    2    0    0 -0.21584435639E+04  0.19451745591E+03  0.31338804321E+03  0.21897323409E+04  0.00000000000E+00 0. -1.
<mgrwt>
<rscale>  0 0.44629054E+04</rscale>
<asrwt>0</asrwt>
<pdfrwt beam="1">  1        2 0.31153544E+00 0.44629054E+04</pdfrwt>
<pdfrwt beam="2">  1       -2 0.37830423E+00 0.44629054E+04</pdfrwt>
<totfact> 0.50489492E-02</totfact>
</mgrwt>
</event>
<event>
 6    1  0.1528034E-005  0.1610698E+04  0.7818608E-02  0.8814003E-01
         -1   -1    0    0    0  501 -0.00000000000E+00  0.00000000000E+00  0.85670770750E+03  0.85670770750E+03  0.00000000000E+00 0.  1.
          1   -1    0    0  501    0  0.00000000000E+00 -0.00000000000E+00 -0.75706875072E+03  0.75706875072E+03  0.00000000000E+00 0. -1.
         23    2    1    2    0    0  0.45649369958E+03 -0.65104411300E+03 -0.60264642900E+02  0.80271906444E+03  0.92093074744E+02 0.  0.
         11    1    3    3    0    0  0.37924978847E+03 -0.49696360424E+03 -0.75516257757E+02  0.62968716930E+03  0.00000000000E+00 0. -1.
        -11    1    3    3    0    0  0.77243911108E+02 -0.15408050875E+03  0.15251614857E+02  0.17303189514E+03  0.00000000000E+00 0.  1.
         22    1    1    2    0    0 -0.45649369958E+03  0.65104411300E+03  0.15990359968E+03  0.81105739378E+03  0.00000000000E+00 0.  1.
<mgrwt>
<rscale>  0 0.16106975E+04</rscale>
<asrwt>0</asrwt>
<pdfrwt beam="1">  1        1 0.11647212E+00 0.16106975E+04</pdfrwt>
<pdfrwt beam="2">  1       -1 0.13180118E+00 0.16106975E+04</pdfrwt>
<totfact> 0.11334241E+01</totfact>
</mgrwt>
</event>
<event>
 6    1  0.1528034E-005  0.8969357E+03  0.7818608E-02  0.9429420E-01
         -2   -1    0    0    0  501 -0.00000000000E+00  0.00000000000E+00  0.23870691773E+03  0.23870691773E+03  0.00000000000E+00 0.  1.
          2   -1    0    0  501    0  0.00000000000E+00 -0.00000000000E+00 -0.84255381205E+03  0.84255381205E+03  0.00000000000E+00 0. -1.
         23    2    1    2    0    0  0.23245151037E+03 -0.16865543604E+03  0.10611811036E+03  0.31540913277E+03  0.75785928182E+02 0.  0.
         11    1    3    3    0    0  0.21370333621E+03 -0.12359220149E+03  0.77106960014E+02  0.25863029880E+03  0.00000000000E+00 0. -1.
        -11    1    3    3    0    0  0.18748174161E+02 -0.45063234551E+02  0.29011150348E+02  0.56778833971E+02  0.00000000000E+00 0.  1.
         22    1    1    2    0    0 -0.23245151037E+03  0.16865543604E+03 -0.70996500468E+03  0.76585159701E+03  0.00000000000E+00 0. -1.
<mgrwt>
<rscale>  0 0.89693572E+03</rscale>
<asrwt>0</asrwt>
<pdfrwt beam="1">  1        2 0.12962367E+00 0.89693572E+03</pdfrwt>
<pdfrwt beam="2">  1       -2 0.36724140E-01 0.89693572E+03</pdfrwt>
<totfact> 0.22478640E+02</totfact>
</mgrwt>
</event>
<event>
 6    1  0.1528034E-005  0.3110238E+04  0.7818608E-02  0.8212934E-01
         -2   -1    0    0    0  501 -0.00000000000E+00  0.00000000000E+00  0.74753641518E+03  0.74753641518E+03  0.00000000000E+00 0.  1.
          2   -1    0    0  501    0  0.00000000000E+00 -0.00000000000E+00 -0.32351527306E+04  0.32351527306E+04  0.00000000000E+00 0. -1.
         23    2    1    2    0    0 -0.15128110662E+04  0.37120777352E+02 -0.16960505525E+04  0.22748976974E+04  0.92718837753E+02 0.  0.
         13    1    3    3    0    0 -0.81605215705E+02  0.10779671753E+02 -0.12339117786E+03  0.14832732495E+03  0.00000000000E+00 0. -1.
        -13    1    3    3    0    0 -0.14312058505E+04  0.26341105599E+02 -0.15726593746E+04  0.21265703724E+04  0.00000000000E+00 0.  1.
         22    1    1    2    0    0  0.15128110662E+04 -0.37120777352E+02 -0.79156576297E+03  0.17077914484E+04  0.00000000000E+00 0.  1.
<mgrwt>
<rscale>  0 0.31102376E+04</rscale>
<asrwt>0</asrwt>
<pdfrwt beam="1">  1        2 0.49771580E+00 0.31102376E+04</pdfrwt>
<pdfrwt beam="2">  1       -2 0.11500560E+00 0.31102376E+04</pdfrwt>
<totfact> 0.61450088E-01</totfact>
</mgrwt>
</event>
<event>
 6    1  0.1528034E-005  0.1841790E+04  0.7818608E-02  0.8684386E-01
         -1   -1    0    0    0  501 -0.00000000000E+00  0.00000000000E+00  0.13483173135E+04  0.13483173135E+04  0.00000000000E+00 0.  1.
          1   -1    0    0  501    0  0.00000000000E+00 -0.00000000000E+00 -0.62896725579E+03  0.62896725579E+03  0.00000000000E+00 0. -1.
         23    2    1    2    0    0 -0.24099414854E+03  0.60928653139E+03  0.10517451751E+04  0.12425773004E+04  0.92315639130E+02 0.  0.
         13    1    3    3    0    0 -0.26807817690E+02  0.16157173630E+03  0.29952089079E+03  0.34137493915E+03  0.00000000000E+00 0.  1.
        -13    1    3    3    0    0 -0.21418633085E+03  0.44771479510E+03  0.75222428428E+03  0.90120236125E+03  0.00000000000E+00 0. -1.
         22    1    1    2    0    0  0.24099414854E+03 -0.60928653139E+03 -0.33239511734E+03  0.73470726892E+03  0.00000000000E+00 0. -1.
<mgrwt>
<rscale>  0 0.18417898E+04</rscale>
<asrwt>0</asrwt>
<pdfrwt beam="1">  1        1 0.96764193E-01 0.18417898E+04</pdfrwt>
<pdfrwt beam="2">  1       -1 0.20743343E+00 0.18417898E+04</pdfrwt>
<totfact> 0.40225528E+00</totfact>
</mgrwt>
</event>
<event>
 6    1  0.1528034E-005  0.1311507E+04  0.7818608E-02  0.9020490E-01
          2   -1    0    0  501    0  0.00000000000E+00  0.00000000000E+00  0.20827639210E+04  0.20827639210E+04  0.00000000000E+00 0. -1.
         -2   -1    0    0    0  501 -0.00000000000E+00 -0.00000000000E+00 -0.20646234953E+03  0.20646234953E+03  0.00000000000E+00 0.  1.
         23    2    1    2    0    0  0.31964691987E+03  0.46867954343E+03  0.15058332734E+04  0.16116707911E+04  0.90078986242E+02 0.  0.
         13    1    3    3    0    0  0.28893977050E+03  0.40237731143E+03  0.12221421356E+04  0.13187210059E+04  0.00000000000E+00 0.  1.
        -13    1    3    3    0    0  0.30707149365E+02  0.66302231998E+02  0.28369113779E+03  0.29294978520E+03  0.00000000000E+00 0. -1.
         22    1    1    2    0    0 -0.31964691987E+03 -0.46867954343E+03  0.37046829803E+03  0.67755547939E+03  0.00000000000E+00 0. -1.
<mgrwt>
<rscale>  0 0.13115065E+04</rscale>
<asrwt>0</asrwt>
<pdfrwt beam="1">  1        2 0.32042520E+00 0.13115065E+04</pdfrwt>
<pdfrwt beam="2">  1       -2 0.31763440E-01 0.13115065E+04</pdfrwt>
<totfact> 0.54273271E+01</totfact>
</mgrwt>
</event>
<event>
 6    1  0.1528034E-005  0.1958908E+04  0.7818608E-02  0.8626077E-01
         -1   -1    0    0    0  501 -0.00000000000E+00  0.00000000000E+00  0.10590242834E+04  0.10590242834E+04  0.00000000000E+00 0.  1.
          1   -1    0    0  501    0  0.00000000000E+00 -0.00000000000E+00 -0.90586189204E+03  0.90586189204E+03  0.00000000000E+00 0. -1.
         23    2    1    2    0    0  0.34485370901E+03  0.82461150158E+03  0.47329809748E+03  0.10154678907E+04  0.90861096247E+02 0.  0.
         13    1    3    3    0    0  0.15790881602E+03  0.48099837190E+03  0.24327261718E+03  0.56167267533E+03  0.00000000000E+00 0. -1.
        -13    1    3    3    0    0  0.18694489299E+03  0.34361312968E+03  0.23002548030E+03  0.45379521537E+03  0.00000000000E+00 0.  1.
         22    1    1    2    0    0 -0.34485370901E+03 -0.82461150158E+03 -0.32013570607E+03  0.94941828477E+03  0.00000000000E+00 0. -1.
<mgrwt>
<rscale>  0 0.19589076E+04</rscale>
<asrwt>0</asrwt>
<pdfrwt beam="1">  1        1 0.13936337E+00 0.19589076E+04</pdfrwt>
<pdfrwt beam="2">  1       -1 0.16292681E+00 0.19589076E+04</pdfrwt>
<totfact> 0.46532280E+00</totfact>
</mgrwt>
</event>
<event>
 6    1  0.1528034E-005  0.2941199E+04  0.7818608E-02  0.8260724E-01
          1   -1    0    0  501    0  0.00000000000E+00  0.00000000000E+00  0.32251466930E+04  0.32251466930E+04  0.00000000000E+00 0. -1.
         -1   -1    0    0    0  501 -0.00000000000E+00 -0.00000000000E+00 -0.67056246806E+03  0.67056246806E+03  0.00000000000E+00 0.  1.
         23    2    1    2    0    0  0.26312877990E+03 -0.12295364661E+04  0.27204096226E+03  0.12897543605E+04  0.91996462138E+02 0.  0.
         11    1    3    3    0    0  0.11983566196E+03 -0.36831903693E+03  0.97799926595E+02  0.39948006769E+03  0.00000000000E+00 0. -1.
        -11    1    3    3    0    0  0.14329311795E+03 -0.86121742919E+03  0.17424103567E+03  0.89027429285E+03  0.00000000000E+00 0.  1.
         22    1    1    2    0    0 -0.26312877990E+03  0.12295364661E+04  0.22825432627E+04  0.26059548005E+04  0.00000000000E+00 0. -1.
<mgrwt>
<rscale>  0 0.29411986E+04</rscale>
<asrwt>0</asrwt>
<pdfrwt beam="1">  1        1 0.49617640E+00 0.29411986E+04</pdfrwt>
<pdfrwt beam="2">  1       -1 0.10316346E+00 0.29411986E+04</pdfrwt>
<totfact> 0.30853302E-01</totfact>
</mgrwt>
</event>
<event>
 6    1  0.1528034E-005  0.1347155E+04  0.7818608E-02  0.8992984E-01
          2   -1    0    0  501    0  0.00000000000E+00  0.00000000000E+00  0.19140220617E+04  0.19140220617E+04  0.00000000000E+00 0. -1.
         -2   -1    0    0    0  501 -0.00000000000E+00 -0.00000000000E+00 -0.23704368329E+03  0.23704368329E+03  0.00000000000E+00 0.  1.
         23    2    1    2    0    0 -0.17885279488E+03  0.42964679895E+03  0.71558712874E+02  0.47955235989E+03  0.90912718590E+02 0.  0.
         13    1    3    3    0    0 -0.14680885628E+03  0.24766286706E+03  0.24972537671E+02  0.28898678800E+03  0.00000000000E+00 0.  1.
        -13    1    3    3    0    0 -0.32043938595E+02  0.18198393189E+03  0.46586175203E+02  0.19056557188E+03  0.00000000000E+00 0. -1.
         22    1    1    2    0    0  0.17885279488E+03 -0.42964679895E+03  0.16054196656E+04  0.16715133851E+04  0.00000000000E+00 0. -1.
<mgrwt>
<rscale>  0 0.13471553E+04</rscale>
<asrwt>0</asrwt>
<pdfrwt beam="1">  1        2 0.29446492E+00 0.13471553E+04</pdfrwt>
<pdfrwt beam="2">  1       -2 0.36468260E-01 0.13471553E+04</pdfrwt>
<totfact> 0.51603409E+01</totfact>
</mgrwt>
</event>
<event>
 6    1  0.1528034E-005  0.6194997E+03  0.7818608E-02  0.9865756E-01
          1   -1    0    0  501    0  0.00000000000E+00  0.00000000000E+00  0.70628756551E+03  0.70628756551E+03  0.00000000000E+00 0. -1.
         -1   -1    0    0    0  501 -0.00000000000E+00 -0.00000000000E+00 -0.13584405212E+03  0.13584405212E+03  0.00000000000E+00 0.  1.
         23    2    1    2    0    0  0.22992463182E+03  0.12915547493E+03  0.49494828683E+03  0.56782156997E+03  0.88887882516E+02 0.  0.
         13    1    3    3    0    0  0.64322267817E+02  0.69635480187E+02  0.23995542081E+03  0.25800205080E+03  0.00000000000E+00 0. -1.
        -13    1    3    3    0    0  0.16560236400E+03  0.59519994743E+02  0.25499286602E+03  0.30981951917E+03  0.00000000000E+00 0.  1.
         22    1    1    2    0    0 -0.22992463182E+03 -0.12915547493E+03  0.75495226558E+02  0.27431004767E+03  0.00000000000E+00 0.  1.
<mgrwt>
<rscale>  0 0.61949968E+03</rscale>
<asrwt>0</asrwt>
<pdfrwt beam="1">  1        1 0.10865962E+00 0.61949968E+03</pdfrwt>
<pdfrwt beam="2">  1       -1 0.20899085E-01 0.61949968E+03</pdfrwt>
<totfact> 0.51586527E+02</totfact>
</mgrwt>
</event>
<event>
 6    1  0.1528034E-005  0.5043693E+04  0.7818608E-02  0.7821802E-01
          1   -1    0    0  501    0  0.00000000000E+00  0.00000000000E+00  0.26711937447E+04  0.26711937447E+04  0.00000000000E+00 0. -1.
         -1   -1    0    0    0  501 -0.00000000000E+00 -0.00000000000E+00 -0.23808496509E+04  0.23808496509E+04  0.00000000000E+00 0.  1.
         23    2    1    2    0    0 -0.21438977433E+04 -0.13146618626E+04 -0.31377279171E+02  0.25166661084E+04  0.89389153412E+02 0.  0.
         11    1    3    3    0    0 -0.95626106726E+03 -0.58946092920E+03  0.30348656286E+02  0.11237528451E+04  0.00000000000E+00 0.  1.
        -11    1    3    3    0    0 -0.11876366761E+04 -0.72520093335E+03 -0.61725935457E+02  0.13929132633E+04  0.00000000000E+00 0. -1.
         22    1    1    2    0    0  0.21438977433E+04  0.13146618626E+04  0.32172137294E+03  0.25353772872E+04  0.00000000000E+00 0.  1.
<mgrwt>
<rscale>  0 0.50436934E+04</rscale>
<asrwt>0</asrwt>
<pdfrwt beam="1">  1        1 0.41095289E+00 0.50436934E+04</pdfrwt>
<pdfrwt beam="2">  1       -1 0.36628456E+00 0.50436934E+04</pdfrwt>
<totfact> 0.89552217E-03</totfact>
</mgrwt>
</event>
<event>
 6    1  0.1528034E-005  0.1765224E+04  0.7818608E-02  0.8725014E-01
         -2   -1    0    0    0  501 -0.00000000000E+00  0.00000000000E+00  0.40084819664E+03  0.40084819664E+03  0.00000000000E+00 0.  1.
          2   -1    0    0  501    0  0.00000000000E+00 -0.00000000000E+00 -0.19433900052E+04  0.19433900052E+04  0.00000000000E+00 0. -1.
         23    2    1    2    0    0 -0.62045835011E+03 -0.60628060634E+03 -0.97178525550E+03  0.13058222059E+04  0.90886262395E+02 0.  0.
         13    1    3    3    0    0 -0.18229143060E+03 -0.13601873088E+03 -0.21584015477E+03  0.31355738427E+03  0.00000000000E+00 0.  1.
        -13    1    3    3    0    0 -0.43816691951E+03 -0.47026187546E+03 -0.75594510074E+03  0.99226482161E+03  0.00000000000E+00 0. -1.
         22    1    1    2    0    0  0.62045835011E+03  0.60628060634E+03 -0.57075655311E+03  0.10384159960E+04  0.00000000000E+00 0. -1.
<mgrwt>
<rscale>  0 0.17652245E+04</rscale>
<asrwt>0</asrwt>
<pdfrwt beam="1">  1        2 0.29898307E+00 0.17652245E+04</pdfrwt>
<pdfrwt beam="2">  1       -2 0.61668954E-01 0.17652245E+04</pdfrwt>
<totfact> 0.16615852E+01</totfact>
</mgrwt>
</event>
<event>
 6    1  0.1528034E-005  0.2352740E+04  0.7818608E-02  0.8457412E-01
         -2   -1    0    0    0  501 -0.00000000000E+00  0.00000000000E+00  0.68688222124E+03  0.68688222124E+03  0.00000000000E+00 0.  1.
          2   -1    0    0  501    0  0.00000000000E+00 -0.00000000000E+00 -0.20146779778E+04  0.20146779778E+04  0.00000000000E+00 0. -1.
         23    2    1    2    0    0  0.38993677828E+03 -0.74502823990E+03 -0.16064457033E+04  0.18156913813E+04  0.94602458838E+02 0.  0.
         13    1    3    3    0    0  0.22094829141E+03 -0.49882215680E+03 -0.97708487063E+03  0.11190784316E+04  0.00000000000E+00 0.  1.
        -13    1    3    3    0    0  0.16898848687E+03 -0.24620608310E+03 -0.62936083267E+03  0.69661294974E+03  0.00000000000E+00 0. -1.
         22    1    1    2    0    0 -0.38993677828E+03  0.74502823990E+03  0.27864994678E+03  0.88586881768E+03  0.00000000000E+00 0.  1.
<mgrwt>
<rscale>  0 0.23527401E+04</rscale>
<asrwt>0</asrwt>
<pdfrwt beam="1">  1        2 0.30995045E+00 0.23527401E+04</pdfrwt>
<pdfrwt beam="2">  1       -2 0.10567419E+00 0.23527401E+04</pdfrwt>
<totfact> 0.42841510E+00</totfact>
</mgrwt>
</event>
<event>
 6    1  0.1528034E-005  0.2844640E+04  0.7818608E-02  0.8289542E-01
          2   -1    0    0  501    0  0.00000000000E+00  0.00000000000E+00  0.22046812945E+04  0.22046812945E+04  0.00000000000E+00 0.  1.
         -2   -1    0    0    0  501 -0.00000000000E+00 -0.00000000000E+00 -0.91759019925E+03  0.91759019925E+03  0.00000000000E+00 0. -1.
         23    2    1    2    0    0 -0.81385593695E+03 -0.10323412215E+04  0.52527147600E+02  0.13188752466E+04  0.92644109947E+02 0.  0.
         13    1    3    3    0    0 -0.36584074518E+03 -0.39113014558E+03  0.27003495933E+02  0.53623822169E+03  0.00000000000E+00 0. -1.
        -13    1    3    3    0    0 -0.44801519178E+03 -0.64121107587E+03  0.25523651667E+02  0.78263702486E+03  0.00000000000E+00 0.  1.
         22    1    1    2    0    0  0.81385593695E+03  0.10323412215E+04  0.12345639477E+04  0.18033962472E+04  0.00000000000E+00 0.  1.
<mgrwt>
<rscale>  0 0.28446398E+04</rscale>
<asrwt>0</asrwt>
<pdfrwt beam="1">  1        2 0.33918174E+00 0.28446398E+04</pdfrwt>
<pdfrwt beam="2">  1       -2 0.14116772E+00 0.28446398E+04</pdfrwt>
<totfact> 0.15639452E+00</totfact>
</mgrwt>
</event>
<event>
 6    1  0.1528034E-005  0.2757628E+04  0.7818608E-02  0.8316545E-01
         -1   -1    0    0    0  501 -0.00000000000E+00  0.00000000000E+00  0.19708543027E+04  0.19708543027E+04  0.00000000000E+00 0.  1.
          1   -1    0    0  501    0  0.00000000000E+00 -0.00000000000E+00 -0.96462150680E+03  0.96462150680E+03  0.00000000000E+00 0. -1.
         23    2    1    2    0    0  0.63803498875E+02  0.29476968718E+03  0.19342301243E+04  0.19596996586E+04  0.90645040161E+02 0.  0.
         13    1    3    3    0    0  0.71635232164E+02  0.13041851733E+03  0.82085759121E+03  0.83423484775E+03  0.00000000000E+00 0. -1.
        -13    1    3    3    0    0 -0.78317332889E+01  0.16435116985E+03  0.11133725331E+04  0.11254648109E+04  0.00000000000E+00 0.  1.
         22    1    1    2    0    0 -0.63803498875E+02 -0.29476968718E+03 -0.92799732844E+03  0.97577615084E+03  0.00000000000E+00 0. -1.
<mgrwt>
<rscale>  0 0.27576283E+04</rscale>
<asrwt>0</asrwt>
<pdfrwt beam="1">  1        1 0.14840331E+00 0.27576283E+04</pdfrwt>
<pdfrwt beam="2">  1       -1 0.30320835E+00 0.27576283E+04</pdfrwt>
<totfact> 0.44130021E-01</totfact>
</mgrwt>
</event>
<event>
 6    1  0.1528034E-005  0.1755899E+04  0.7818608E-02  0.8730110E-01
          2   -1    0    0  501    0  0.00000000000E+00  0.00000000000E+00  0.28882471067E+04  0.28882471067E+04  0.00000000000E+00 0. -1.
         -2   -1    0    0    0  501 -0.00000000000E+00 -0.00000000000E+00 -0.26687301739E+03  0.26687301739E+03  0.00000000000E+00 0.  1.
         23    2    1    2    0    0  0.63963714739E+03 -0.53961097086E+03  0.85082065972E+03  0.11967598081E+04  0.89568761799E+02 0.  0.
         11    1    3    3    0    0  0.31304459889E+03 -0.32001865397E+03  0.47128517735E+03  0.65001429075E+03  0.00000000000E+00 0.  1.
        -11    1    3    3    0    0  0.32659254850E+03 -0.21959231689E+03  0.37953548237E+03  0.54674551736E+03  0.00000000000E+00 0. -1.
         22    1    1    2    0    0 -0.63963714739E+03  0.53961097086E+03  0.17705534296E+04  0.19583603160E+04  0.00000000000E+00 0.  1.
<mgrwt>
<rscale>  0 0.17558989E+04</rscale>
<asrwt>0</asrwt>
<pdfrwt beam="1">  1        2 0.44434569E+00 0.17558989E+04</pdfrwt>
<pdfrwt beam="2">  1       -2 0.41057389E-01 0.17558989E+04</pdfrwt>
<totfact> 0.10911812E+01</totfact>
</mgrwt>
</event>
<event>
 6    1  0.1528034E-005  0.5782541E+03  0.7818608E-02  0.9951578E-01
          2   -1    0    0  501    0  0.00000000000E+00  0.00000000000E+00  0.12253581522E+03  0.12253581522E+03  0.00000000000E+00 0. -1.
         -2   -1    0    0    0  501 -0.00000000000E+00 -0.00000000000E+00 -0.68220412502E+03  0.68220412502E+03  0.00000000000E+00 0.  1.
         23    2    1    2    0    0  0.27798844394E+03  0.14438966362E+02 -0.34715164153E+03  0.45452658668E+03  0.92704353011E+02 0.  0.
         11    1    3    3    0    0  0.25826453975E+01  0.17311595204E+02 -0.15102124737E+02  0.23117862300E+02  0.00000000000E+00 0.  1.
        -11    1    3    3    0    0  0.27540579854E+03 -0.28726288420E+01 -0.33204951679E+03  0.43140872438E+03  0.00000000000E+00 0. -1.
         22    1    1    2    0    0 -0.27798844394E+03 -0.14438966362E+02 -0.21251666828E+03  0.35021335356E+03  0.00000000000E+00 0. -1.
<mgrwt>
<rscale>  0 0.57825406E+03</rscale>
<asrwt>0</asrwt>
<pdfrwt beam="1">  1        2 0.18851664E-01 0.57825406E+03</pdfrwt>
<pdfrwt beam="2">  1       -2 0.10495448E+00 0.57825406E+03</pdfrwt>
<totfact> 0.22705545E+02</totfact>
</mgrwt>
</event>
<event>
 6    1  0.1528034E-005  0.3060050E+04  0.7818608E-02  0.8226788E-01
         -2   -1    0    0    0  501 -0.00000000000E+00  0.00000000000E+00  0.11752462299E+04  0.11752462299E+04  0.00000000000E+00 0. -1.
          2   -1    0    0  501    0  0.00000000000E+00 -0.00000000000E+00 -0.19919028901E+04  0.19919028901E+04  0.00000000000E+00 0.  1.
         23    2    1    2    0    0  0.95483292293E+03  0.33252298976E+03  0.77809234716E+03  0.12788954702E+04  0.88704417451E+02 0.  0.
         11    1    3    3    0    0  0.51671096032E+03  0.13325246975E+03  0.41435113592E+03  0.67559847620E+03  0.00000000000E+00 0.  1.
        -11    1    3    3    0    0  0.43812196261E+03  0.19927052001E+03  0.36374121124E+03  0.60329699404E+03  0.00000000000E+00 0. -1.
         22    1    1    2    0    0 -0.95483292293E+03 -0.33252298976E+03 -0.15947490074E+04  0.18882536498E+04  0.00000000000E+00 0.  1.
<mgrwt>
<rscale>  0 0.30600499E+04</rscale>
<asrwt>0</asrwt>
<pdfrwt beam="1">  1        2 0.30644660E+00 0.30600499E+04</pdfrwt>
<pdfrwt beam="2">  1       -2 0.18080711E+00 0.30600499E+04</pdfrwt>
<totfact> 0.10295086E+00</totfact>
</mgrwt>
</event>
<event>
 6    1  0.1528034E-005  0.9834234E+03  0.7818608E-02  0.9326915E-01
          4   -1    0    0  501    0  0.00000000000E+00  0.00000000000E+00  0.69897064404E+03  0.69897064404E+03  0.00000000000E+00 0. -1.
         -4   -1    0    0    0  501 -0.00000000000E+00 -0.00000000000E+00 -0.34590923453E+03  0.34590923453E+03  0.00000000000E+00 0.  1.
         23    2    1    2    0    0 -0.28433467248E+03 -0.53688864169E+02  0.59504889319E+03  0.66767086174E+03  0.89288824696E+02 0.  0.
         11    1    3    3    0    0 -0.81371442243E+02  0.74318527018E+01  0.24691789226E+03  0.26008650401E+03  0.00000000000E+00 0.  1.
        -11    1    3    3    0    0 -0.20296323024E+03 -0.61120716871E+02  0.34813100093E+03  0.40758435773E+03  0.00000000000E+00 0. -1.
         22    1    1    2    0    0  0.28433467248E+03  0.53688864169E+02 -0.24198748368E+03  0.37720901682E+03  0.00000000000E+00 0.  1.
<mgrwt>
<rscale>  0 0.98342341E+03</rscale>
<asrwt>0</asrwt>
<pdfrwt beam="1">  1        4 0.10753395E+00 0.98342341E+03</pdfrwt>
<pdfrwt beam="2">  1       -4 0.53216805E-01 0.98342341E+03</pdfrwt>
<totfact> 0.46570490E+00</totfact>
</mgrwt>
</event>
<event>
 6    1  0.1528034E-005  0.3101150E+04  0.7818608E-02  0.8215422E-01
          3   -1    0    0  501    0  0.00000000000E+00  0.00000000000E+00  0.10643366877E+04  0.10643366877E+04  0.00000000000E+00 0. -1.
         -3   -1    0    0    0  501 -0.00000000000E+00 -0.00000000000E+00 -0.22589491783E+04  0.22589491783E+04  0.00000000000E+00 0.  1.
         23    2    1    2    0    0  0.11526024664E+04  0.37090109559E+03 -0.16335345822E+04  0.20353756709E+04  0.90878061828E+02 0.  0.
         13    1    3    3    0    0  0.63404089030E+03  0.25138058083E+03 -0.91558689104E+03  0.11417089831E+04  0.00000000000E+00 0. -1.
        -13    1    3    3    0    0  0.51856157611E+03  0.11952051476E+03 -0.71794769113E+03  0.89366668779E+03  0.00000000000E+00 0.  1.
         22    1    1    2    0    0 -0.11526024664E+04 -0.37090109559E+03  0.43892209162E+03  0.12879101952E+04  0.00000000000E+00 0. -1.
<mgrwt>
<rscale>  0 0.31011498E+04</rscale>
<asrwt>0</asrwt>
<pdfrwt beam="1">  1        3 0.16374411E+00 0.31011498E+04</pdfrwt>
<pdfrwt beam="2">  1       -3 0.34753064E+00 0.31011498E+04</pdfrwt>
<totfact> 0.11672922E-02</totfact>
</mgrwt>
</event>
<event>
 6    1  0.1528034E-005  0.1275434E+04  0.7818608E-02  0.9049276E-01
         -1   -1    0    0    0  501 -0.00000000000E+00  0.00000000000E+00  0.37029498983E+03  0.37029498983E+03  0.00000000000E+00 0.  1.
          1   -1    0    0  501    0  0.00000000000E+00 -0.00000000000E+00 -0.10982676074E+04  0.10982676074E+04  0.00000000000E+00 0. -1.
         23    2    1    2    0    0 -0.28180404313E+03  0.18066350912E+03 -0.98635360489E+03  0.10456990769E+04  0.92413761545E+02 0.  0.
         13    1    3    3    0    0 -0.15810082706E+03  0.15345157535E+03 -0.60591194816E+03  0.64472672228E+03  0.00000000000E+00 0. -1.
        -13    1    3    3    0    0 -0.12370321607E+03  0.27211933763E+02 -0.38044165673E+03  0.40097235463E+03  0.00000000000E+00 0.  1.
         22    1    1    2    0    0  0.28180404313E+03 -0.18066350912E+03  0.25838098728E+03  0.42286352035E+03  0.00000000000E+00 0.  1.
<mgrwt>
<rscale>  0 0.12754340E+04</rscale>
<asrwt>0</asrwt>
<pdfrwt beam="1">  1        1 0.16896425E+00 0.12754340E+04</pdfrwt>
<pdfrwt beam="2">  1       -1 0.56968460E-01 0.12754340E+04</pdfrwt>
<totfact> 0.39045776E+01</totfact>
</mgrwt>
</event>
<event>
 6    1  0.1528034E-005  0.2415303E+04  0.7818608E-02  0.8433796E-01
          2   -1    0    0  501    0  0.00000000000E+00  0.00000000000E+00  0.28838195557E+04  0.28838195557E+04  0.00000000000E+00 0.  1.
         -2   -1    0    0    0  501 -0.00000000000E+00 -0.00000000000E+00 -0.50572589040E+03  0.50572589040E+03  0.00000000000E+00 0. -1.
         23    2    1    2    0    0  0.82534491319E+03  0.66855209466E+03  0.19919552427E+04  0.22593866031E+04  0.93733688731E+02 0.  0.
         13    1    3    3    0    0  0.42041731772E+03  0.29377149344E+03  0.10223162012E+04  0.11437582029E+04  0.00000000000E+00 0. -1.
        -13    1    3    3    0    0  0.40492759547E+03  0.37478060122E+03  0.96963904142E+03  0.11156284002E+04  0.00000000000E+00 0.  1.
         22    1    1    2    0    0 -0.82534491319E+03 -0.66855209466E+03  0.38613842262E+03  0.11301588430E+04  0.00000000000E+00 0. -1.
<mgrwt>
<rscale>  0 0.24153031E+04</rscale>
<asrwt>0</asrwt>
<pdfrwt beam="1">  1        2 0.44366454E+00 0.24153031E+04</pdfrwt>
<pdfrwt beam="2">  1       -2 0.77803985E-01 0.24153031E+04</pdfrwt>
<totfact> 0.27170597E+00</totfact>
</mgrwt>
</event>
<event>
 6    1  0.1528034E-005  0.1949528E+04  0.7818608E-02  0.8630589E-01
         -3   -1    0    0    0  501 -0.00000000000E+00  0.00000000000E+00  0.93775832001E+03  0.93775832001E+03  0.00000000000E+00 0.  1.
          3   -1    0    0  501    0  0.00000000000E+00 -0.00000000000E+00 -0.10132294899E+04  0.10132294899E+04  0.00000000000E+00 0. -1.
         23    2    1    2    0    0 -0.25998645771E+03  0.24590354664E+02 -0.97537023058E+03  0.10139627498E+04  0.92605223658E+02 0.  0.
         13    1    3    3    0    0 -0.63745545033E+02  0.32418329082E+02 -0.39060834222E+03  0.39710114528E+03  0.00000000000E+00 0. -1.
        -13    1    3    3    0    0 -0.19624091268E+03 -0.78279744184E+01 -0.58476188836E+03  0.61686160447E+03  0.00000000000E+00 0.  1.
         22    1    1    2    0    0  0.25998645771E+03 -0.24590354664E+02  0.89989906074E+03  0.93702506010E+03  0.00000000000E+00 0.  1.
<mgrwt>
<rscale>  0 0.19495275E+04</rscale>
<asrwt>0</asrwt>
<pdfrwt beam="1">  1        3 0.15588146E+00 0.19495275E+04</pdfrwt>
<pdfrwt beam="2">  1       -3 0.14427051E+00 0.19495275E+04</pdfrwt>
<totfact> 0.25452020E-01</totfact>
</mgrwt>
</event>
<event>
 6    1  0.1528034E-005  0.3334593E+04  0.7818608E-02  0.8154149E-01
          2   -1    0    0  501    0  0.00000000000E+00  0.00000000000E+00  0.19810464410E+04  0.19810464410E+04  0.00000000000E+00 0. -1.
         -2   -1    0    0    0  501 -0.00000000000E+00 -0.00000000000E+00 -0.14032369087E+04  0.14032369087E+04  0.00000000000E+00 0.  1.
         23    2    1    2    0    0 -0.21196606013E+03 -0.14302633238E+04  0.11292532419E+04  0.18368102640E+04  0.89868100218E+02 0.  0.
         13    1    3    3    0    0 -0.46865231502E+01 -0.17653365462E+03  0.11277962003E+03  0.20953600504E+03  0.00000000000E+00 0. -1.
        -13    1    3    3    0    0 -0.20727953698E+03 -0.12537296692E+04  0.10164736219E+04  0.16272742589E+04  0.00000000000E+00 0.  1.
         22    1    1    2    0    0  0.21196606013E+03  0.14302633238E+04 -0.55144370964E+03  0.15474730857E+04  0.00000000000E+00 0. -1.
<mgrwt>
<rscale>  0 0.33345929E+04</rscale>
<asrwt>0</asrwt>
<pdfrwt beam="1">  1        2 0.30477637E+00 0.33345929E+04</pdfrwt>
<pdfrwt beam="2">  1       -2 0.21588260E+00 0.33345929E+04</pdfrwt>
<totfact> 0.59856187E-01</totfact>
</mgrwt>
</event>
<event>
 6    1  0.1528034E-005  0.4058883E+04  0.7818608E-02  0.7992772E-01
         -2   -1    0    0    0  501 -0.00000000000E+00  0.00000000000E+00  0.16446033300E+04  0.16446033300E+04  0.00000000000E+00 0.  1.
          2   -1    0    0  501    0  0.00000000000E+00 -0.00000000000E+00 -0.25043318680E+04  0.25043318680E+04  0.00000000000E+00 0. -1.
         23    2    1    2    0    0 -0.15118144440E+04 -0.12783825170E+04  0.20962505669E+02  0.19820338419E+04  0.90409905213E+02 0.  0.
         13    1    3    3    0    0 -0.12881097821E+04 -0.10474042484E+04  0.27044424386E+02  0.16604258102E+04  0.00000000000E+00 0.  1.
        -13    1    3    3    0    0 -0.22370466194E+03 -0.23097826859E+03 -0.60819187170E+01  0.32160803172E+03  0.00000000000E+00 0. -1.
         22    1    1    2    0    0  0.15118144440E+04  0.12783825170E+04 -0.88069104365E+03  0.21669013561E+04  0.00000000000E+00 0. -1.
<mgrwt>
<rscale>  0 0.40588829E+04</rscale>
<asrwt>0</asrwt>
<pdfrwt beam="1">  1        2 0.38528183E+00 0.40588829E+04</pdfrwt>
<pdfrwt beam="2">  1       -2 0.25301590E+00 0.40588829E+04</pdfrwt>
<totfact> 0.16732576E-01</totfact>
</mgrwt>
</event>
<event>
 6    1  0.1528034E-005  0.4273937E+04  0.7818608E-02  0.7951455E-01
          2   -1    0    0  501    0  0.00000000000E+00  0.00000000000E+00  0.35846619492E+04  0.35846619492E+04  0.00000000000E+00 0.  1.
         -2   -1    0    0    0  501 -0.00000000000E+00 -0.00000000000E+00 -0.12739375434E+04  0.12739375434E+04  0.00000000000E+00 0. -1.
         23    2    1    2    0    0 -0.25320225770E+03  0.12803627784E+04 -0.76634546507E+03  0.15161753397E+04  0.89788982069E+02 0.  0.
         13    1    3    3    0    0 -0.14234369692E+02  0.20895631581E+03 -0.10070282673E+03  0.23239281079E+03  0.00000000000E+00 0. -1.
        -13    1    3    3    0    0 -0.23896788801E+03  0.10714064626E+04 -0.66564263835E+03  0.12837825290E+04  0.00000000000E+00 0.  1.
         22    1    1    2    0    0  0.25320225770E+03 -0.12803627784E+04  0.30770698709E+04  0.33424241529E+04  0.00000000000E+00 0.  1.
<mgrwt>
<rscale>  0 0.42739375E+04</rscale>
<asrwt>0</asrwt>
<pdfrwt beam="1">  1        2 0.55148645E+00 0.42739375E+04</pdfrwt>
<pdfrwt beam="2">  1       -2 0.19599039E+00 0.42739375E+04</pdfrwt>
<totfact> 0.77075647E-02</totfact>
</mgrwt>
</event>
<event>
 6    1  0.1528034E-005  0.2180328E+04  0.7818608E-02  0.8526661E-01
          2   -1    0    0  501    0  0.00000000000E+00  0.00000000000E+00  0.12083068559E+04  0.12083068559E+04  0.00000000000E+00 0.  1.
         -2   -1    0    0    0  501 -0.00000000000E+00 -0.00000000000E+00 -0.98357289800E+03  0.98357289800E+03  0.00000000000E+00 0. -1.
         23    2    1    2    0    0  0.28895677267E+03  0.54311971994E+03 -0.78986481578E+03  0.10053361524E+04  0.91319797958E+02 0.  0.
         11    1    3    3    0    0  0.25137326294E+03  0.42832693498E+03 -0.68003082930E+03  0.84207743667E+03  0.00000000000E+00 0. -1.
        -11    1    3    3    0    0  0.37583509729E+02  0.11479278496E+03 -0.10983398648E+03  0.16325871575E+03  0.00000000000E+00 0.  1.
         22    1    1    2    0    0 -0.28895677267E+03 -0.54311971994E+03  0.10145987737E+04  0.11865436015E+04  0.00000000000E+00 0.  1.
<mgrwt>
<rscale>  0 0.21803283E+04</rscale>
<asrwt>0</asrwt>
<pdfrwt beam="1">  1        2 0.18589336E+00 0.21803283E+04</pdfrwt>
<pdfrwt beam="2">  1       -2 0.15131891E+00 0.21803283E+04</pdfrwt>
<totfact> 0.50188083E+00</totfact>
</mgrwt>
</event>
<event>
 6    1  0.1528034E-005  0.9597726E+03  0.7818608E-02  0.9353800E-01
         -2   -1    0    0    0  501 -0.00000000000E+00  0.00000000000E+00  0.92723535594E+02  0.92723535594E+02  0.00000000000E+00 0.  1.
          2   -1    0    0  501    0  0.00000000000E+00 -0.00000000000E+00 -0.24836292254E+04  0.24836292254E+04  0.00000000000E+00 0. -1.
         23    2    1    2    0    0  0.38289473034E+03 -0.13079063867E+03 -0.18769779479E+04  0.19222608029E+04  0.91245887126E+02 0.  0.
         13    1    3    3    0    0  0.10596829008E+03 -0.27507603145E+02 -0.34231176718E+03  0.35939295024E+03  0.00000000000E+00 0.  1.
        -13    1    3    3    0    0  0.27692644026E+03 -0.10328303553E+03 -0.15346661807E+04  0.15628678527E+04  0.00000000000E+00 0. -1.
         22    1    1    2    0    0 -0.38289473034E+03  0.13079063867E+03 -0.51392774187E+03  0.65409195802E+03  0.00000000000E+00 0. -1.
<mgrwt>
<rscale>  0 0.95977265E+03</rscale>
<asrwt>0</asrwt>
<pdfrwt beam="1">  1        2 0.38209678E+00 0.95977265E+03</pdfrwt>
<pdfrwt beam="2">  1       -2 0.14265160E-01 0.95977265E+03</pdfrwt>
<totfact> 0.13795475E+02</totfact>
</mgrwt>
</event>
<event>
 6    1  0.1528034E-005  0.1908809E+04  0.7818608E-02  0.8650484E-01
          2   -1    0    0  501    0  0.00000000000E+00  0.00000000000E+00  0.19890827200E+04  0.19890827200E+04  0.00000000000E+00 0.  1.
         -2   -1    0    0    0  501 -0.00000000000E+00 -0.00000000000E+00 -0.45794355781E+03  0.45794355781E+03  0.00000000000E+00 0. -1.
         23    2    1    2    0    0 -0.48167329500E+03 -0.67141656672E+03  0.16027052028E+03  0.84637322279E+03  0.88609386715E+02 0.  0.
         13    1    3    3    0    0 -0.26310478210E+03 -0.44051829126E+03  0.10106420860E+03  0.52296698324E+03  0.00000000000E+00 0. -1.
        -13    1    3    3    0    0 -0.21856851290E+03 -0.23089827546E+03  0.59206311679E+02  0.32340623956E+03  0.00000000000E+00 0.  1.
         22    1    1    2    0    0  0.48167329500E+03  0.67141656672E+03  0.13708686419E+04  0.16006530550E+04  0.00000000000E+00 0.  1.
<mgrwt>
<rscale>  0 0.19088087E+04</rscale>
<asrwt>0</asrwt>
<pdfrwt beam="1">  1        2 0.30601272E+00 0.19088087E+04</pdfrwt>
<pdfrwt beam="2">  1       -2 0.70452856E-01 0.19088087E+04</pdfrwt>
<totfact> 0.11621580E+01</totfact>
</mgrwt>
</event>
<event>
 6    1  0.1528034E-005  0.2123054E+04  0.7818608E-02  0.8551155E-01
          1   -1    0    0  501    0  0.00000000000E+00  0.00000000000E+00  0.11337914448E+04  0.11337914448E+04  0.00000000000E+00 0. -1.
         -1   -1    0    0    0  501 -0.00000000000E+00 -0.00000000000E+00 -0.99386834577E+03  0.99386834577E+03  0.00000000000E+00 0.  1.
         23    2    1    2    0    0 -0.68453506760E+03 -0.78506224501E+03  0.26606899988E+03  0.10784582962E+04  0.85840530769E+02 0.  0.
         13    1    3    3    0    0 -0.13418617396E+03 -0.15115750463E+03  0.87230277647E+02  0.22014459300E+03  0.00000000000E+00 0. -1.
        -13    1    3    3    0    0 -0.55034889364E+03 -0.63390474038E+03  0.17883872224E+03  0.85831370324E+03  0.00000000000E+00 0.  1.
         22    1    1    2    0    0  0.68453506760E+03  0.78506224501E+03 -0.12614590088E+03  0.10492014943E+04  0.00000000000E+00 0.  1.
<mgrwt>
<rscale>  0 0.21230539E+04</rscale>
<asrwt>0</asrwt>
<pdfrwt beam="1">  1        1 0.17442945E+00 0.21230539E+04</pdfrwt>
<pdfrwt beam="2">  1       -1 0.15290282E+00 0.21230539E+04</pdfrwt>
<totfact> 0.36363205E+00</totfact>
</mgrwt>
</event>
<event>
 6    1  0.1568003E-005  0.3463923E+04  0.7818608E-02  0.8122393E-01
          1   -1    0    0  501    0  0.00000000000E+00  0.00000000000E+00  0.22310732300E+04  0.22310732300E+04  0.00000000000E+00 0. -1.
         -1   -1    0    0    0  501 -0.00000000000E+00 -0.00000000000E+00 -0.13445055054E+04  0.13445055054E+04  0.00000000000E+00 0.  1.
         23    2    1    2    0    0  0.11449785938E+03  0.71394343060E+03 -0.11787583743E+04  0.13873381461E+04  0.11140397019E+03 0.  0.
         11    1    3    3    0    0  0.62454272324E+02  0.58023566847E+03 -0.10033157967E+04  0.11606965818E+04  0.00000000000E+00 0. -1.
        -11    1    3    3    0    0  0.52043587055E+02  0.13370776213E+03 -0.17544257765E+03  0.22664156428E+03  0.00000000000E+00 0.  1.
         22    1    1    2    0    0 -0.11449785938E+03 -0.71394343060E+03  0.20653260989E+04  0.21882405893E+04  0.00000000000E+00 0. -1.
<mgrwt>
<rscale>  0 0.34639228E+04</rscale>
<asrwt>0</asrwt>
<pdfrwt beam="1">  1        1 0.34324204E+00 0.34639228E+04</pdfrwt>
<pdfrwt beam="2">  1       -1 0.20684700E+00 0.34639228E+04</pdfrwt>
<totfact> 0.22931536E-01</totfact>
</mgrwt>
</event>
<event>
 6    1  0.1528034E-005  0.1887936E+04  0.7818608E-02  0.8660885E-01
          1   -1    0    0  501    0  0.00000000000E+00  0.00000000000E+00  0.55764089582E+03  0.55764089582E+03  0.00000000000E+00 0. -1.
         -1   -1    0    0    0  501 -0.00000000000E+00 -0.00000000000E+00 -0.15979380109E+04  0.15979380109E+04  0.00000000000E+00 0.  1.
         23    2    1    2    0    0  0.70362630088E+03  0.37877612062E+03  0.48439354807E+02  0.80505736980E+03  0.84909815336E+02 0.  0.
         13    1    3    3    0    0  0.34195072223E+03  0.16669409014E+03  0.62671972197E+02  0.38554505861E+03  0.00000000000E+00 0. -1.
        -13    1    3    3    0    0  0.36167557865E+03  0.21208203048E+03 -0.14232617391E+02  0.41951231119E+03  0.00000000000E+00 0.  1.
         22    1    1    2    0    0 -0.70362630088E+03 -0.37877612062E+03 -0.10887364699E+04  0.13505215370E+04  0.00000000000E+00 0.  1.
<mgrwt>
<rscale>  0 0.18879360E+04</rscale>
<asrwt>0</asrwt>
<pdfrwt beam="1">  1        1 0.85790910E-01 0.18879360E+04</pdfrwt>
<pdfrwt beam="2">  1       -1 0.24583661E+00 0.18879360E+04</pdfrwt>
<totfact> 0.26446873E+00</totfact>
</mgrwt>
</event>
<event>
 6    1  0.1528034E-005  0.2486295E+04  0.7818608E-02  0.8407884E-01
         -2   -1    0    0    0  501 -0.00000000000E+00  0.00000000000E+00  0.15123032080E+04  0.15123032080E+04  0.00000000000E+00 0.  1.
          2   -1    0    0  501    0  0.00000000000E+00 -0.00000000000E+00 -0.10218955887E+04  0.10218955887E+04  0.00000000000E+00 0. -1.
         23    2    1    2    0    0 -0.10412681779E+03  0.80231906316E+03 -0.71413921549E+03  0.10831676631E+04  0.93268933519E+02 0.  0.
         11    1    3    3    0    0 -0.11727754372E+03  0.63428441731E+03 -0.54603915129E+03  0.84512099668E+03  0.00000000000E+00 0. -1.
        -11    1    3    3    0    0  0.13150725929E+02  0.16803464586E+03 -0.16810006421E+03  0.23804666641E+03  0.00000000000E+00 0.  1.
         22    1    1    2    0    0  0.10412681779E+03 -0.80231906316E+03  0.12045468348E+04  0.14510311336E+04  0.00000000000E+00 0.  1.
<mgrwt>
<rscale>  0 0.24862952E+04</rscale>
<asrwt>0</asrwt>
<pdfrwt beam="1">  1        2 0.15721471E+00 0.24862952E+04</pdfrwt>
<pdfrwt beam="2">  1       -2 0.23266203E+00 0.24862952E+04</pdfrwt>
<totfact> 0.17915186E+00</totfact>
</mgrwt>
</event>
<event>
 6    1  0.1528034E-005  0.2387662E+04  0.7818608E-02  0.8444137E-01
          2   -1    0    0  501    0  0.00000000000E+00  0.00000000000E+00  0.29956317472E+04  0.29956317472E+04  0.00000000000E+00 0. -1.
         -2   -1    0    0    0  501 -0.00000000000E+00 -0.00000000000E+00 -0.47577031980E+03  0.47577031980E+03  0.00000000000E+00 0.  1.
         23    2    1    2    0    0 -0.61063583836E+02 -0.64964145341E+03  0.27122512600E+04  0.27911251918E+04  0.91160078288E+02 0.  0.
         11    1    3    3    0    0 -0.66425469960E+02 -0.29032366804E+03  0.11312606238E+04  0.11698080074E+04  0.00000000000E+00 0. -1.
        -11    1    3    3    0    0  0.53618861234E+01 -0.35931778538E+03  0.15809906361E+04  0.16213171844E+04  0.00000000000E+00 0.  1.
         22    1    1    2    0    0  0.61063583836E+02  0.64964145341E+03 -0.19238983255E+03  0.68027687520E+03  0.00000000000E+00 0.  1.
<mgrwt>
<rscale>  0 0.23876622E+04</rscale>
<asrwt>0</asrwt>
<pdfrwt beam="1">  1        2 0.46086641E+00 0.23876622E+04</pdfrwt>
<pdfrwt beam="2">  1       -2 0.73195436E-01 0.23876622E+04</pdfrwt>
<totfact> 0.26593031E+00</totfact>
</mgrwt>
</event>
<event>
 6    1  0.1528034E-005  0.1041193E+04  0.7818608E-02  0.9264484E-01
         -1   -1    0    0    0  501 -0.00000000000E+00  0.00000000000E+00  0.11444123799E+03  0.11444123799E+03  0.00000000000E+00 0.  1.
          1   -1    0    0  501    0  0.00000000000E+00 -0.00000000000E+00 -0.23682089938E+04  0.23682089938E+04  0.00000000000E+00 0. -1.
         23    2    1    2    0    0 -0.10172744797E+02  0.51016229948E+03 -0.13337347260E+04  0.14305904272E+04  0.85857989830E+02 0.  0.
         13    1    3    3    0    0 -0.47938957704E+02  0.31687289832E+03 -0.83110729244E+03  0.89075580768E+03  0.00000000000E+00 0. -1.
        -13    1    3    3    0    0  0.37766212907E+02  0.19328940116E+03 -0.50262743354E+03  0.53983461948E+03  0.00000000000E+00 0.  1.
         22    1    1    2    0    0  0.10172744797E+02 -0.51016229948E+03 -0.92003302982E+03  0.10520598046E+04  0.00000000000E+00 0.  1.
<mgrwt>
<rscale>  0 0.10411931E+04</rscale>
<asrwt>0</asrwt>
<pdfrwt beam="1">  1        1 0.36433982E+00 0.10411931E+04</pdfrwt>
<pdfrwt beam="2">  1       -1 0.17606345E-01 0.10411931E+04</pdfrwt>
<totfact> 0.42639791E+01</totfact>
</mgrwt>
</event>
<event>
 6    1  0.1528034E-005  0.2540367E+04  0.7818608E-02  0.8388744E-01
         -2   -1    0    0    0  501 -0.00000000000E+00  0.00000000000E+00  0.53351122979E+03  0.53351122979E+03  0.00000000000E+00 0.  1.
          2   -1    0    0  501    0  0.00000000000E+00 -0.00000000000E+00 -0.30240530790E+04  0.30240530790E+04  0.00000000000E+00 0. -1.
         23    2    1    2    0    0 -0.10774847543E+04  0.17035551769E+03 -0.21535537293E+04  0.24158308062E+04  0.91926170983E+02 0.  0.
         13    1    3    3    0    0 -0.72675253669E+03  0.15178415605E+03 -0.15112408204E+04  0.16837626011E+04  0.00000000000E+00 0.  1.
        -13    1    3    3    0    0 -0.35073221757E+03  0.18571361647E+02 -0.64231290889E+03  0.73206820505E+03  0.00000000000E+00 0. -1.
         22    1    1    2    0    0  0.10774847543E+04 -0.17035551769E+03 -0.33698811990E+03  0.11417335026E+04  0.00000000000E+00 0.  1.
<mgrwt>
<rscale>  0 0.25403671E+04</rscale>
<asrwt>0</asrwt>
<pdfrwt beam="1">  1        2 0.46523893E+00 0.25403671E+04</pdfrwt>
<pdfrwt beam="2">  1       -2 0.82078651E-01 0.25403671E+04</pdfrwt>
<totfact> 0.19501484E+00</totfact>
</mgrwt>
</event>
<event>
 6    1  0.1528034E-005  0.2171343E+04  0.7818608E-02  0.8530451E-01
         -2   -1    0    0    0  501 -0.00000000000E+00  0.00000000000E+00  0.66153227218E+03  0.66153227218E+03  0.00000000000E+00 0.  1.
          2   -1    0    0  501    0  0.00000000000E+00 -0.00000000000E+00 -0.17817464017E+04  0.17817464017E+04  0.00000000000E+00 0. -1.
         23    2    1    2    0    0  0.99136654696E+03 -0.35935962378E+03 -0.28273187553E+03  0.10966816683E+04  0.10404998119E+03 0.  0.
         11    1    3    3    0    0  0.20508833498E+03 -0.92656990399E+02 -0.10137315750E+03  0.24682597124E+03  0.00000000000E+00 0.  1.
        -11    1    3    3    0    0  0.78627821198E+03 -0.26670263338E+03 -0.18135871803E+03  0.84985569710E+03  0.00000000000E+00 0. -1.
         22    1    1    2    0    0 -0.99136654696E+03  0.35935962378E+03 -0.83748225401E+03  0.13465970056E+04  0.00000000000E+00 0.  1.
<mgrwt>
<rscale>  0 0.21713431E+04</rscale>
<asrwt>0</asrwt>
<pdfrwt beam="1">  1        2 0.27411482E+00 0.21713431E+04</pdfrwt>
<pdfrwt beam="2">  1       -2 0.10177420E+00 0.21713431E+04</pdfrwt>
<totfact> 0.64102401E+00</totfact>
</mgrwt>
</event>
<event>
 6    1  0.1528034E-005  0.1488007E+04  0.7818608E-02  0.8892467E-01
          2   -1    0    0  501    0  0.00000000000E+00  0.00000000000E+00  0.98589113087E+03  0.98589113087E+03  0.00000000000E+00 0. -1.
         -2   -1    0    0    0  501 -0.00000000000E+00 -0.00000000000E+00 -0.56146306224E+03  0.56146306224E+03  0.00000000000E+00 0.  1.
         23    2    1    2    0    0 -0.44891178422E+03 -0.58283881947E+03  0.30556632203E+03  0.80213543710E+03  0.93955323458E+02 0.  0.
         11    1    3    3    0    0 -0.25435392686E+03 -0.38807164369E+03  0.16061559398E+03  0.49101210757E+03  0.00000000000E+00 0. -1.
        -11    1    3    3    0    0 -0.19455785736E+03 -0.19476717578E+03  0.14495072804E+03  0.31112332954E+03  0.00000000000E+00 0.  1.
         22    1    1    2    0    0  0.44891178422E+03  0.58283881947E+03  0.11886174660E+03  0.74521875600E+03  0.00000000000E+00 0.  1.
<mgrwt>
<rscale>  0 0.14880073E+04</rscale>
<asrwt>0</asrwt>
<pdfrwt beam="1">  1        2 0.15167556E+00 0.14880073E+04</pdfrwt>
<pdfrwt beam="2">  1       -2 0.86378933E-01 0.14880073E+04</pdfrwt>
<totfact> 0.28898021E+01</totfact>
</mgrwt>
</event>
<event>
 6    1  0.1528034E-005  0.4595482E+04  0.7818608E-02  0.7894131E-01
          2   -1    0    0  501    0  0.00000000000E+00  0.00000000000E+00  0.23490879606E+04  0.23490879606E+04  0.00000000000E+00 0. -1.
         -2   -1    0    0    0  501 -0.00000000000E+00 -0.00000000000E+00 -0.22475166210E+04  0.22475166210E+04  0.00000000000E+00 0.  1.
         23    2    1    2    0    0 -0.22292737460E+03 -0.12222729562E+04  0.19831043253E+04  0.23418730743E+04  0.89548518200E+02 0.  0.
         11    1    3    3    0    0 -0.62783614599E+02 -0.19051885824E+03  0.28691989952E+03  0.35008891206E+03  0.00000000000E+00 0. -1.
        -11    1    3    3    0    0 -0.16014376000E+03 -0.10317540979E+04  0.16961844258E+04  0.19917841622E+04  0.00000000000E+00 0.  1.
         22    1    1    2    0    0  0.22292737460E+03  0.12222729562E+04 -0.18815329858E+04  0.22547315073E+04  0.00000000000E+00 0.  1.
<mgrwt>
<rscale>  0 0.45954822E+04</rscale>
<asrwt>0</asrwt>
<pdfrwt beam="1">  1        2 0.36139815E+00 0.45954822E+04</pdfrwt>
<pdfrwt beam="2">  1       -2 0.34577179E+00 0.45954822E+04</pdfrwt>
<totfact> 0.52876211E-02</totfact>
</mgrwt>
</event>
<event>
 6    1  0.1528034E-005  0.1309706E+04  0.7818608E-02  0.9021904E-01
         -2   -1    0    0    0  501 -0.00000000000E+00  0.00000000000E+00  0.37886890691E+03  0.37886890691E+03  0.00000000000E+00 0.  1.
          2   -1    0    0  501    0  0.00000000000E+00 -0.00000000000E+00 -0.11318750375E+04  0.11318750375E+04  0.00000000000E+00 0. -1.
         23    2    1    2    0    0  0.56038173445E+03 -0.31529962769E+03 -0.49672511866E+03  0.81855791410E+03  0.99295879590E+02 0.  0.
         13    1    3    3    0    0  0.22760301108E+03 -0.16738171083E+03 -0.26188727687E+03  0.38523332354E+03  0.00000000000E+00 0.  1.
        -13    1    3    3    0    0  0.33277872336E+03 -0.14791791686E+03 -0.23483784179E+03  0.43332459056E+03  0.00000000000E+00 0. -1.
         22    1    1    2    0    0 -0.56038173445E+03  0.31529962769E+03 -0.25628101197E+03  0.69218603036E+03  0.00000000000E+00 0.  1.
<mgrwt>
<rscale>  0 0.13097057E+04</rscale>
<asrwt>0</asrwt>
<pdfrwt beam="1">  1        2 0.17413462E+00 0.13097057E+04</pdfrwt>
<pdfrwt beam="2">  1       -2 0.58287525E-01 0.13097057E+04</pdfrwt>
<totfact> 0.56161666E+01</totfact>
</mgrwt>
</event>
<event>
 6    1  0.1528034E-005  0.1343849E+04  0.7818608E-02  0.8995497E-01
         -2   -1    0    0    0  501 -0.00000000000E+00  0.00000000000E+00  0.44329377662E+03  0.44329377662E+03  0.00000000000E+00 0.  1.
          2   -1    0    0  501    0  0.00000000000E+00 -0.00000000000E+00 -0.10184724816E+04  0.10184724816E+04  0.00000000000E+00 0. -1.
         23    2    1    2    0    0 -0.31073780660E+03  0.21844501208E+03 -0.88781320571E+03  0.96981449352E+03  0.89731019426E+02 0.  0.
         13    1    3    3    0    0 -0.23150629405E+03  0.11095927207E+03 -0.57774920365E+03  0.63221931841E+03  0.00000000000E+00 0.  1.
        -13    1    3    3    0    0 -0.79231512548E+02  0.10748574001E+03 -0.31006400206E+03  0.33759517511E+03  0.00000000000E+00 0. -1.
         22    1    1    2    0    0  0.31073780660E+03 -0.21844501208E+03  0.31263450072E+03  0.49195176470E+03  0.00000000000E+00 0.  1.
<mgrwt>
<rscale>  0 0.13438490E+04</rscale>
<asrwt>0</asrwt>
<pdfrwt beam="1">  1        2 0.15668807E+00 0.13438490E+04</pdfrwt>
<pdfrwt beam="2">  1       -2 0.68199044E-01 0.13438490E+04</pdfrwt>
<totfact> 0.47138843E+01</totfact>
</mgrwt>
</event>
<event>
 6    1  0.1528034E-005  0.2568254E+04  0.7818608E-02  0.8379065E-01
         -1   -1    0    0    0  501 -0.00000000000E+00  0.00000000000E+00  0.12348472965E+04  0.12348472965E+04  0.00000000000E+00 0.  1.
          1   -1    0    0  501    0  0.00000000000E+00 -0.00000000000E+00 -0.13353729289E+04  0.13353729289E+04  0.00000000000E+00 0. -1.
         23    2    1    2    0    0 -0.11399333629E+04  0.34462464094E+03 -0.52653702624E+03  0.13054277829E+04  0.93200006981E+02 0.  0.
         13    1    3    3    0    0 -0.57479504475E+03  0.15461435838E+03 -0.30986625865E+03  0.67105293497E+03  0.00000000000E+00 0. -1.
        -13    1    3    3    0    0 -0.56513831818E+03  0.19001028257E+03 -0.21667076759E+03  0.63437484793E+03  0.00000000000E+00 0.  1.
         22    1    1    2    0    0  0.11399333629E+04 -0.34462464094E+03  0.42601139384E+03  0.12647924426E+04  0.00000000000E+00 0.  1.
<mgrwt>
<rscale>  0 0.25682536E+04</rscale>
<asrwt>0</asrwt>
<pdfrwt beam="1">  1        1 0.20544199E+00 0.25682536E+04</pdfrwt>
<pdfrwt beam="2">  1       -1 0.18997651E+00 0.25682536E+04</pdfrwt>
<totfact> 0.13325197E+00</totfact>
</mgrwt>
</event>
<event>
 6    1  0.1614898E-005  0.3507773E+04  0.7818608E-02  0.8111950E-01
         -2   -1    0    0    0  501 -0.00000000000E+00  0.00000000000E+00  0.13949326458E+04  0.13949326458E+04  0.00000000000E+00 0.  1.
          2   -1    0    0  501    0  0.00000000000E+00 -0.00000000000E+00 -0.22052088292E+04  0.22052088292E+04  0.00000000000E+00 0. -1.
         23    2    1    2    0    0  0.10199384236E+04 -0.51544402679E+03 -0.17695719309E+04  0.21080941354E+04  0.81970313792E+02 0.  0.
         13    1    3    3    0    0  0.37119157699E+03 -0.14427956503E+03 -0.60525549972E+03  0.72452329131E+03  0.00000000000E+00 0.  1.
        -13    1    3    3    0    0  0.64874684657E+03 -0.37116446176E+03 -0.11643164312E+04  0.13835708441E+04  0.00000000000E+00 0. -1.
         22    1    1    2    0    0 -0.10199384236E+04  0.51544402679E+03  0.95929574745E+03  0.14920473396E+04  0.00000000000E+00 0.  1.
<mgrwt>
<rscale>  0 0.35077730E+04</rscale>
<asrwt>0</asrwt>
<pdfrwt beam="1">  1        2 0.33926290E+00 0.35077730E+04</pdfrwt>
<pdfrwt beam="2">  1       -2 0.21460502E+00 0.35077730E+04</pdfrwt>
<totfact> 0.45056996E-01</totfact>
</mgrwt>
</event>
<event>
 6    1  0.1528034E-005  0.1654320E+04  0.7818608E-02  0.8787855E-01
         -2   -1    0    0    0  501 -0.00000000000E+00  0.00000000000E+00  0.49621970352E+03  0.49621970352E+03  0.00000000000E+00 0. -1.
          2   -1    0    0  501    0  0.00000000000E+00 -0.00000000000E+00 -0.13788127623E+04  0.13788127623E+04  0.00000000000E+00 0.  1.
         23    2    1    2    0    0 -0.57707695860E+03  0.41233450769E+03  0.34279228252E+02  0.71585501906E+03  0.90751200794E+02 0.  0.
         13    1    3    3    0    0 -0.25639254363E+03  0.14376492997E+03 -0.16957325002E+02  0.29443682241E+03  0.00000000000E+00 0.  1.
        -13    1    3    3    0    0 -0.32068441497E+03  0.26856957771E+03  0.51236553254E+02  0.42141819665E+03  0.00000000000E+00 0. -1.
         22    1    1    2    0    0  0.57707695860E+03 -0.41233450769E+03 -0.91687228705E+03  0.11591774468E+04  0.00000000000E+00 0.  1.
<mgrwt>
<rscale>  0 0.16543205E+04</rscale>
<asrwt>0</asrwt>
<pdfrwt beam="1">  1        2 0.21212504E+00 0.16543205E+04</pdfrwt>
<pdfrwt beam="2">  1       -2 0.76341494E-01 0.16543205E+04</pdfrwt>
<totfact> 0.21815464E+01</totfact>
</mgrwt>
</event>
<event>
 6    1  0.1528034E-005  0.3902975E+04  0.7818608E-02  0.8024411E-01
         -2   -1    0    0    0  501 -0.00000000000E+00  0.00000000000E+00  0.11852747561E+04  0.11852747561E+04  0.00000000000E+00 0.  1.
          2   -1    0    0  501    0  0.00000000000E+00 -0.00000000000E+00 -0.32130128629E+04  0.32130128629E+04  0.00000000000E+00 0. -1.
         23    2    1    2    0    0  0.90754894199E+03 -0.11017856158E+04 -0.25122190249E+04  0.28908731487E+04  0.91249697948E+02 0.  0.
         11    1    3    3    0    0  0.76654149956E+03 -0.87535979670E+03 -0.20540557213E+04  0.23607171687E+04  0.00000000000E+00 0. -1.
        -11    1    3    3    0    0  0.14100744243E+03 -0.22642581909E+03 -0.45816330360E+03  0.53015598001E+03  0.00000000000E+00 0.  1.
         22    1    1    2    0    0 -0.90754894199E+03  0.11017856158E+04  0.48448091818E+03  0.15074144703E+04  0.00000000000E+00 0.  1.
<mgrwt>
<rscale>  0 0.39029748E+04</rscale>
<asrwt>0</asrwt>
<pdfrwt beam="1">  1        2 0.49430966E+00 0.39029748E+04</pdfrwt>
<pdfrwt beam="2">  1       -2 0.18234997E+00 0.39029748E+04</pdfrwt>
<totfact> 0.17643000E-01</totfact>
</mgrwt>
</event>
<event>
 6    1  0.1528034E-005  0.1358304E+04  0.7818608E-02  0.8984566E-01
         -2   -1    0    0    0  501 -0.00000000000E+00  0.00000000000E+00  0.40260077572E+03  0.40260077572E+03  0.00000000000E+00 0.  1.
          2   -1    0    0  501    0  0.00000000000E+00 -0.00000000000E+00 -0.11456687484E+04  0.11456687484E+04  0.00000000000E+00 0. -1.
         23    2    1    2    0    0 -0.13148008298E+03  0.63306605462E+03 -0.59740915379E+03  0.88549042578E+03  0.95582191742E+02 0.  0.
         11    1    3    3    0    0 -0.10117993895E+03  0.27491182333E+03 -0.24138356354E+03  0.37957860240E+03  0.00000000000E+00 0. -1.
        -11    1    3    3    0    0 -0.30300144027E+02  0.35815423129E+03 -0.35602559025E+03  0.50591182338E+03  0.00000000000E+00 0.  1.
         22    1    1    2    0    0  0.13148008298E+03 -0.63306605462E+03 -0.14565881893E+03  0.66277909839E+03  0.00000000000E+00 0. -1.
<mgrwt>
<rscale>  0 0.13583035E+04</rscale>
<asrwt>0</asrwt>
<pdfrwt beam="1">  1        2 0.17625673E+00 0.13583035E+04</pdfrwt>
<pdfrwt beam="2">  1       -2 0.61938582E-01 0.13583035E+04</pdfrwt>
<totfact> 0.48272398E+01</totfact>
</mgrwt>
</event>
<event>
 6    1  0.1528034E-005  0.9499176E+03  0.7818608E-02  0.9365247E-01
          1   -1    0    0  501    0  0.00000000000E+00  0.00000000000E+00  0.30400004514E+04  0.30400004514E+04  0.00000000000E+00 0. -1.
         -1   -1    0    0    0  501 -0.00000000000E+00 -0.00000000000E+00 -0.74205867788E+02  0.74205867788E+02  0.00000000000E+00 0.  1.
         23    2    1    2    0    0 -0.25726443443E+03  0.17399671550E+03  0.26552193896E+04  0.26749833720E+04  0.94266575070E+02 0.  0.
         13    1    3    3    0    0 -0.13475724284E+03  0.89246832929E+02  0.98924411693E+03  0.10023614291E+04  0.00000000000E+00 0. -1.
        -13    1    3    3    0    0 -0.12250719159E+03  0.84749882569E+02  0.16659752727E+04  0.16726219429E+04  0.00000000000E+00 0.  1.
         22    1    1    2    0    0  0.25726443443E+03 -0.17399671550E+03  0.31057519400E+03  0.43922294721E+03  0.00000000000E+00 0.  1.
<mgrwt>
<rscale>  0 0.94991762E+03</rscale>
<asrwt>0</asrwt>
<pdfrwt beam="1">  1        1 0.46769228E+00 0.94991762E+03</pdfrwt>
<pdfrwt beam="2">  1       -1 0.11416290E-01 0.94991762E+03</pdfrwt>
<totfact> 0.29503028E+01</totfact>
</mgrwt>
</event>
<event>
 6    1  0.1528034E-005  0.3387422E+04  0.7818608E-02  0.8141000E-01
          2   -1    0    0  501    0  0.00000000000E+00  0.00000000000E+00  0.15781709056E+04  0.15781709056E+04  0.00000000000E+00 0. -1.
         -2   -1    0    0    0  501 -0.00000000000E+00 -0.00000000000E+00 -0.18177094904E+04  0.18177094904E+04  0.00000000000E+00 0.  1.
         23    2    1    2    0    0  0.92931186688E+03  0.14057216928E+04  0.37754443667E+02  0.16880849026E+04  0.92364587339E+02 0.  0.
         13    1    3    3    0    0  0.47960838863E+03  0.67512944627E+03 -0.18358542744E+02  0.82834836377E+03  0.00000000000E+00 0.  1.
        -13    1    3    3    0    0  0.44970347824E+03  0.73059224649E+03  0.56112986412E+02  0.85973653884E+03  0.00000000000E+00 0. -1.
         22    1    1    2    0    0 -0.92931186688E+03 -0.14057216928E+04 -0.27729302848E+03  0.17077954933E+04  0.00000000000E+00 0.  1.
<mgrwt>
<rscale>  0 0.33874216E+04</rscale>
<asrwt>0</asrwt>
<pdfrwt beam="1">  1        2 0.24279552E+00 0.33874216E+04</pdfrwt>
<pdfrwt beam="2">  1       -2 0.27964761E+00 0.33874216E+04</pdfrwt>
<totfact> 0.40256402E-01</totfact>
</mgrwt>
</event>
<event>
 6    1  0.1528034E-005  0.1050746E+04  0.7818608E-02  0.9254574E-01
          2   -1    0    0  501    0  0.00000000000E+00  0.00000000000E+00  0.69616700497E+03  0.69616700497E+03  0.00000000000E+00 0. -1.
         -2   -1    0    0    0  501 -0.00000000000E+00 -0.00000000000E+00 -0.39648104444E+03  0.39648104444E+03  0.00000000000E+00 0.  1.
         23    2    1    2    0    0  0.15721382485E+03 -0.44271429647E+03  0.38541803386E+03  0.61508954679E+03  0.95267805275E+02 0.  0.
         13    1    3    3    0    0  0.86828276114E+02 -0.25609057069E+03  0.16042570471E+03  0.31441681994E+03  0.00000000000E+00 0. -1.
        -13    1    3    3    0    0  0.70385548738E+02 -0.18662372578E+03  0.22499232915E+03  0.30067272685E+03  0.00000000000E+00 0.  1.
         22    1    1    2    0    0 -0.15721382485E+03  0.44271429647E+03 -0.85732073327E+02  0.47755850262E+03  0.00000000000E+00 0.  1.
<mgrwt>
<rscale>  0 0.10507464E+04</rscale>
<asrwt>0</asrwt>
<pdfrwt beam="1">  1        2 0.10710262E+00 0.10507464E+04</pdfrwt>
<pdfrwt beam="2">  1       -2 0.60997084E-01 0.10507464E+04</pdfrwt>
<totfact> 0.10279427E+02</totfact>
</mgrwt>
</event>
<event>
 6    1  0.1528034E-005  0.2028810E+04  0.7818608E-02  0.8593268E-01
         -2   -1    0    0    0  501 -0.00000000000E+00  0.00000000000E+00  0.28607268547E+03  0.28607268547E+03  0.00000000000E+00 0.  1.
          2   -1    0    0  501    0  0.00000000000E+00 -0.00000000000E+00 -0.35970502551E+04  0.35970502551E+04  0.00000000000E+00 0. -1.
         23    2    1    2    0    0  0.57149882788E+03 -0.65799549970E+03 -0.67429493328E+03  0.11061345876E+04  0.96390252860E+02 0.  0.
         11    1    3    3    0    0  0.20218719878E+03 -0.16607925288E+03 -0.20783545575E+03  0.33415199873E+03  0.00000000000E+00 0. -1.
        -11    1    3    3    0    0  0.36931162910E+03 -0.49191624682E+03 -0.46645947753E+03  0.77198258883E+03  0.00000000000E+00 0.  1.
         22    1    1    2    0    0 -0.57149882788E+03  0.65799549970E+03 -0.26366826364E+04  0.27769883530E+04  0.00000000000E+00 0. -1.
<mgrwt>
<rscale>  0 0.20288103E+04</rscale>
<asrwt>0</asrwt>
<pdfrwt beam="1">  1        2 0.55339232E+00 0.20288103E+04</pdfrwt>
<pdfrwt beam="2">  1       -2 0.44011184E-01 0.20288103E+04</pdfrwt>
<totfact> 0.31675779E+00</totfact>
</mgrwt>
</event>
<event>
 6    1  0.1528034E-005  0.2314223E+04  0.7818608E-02  0.8472334E-01
          2   -1    0    0  501    0  0.00000000000E+00  0.00000000000E+00  0.15632437365E+04  0.15632437365E+04  0.00000000000E+00 0. -1.
         -2   -1    0    0    0  501 -0.00000000000E+00 -0.00000000000E+00 -0.85649292643E+03  0.85649292643E+03  0.00000000000E+00 0.  1.
         23    2    1    2    0    0  0.64718765861E+03  0.68221611668E+03  0.10557873723E+04  0.14166926873E+04  0.89780283822E+02 0.  0.
         11    1    3    3    0    0  0.58272785507E+03  0.59621351980E+03  0.89348702866E+03  0.12220316627E+04  0.00000000000E+00 0. -1.
        -11    1    3    3    0    0  0.64459803540E+02  0.86002596880E+02  0.16230034364E+03  0.19466102457E+03  0.00000000000E+00 0.  1.
         22    1    1    2    0    0 -0.64718765861E+03 -0.68221611668E+03 -0.34903656223E+03  0.10030439757E+04  0.00000000000E+00 0. -1.
<mgrwt>
<rscale>  0 0.23142232E+04</rscale>
<asrwt>0</asrwt>
<pdfrwt beam="1">  1        2 0.24049904E+00 0.23142232E+04</pdfrwt>
<pdfrwt beam="2">  1       -2 0.13176814E+00 0.23142232E+04</pdfrwt>
<totfact> 0.44447807E+00</totfact>
</mgrwt>
</event>
<event>
 6    1  0.1528034E-005  0.9134915E+04  0.7818608E-02  0.7390088E-01
          2   -1    0    0  501    0  0.00000000000E+00  0.00000000000E+00  0.56231802565E+04  0.56231802565E+04  0.00000000000E+00 0. -1.
         -2   -1    0    0    0  501 -0.00000000000E+00 -0.00000000000E+00 -0.37099408103E+04  0.37099408103E+04  0.00000000000E+00 0.  1.
         23    2    1    2    0    0 -0.22095776905E+04 -0.11356978531E+04  0.48720572727E+04  0.54696192725E+04  0.88032569838E+02 0.  0.
         11    1    3    3    0    0 -0.19536807360E+04 -0.10219693810E+04  0.42709959961E+04  0.48065264623E+04  0.00000000000E+00 0.  1.
        -11    1    3    3    0    0 -0.25589695453E+03 -0.11372847213E+03  0.60106127662E+03  0.66309281021E+03  0.00000000000E+00 0. -1.
         22    1    1    2    0    0  0.22095776905E+04  0.11356978531E+04 -0.29588178265E+04  0.38635017943E+04  0.00000000000E+00 0.  1.
<mgrwt>
<rscale>  0 0.91349145E+04</rscale>
<asrwt>0</asrwt>
<pdfrwt beam="1">  1        2 0.86510466E+00 0.91349145E+04</pdfrwt>
<pdfrwt beam="2">  1       -2 0.57076012E+00 0.91349145E+04</pdfrwt>
<totfact> 0.12114000E-06</totfact>
</mgrwt>
</event>
<event>
 6    1  0.1528034E-005  0.2883312E+04  0.7818608E-02  0.8277860E-01
          1   -1    0    0  501    0  0.00000000000E+00  0.00000000000E+00  0.14096453945E+04  0.14096453945E+04  0.00000000000E+00 0. -1.
         -1   -1    0    0    0  501 -0.00000000000E+00 -0.00000000000E+00 -0.14743932895E+04  0.14743932895E+04  0.00000000000E+00 0.  1.
         23    2    1    2    0    0  0.65784029907E+03  0.17989567394E+03 -0.13010462372E+04  0.14721074168E+04  0.96242520310E+02 0.  0.
         13    1    3    3    0    0  0.44382154917E+03  0.15977455689E+03 -0.94537737604E+03  0.10565244245E+04  0.00000000000E+00 0.  1.
        -13    1    3    3    0    0  0.21401874989E+03  0.20121117052E+02 -0.35566886113E+03  0.41558299224E+03  0.00000000000E+00 0. -1.
         22    1    1    2    0    0 -0.65784029907E+03 -0.17989567394E+03  0.12362983422E+04  0.14119312673E+04  0.00000000000E+00 0. -1.
<mgrwt>
<rscale>  0 0.28833118E+04</rscale>
<asrwt>0</asrwt>
<pdfrwt beam="1">  1        1 0.21686852E+00 0.28833118E+04</pdfrwt>
<pdfrwt beam="2">  1       -1 0.22682974E+00 0.28833118E+04</pdfrwt>
<totfact> 0.64422458E-01</totfact>
</mgrwt>
</event>
<event>
 6    1  0.1528034E-005  0.5985612E+03  0.7818608E-02  0.9908396E-01
         -2   -1    0    0    0  501 -0.00000000000E+00  0.00000000000E+00  0.70086762339E+02  0.70086762339E+02  0.00000000000E+00 0.  1.
          2   -1    0    0  501    0  0.00000000000E+00 -0.00000000000E+00 -0.12779714529E+04  0.12779714529E+04  0.00000000000E+00 0. -1.
         23    2    1    2    0    0 -0.25180653203E+03  0.68988021304E+02 -0.91589223046E+03  0.95636257650E+03  0.87206211128E+02 0.  0.
         11    1    3    3    0    0 -0.48056180721E+02  0.23955675767E+02 -0.92640101176E+02  0.10707688477E+03  0.00000000000E+00 0. -1.
        -11    1    3    3    0    0 -0.20375035131E+03  0.45032345537E+02 -0.82325212928E+03  0.84928569172E+03  0.00000000000E+00 0.  1.
         22    1    1    2    0    0  0.25180653203E+03 -0.68988021304E+02 -0.29199246015E+03  0.39169563878E+03  0.00000000000E+00 0.  1.
<mgrwt>
<rscale>  0 0.59856121E+03</rscale>
<asrwt>0</asrwt>
<pdfrwt beam="1">  1        2 0.19661099E+00 0.59856121E+03</pdfrwt>
<pdfrwt beam="2">  1       -2 0.10782579E-01 0.59856121E+03</pdfrwt>
<totfact> 0.10474568E+03</totfact>
</mgrwt>
</event>
<event>
 6    1  0.1528034E-005  0.3573476E+04  0.7818608E-02  0.8096595E-01
         -2   -1    0    0    0  501 -0.00000000000E+00  0.00000000000E+00  0.12079806884E+04  0.12079806884E+04  0.00000000000E+00 0.  1.
          2   -1    0    0  501    0  0.00000000000E+00 -0.00000000000E+00 -0.26427842207E+04  0.26427842207E+04  0.00000000000E+00 0. -1.
         23    2    1    2    0    0  0.15884850693E+04  0.40097695323E+03  0.47414955792E+02  0.16414575564E+04  0.89818701004E+02 0.  0.
         11    1    3    3    0    0  0.11901619733E+04  0.33838242768E+03  0.47596912132E+02  0.12382462017E+04  0.00000000000E+00 0. -1.
        -11    1    3    3    0    0  0.39832309599E+03  0.62594525557E+02 -0.18195633942E+00  0.40321135468E+03  0.00000000000E+00 0.  1.
         22    1    1    2    0    0 -0.15884850693E+04 -0.40097695323E+03 -0.14822184881E+04  0.22093073528E+04  0.00000000000E+00 0. -1.
<mgrwt>
<rscale>  0 0.35734758E+04</rscale>
<asrwt>0</asrwt>
<pdfrwt beam="1">  1        2 0.40658218E+00 0.35734758E+04</pdfrwt>
<pdfrwt beam="2">  1       -2 0.18584319E+00 0.35734758E+04</pdfrwt>
<totfact> 0.38774746E-01</totfact>
</mgrwt>
</event>
<event>
 6    1  0.1528034E-005  0.2502440E+04  0.7818608E-02  0.8402117E-01
         -1   -1    0    0    0  501 -0.00000000000E+00  0.00000000000E+00  0.51828182701E+03  0.51828182701E+03  0.00000000000E+00 0.  1.
          1   -1    0    0  501    0  0.00000000000E+00 -0.00000000000E+00 -0.30206571055E+04  0.30206571055E+04  0.00000000000E+00 0. -1.
         23    2    1    2    0    0 -0.12162164059E+03  0.69470580604E+02 -0.30088024359E+04  0.30134996394E+04  0.93112798775E+02 0.  0.
         11    1    3    3    0    0 -0.43436715532E+02  0.61372163035E+02 -0.20863287524E+04  0.20876831545E+04  0.00000000000E+00 0. -1.
        -11    1    3    3    0    0 -0.78184925054E+02  0.80984175688E+01 -0.92247368353E+03  0.92581648489E+03  0.00000000000E+00 0.  1.
         22    1    1    2    0    0  0.12162164059E+03 -0.69470580604E+02  0.50642715739E+03  0.52543929314E+03  0.00000000000E+00 0.  1.
<mgrwt>
<rscale>  0 0.25024402E+04</rscale>
<asrwt>0</asrwt>
<pdfrwt beam="1">  1        1 0.46471648E+00 0.25024402E+04</pdfrwt>
<pdfrwt beam="2">  1       -1 0.79735665E-01 0.25024402E+04</pdfrwt>
<totfact> 0.80553875E-01</totfact>
</mgrwt>
</event>
<event>
 6    1  0.1528034E-005  0.1354272E+04  0.7818608E-02  0.8987600E-01
          1   -1    0    0  501    0  0.00000000000E+00  0.00000000000E+00  0.66978054969E+03  0.66978054969E+03  0.00000000000E+00 0. -1.
         -1   -1    0    0    0  501 -0.00000000000E+00 -0.00000000000E+00 -0.68457235453E+03  0.68457235453E+03  0.00000000000E+00 0.  1.
         23    2    1    2    0    0  0.28858013690E+03  0.20593857002E+03 -0.58074374962E+03  0.68652748256E+03  0.91473993839E+02 0.  0.
         11    1    3    3    0    0  0.27119469597E+03  0.20870644100E+03 -0.51395995299E+03  0.61746236721E+03  0.00000000000E+00 0. -1.
        -11    1    3    3    0    0  0.17385440932E+02 -0.27678709859E+01 -0.66783796628E+02  0.69065115349E+02  0.00000000000E+00 0.  1.
         22    1    1    2    0    0 -0.28858013690E+03 -0.20593857002E+03  0.56595194477E+03  0.66782542167E+03  0.00000000000E+00 0. -1.
<mgrwt>
<rscale>  0 0.13542721E+04</rscale>
<asrwt>0</asrwt>
<pdfrwt beam="1">  1        1 0.10304316E+00 0.13542721E+04</pdfrwt>
<pdfrwt beam="2">  1       -1 0.10531882E+00 0.13542721E+04</pdfrwt>
<totfact> 0.24102028E+01</totfact>
</mgrwt>
</event>
<event>
 6    1  0.1528034E-005  0.2979615E+04  0.7818608E-02  0.8249576E-01
         -1   -1    0    0    0  501 -0.00000000000E+00  0.00000000000E+00  0.10686616986E+04  0.10686616986E+04  0.00000000000E+00 0.  1.
          1   -1    0    0  501    0  0.00000000000E+00 -0.00000000000E+00 -0.20769214844E+04  0.20769214844E+04  0.00000000000E+00 0. -1.
         23    2    1    2    0    0  0.39282002209E+03  0.12020601622E+04 -0.13333069536E+04  0.18398604465E+04  0.90126725592E+02 0.  0.
         13    1    3    3    0    0  0.32317335819E+03  0.86299158017E+03 -0.98213733082E+03  0.13467699223E+04  0.00000000000E+00 0.  1.
        -13    1    3    3    0    0  0.69646663898E+02  0.33906858204E+03 -0.35116962280E+03  0.49309052424E+03  0.00000000000E+00 0. -1.
         22    1    1    2    0    0 -0.39282002209E+03 -0.12020601622E+04  0.32504716785E+03  0.13057227365E+04  0.00000000000E+00 0.  1.
<mgrwt>
<rscale>  0 0.29796150E+04</rscale>
<asrwt>0</asrwt>
<pdfrwt beam="1">  1        1 0.31952638E+00 0.29796150E+04</pdfrwt>
<pdfrwt beam="2">  1       -1 0.16440949E+00 0.29796150E+04</pdfrwt>
<totfact> 0.60978541E-01</totfact>
</mgrwt>
</event>
<event>
 6    1  0.1851483E-005  0.3645561E+04  0.7818608E-02  0.8080134E-01
         -2   -1    0    0    0  501 -0.00000000000E+00  0.00000000000E+00  0.12319325342E+04  0.12319325342E+04  0.00000000000E+00 0.  1.
          2   -1    0    0  501    0  0.00000000000E+00 -0.00000000000E+00 -0.26970054241E+04  0.26970054241E+04  0.00000000000E+00 0. -1.
         23    2    1    2    0    0 -0.76346384527E+03 -0.14430982501E+04 -0.16041911555E+04  0.22904131662E+04  0.84578993531E+02 0.  0.
         13    1    3    3    0    0 -0.50117176824E+03 -0.85906927403E+03 -0.97751394400E+03  0.13945274001E+04  0.00000000000E+00 0. -1.
        -13    1    3    3    0    0 -0.26229207702E+03 -0.58402897604E+03 -0.62667721149E+03  0.89588576612E+03  0.00000000000E+00 0.  1.
         22    1    1    2    0    0  0.76346384527E+03  0.14430982501E+04  0.13911826561E+03  0.16385247921E+04  0.00000000000E+00 0.  1.
<mgrwt>
<rscale>  0 0.36455610E+04</rscale>
<asrwt>0</asrwt>
<pdfrwt beam="1">  1        2 0.41492391E+00 0.36455610E+04</pdfrwt>
<pdfrwt beam="2">  1       -2 0.18952808E+00 0.36455610E+04</pdfrwt>
<totfact> 0.33797601E-01</totfact>
</mgrwt>
</event>
<event>
 6    1  0.1528034E-005  0.2151547E+04  0.7818608E-02  0.8538870E-01
          1   -1    0    0  501    0  0.00000000000E+00  0.00000000000E+00  0.15468919507E+04  0.15468919507E+04  0.00000000000E+00 0.  1.
         -1   -1    0    0    0  501 -0.00000000000E+00 -0.00000000000E+00 -0.74813817581E+03  0.74813817581E+03  0.00000000000E+00 0. -1.
         23    2    1    2    0    0  0.37808469294E+03  0.15740444389E+03  0.14592099851E+04  0.15179029815E+04  0.83734621605E+02 0.  0.
         13    1    3    3    0    0  0.20696879272E+03  0.62154554415E+02  0.63569377988E+03  0.67142077088E+03  0.00000000000E+00 0. -1.
        -13    1    3    3    0    0  0.17111590022E+03  0.95249889473E+02  0.82351620519E+03  0.84648221066E+03  0.00000000000E+00 0.  1.
         22    1    1    2    0    0 -0.37808469294E+03 -0.15740444389E+03 -0.66045621014E+03  0.77712714501E+03  0.00000000000E+00 0. -1.
<mgrwt>
<rscale>  0 0.21515473E+04</rscale>
<asrwt>0</asrwt>
<pdfrwt beam="1">  1        1 0.23798338E+00 0.21515473E+04</pdfrwt>
<pdfrwt beam="2">  1       -1 0.11509818E+00 0.21515473E+04</pdfrwt>
<totfact> 0.38071377E+00</totfact>
</mgrwt>
</event>
<event>
 6    1  0.1528034E-005  0.2406205E+04  0.7818608E-02  0.8437184E-01
          1   -1    0    0  501    0  0.00000000000E+00  0.00000000000E+00  0.15962708064E+04  0.15962708064E+04  0.00000000000E+00 0. -1.
         -1   -1    0    0    0  501 -0.00000000000E+00 -0.00000000000E+00 -0.90677344193E+03  0.90677344193E+03  0.00000000000E+00 0.  1.
         23    2    1    2    0    0  0.11568487996E+04  0.18970351977E+03  0.61901791840E+03  0.13286278303E+04  0.88216538480E+02 0.  0.
         13    1    3    3    0    0  0.73992146197E+03  0.12109803426E+03  0.44329616294E+03  0.87101090226E+03  0.00000000000E+00 0. -1.
        -13    1    3    3    0    0  0.41692733764E+03  0.68605485501E+02  0.17572175547E+03  0.45761692807E+03  0.00000000000E+00 0.  1.
         22    1    1    2    0    0 -0.11568487996E+04 -0.18970351977E+03  0.70479446077E+02  0.11744164180E+04  0.00000000000E+00 0.  1.
<mgrwt>
<rscale>  0 0.24062053E+04</rscale>
<asrwt>0</asrwt>
<pdfrwt beam="1">  1        1 0.24558012E+00 0.24062053E+04</pdfrwt>
<pdfrwt beam="2">  1       -1 0.13950361E+00 0.24062053E+04</pdfrwt>
<totfact> 0.21269590E+00</totfact>
</mgrwt>
</event>
<event>
 6    1  0.1528034E-005  0.2374746E+04  0.7818608E-02  0.8449019E-01
         -1   -1    0    0    0  501 -0.00000000000E+00  0.00000000000E+00  0.52606104715E+03  0.52606104715E+03  0.00000000000E+00 0.  1.
          1   -1    0    0  501    0  0.00000000000E+00 -0.00000000000E+00 -0.26800210662E+04  0.26800210662E+04  0.00000000000E+00 0. -1.
         23    2    1    2    0    0  0.43568851884E+03 -0.10984816357E+04 -0.12086620831E+04  0.16927828775E+04  0.90351812183E+02 0.  0.
         13    1    3    3    0    0  0.10179007209E+03 -0.30207180784E+03 -0.37925610271E+03  0.49542283689E+03  0.00000000000E+00 0.  1.
        -13    1    3    3    0    0  0.33389844674E+03 -0.79640982785E+03 -0.82940598040E+03  0.11973600407E+04  0.00000000000E+00 0. -1.
         22    1    1    2    0    0 -0.43568851884E+03  0.10984816357E+04 -0.94529793590E+03  0.15132992358E+04  0.00000000000E+00 0.  1.
<mgrwt>
<rscale>  0 0.23747460E+04</rscale>
<asrwt>0</asrwt>
<pdfrwt beam="1">  1        1 0.41231093E+00 0.23747460E+04</pdfrwt>
<pdfrwt beam="2">  1       -1 0.80932469E-01 0.23747460E+04</pdfrwt>
<totfact> 0.13853474E+00</totfact>
</mgrwt>
</event>
<event>
 6    1  0.1528034E-005  0.6113012E+03  0.7818608E-02  0.9882233E-01
         -2   -1    0    0    0  501 -0.00000000000E+00  0.00000000000E+00  0.19590150641E+03  0.19590150641E+03  0.00000000000E+00 0. -1.
          2   -1    0    0  501    0  0.00000000000E+00 -0.00000000000E+00 -0.47688394508E+03  0.47688394508E+03  0.00000000000E+00 0.  1.
         23    2    1    2    0    0 -0.34415402469E+02 -0.11850431072E+03  0.15820774333E+03  0.21658844630E+03  0.81566987404E+02 0.  0.
         11    1    3    3    0    0  0.25677684012E+02 -0.20453478611E+02  0.38381386940E+02  0.50505634408E+02  0.00000000000E+00 0.  1.
        -11    1    3    3    0    0 -0.60093086480E+02 -0.98050832104E+02  0.11982635639E+03  0.16608281189E+03  0.00000000000E+00 0. -1.
         22    1    1    2    0    0  0.34415402469E+02  0.11850431072E+03 -0.43919018200E+03  0.45619700519E+03  0.00000000000E+00 0.  1.
<mgrwt>
<rscale>  0 0.61130118E+03</rscale>
<asrwt>0</asrwt>
<pdfrwt beam="1">  1        2 0.73366760E-01 0.61130118E+03</pdfrwt>
<pdfrwt beam="2">  1       -2 0.30138694E-01 0.61130118E+03</pdfrwt>
<totfact> 0.66507953E+02</totfact>
</mgrwt>
</event>
<event>
 6    1  0.1528034E-005  0.3936214E+03  0.7818608E-02  0.1046011E+00
         -1   -1    0    0    0  501 -0.00000000000E+00  0.00000000000E+00  0.35068310529E+03  0.35068310529E+03  0.00000000000E+00 0.  1.
          1   -1    0    0  501    0  0.00000000000E+00 -0.00000000000E+00 -0.11045427185E+03  0.11045427185E+03  0.00000000000E+00 0. -1.
         23    2    1    2    0    0  0.17508298090E+02 -0.15029191092E+03  0.25379949496E+03  0.30922173659E+03  0.91157554500E+02 0.  0.
         13    1    3    3    0    0  0.78968734378E+01 -0.73871896736E+02  0.45453001889E+02  0.87094162366E+02  0.00000000000E+00 0.  1.
        -13    1    3    3    0    0  0.96114246521E+01 -0.76420014185E+02  0.20834649308E+03  0.22212757422E+03  0.00000000000E+00 0. -1.
         22    1    1    2    0    0 -0.17508298090E+02  0.15029191092E+03 -0.13570661526E+02  0.15191564055E+03  0.00000000000E+00 0. -1.
<mgrwt>
<rscale>  0 0.39362138E+03</rscale>
<asrwt>0</asrwt>
<pdfrwt beam="1">  1        1 0.16992965E-01 0.39362138E+03</pdfrwt>
<pdfrwt beam="2">  1       -1 0.53951246E-01 0.39362138E+03</pdfrwt>
<totfact> 0.11304852E+03</totfact>
</mgrwt>
</event>
<event>
 6    1  0.1528034E-005  0.1580945E+04  0.7818608E-02  0.8832340E-01
          1   -1    0    0  501    0  0.00000000000E+00  0.00000000000E+00  0.44211195195E+03  0.44211195195E+03  0.00000000000E+00 0. -1.
         -1   -1    0    0    0  501 -0.00000000000E+00 -0.00000000000E+00 -0.14133233813E+04  0.14133233813E+04  0.00000000000E+00 0.  1.
         23    2    1    2    0    0 -0.72752807607E+03 -0.26819950925E+03 -0.65141689929E+03  0.10166882798E+04  0.89905524305E+02 0.  0.
         13    1    3    3    0    0 -0.61849499038E+03 -0.25549418443E+03 -0.53578682858E+03  0.85725192160E+03  0.00000000000E+00 0. -1.
        -13    1    3    3    0    0 -0.10903308569E+03 -0.12705324823E+02 -0.11563007071E+03  0.15943635817E+03  0.00000000000E+00 0.  1.
         22    1    1    2    0    0  0.72752807607E+03  0.26819950925E+03 -0.31979453003E+03  0.83874705345E+03  0.00000000000E+00 0. -1.
<mgrwt>
<rscale>  0 0.15809455E+04</rscale>
<asrwt>0</asrwt>
<pdfrwt beam="1">  1        1 0.68017223E-01 0.15809455E+04</pdfrwt>
<pdfrwt beam="2">  1       -1 0.21743437E+00 0.15809455E+04</pdfrwt>
<totfact> 0.57707447E+00</totfact>
</mgrwt>
</event>
<event>
 6    1  0.1528034E-005  0.3162429E+04  0.7818608E-02  0.8198811E-01
         -1   -1    0    0    0  501 -0.00000000000E+00  0.00000000000E+00  0.88795501602E+03  0.88795501602E+03  0.00000000000E+00 0.  1.
          1   -1    0    0  501    0  0.00000000000E+00 -0.00000000000E+00 -0.28157274674E+04  0.28157274674E+04  0.00000000000E+00 0. -1.
         23    2    1    2    0    0  0.25956188829E+03 -0.12623299005E+04  0.10580862616E+03  0.12961316220E+04  0.88952597823E+02 0.  0.
         11    1    3    3    0    0  0.91449724687E+02 -0.48939275503E+03 -0.15878855210E+01  0.49786628948E+03  0.00000000000E+00 0. -1.
        -11    1    3    3    0    0  0.16811216361E+03 -0.77293714545E+03  0.10739651168E+03  0.79826533251E+03  0.00000000000E+00 0.  1.
         22    1    1    2    0    0 -0.25956188829E+03  0.12623299005E+04 -0.20335810776E+04  0.24075508615E+04  0.00000000000E+00 0. -1.
<mgrwt>
<rscale>  0 0.31624290E+04</rscale>
<asrwt>0</asrwt>
<pdfrwt beam="1">  1        1 0.43318884E+00 0.31624290E+04</pdfrwt>
<pdfrwt beam="2">  1       -1 0.13660846E+00 0.31624290E+04</pdfrwt>
<totfact> 0.30436886E-01</totfact>
</mgrwt>
</event>
<event>
 6    1  0.1528034E-005  0.5761775E+03  0.7818608E-02  0.9956101E-01
          2   -1    0    0  501    0  0.00000000000E+00  0.00000000000E+00  0.20897483122E+03  0.20897483122E+03  0.00000000000E+00 0. -1.
         -2   -1    0    0    0  501 -0.00000000000E+00 -0.00000000000E+00 -0.39715373486E+03  0.39715373486E+03  0.00000000000E+00 0.  1.
         23    2    1    2    0    0  0.23421993732E+02  0.27723469299E+03 -0.13622470015E+03  0.32309693525E+03  0.91797580872E+02 0.  0.
         11    1    3    3    0    0  0.34001760045E+01  0.91671598596E+02 -0.94794548666E+02  0.13191379626E+03  0.00000000000E+00 0.  1.
        -11    1    3    3    0    0  0.20021817728E+02  0.18556309439E+03 -0.41430151483E+02  0.19118313900E+03  0.00000000000E+00 0. -1.
         22    1    1    2    0    0 -0.23421993732E+02 -0.27723469299E+03 -0.51954203487E+02  0.28303163082E+03  0.00000000000E+00 0. -1.
<mgrwt>
<rscale>  0 0.57617752E+03</rscale>
<asrwt>0</asrwt>
<pdfrwt beam="1">  1        2 0.32149974E-01 0.57617752E+03</pdfrwt>
<pdfrwt beam="2">  1       -2 0.61100574E-01 0.57617752E+03</pdfrwt>
<totfact> 0.41402870E+02</totfact>
</mgrwt>
</event>
<event>
 6    1  0.1528034E-005  0.3566115E+04  0.7818608E-02  0.8098298E-01
          2   -1    0    0  501    0  0.00000000000E+00  0.00000000000E+00  0.19905935228E+04  0.19905935228E+04  0.00000000000E+00 0. -1.
         -2   -1    0    0    0  501 -0.00000000000E+00 -0.00000000000E+00 -0.15971588201E+04  0.15971588201E+04  0.00000000000E+00 0.  1.
         23    2    1    2    0    0 -0.10647786939E+04  0.47993893582E+03 -0.11570688288E+04  0.16465784068E+04  0.91198278681E+02 0.  0.
         11    1    3    3    0    0 -0.27376634821E+03  0.94775285690E+02 -0.24617376461E+03  0.38017350062E+03  0.00000000000E+00 0. -1.
        -11    1    3    3    0    0 -0.79101234568E+03  0.38516365013E+03 -0.91089506419E+03  0.12664049062E+04  0.00000000000E+00 0.  1.
         22    1    1    2    0    0  0.10647786939E+04 -0.47993893582E+03  0.15505035315E+04  0.19411739361E+04  0.00000000000E+00 0. -1.
<mgrwt>
<rscale>  0 0.35661150E+04</rscale>
<asrwt>0</asrwt>
<pdfrwt beam="1">  1        2 0.30624516E+00 0.35661150E+04</pdfrwt>
<pdfrwt beam="2">  1       -2 0.24571674E+00 0.35661150E+04</pdfrwt>
<totfact> 0.37743489E-01</totfact>
</mgrwt>
</event>
<event>
 6    1  0.1528034E-005  0.7330828E+04  0.7818608E-02  0.7544247E-01
         -3   -1    0    0    0  501 -0.00000000000E+00  0.00000000000E+00  0.31065899204E+04  0.31065899204E+04  0.00000000000E+00 0.  1.
          3   -1    0    0  501    0  0.00000000000E+00 -0.00000000000E+00 -0.43247612111E+04  0.43247612111E+04  0.00000000000E+00 0. -1.
         23    2    1    2    0    0 -0.90159349609E+03  0.28512725175E+04  0.15384896602E+04  0.33641892955E+04  0.90517292511E+02 0.  0.
         11    1    3    3    0    0 -0.46001741655E+03  0.15218318893E+04  0.77239543299E+03  0.17675358632E+04  0.00000000000E+00 0. -1.
        -11    1    3    3    0    0 -0.44157607954E+03  0.13294406283E+04  0.76609422717E+03  0.15966534324E+04  0.00000000000E+00 0.  1.
         22    1    1    2    0    0  0.90159349609E+03 -0.28512725175E+04 -0.27566609509E+04  0.40671618359E+04  0.00000000000E+00 0. -1.
<mgrwt>
<rscale>  0 0.73308279E+04</rscale>
<asrwt>0</asrwt>
<pdfrwt beam="1">  1        3 0.66534788E+00 0.73308279E+04</pdfrwt>
<pdfrwt beam="2">  1       -3 0.47793691E+00 0.73308279E+04</pdfrwt>
<totfact> 0.32198912E-06</totfact>
</mgrwt>
</event>
<event>
 6    1  0.1528034E-005  0.2926447E+04  0.7818608E-02  0.8265052E-01
         -1   -1    0    0    0  501 -0.00000000000E+00  0.00000000000E+00  0.10474090845E+04  0.10474090845E+04  0.00000000000E+00 0.  1.
          1   -1    0    0  501    0  0.00000000000E+00 -0.00000000000E+00 -0.20441135381E+04  0.20441135381E+04  0.00000000000E+00 0. -1.
         23    2    1    2    0    0  0.10953787650E+04 -0.46751172564E+03  0.39651007877E+03  0.12586373054E+04  0.92335104885E+02 0.  0.
         13    1    3    3    0    0  0.29179509158E+03 -0.13105798374E+03  0.64337090274E+02  0.32628182873E+03  0.00000000000E+00 0. -1.
        -13    1    3    3    0    0  0.80358367344E+03 -0.33645374189E+03  0.33217298850E+03  0.93235547671E+03  0.00000000000E+00 0.  1.
         22    1    1    2    0    0 -0.10953787650E+04  0.46751172564E+03 -0.13932145324E+04  0.18328853172E+04  0.00000000000E+00 0. -1.
<mgrwt>
<rscale>  0 0.29264471E+04</rscale>
<asrwt>0</asrwt>
<pdfrwt beam="1">  1        1 0.31447900E+00 0.29264471E+04</pdfrwt>
<pdfrwt beam="2">  1       -1 0.16113986E+00 0.29264471E+04</pdfrwt>
<totfact> 0.68238028E-01</totfact>
</mgrwt>
</event>
<event>
 6    1  0.1528034E-005  0.4510977E+04  0.7818608E-02  0.7908718E-01
          2   -1    0    0  501    0  0.00000000000E+00  0.00000000000E+00  0.36792209609E+04  0.36792209609E+04  0.00000000000E+00 0. -1.
         -2   -1    0    0    0  501 -0.00000000000E+00 -0.00000000000E+00 -0.13826915238E+04  0.13826915238E+04  0.00000000000E+00 0.  1.
         23    2    1    2    0    0 -0.48484171542E+03 -0.60279547141E+03  0.35250683133E+04  0.36101061479E+04  0.91246457460E+02 0.  0.
         11    1    3    3    0    0 -0.39093365950E+03 -0.53359786459E+03  0.29349033001E+04  0.30085234233E+04  0.00000000000E+00 0.  1.
        -11    1    3    3    0    0 -0.93908055924E+02 -0.69197606820E+02  0.59016501319E+03  0.60158272461E+03  0.00000000000E+00 0. -1.
         22    1    1    2    0    0  0.48484171542E+03  0.60279547141E+03 -0.12285388763E+04  0.14518063369E+04  0.00000000000E+00 0.  1.
<mgrwt>
<rscale>  0 0.45109767E+04</rscale>
<asrwt>0</asrwt>
<pdfrwt beam="1">  1        2 0.56603399E+00 0.45109767E+04</pdfrwt>
<pdfrwt beam="2">  1       -2 0.21272177E+00 0.45109767E+04</pdfrwt>
<totfact> 0.50213505E-02</totfact>
</mgrwt>
</event>
<event>
 6    1  0.1528034E-005  0.2618798E+04  0.7818608E-02  0.8361844E-01
          1   -1    0    0  501    0  0.00000000000E+00  0.00000000000E+00  0.10697329901E+04  0.10697329901E+04  0.00000000000E+00 0. -1.
         -1   -1    0    0    0  501 -0.00000000000E+00 -0.00000000000E+00 -0.16027608092E+04  0.16027608092E+04  0.00000000000E+00 0.  1.
         23    2    1    2    0    0 -0.48757640653E+03  0.12081251420E+04 -0.38339077172E+03  0.13611249126E+04  0.91517391473E+02 0.  0.
         13    1    3    3    0    0 -0.29535893081E+03  0.64354406599E+03 -0.24080110400E+03  0.74791111408E+03  0.00000000000E+00 0.  1.
        -13    1    3    3    0    0 -0.19221747572E+03  0.56458107600E+03 -0.14258966772E+03  0.61321379851E+03  0.00000000000E+00 0. -1.
         22    1    1    2    0    0  0.48757640653E+03 -0.12081251420E+04 -0.14963704738E+03  0.13113688866E+04  0.00000000000E+00 0. -1.
<mgrwt>
<rscale>  0 0.26187983E+04</rscale>
<asrwt>0</asrwt>
<pdfrwt beam="1">  1        1 0.16457431E+00 0.26187983E+04</pdfrwt>
<pdfrwt beam="2">  1       -1 0.24657859E+00 0.26187983E+04</pdfrwt>
<totfact> 0.86273856E-01</totfact>
</mgrwt>
</event>
<event>
 6    1  0.1528034E-005  0.1041378E+04  0.7818608E-02  0.9264291E-01
          2   -1    0    0  501    0  0.00000000000E+00  0.00000000000E+00  0.12528951622E+04  0.12528951622E+04  0.00000000000E+00 0. -1.
         -2   -1    0    0    0  501 -0.00000000000E+00 -0.00000000000E+00 -0.21639259221E+03  0.21639259221E+03  0.00000000000E+00 0.  1.
         23    2    1    2    0    0  0.40556863983E+03 -0.13036069853E+03  0.10948521184E+03  0.44907159317E+03  0.90545297213E+02 0.  0.
         13    1    3    3    0    0  0.18486916685E+03 -0.33003814506E+02  0.86511656990E+02  0.20676103941E+03  0.00000000000E+00 0. -1.
        -13    1    3    3    0    0  0.22069947298E+03 -0.97356884028E+02  0.22973554851E+02  0.24231055376E+03  0.00000000000E+00 0.  1.
         22    1    1    2    0    0 -0.40556863983E+03  0.13036069853E+03  0.92701735820E+03  0.10202161613E+04  0.00000000000E+00 0. -1.
<mgrwt>
<rscale>  0 0.10413784E+04</rscale>
<asrwt>0</asrwt>
<pdfrwt beam="1">  1        2 0.19275310E+00 0.10413784E+04</pdfrwt>
<pdfrwt beam="2">  1       -2 0.33291169E-01 0.10413784E+04</pdfrwt>
<totfact> 0.14774809E+02</totfact>
</mgrwt>
</event>
<event>
 6    1  0.1528034E-005  0.1985173E+04  0.7818608E-02  0.8613584E-01
         -2   -1    0    0    0  501 -0.00000000000E+00  0.00000000000E+00  0.10843174904E+04  0.10843174904E+04  0.00000000000E+00 0. -1.
          2   -1    0    0  501    0  0.00000000000E+00 -0.00000000000E+00 -0.90861607758E+03  0.90861607758E+03  0.00000000000E+00 0.  1.
         23    2    1    2    0    0  0.44956118003E+03  0.13268791995E+03  0.96359006546E+03  0.10761566771E+04  0.99478845800E+02 0.  0.
         13    1    3    3    0    0  0.28652652177E+03  0.12101734007E+03  0.55730808989E+03  0.63822797755E+03  0.00000000000E+00 0.  1.
        -13    1    3    3    0    0  0.16303465826E+03  0.11670579875E+02  0.40628197557E+03  0.43792869956E+03  0.00000000000E+00 0. -1.
         22    1    1    2    0    0 -0.44956118003E+03 -0.13268791995E+03 -0.78788865263E+03  0.91677689087E+03  0.00000000000E+00 0.  1.
<mgrwt>
<rscale>  0 0.19851733E+04</rscale>
<asrwt>0</asrwt>
<pdfrwt beam="1">  1        2 0.13978709E+00 0.19851733E+04</pdfrwt>
<pdfrwt beam="2">  1       -2 0.16681808E+00 0.19851733E+04</pdfrwt>
<totfact> 0.60427541E+00</totfact>
</mgrwt>
</event>
<event>
 6    1  0.1528034E-005  0.8583450E+03  0.7818608E-02  0.9479205E-01
          2   -1    0    0  501    0  0.00000000000E+00  0.00000000000E+00  0.38451893636E+03  0.38451893636E+03  0.00000000000E+00 0. -1.
         -2   -1    0    0    0  501 -0.00000000000E+00 -0.00000000000E+00 -0.47901160680E+03  0.47901160680E+03  0.00000000000E+00 0.  1.
         23    2    1    2    0    0  0.11911634129E+03  0.30848361098E+03  0.21948067379E+03  0.40753701043E+03  0.92540843419E+02 0.  0.
         13    1    3    3    0    0  0.65306161385E+02  0.26767157164E+03  0.16906499481E+03  0.32325831382E+03  0.00000000000E+00 0. -1.
        -13    1    3    3    0    0  0.53810179909E+02  0.40812039333E+02  0.50415678983E+02  0.84278696618E+02  0.00000000000E+00 0.  1.
         22    1    1    2    0    0 -0.11911634129E+03 -0.30848361098E+03 -0.31397334423E+03  0.45599353273E+03  0.00000000000E+00 0.  1.
<mgrwt>
<rscale>  0 0.85834500E+03</rscale>
<asrwt>0</asrwt>
<pdfrwt beam="1">  1        2 0.59156759E-01 0.85834500E+03</pdfrwt>
<pdfrwt beam="2">  1       -2 0.73694093E-01 0.85834500E+03</pdfrwt>
<totfact> 0.13881856E+02</totfact>
</mgrwt>
</event>
<event>
 6    1  0.1528034E-005  0.8075965E+03  0.7818608E-02  0.9549086E-01
         -1   -1    0    0    0  501 -0.00000000000E+00  0.00000000000E+00  0.93609578518E+02  0.93609578518E+02  0.00000000000E+00 0.  1.
          1   -1    0    0  501    0  0.00000000000E+00 -0.00000000000E+00 -0.17418410890E+04  0.17418410890E+04  0.00000000000E+00 0. -1.
         23    2    1    2    0    0 -0.35372264296E+03  0.14735394325E+03 -0.10833818241E+04  0.11528907354E+04  0.92779190669E+02 0.  0.
         11    1    3    3    0    0 -0.19502815222E+03  0.64594157641E+02 -0.44948735012E+03  0.49421378297E+03  0.00000000000E+00 0.  1.
        -11    1    3    3    0    0 -0.15869449074E+03  0.82759785606E+02 -0.63389447396E+03  0.65867695240E+03  0.00000000000E+00 0. -1.
         22    1    1    2    0    0  0.35372264296E+03 -0.14735394325E+03 -0.56484968636E+03  0.68255993211E+03  0.00000000000E+00 0.  1.
<mgrwt>
<rscale>  0 0.80759646E+03</rscale>
<asrwt>0</asrwt>
<pdfrwt beam="1">  1        1 0.26797552E+00 0.80759646E+03</pdfrwt>
<pdfrwt beam="2">  1       -1 0.14401475E-01 0.80759646E+03</pdfrwt>
<totfact> 0.15985788E+02</totfact>
</mgrwt>
</event>
<event>
 6    1  0.1528034E-005  0.1069672E+04  0.7818608E-02  0.9235266E-01
          1   -1    0    0  501    0  0.00000000000E+00  0.00000000000E+00  0.62947968482E+03  0.62947968482E+03  0.00000000000E+00 0. -1.
         -1   -1    0    0    0  501 -0.00000000000E+00 -0.00000000000E+00 -0.45442236149E+03  0.45442236149E+03  0.00000000000E+00 0.  1.
         23    2    1    2    0    0 -0.47665171374E+02  0.37380948743E+03 -0.29069388253E+03  0.48479463757E+03  0.92289792633E+02 0.  0.
         11    1    3    3    0    0 -0.53709889542E+02  0.17782193372E+03 -0.18446421069E+03  0.26178700765E+03  0.00000000000E+00 0. -1.
        -11    1    3    3    0    0  0.60447181676E+01  0.19598755371E+03 -0.10622967184E+03  0.22300762992E+03  0.00000000000E+00 0.  1.
         22    1    1    2    0    0  0.47665171374E+02 -0.37380948743E+03  0.46575120585E+03  0.59910740874E+03  0.00000000000E+00 0. -1.
<mgrwt>
<rscale>  0 0.10696722E+04</rscale>
<asrwt>0</asrwt>
<pdfrwt beam="1">  1        1 0.96843029E-01 0.10696722E+04</pdfrwt>
<pdfrwt beam="2">  1       -1 0.69911132E-01 0.10696722E+04</pdfrwt>
<totfact> 0.65982404E+01</totfact>
</mgrwt>
</event>
<event>
 6    1  0.1528034E-005  0.4900568E+03  0.7818608E-02  0.1016407E+00
         -3   -1    0    0    0  501 -0.00000000000E+00  0.00000000000E+00  0.69596386440E+02  0.69596386440E+02  0.00000000000E+00 0. -1.
          3   -1    0    0  501    0  0.00000000000E+00 -0.00000000000E+00 -0.86267306004E+03  0.86267306004E+03  0.00000000000E+00 0.  1.
         23    2    1    2    0    0  0.12500825757E+03  0.12258984034E+03 -0.10964902632E+03  0.22677055740E+03  0.93523490731E+02 0.  0.
         11    1    3    3    0    0  0.55775541496E+00  0.21764776022E+02  0.12712619465E+02  0.25211649293E+02  0.00000000000E+00 0.  1.
        -11    1    3    3    0    0  0.12445050215E+03  0.10082506432E+03 -0.12236164578E+03  0.20155890811E+03  0.00000000000E+00 0. -1.
         22    1    1    2    0    0 -0.12500825757E+03 -0.12258984034E+03 -0.68342764728E+03  0.70549888908E+03  0.00000000000E+00 0.  1.
<mgrwt>
<rscale>  0 0.49005684E+03</rscale>
<asrwt>0</asrwt>
<pdfrwt beam="1">  1        3 0.13271893E+00 0.49005684E+03</pdfrwt>
<pdfrwt beam="2">  1       -3 0.10707136E-01 0.49005684E+03</pdfrwt>
<totfact> 0.79316424E+01</totfact>
</mgrwt>
</event>
<event>
 6    1  0.1528034E-005  0.1204657E+04  0.7818608E-02  0.9108790E-01
         -4   -1    0    0    0  501 -0.00000000000E+00  0.00000000000E+00  0.13826803200E+03  0.13826803200E+03  0.00000000000E+00 0.  1.
          4   -1    0    0  501    0  0.00000000000E+00 -0.00000000000E+00 -0.26238853358E+04  0.26238853358E+04  0.00000000000E+00 0. -1.
         23    2    1    2    0    0  0.24100279892E+03  0.49249668104E+03 -0.17996436944E+04  0.18839762087E+04  0.10006796900E+03 0.  0.
         11    1    3    3    0    0  0.24294342035E+02  0.15015392174E+03 -0.47673629305E+03  0.50041373720E+03  0.00000000000E+00 0. -1.
        -11    1    3    3    0    0  0.21670845689E+03  0.34234275930E+03 -0.13229074013E+04  0.13835624715E+04  0.00000000000E+00 0.  1.
         22    1    1    2    0    0 -0.24100279892E+03 -0.49249668104E+03 -0.68597360948E+03  0.87817715914E+03  0.00000000000E+00 0.  1.
<mgrwt>
<rscale>  0 0.12046567E+04</rscale>
<asrwt>0</asrwt>
<pdfrwt beam="1">  1        4 0.40367466E+00 0.12046567E+04</pdfrwt>
<pdfrwt beam="2">  1       -4 0.21272005E-01 0.12046567E+04</pdfrwt>
<totfact> 0.26858530E-01</totfact>
</mgrwt>
</event>
<event>
 6    1  0.1528034E-005  0.1238374E+04  0.7818608E-02  0.9079915E-01
          1   -1    0    0  501    0  0.00000000000E+00  0.00000000000E+00  0.31201009472E+04  0.31201009472E+04  0.00000000000E+00 0. -1.
         -1   -1    0    0    0  501 -0.00000000000E+00 -0.00000000000E+00 -0.12287829591E+03  0.12287829591E+03  0.00000000000E+00 0.  1.
         23    2    1    2    0    0 -0.22924660398E+03 -0.45174323237E+03  0.24237209615E+04  0.24777798301E+04  0.91343494894E+02 0.  0.
         11    1    3    3    0    0 -0.88026451812E+02 -0.10686406937E+03  0.53356376225E+03  0.55123395571E+03  0.00000000000E+00 0. -1.
        -11    1    3    3    0    0 -0.14122015217E+03 -0.34487916300E+03  0.18901571992E+04  0.19265458744E+04  0.00000000000E+00 0.  1.
         22    1    1    2    0    0  0.22924660398E+03  0.45174323237E+03  0.57350168985E+03  0.76519941302E+03  0.00000000000E+00 0.  1.
<mgrwt>
<rscale>  0 0.12383742E+04</rscale>
<asrwt>0</asrwt>
<pdfrwt beam="1">  1        1 0.48001547E+00 0.12383742E+04</pdfrwt>
<pdfrwt beam="2">  1       -1 0.18904356E-01 0.12383742E+04</pdfrwt>
<totfact> 0.10966433E+01</totfact>
</mgrwt>
</event>
<event>
 6    1  0.1528034E-005  0.2496608E+04  0.7818608E-02  0.8404195E-01
          2   -1    0    0  501    0  0.00000000000E+00  0.00000000000E+00  0.82257165576E+03  0.82257165576E+03  0.00000000000E+00 0. -1.
         -2   -1    0    0    0  501 -0.00000000000E+00 -0.00000000000E+00 -0.18943802371E+04  0.18943802371E+04  0.00000000000E+00 0.  1.
         23    2    1    2    0    0 -0.22782580892E+03 -0.12058955777E+04 -0.77496604748E+03  0.14543338851E+04  0.91792870776E+02 0.  0.
         11    1    3    3    0    0 -0.11168744751E+03 -0.41024087423E+03 -0.30127613239E+03  0.52109401145E+03  0.00000000000E+00 0.  1.
        -11    1    3    3    0    0 -0.11613836141E+03 -0.79565470347E+03 -0.47368991509E+03  0.93323987367E+03  0.00000000000E+00 0. -1.
         22    1    1    2    0    0  0.22782580892E+03  0.12058955777E+04 -0.29684253381E+03  0.12626180077E+04  0.00000000000E+00 0. -1.
<mgrwt>
<rscale>  0 0.24966085E+04</rscale>
<asrwt>0</asrwt>
<pdfrwt beam="1">  1        2 0.12654949E+00 0.24966085E+04</pdfrwt>
<pdfrwt beam="2">  1       -2 0.29144311E+00 0.24966085E+04</pdfrwt>
<totfact> 0.10615863E+00</totfact>
</mgrwt>
</event>
<event>
 6    1  0.1774755E-005  0.5138610E+04  0.7818608E-02  0.7807474E-01
         -2   -1    0    0    0  501 -0.00000000000E+00  0.00000000000E+00  0.25636875467E+04  0.25636875467E+04  0.00000000000E+00 0. -1.
          2   -1    0    0  501    0  0.00000000000E+00 -0.00000000000E+00 -0.25749348999E+04  0.25749348999E+04  0.00000000000E+00 0.  1.
         23    2    1    2    0    0 -0.97849400458E+03 -0.11535493590E+04 -0.20810017324E+04  0.25750292981E+04  0.10991376200E+03 0.  0.
         11    1    3    3    0    0 -0.48742240340E+03 -0.65002941993E+03 -0.11577911104E+04  0.14144253609E+04  0.00000000000E+00 0. -1.
        -11    1    3    3    0    0 -0.49107160118E+03 -0.50351993902E+03 -0.92321062199E+03  0.11606039372E+04  0.00000000000E+00 0.  1.
         22    1    1    2    0    0  0.97849400458E+03  0.11535493590E+04  0.20697543793E+04  0.25635931485E+04  0.00000000000E+00 0. -1.
<mgrwt>
<rscale>  0 0.51386101E+04</rscale>
<asrwt>0</asrwt>
<pdfrwt beam="1">  1        2 0.39614383E+00 0.51386101E+04</pdfrwt>
<pdfrwt beam="2">  1       -2 0.39441347E+00 0.51386101E+04</pdfrwt>
<totfact> 0.18312288E-02</totfact>
</mgrwt>
</event>
<event>
 6    1  0.1528034E-005  0.1626273E+04  0.7818608E-02  0.8804568E-01
         -1   -1    0    0    0  501 -0.00000000000E+00  0.00000000000E+00  0.74496189129E+03  0.74496189129E+03  0.00000000000E+00 0.  1.
          1   -1    0    0  501    0  0.00000000000E+00 -0.00000000000E+00 -0.88754958039E+03  0.88754958039E+03  0.00000000000E+00 0. -1.
         23    2    1    2    0    0  0.59480764052E+03  0.40690871895E+03 -0.44459335948E+03  0.85111639893E+03  0.85819778912E+02 0.  0.
         11    1    3    3    0    0  0.45676757779E+03  0.26784612596E+03 -0.33556786432E+03  0.62688432655E+03  0.00000000000E+00 0. -1.
        -11    1    3    3    0    0  0.13804006273E+03  0.13906259299E+03 -0.10902549516E+03  0.22423207238E+03  0.00000000000E+00 0.  1.
         22    1    1    2    0    0 -0.59480764052E+03 -0.40690871895E+03  0.30200567039E+03  0.78139507275E+03  0.00000000000E+00 0.  1.
<mgrwt>
<rscale>  0 0.16262726E+04</rscale>
<asrwt>0</asrwt>
<pdfrwt beam="1">  1        1 0.13654609E+00 0.16262726E+04</pdfrwt>
<pdfrwt beam="2">  1       -1 0.11460952E+00 0.16262726E+04</pdfrwt>
<totfact> 0.12348434E+01</totfact>
</mgrwt>
</event>
<event>
 6    1  0.1528034E-005  0.4142836E+04  0.7818608E-02  0.7976336E-01
         -2   -1    0    0    0  501 -0.00000000000E+00  0.00000000000E+00  0.36566389449E+04  0.36566389449E+04  0.00000000000E+00 0.  1.
          2   -1    0    0  501    0  0.00000000000E+00 -0.00000000000E+00 -0.11734197030E+04  0.11734197030E+04  0.00000000000E+00 0. -1.
         23    2    1    2    0    0  0.16162542226E+04 -0.12492225464E+04  0.84883018149E+03  0.22139427706E+04  0.90527521511E+02 0.  0.
         13    1    3    3    0    0  0.17332456014E+03 -0.15403442948E+03  0.12269384158E+03  0.26233906948E+03  0.00000000000E+00 0. -1.
        -13    1    3    3    0    0  0.14429296624E+04 -0.10951881169E+04  0.72613633991E+03  0.19516037012E+04  0.00000000000E+00 0.  1.
         22    1    1    2    0    0 -0.16162542226E+04  0.12492225464E+04  0.16343890604E+04  0.26161158773E+04  0.00000000000E+00 0.  1.
<mgrwt>
<rscale>  0 0.41428358E+04</rscale>
<asrwt>0</asrwt>
<pdfrwt beam="1">  1        2 0.18052611E+00 0.41428358E+04</pdfrwt>
<pdfrwt beam="2">  1       -2 0.56255983E+00 0.41428358E+04</pdfrwt>
<totfact> 0.11347179E-02</totfact>
</mgrwt>
</event>
<event>
 6    1  0.1598207E-005  0.4065218E+04  0.7818608E-02  0.7991518E-01
         -1   -1    0    0    0  501 -0.00000000000E+00  0.00000000000E+00  0.14106461555E+04  0.14106461555E+04  0.00000000000E+00 0.  1.
          1   -1    0    0  501    0  0.00000000000E+00 -0.00000000000E+00 -0.29287996570E+04  0.29287996570E+04  0.00000000000E+00 0. -1.
         23    2    1    2    0    0  0.17027842097E+03  0.69547039793E+03 -0.27891932069E+04  0.28806052634E+04  0.74927449910E+02 0.  0.
         11    1    3    3    0    0  0.86416573890E+02  0.26133047713E+03 -0.11892427826E+04  0.12206800721E+04  0.00000000000E+00 0. -1.
        -11    1    3    3    0    0  0.83861847076E+02  0.43413992080E+03 -0.15999504244E+04  0.16599251913E+04  0.00000000000E+00 0.  1.
         22    1    1    2    0    0 -0.17027842097E+03 -0.69547039793E+03  0.12710397054E+04  0.14588405492E+04  0.00000000000E+00 0.  1.
<mgrwt>
<rscale>  0 0.40652183E+04</rscale>
<asrwt>0</asrwt>
<pdfrwt beam="1">  1        1 0.45058456E+00 0.40652183E+04</pdfrwt>
<pdfrwt beam="2">  1       -1 0.21702249E+00 0.40652183E+04</pdfrwt>
<totfact> 0.60391534E-02</totfact>
</mgrwt>
</event>
<event>
 6    1  0.1528034E-005  0.1277024E+04  0.7818608E-02  0.9047987E-01
          2   -1    0    0  501    0  0.00000000000E+00  0.00000000000E+00  0.11820461824E+04  0.11820461824E+04  0.00000000000E+00 0. -1.
         -2   -1    0    0    0  501 -0.00000000000E+00 -0.00000000000E+00 -0.34490824042E+03  0.34490824042E+03  0.00000000000E+00 0.  1.
         23    2    1    2    0    0 -0.19961318241E+03 -0.53752259821E+03  0.74779588149E+03  0.94664591010E+03  0.90353929356E+02 0.  0.
         13    1    3    3    0    0 -0.47356985046E+02 -0.25424866632E+03  0.34700269639E+03  0.43277700916E+03  0.00000000000E+00 0. -1.
        -13    1    3    3    0    0 -0.15225619736E+03 -0.28327393189E+03  0.40079318511E+03  0.51386890094E+03  0.00000000000E+00 0.  1.
         22    1    1    2    0    0  0.19961318241E+03  0.53752259821E+03  0.89342060502E+02  0.58030851274E+03  0.00000000000E+00 0.  1.
<mgrwt>
<rscale>  0 0.12770238E+04</rscale>
<asrwt>0</asrwt>
<pdfrwt beam="1">  1        2 0.18185326E+00 0.12770238E+04</pdfrwt>
<pdfrwt beam="2">  1       -2 0.53062807E-01 0.12770238E+04</pdfrwt>
<totfact> 0.63827399E+01</totfact>
</mgrwt>
</event>
<event>
 6    1  0.1528034E-005  0.1808736E+04  0.7818608E-02  0.8701668E-01
          2   -1    0    0  501    0  0.00000000000E+00  0.00000000000E+00  0.21139878038E+04  0.21139878038E+04  0.00000000000E+00 0.  1.
         -2   -1    0    0    0  501 -0.00000000000E+00 -0.00000000000E+00 -0.38689021590E+03  0.38689021590E+03  0.00000000000E+00 0. -1.
         23    2    1    2    0    0 -0.55243167731E+03 -0.38611263448E+03  0.36516149020E+02  0.68089743570E+03  0.89577699226E+02 0.  0.
         13    1    3    3    0    0 -0.32882114396E+03 -0.24582879197E+03  0.63943308687E+02  0.41550437591E+03  0.00000000000E+00 0.  1.
        -13    1    3    3    0    0 -0.22361053335E+03 -0.14028384252E+03 -0.27427159667E+02  0.26539305979E+03  0.00000000000E+00 0. -1.
         22    1    1    2    0    0  0.55243167731E+03  0.38611263448E+03  0.16905814389E+04  0.18199805840E+04  0.00000000000E+00 0.  1.
<mgrwt>
<rscale>  0 0.18087357E+04</rscale>
<asrwt>0</asrwt>
<pdfrwt beam="1">  1        2 0.32522889E+00 0.18087357E+04</pdfrwt>
<pdfrwt beam="2">  1       -2 0.59521573E-01 0.18087357E+04</pdfrwt>
<totfact> 0.14343251E+01</totfact>
</mgrwt>
</event>
<event>
 6    1  0.1528034E-005  0.1886706E+04  0.7818608E-02  0.8661502E-01
          2   -1    0    0  501    0  0.00000000000E+00  0.00000000000E+00  0.25965368583E+04  0.25965368583E+04  0.00000000000E+00 0. -1.
         -2   -1    0    0    0  501 -0.00000000000E+00 -0.00000000000E+00 -0.34273157776E+03  0.34273157776E+03  0.00000000000E+00 0.  1.
         23    2    1    2    0    0 -0.27901126372E+01  0.58288570271E+03 -0.21945967060E+02  0.59005425508E+03  0.88988040241E+02 0.  0.
         11    1    3    3    0    0  0.42781367504E+02  0.28382369906E+03 -0.52010800135E+01  0.28707697363E+03  0.00000000000E+00 0. -1.
        -11    1    3    3    0    0 -0.45571480141E+02  0.29906200365E+03 -0.16744887046E+02  0.30297728145E+03  0.00000000000E+00 0.  1.
         22    1    1    2    0    0  0.27901126372E+01 -0.58288570271E+03  0.22757512476E+04  0.23492141809E+04  0.00000000000E+00 0. -1.
<mgrwt>
<rscale>  0 0.18867063E+04</rscale>
<asrwt>0</asrwt>
<pdfrwt beam="1">  1        2 0.39946720E+00 0.18867063E+04</pdfrwt>
<pdfrwt beam="2">  1       -2 0.52727937E-01 0.18867063E+04</pdfrwt>
<totfact> 0.97384460E+00</totfact>
</mgrwt>
</event>
<event>
 6    1  0.1528034E-005  0.2413356E+04  0.7818608E-02  0.8434520E-01
         -1   -1    0    0    0  501 -0.00000000000E+00  0.00000000000E+00  0.16675322979E+04  0.16675322979E+04  0.00000000000E+00 0.  1.
          1   -1    0    0  501    0  0.00000000000E+00 -0.00000000000E+00 -0.87318945653E+03  0.87318945653E+03  0.00000000000E+00 0. -1.
         23    2    1    2    0    0 -0.72198774194E+03 -0.61510664282E+03  0.11801544468E+04  0.15167720113E+04  0.90610895287E+02 0.  0.
         11    1    3    3    0    0 -0.49036929102E+03 -0.36594955386E+03  0.78703332701E+03  0.99689647174E+03  0.00000000000E+00 0.  1.
        -11    1    3    3    0    0 -0.23161845093E+03 -0.24915708896E+03  0.39312111981E+03  0.51987553955E+03  0.00000000000E+00 0. -1.
         22    1    1    2    0    0  0.72198774194E+03  0.61510664282E+03 -0.38581160544E+03  0.10239497431E+04  0.00000000000E+00 0.  1.
<mgrwt>
<rscale>  0 0.24133559E+04</rscale>
<asrwt>0</asrwt>
<pdfrwt beam="1">  1        1 0.13433684E+00 0.24133559E+04</pdfrwt>
<pdfrwt beam="2">  1       -1 0.25654343E+00 0.24133559E+04</pdfrwt>
<totfact> 0.10831218E+00</totfact>
</mgrwt>
</event>
<event>
 6    1  0.1528034E-005  0.1708999E+04  0.7818608E-02  0.8756248E-01
         -1   -1    0    0    0  501 -0.00000000000E+00  0.00000000000E+00  0.11977620999E+04  0.11977620999E+04  0.00000000000E+00 0.  1.
          1   -1    0    0  501    0  0.00000000000E+00 -0.00000000000E+00 -0.60961144254E+03  0.60961144254E+03  0.00000000000E+00 0. -1.
         23    2    1    2    0    0 -0.84602381530E+03  0.85697864691E+02  0.35213639596E+03  0.92487529786E+03  0.91070605381E+02 0.  0.
         13    1    3    3    0    0 -0.40767824401E+03  0.57768464833E+02  0.21635481869E+03  0.46513240452E+03  0.00000000000E+00 0. -1.
        -13    1    3    3    0    0 -0.43834557130E+03  0.27929399858E+02  0.13578157727E+03  0.45974289334E+03  0.00000000000E+00 0.  1.
         22    1    1    2    0    0  0.84602381530E+03 -0.85697864691E+02  0.23601426138E+03  0.88249824456E+03  0.00000000000E+00 0.  1.
<mgrwt>
<rscale>  0 0.17089991E+04</rscale>
<asrwt>0</asrwt>
<pdfrwt beam="1">  1        1 0.93786376E-01 0.17089991E+04</pdfrwt>
<pdfrwt beam="2">  1       -1 0.18427109E+00 0.17089991E+04</pdfrwt>
<totfact> 0.61721087E+00</totfact>
</mgrwt>
</event>
<event>
 6    1  0.1528034E-005  0.2081482E+04  0.7818608E-02  0.8569445E-01
         -2   -1    0    0    0  501 -0.00000000000E+00  0.00000000000E+00  0.32087189380E+03  0.32087189380E+03  0.00000000000E+00 0.  1.
          2   -1    0    0  501    0  0.00000000000E+00 -0.00000000000E+00 -0.33756215265E+04  0.33756215265E+04  0.00000000000E+00 0. -1.
         23    2    1    2    0    0  0.67743790375E+03 -0.70548533831E+03 -0.21500264191E+04  0.23641437030E+04  0.99650235402E+02 0.  0.
         11    1    3    3    0    0  0.35933377693E+03 -0.30488428741E+03 -0.99937534900E+03  0.11049100779E+04  0.00000000000E+00 0. -1.
        -11    1    3    3    0    0  0.31810412683E+03 -0.40060105090E+03 -0.11506510701E+04  0.12592336251E+04  0.00000000000E+00 0.  1.
         22    1    1    2    0    0 -0.67743790375E+03  0.70548533831E+03 -0.90472321357E+03  0.13323497173E+04  0.00000000000E+00 0.  1.
<mgrwt>
<rscale>  0 0.20814822E+04</rscale>
<asrwt>0</asrwt>
<pdfrwt beam="1">  1        2 0.51932642E+00 0.20814822E+04</pdfrwt>
<pdfrwt beam="2">  1       -2 0.49364904E-01 0.20814822E+04</pdfrwt>
<totfact> 0.35650526E+00</totfact>
</mgrwt>
</event>
<event>
 6    1  0.1528034E-005  0.2434400E+04  0.7818608E-02  0.8426736E-01
         -1   -1    0    0    0  501 -0.00000000000E+00  0.00000000000E+00  0.18514052591E+04  0.18514052591E+04  0.00000000000E+00 0.  1.
          1   -1    0    0  501    0  0.00000000000E+00 -0.00000000000E+00 -0.80024370411E+03  0.80024370411E+03  0.00000000000E+00 0. -1.
         23    2    1    2    0    0  0.13479590140E+03  0.58302136984E+03  0.16785590028E+04  0.17846360392E+04  0.96341134050E+02 0.  0.
         11    1    3    3    0    0  0.85930798738E+02  0.40631543091E+03  0.12855223579E+04  0.13509419174E+04  0.00000000000E+00 0. -1.
        -11    1    3    3    0    0  0.48865102661E+02  0.17670593893E+03  0.39303664490E+03  0.43369412187E+03  0.00000000000E+00 0.  1.
         22    1    1    2    0    0 -0.13479590140E+03 -0.58302136984E+03 -0.62739744781E+03  0.86701292392E+03  0.00000000000E+00 0. -1.
<mgrwt>
<rscale>  0 0.24343996E+04</rscale>
<asrwt>0</asrwt>
<pdfrwt beam="1">  1        1 0.12311442E+00 0.24343996E+04</pdfrwt>
<pdfrwt beam="2">  1       -1 0.28483158E+00 0.24343996E+04</pdfrwt>
<totfact> 0.81773627E-01</totfact>
</mgrwt>
</event>
<event>
 6    1  0.1528034E-005  0.3169666E+04  0.7818608E-02  0.8196875E-01
         -2   -1    0    0    0  501 -0.00000000000E+00  0.00000000000E+00  0.17707907072E+04  0.17707907072E+04  0.00000000000E+00 0. -1.
          2   -1    0    0  501    0  0.00000000000E+00 -0.00000000000E+00 -0.14184034755E+04  0.14184034755E+04  0.00000000000E+00 0.  1.
         23    2    1    2    0    0 -0.10773811003E+04 -0.27629229892E+03  0.13104850199E+04  0.17211891277E+04  0.89630108050E+02 0.  0.
         13    1    3    3    0    0 -0.42444693843E+03 -0.83731929086E+02  0.45389643683E+03  0.62704721900E+03  0.00000000000E+00 0. -1.
        -13    1    3    3    0    0 -0.65293416187E+03 -0.19256036984E+03  0.85658858303E+03  0.10941419087E+04  0.00000000000E+00 0.  1.
         22    1    1    2    0    0  0.10773811003E+04  0.27629229892E+03 -0.95809778819E+03  0.14680050550E+04  0.00000000000E+00 0.  1.
<mgrwt>
<rscale>  0 0.31696660E+04</rscale>
<asrwt>0</asrwt>
<pdfrwt beam="1">  1        2 0.21821592E+00 0.31696660E+04</pdfrwt>
<pdfrwt beam="2">  1       -2 0.27242934E+00 0.31696660E+04</pdfrwt>
<totfact> 0.55844871E-01</totfact>
</mgrwt>
</event>
<event>
 6    1  0.1528034E-005  0.1524991E+04  0.7818608E-02  0.8868002E-01
          1   -1    0    0  501    0  0.00000000000E+00  0.00000000000E+00  0.62256763559E+03  0.62256763559E+03  0.00000000000E+00 0. -1.
         -1   -1    0    0    0  501 -0.00000000000E+00 -0.00000000000E+00 -0.93387329373E+03  0.93387329373E+03  0.00000000000E+00 0.  1.
         23    2    1    2    0    0 -0.10836546422E+03  0.69214076328E+03  0.14382505786E+03  0.72100937696E+03  0.91471112155E+02 0.  0.
         13    1    3    3    0    0 -0.75025178825E+02  0.62218665815E+03  0.14604003906E+03  0.64348481571E+03  0.00000000000E+00 0. -1.
        -13    1    3    3    0    0 -0.33340285400E+02  0.69954105134E+02 -0.22149811984E+01  0.77524561252E+02  0.00000000000E+00 0.  1.
         22    1    1    2    0    0  0.10836546422E+03 -0.69214076328E+03 -0.45513071600E+03  0.83543155236E+03  0.00000000000E+00 0.  1.
<mgrwt>
<rscale>  0 0.15249909E+04</rscale>
<asrwt>0</asrwt>
<pdfrwt beam="1">  1        1 0.95779637E-01 0.15249909E+04</pdfrwt>
<pdfrwt beam="2">  1       -1 0.14367281E+00 0.15249909E+04</pdfrwt>
<totfact> 0.12268863E+01</totfact>
</mgrwt>
</event>
<event>
 6    1  0.1528034E-005  0.4231018E+04  0.7818608E-02  0.7959498E-01
         -2   -1    0    0    0  501 -0.00000000000E+00  0.00000000000E+00  0.10550010306E+04  0.10550010306E+04  0.00000000000E+00 0.  1.
          2   -1    0    0  501    0  0.00000000000E+00 -0.00000000000E+00 -0.42420605037E+04  0.42420605037E+04  0.00000000000E+00 0. -1.
         23    2    1    2    0    0 -0.10432032558E+04 -0.23564772315E+03 -0.38779737546E+04  0.40238115876E+04  0.92608688468E+02 0.  0.
         11    1    3    3    0    0 -0.64517473468E+03 -0.13704077801E+03 -0.25538271136E+04  0.26376246017E+04  0.00000000000E+00 0. -1.
        -11    1    3    3    0    0 -0.39802852113E+03 -0.98606945141E+02 -0.13241466409E+04  0.13861869859E+04  0.00000000000E+00 0.  1.
         22    1    1    2    0    0  0.10432032558E+04  0.23564772315E+03  0.69091428141E+03  0.12732499466E+04  0.00000000000E+00 0.  1.
<mgrwt>
<rscale>  0 0.42310179E+04</rscale>
<asrwt>0</asrwt>
<pdfrwt beam="1">  1        2 0.65262469E+00 0.42310179E+04</pdfrwt>
<pdfrwt beam="2">  1       -2 0.16230785E+00 0.42310179E+04</pdfrwt>
<totfact> 0.39847352E-02</totfact>
</mgrwt>
</event>
<event>
 6    1  0.1528034E-005  0.2979222E+04  0.7818608E-02  0.8249689E-01
         -2   -1    0    0    0  501 -0.00000000000E+00  0.00000000000E+00  0.65564009443E+03  0.65564009443E+03  0.00000000000E+00 0.  1.
          2   -1    0    0  501    0  0.00000000000E+00 -0.00000000000E+00 -0.33843878755E+04  0.33843878755E+04  0.00000000000E+00 0. -1.
         23    2    1    2    0    0  0.73582074374E+03 -0.10396334872E+02  0.38840737937E+03  0.83718602176E+03  0.92086329033E+02 0.  0.
         11    1    3    3    0    0  0.26531744378E+03  0.48828079218E+01  0.91839220180E+02  0.28080532429E+03  0.00000000000E+00 0. -1.
        -11    1    3    3    0    0  0.47050329996E+03 -0.15279142794E+02  0.29656815919E+03  0.55638069747E+03  0.00000000000E+00 0.  1.
         22    1    1    2    0    0 -0.73582074374E+03  0.10396334872E+02 -0.31171551604E+04  0.32028419481E+04  0.00000000000E+00 0. -1.
<mgrwt>
<rscale>  0 0.29792216E+04</rscale>
<asrwt>0</asrwt>
<pdfrwt beam="1">  1        2 0.52067504E+00 0.29792216E+04</pdfrwt>
<pdfrwt beam="2">  1       -2 0.10086771E+00 0.29792216E+04</pdfrwt>
<totfact> 0.67747154E-01</totfact>
</mgrwt>
</event>
<event>
 6    1  0.1528034E-005  0.1474217E+04  0.7818608E-02  0.8901782E-01
          2   -1    0    0  501    0  0.00000000000E+00  0.00000000000E+00  0.32471198420E+04  0.32471198420E+04  0.00000000000E+00 0. -1.
         -2   -1    0    0    0  501 -0.00000000000E+00 -0.00000000000E+00 -0.16732632394E+03  0.16732632394E+03  0.00000000000E+00 0.  1.
         23    2    1    2    0    0 -0.47474611566E+03 -0.39056810772E+03  0.61649037696E+03  0.87559018615E+03  0.93115348431E+02 0.  0.
         11    1    3    3    0    0 -0.27633751133E+03 -0.28385017356E+03  0.40669436726E+03  0.56774435229E+03  0.00000000000E+00 0. -1.
        -11    1    3    3    0    0 -0.19840860433E+03 -0.10671793415E+03  0.20979600970E+03  0.30784583386E+03  0.00000000000E+00 0.  1.
         22    1    1    2    0    0  0.47474611566E+03  0.39056810772E+03  0.24633031411E+04  0.25388559798E+04  0.00000000000E+00 0. -1.
<mgrwt>
<rscale>  0 0.14742166E+04</rscale>
<asrwt>0</asrwt>
<pdfrwt beam="1">  1        2 0.49955685E+00 0.14742166E+04</pdfrwt>
<pdfrwt beam="2">  1       -2 0.25742514E-01 0.14742166E+04</pdfrwt>
<totfact> 0.16077035E+01</totfact>
</mgrwt>
</event>
<event>
 6    1  0.1528034E-005  0.2749818E+04  0.7818608E-02  0.8319019E-01
         -2   -1    0    0    0  501 -0.00000000000E+00  0.00000000000E+00  0.59094827863E+03  0.59094827863E+03  0.00000000000E+00 0.  1.
          2   -1    0    0  501    0  0.00000000000E+00 -0.00000000000E+00 -0.31988844026E+04  0.31988844026E+04  0.00000000000E+00 0. -1.
         23    2    1    2    0    0  0.72826278406E+02 -0.10543987694E+04 -0.96595351683E+02  0.10651505151E+04  0.90302414738E+02 0.  0.
         11    1    3    3    0    0  0.70744045582E+02 -0.92017509313E+03 -0.54638088307E+02  0.92450648603E+03  0.00000000000E+00 0. -1.
        -11    1    3    3    0    0  0.20822328243E+01 -0.13422367629E+03 -0.41957263376E+02  0.14064402910E+03  0.00000000000E+00 0.  1.
         22    1    1    2    0    0 -0.72826278406E+02  0.10543987694E+04 -0.25113407723E+04  0.27246821662E+04  0.00000000000E+00 0. -1.
<mgrwt>
<rscale>  0 0.27498183E+04</rscale>
<asrwt>0</asrwt>
<pdfrwt beam="1">  1        2 0.49213605E+00 0.27498183E+04</pdfrwt>
<pdfrwt beam="2">  1       -2 0.90915122E-01 0.27498183E+04</pdfrwt>
<totfact> 0.11713483E+00</totfact>
</mgrwt>
</event>
<event>
 6    1  0.1528034E-005  0.3119311E+04  0.7818608E-02  0.8210458E-01
          1   -1    0    0  501    0  0.00000000000E+00  0.00000000000E+00  0.13571059313E+04  0.13571059313E+04  0.00000000000E+00 0. -1.
         -1   -1    0    0    0  501 -0.00000000000E+00 -0.00000000000E+00 -0.17924354791E+04  0.17924354791E+04  0.00000000000E+00 0.  1.
         23    2    1    2    0    0 -0.10587594607E+04 -0.11190143664E+04  0.19228962991E+02  0.15433695058E+04  0.91950696256E+02 0.  0.
         13    1    3    3    0    0 -0.35183443820E+03 -0.42408006192E+03 -0.18684525339E+02  0.55134425027E+03  0.00000000000E+00 0. -1.
        -13    1    3    3    0    0 -0.70692502248E+03 -0.69493430446E+03  0.37913488330E+02  0.99202525548E+03  0.00000000000E+00 0.  1.
         22    1    1    2    0    0  0.10587594607E+04  0.11190143664E+04 -0.45455851076E+03  0.16061719047E+04  0.00000000000E+00 0.  1.
<mgrwt>
<rscale>  0 0.31193107E+04</rscale>
<asrwt>0</asrwt>
<pdfrwt beam="1">  1        1 0.20878553E+00 0.31193107E+04</pdfrwt>
<pdfrwt beam="2">  1       -1 0.27575930E+00 0.31193107E+04</pdfrwt>
<totfact> 0.32899280E-01</totfact>
</mgrwt>
</event>
<event>
 6    1  0.1528034E-005  0.2433514E+04  0.7818608E-02  0.8427062E-01
         -2   -1    0    0    0  501 -0.00000000000E+00  0.00000000000E+00  0.90370196368E+03  0.90370196368E+03  0.00000000000E+00 0.  1.
          2   -1    0    0  501    0  0.00000000000E+00 -0.00000000000E+00 -0.16382592803E+04  0.16382592803E+04  0.00000000000E+00 0. -1.
         23    2    1    2    0    0  0.63738008982E+01  0.11388310000E+04  0.74290077610E+02  0.11451037785E+04  0.93632130837E+02 0.  0.
         11    1    3    3    0    0  0.11067152570E+02  0.65684556164E+03  0.88579195668E+02  0.66288373613E+03  0.00000000000E+00 0.  1.
        -11    1    3    3    0    0 -0.46933516720E+01  0.48198543834E+03 -0.14289118058E+02  0.48222004232E+03  0.00000000000E+00 0. -1.
         22    1    1    2    0    0 -0.63738008982E+01 -0.11388310000E+04 -0.80884739424E+03  0.13968574655E+04  0.00000000000E+00 0. -1.
<mgrwt>
<rscale>  0 0.24335144E+04</rscale>
<asrwt>0</asrwt>
<pdfrwt beam="1">  1        2 0.25203989E+00 0.24335144E+04</pdfrwt>
<pdfrwt beam="2">  1       -2 0.13903107E+00 0.24335144E+04</pdfrwt>
<totfact> 0.34820047E+00</totfact>
</mgrwt>
</event>
<event>
 6    1  0.1528034E-005  0.2406219E+04  0.7818608E-02  0.8437179E-01
          2   -1    0    0  501    0  0.00000000000E+00  0.00000000000E+00  0.32415435861E+04  0.32415435861E+04  0.00000000000E+00 0. -1.
         -2   -1    0    0    0  501 -0.00000000000E+00 -0.00000000000E+00 -0.44653820914E+03  0.44653820914E+03  0.00000000000E+00 0.  1.
         23    2    1    2    0    0 -0.21165825125E+03  0.35750967184E+03  0.31272364764E+04  0.31561138599E+04  0.93991150471E+02 0.  0.
         11    1    3    3    0    0 -0.73505856799E+02  0.18292078410E+03  0.12037856024E+04  0.12198208478E+04  0.00000000000E+00 0. -1.
        -11    1    3    3    0    0 -0.13815239445E+03  0.17458888774E+03  0.19234508741E+04  0.19362930121E+04  0.00000000000E+00 0.  1.
         22    1    1    2    0    0  0.21165825125E+03 -0.35750967184E+03 -0.33223109946E+03  0.53196793534E+03  0.00000000000E+00 0.  1.
<mgrwt>
<rscale>  0 0.24062195E+04</rscale>
<asrwt>0</asrwt>
<pdfrwt beam="1">  1        2 0.49869900E+00 0.24062195E+04</pdfrwt>
<pdfrwt beam="2">  1       -2 0.68698188E-01 0.24062195E+04</pdfrwt>
<totfact> 0.21220421E+00</totfact>
</mgrwt>
</event>
<event>
 6    1  0.1528034E-005  0.3313869E+04  0.7818608E-02  0.8159375E-01
         -2   -1    0    0    0  501 -0.00000000000E+00  0.00000000000E+00  0.97623210320E+03  0.97623210320E+03  0.00000000000E+00 0.  1.
          2   -1    0    0  501    0  0.00000000000E+00 -0.00000000000E+00 -0.28122742716E+04  0.28122742716E+04  0.00000000000E+00 0. -1.
         23    2    1    2    0    0  0.89217456168E+03 -0.94324730817E+02 -0.25095491059E+04  0.26666845538E+04  0.92180210252E+02 0.  0.
         11    1    3    3    0    0  0.75809254096E+03 -0.10855631066E+03 -0.21808162655E+04  0.23113736949E+04  0.00000000000E+00 0. -1.
        -11    1    3    3    0    0  0.13408202072E+03  0.14231579840E+02 -0.32873284035E+03  0.35531085892E+03  0.00000000000E+00 0.  1.
         22    1    1    2    0    0 -0.89217456168E+03  0.94324730817E+02  0.67350693747E+03  0.11218218210E+04  0.00000000000E+00 0.  1.
<mgrwt>
<rscale>  0 0.33138693E+04</rscale>
<asrwt>0</asrwt>
<pdfrwt beam="1">  1        2 0.43265757E+00 0.33138693E+04</pdfrwt>
<pdfrwt beam="2">  1       -2 0.15018956E+00 0.33138693E+04</pdfrwt>
<totfact> 0.56601666E-01</totfact>
</mgrwt>
</event>
<event>
 6    1  0.1528034E-005  0.3363901E+04  0.7818608E-02  0.8146824E-01
         -2   -1    0    0    0  501 -0.00000000000E+00  0.00000000000E+00  0.19649881037E+04  0.19649881037E+04  0.00000000000E+00 0.  1.
          2   -1    0    0  501    0  0.00000000000E+00 -0.00000000000E+00 -0.14396813591E+04  0.14396813591E+04  0.00000000000E+00 0. -1.
         23    2    1    2    0    0  0.12354207197E+04 -0.11229745551E+04  0.45824802556E+03  0.17337915265E+04  0.93303795924E+02 0.  0.
         13    1    3    3    0    0  0.16855215720E+03 -0.13651953438E+03  0.89908789047E+02  0.23479992187E+03  0.00000000000E+00 0.  1.
        -13    1    3    3    0    0  0.10668685625E+04 -0.98645502074E+03  0.36833923651E+03  0.14989916046E+04  0.00000000000E+00 0. -1.
         22    1    1    2    0    0 -0.12354207197E+04  0.11229745551E+04  0.67058719108E+02  0.16708779363E+04  0.00000000000E+00 0.  1.
<mgrwt>
<rscale>  0 0.33639006E+04</rscale>
<asrwt>0</asrwt>
<pdfrwt beam="1">  1        2 0.22148944E+00 0.33639006E+04</pdfrwt>
<pdfrwt beam="2">  1       -2 0.30230586E+00 0.33639006E+04</pdfrwt>
<totfact> 0.35105884E-01</totfact>
</mgrwt>
</event>
<event>
 6    1  0.1528034E-005  0.1000142E+04  0.7818608E-02  0.9308389E-01
          1   -1    0    0  501    0  0.00000000000E+00  0.00000000000E+00  0.49836699273E+03  0.49836699273E+03  0.00000000000E+00 0. -1.
         -1   -1    0    0    0  501 -0.00000000000E+00 -0.00000000000E+00 -0.50178127132E+03  0.50178127132E+03  0.00000000000E+00 0.  1.
         23    2    1    2    0    0 -0.41382170325E+03 -0.86049378245E+02  0.25817838880E+03  0.50307319808E+03  0.88168387816E+02 0.  0.
         13    1    3    3    0    0 -0.11873823261E+03 -0.65937068841E+02  0.74439124987E+02  0.15487946364E+03  0.00000000000E+00 0.  1.
        -13    1    3    3    0    0 -0.29508347064E+03 -0.20112309404E+02  0.18373926381E+03  0.34819373444E+03  0.00000000000E+00 0. -1.
         22    1    1    2    0    0  0.41382170325E+03  0.86049378245E+02 -0.26159266738E+03  0.49707506597E+03  0.00000000000E+00 0.  1.
<mgrwt>
<rscale>  0 0.10001424E+04</rscale>
<asrwt>0</asrwt>
<pdfrwt beam="1">  1        1 0.76671845E-01 0.10001424E+04</pdfrwt>
<pdfrwt beam="2">  1       -1 0.77197119E-01 0.10001424E+04</pdfrwt>
<totfact> 0.75151712E+01</totfact>
</mgrwt>
</event>
<event>
 6    1  0.1528034E-005  0.2056505E+04  0.7818608E-02  0.8580649E-01
         -2   -1    0    0    0  501 -0.00000000000E+00  0.00000000000E+00  0.15428830087E+04  0.15428830087E+04  0.00000000000E+00 0.  1.
          2   -1    0    0  501    0  0.00000000000E+00 -0.00000000000E+00 -0.68527786958E+03  0.68527786958E+03  0.00000000000E+00 0. -1.
         23    2    1    2    0    0  0.79206589393E+03 -0.64770946743E+03  0.51550207736E+03  0.11493047992E+04  0.90902118555E+02 0.  0.
         13    1    3    3    0    0  0.31070920579E+03 -0.20545883332E+03  0.16241682693E+03  0.40636531400E+03  0.00000000000E+00 0. -1.
        -13    1    3    3    0    0  0.48135668814E+03 -0.44225063410E+03  0.35308525043E+03  0.74293948519E+03  0.00000000000E+00 0.  1.
         22    1    1    2    0    0 -0.79206589393E+03  0.64770946743E+03  0.34210306176E+03  0.10788560791E+04  0.00000000000E+00 0. -1.
<mgrwt>
<rscale>  0 0.20565054E+04</rscale>
<asrwt>0</asrwt>
<pdfrwt beam="1">  1        2 0.10542736E+00 0.20565054E+04</pdfrwt>
<pdfrwt beam="2">  1       -2 0.23736662E+00 0.20565054E+04</pdfrwt>
<totfact> 0.29928111E+00</totfact>
</mgrwt>
</event>
<event>
 6    1  0.1528034E-005  0.1668958E+04  0.7818608E-02  0.8779270E-01
          2   -1    0    0  501    0  0.00000000000E+00  0.00000000000E+00  0.22243789028E+04  0.22243789028E+04  0.00000000000E+00 0. -1.
         -2   -1    0    0    0  501 -0.00000000000E+00 -0.00000000000E+00 -0.31305584037E+03  0.31305584037E+03  0.00000000000E+00 0.  1.
         23    2    1    2    0    0 -0.14361317049E+03  0.29322512327E+03  0.21216470749E+04  0.21490510336E+04  0.10211914118E+03 0.  0.
         13    1    3    3    0    0 -0.17713637539E+02  0.13152533698E+03  0.67081275291E+03  0.68381462159E+03  0.00000000000E+00 0. -1.
        -13    1    3    3    0    0 -0.12589953295E+03  0.16169978629E+03  0.14508343219E+04  0.14652364120E+04  0.00000000000E+00 0.  1.
         22    1    1    2    0    0  0.14361317049E+03 -0.29322512327E+03 -0.21032401244E+03  0.38838370958E+03  0.00000000000E+00 0.  1.
<mgrwt>
<rscale>  0 0.16689575E+04</rscale>
<asrwt>0</asrwt>
<pdfrwt beam="1">  1        2 0.34221213E+00 0.16689575E+04</pdfrwt>
<pdfrwt beam="2">  1       -2 0.48162438E-01 0.16689575E+04</pdfrwt>
<totfact> 0.19502522E+01</totfact>
</mgrwt>
</event>
<event>
 6    1  0.1528034E-005  0.6035836E+04  0.7818608E-02  0.7685974E-01
          2   -1    0    0  501    0  0.00000000000E+00  0.00000000000E+00  0.36954006882E+04  0.36954006882E+04  0.00000000000E+00 0. -1.
         -2   -1    0    0    0  501 -0.00000000000E+00 -0.00000000000E+00 -0.24646392227E+04  0.24646392227E+04  0.00000000000E+00 0.  1.
         23    2    1    2    0    0 -0.16587497581E+03 -0.28131002275E+04 -0.48458960908E+03  0.28610284367E+04  0.98026675733E+02 0.  0.
         11    1    3    3    0    0 -0.11616083547E+03 -0.18756621097E+04 -0.27651929656E+03  0.18994906187E+04  0.00000000000E+00 0. -1.
        -11    1    3    3    0    0 -0.49714140337E+02 -0.93743811782E+03 -0.20807031251E+03  0.96153781800E+03  0.00000000000E+00 0.  1.
         22    1    1    2    0    0  0.16587497581E+03  0.28131002275E+04  0.17153510747E+04  0.32990114742E+04  0.00000000000E+00 0.  1.
<mgrwt>
<rscale>  0 0.60358361E+04</rscale>
<asrwt>0</asrwt>
<pdfrwt beam="1">  1        2 0.56852318E+00 0.60358361E+04</pdfrwt>
<pdfrwt beam="2">  1       -2 0.37917527E+00 0.60358361E+04</pdfrwt>
<totfact> 0.39921267E-03</totfact>
</mgrwt>
</event>
<event>
 6    1  0.1528034E-005  0.2072894E+04  0.7818608E-02  0.8573279E-01
         -2   -1    0    0    0  501 -0.00000000000E+00  0.00000000000E+00  0.15817295779E+04  0.15817295779E+04  0.00000000000E+00 0.  1.
          2   -1    0    0  501    0  0.00000000000E+00 -0.00000000000E+00 -0.67914387656E+03  0.67914387656E+03  0.00000000000E+00 0. -1.
         23    2    1    2    0    0 -0.11629251061E+03  0.24371146277E+03 -0.63843643625E+03  0.69637083265E+03  0.66423100829E+02 0.  0.
         11    1    3    3    0    0 -0.43647553500E+02  0.42753274305E+02 -0.10141813237E+03  0.11840012231E+03  0.00000000000E+00 0. -1.
        -11    1    3    3    0    0 -0.72644957113E+02  0.20095818846E+03 -0.53701830388E+03  0.57797071034E+03  0.00000000000E+00 0.  1.
         22    1    1    2    0    0  0.11629251061E+03 -0.24371146277E+03  0.15410221376E+04  0.15645026218E+04  0.00000000000E+00 0.  1.
<mgrwt>
<rscale>  0 0.20728936E+04</rscale>
<asrwt>0</asrwt>
<pdfrwt beam="1">  1        2 0.10448367E+00 0.20728936E+04</pdfrwt>
<pdfrwt beam="2">  1       -2 0.24334301E+00 0.20728936E+04</pdfrwt>
<totfact> 0.27760468E+00</totfact>
</mgrwt>
</event>
<event>
 6    1  0.1528034E-005  0.4274083E+03  0.7818608E-02  0.1034682E+00
          2   -1    0    0  501    0  0.00000000000E+00  0.00000000000E+00  0.12382656526E+04  0.12382656526E+04  0.00000000000E+00 0.  1.
         -2   -1    0    0    0  501 -0.00000000000E+00 -0.00000000000E+00 -0.36881796385E+02  0.36881796385E+02  0.00000000000E+00 0. -1.
         23    2    1    2    0    0 -0.60545667948E+02 -0.18937149967E+03  0.76454546467E+03  0.79519419801E+03  0.90976382696E+02 0.  0.
         11    1    3    3    0    0 -0.66802409341E+01 -0.11637914121E+03  0.55070683740E+03  0.56290918529E+03  0.00000000000E+00 0. -1.
        -11    1    3    3    0    0 -0.53865427014E+02 -0.72992358459E+02  0.21383862727E+03  0.23228501272E+03  0.00000000000E+00 0.  1.
         22    1    1    2    0    0  0.60545667948E+02  0.18937149967E+03  0.43683839158E+03  0.47995325101E+03  0.00000000000E+00 0. -1.
<mgrwt>
<rscale>  0 0.42740829E+03</rscale>
<asrwt>0</asrwt>
<pdfrwt beam="1">  1        2 0.19050238E+00 0.42740829E+03</pdfrwt>
<pdfrwt beam="2">  1       -2 0.56741235E-02 0.42740829E+03</pdfrwt>
<totfact> 0.30708667E+03</totfact>
</mgrwt>
</event>
<event>
 6    1  0.1528034E-005  0.2453038E+04  0.7818608E-02  0.8419910E-01
          2   -1    0    0  501    0  0.00000000000E+00  0.00000000000E+00  0.18242672114E+04  0.18242672114E+04  0.00000000000E+00 0. -1.
         -2   -1    0    0    0  501 -0.00000000000E+00 -0.00000000000E+00 -0.82463189612E+03  0.82463189612E+03  0.00000000000E+00 0.  1.
         23    2    1    2    0    0 -0.66748051750E+03 -0.38998921408E+03 -0.52542351633E+03  0.93909611647E+03  0.90608035625E+02 0.  0.
         13    1    3    3    0    0 -0.57256586450E+03 -0.29891073145E+03 -0.45317473641E+03  0.78901624589E+03  0.00000000000E+00 0. -1.
        -13    1    3    3    0    0 -0.94914652998E+02 -0.91078482632E+02 -0.72248779921E+02  0.15007987058E+03  0.00000000000E+00 0.  1.
         22    1    1    2    0    0  0.66748051750E+03  0.38998921408E+03  0.15250588316E+04  0.17098029911E+04  0.00000000000E+00 0. -1.
<mgrwt>
<rscale>  0 0.24530381E+04</rscale>
<asrwt>0</asrwt>
<pdfrwt beam="1">  1        2 0.28065649E+00 0.24530381E+04</pdfrwt>
<pdfrwt beam="2">  1       -2 0.12686645E+00 0.24530381E+04</pdfrwt>
<totfact> 0.34599823E+00</totfact>
</mgrwt>
</event>
<event>
 6    1  0.1528034E-005  0.3862779E+04  0.7818608E-02  0.8032815E-01
          2   -1    0    0  501    0  0.00000000000E+00  0.00000000000E+00  0.28638585973E+04  0.28638585973E+04  0.00000000000E+00 0. -1.
         -2   -1    0    0    0  501 -0.00000000000E+00 -0.00000000000E+00 -0.13025310878E+04  0.13025310878E+04  0.00000000000E+00 0.  1.
         23    2    1    2    0    0  0.10240668583E+04 -0.69535997912E+03 -0.81648136649E+03  0.14856783091E+04  0.91431862304E+02 0.  0.
         13    1    3    3    0    0  0.55991222561E+03 -0.40878707427E+03 -0.50311257272E+03  0.85658089712E+03  0.00000000000E+00 0.  1.
        -13    1    3    3    0    0  0.46415463267E+03 -0.28657290484E+03 -0.31336879377E+03  0.62909741196E+03  0.00000000000E+00 0. -1.
         22    1    1    2    0    0 -0.10240668583E+04  0.69535997912E+03  0.23778088760E+04  0.26807113761E+04  0.00000000000E+00 0. -1.
<mgrwt>
<rscale>  0 0.38627787E+04</rscale>
<asrwt>0</asrwt>
<pdfrwt beam="1">  1        2 0.44059363E+00 0.38627787E+04</pdfrwt>
<pdfrwt beam="2">  1       -2 0.20038940E+00 0.38627787E+04</pdfrwt>
<totfact> 0.22291739E-01</totfact>
</mgrwt>
</event>
<event>
 6    1  0.1528034E-005  0.2962748E+04  0.7818608E-02  0.8254449E-01
          1   -1    0    0  501    0  0.00000000000E+00  0.00000000000E+00  0.18109205636E+04  0.18109205636E+04  0.00000000000E+00 0. -1.
         -1   -1    0    0    0  501 -0.00000000000E+00 -0.00000000000E+00 -0.12117971669E+04  0.12117971669E+04  0.00000000000E+00 0.  1.
         23    2    1    2    0    0  0.60584387720E+03  0.83506251836E+03  0.13824265768E+04  0.17273644639E+04  0.91151180817E+02 0.  0.
         11    1    3    3    0    0  0.16175157457E+03  0.29341362125E+03  0.46446401360E+03  0.57269707956E+03  0.00000000000E+00 0. -1.
        -11    1    3    3    0    0  0.44409230263E+03  0.54164889711E+03  0.91796256323E+03  0.11546673844E+04  0.00000000000E+00 0.  1.
         22    1    1    2    0    0 -0.60584387720E+03 -0.83506251836E+03 -0.78330318018E+03  0.12953532666E+04  0.00000000000E+00 0.  1.
<mgrwt>
<rscale>  0 0.29627476E+04</rscale>
<asrwt>0</asrwt>
<pdfrwt beam="1">  1        1 0.27860316E+00 0.29627476E+04</pdfrwt>
<pdfrwt beam="2">  1       -1 0.18643033E+00 0.29627476E+04</pdfrwt>
<totfact> 0.64027927E-01</totfact>
</mgrwt>
</event>
<event>
 6    1  0.1528034E-005  0.3133767E+04  0.7818608E-02  0.8206532E-01
         -2   -1    0    0    0  501 -0.00000000000E+00  0.00000000000E+00  0.16664999678E+04  0.16664999678E+04  0.00000000000E+00 0.  1.
          2   -1    0    0  501    0  0.00000000000E+00 -0.00000000000E+00 -0.14732212953E+04  0.14732212953E+04  0.00000000000E+00 0. -1.
         23    2    1    2    0    0  0.37862658763E+03  0.11846065941E+04  0.10494737672E+04  0.16298467929E+04  0.91402980405E+02 0.  0.
         13    1    3    3    0    0  0.30811834665E+03  0.83966056138E+03  0.77387301619E+03  0.11827282947E+04  0.00000000000E+00 0. -1.
        -13    1    3    3    0    0  0.70508240978E+02  0.34494603268E+03  0.27560075104E+03  0.44711849825E+03  0.00000000000E+00 0.  1.
         22    1    1    2    0    0 -0.37862658763E+03 -0.11846065941E+04 -0.85619509467E+03  0.15098744702E+04  0.00000000000E+00 0. -1.
<mgrwt>
<rscale>  0 0.31337666E+04</rscale>
<asrwt>0</asrwt>
<pdfrwt beam="1">  1        2 0.22664943E+00 0.31337666E+04</pdfrwt>
<pdfrwt beam="2">  1       -2 0.25638461E+00 0.31337666E+04</pdfrwt>
<totfact> 0.65342767E-01</totfact>
</mgrwt>
</event>
<event>
 6    1  0.1528034E-005  0.1819455E+04  0.7818608E-02  0.8696021E-01
          2   -1    0    0  501    0  0.00000000000E+00  0.00000000000E+00  0.14928775200E+04  0.14928775200E+04  0.00000000000E+00 0.  1.
         -2   -1    0    0    0  501 -0.00000000000E+00 -0.00000000000E+00 -0.55436866208E+03  0.55436866208E+03  0.00000000000E+00 0. -1.
         23    2    1    2    0    0 -0.59440645347E+03  0.56858484120E+03  0.89865094202E+03  0.12237193719E+04  0.11535957692E+03 0.  0.
         11    1    3    3    0    0 -0.41839002697E+03  0.44662210659E+03  0.60761655357E+03  0.86239167258E+03  0.00000000000E+00 0.  1.
        -11    1    3    3    0    0 -0.17601642650E+03  0.12196273461E+03  0.29103438845E+03  0.36132769932E+03  0.00000000000E+00 0. -1.
         22    1    1    2    0    0  0.59440645347E+03 -0.56858484120E+03  0.39857915857E+02  0.82352681014E+03  0.00000000000E+00 0.  1.
<mgrwt>
<rscale>  0 0.18194554E+04</rscale>
<asrwt>0</asrwt>
<pdfrwt beam="1">  1        2 0.22967346E+00 0.18194554E+04</pdfrwt>
<pdfrwt beam="2">  1       -2 0.85287487E-01 0.18194554E+04</pdfrwt>
<totfact> 0.14440081E+01</totfact>
</mgrwt>
</event>
<event>
 6    1  0.1528034E-005  0.3435083E+04  0.7818608E-02  0.8129349E-01
          1   -1    0    0  501    0  0.00000000000E+00  0.00000000000E+00  0.89300075913E+03  0.89300075913E+03  0.00000000000E+00 0. -1.
         -1   -1    0    0    0  501 -0.00000000000E+00 -0.00000000000E+00 -0.33034112583E+04  0.33034112583E+04  0.00000000000E+00 0.  1.
         23    2    1    2    0    0 -0.27931969255E+03 -0.16538461939E+04 -0.76111739029E+03  0.18440951845E+04  0.90336282804E+02 0.  0.
         11    1    3    3    0    0 -0.14733182956E+03 -0.61114222541E+03 -0.28013169470E+03  0.68824069485E+03  0.00000000000E+00 0. -1.
        -11    1    3    3    0    0 -0.13198786300E+03 -0.10427039684E+04 -0.48098569559E+03  0.11558544896E+04  0.00000000000E+00 0.  1.
         22    1    1    2    0    0  0.27931969255E+03  0.16538461939E+04 -0.16492931088E+04  0.23523168329E+04  0.00000000000E+00 0.  1.
<mgrwt>
<rscale>  0 0.34350830E+04</rscale>
<asrwt>0</asrwt>
<pdfrwt beam="1">  1        1 0.13738473E+00 0.34350830E+04</pdfrwt>
<pdfrwt beam="2">  1       -1 0.50821713E+00 0.34350830E+04</pdfrwt>
<totfact> 0.19941390E-02</totfact>
</mgrwt>
</event>
<event>
 6    1  0.1528034E-005  0.3234382E+04  0.7818608E-02  0.8179795E-01
         -2   -1    0    0    0  501 -0.00000000000E+00  0.00000000000E+00  0.67079548046E+03  0.67079548046E+03  0.00000000000E+00 0.  1.
          2   -1    0    0  501    0  0.00000000000E+00 -0.00000000000E+00 -0.38988146266E+04  0.38988146266E+04  0.00000000000E+00 0. -1.
         23    2    1    2    0    0 -0.61846460129E+03 -0.10486123109E+04 -0.31165048136E+04  0.33471037930E+04  0.91734979002E+02 0.  0.
         13    1    3    3    0    0 -0.28851937252E+03 -0.40148903373E+03 -0.12442999734E+04  0.13389246791E+04  0.00000000000E+00 0.  1.
        -13    1    3    3    0    0 -0.32994522878E+03 -0.64712327712E+03 -0.18722048402E+04  0.20081791139E+04  0.00000000000E+00 0. -1.
         22    1    1    2    0    0  0.61846460129E+03  0.10486123109E+04 -0.11151433252E+03  0.12225063140E+04  0.00000000000E+00 0.  1.
<mgrwt>
<rscale>  0 0.32343823E+04</rscale>
<asrwt>0</asrwt>
<pdfrwt beam="1">  1        2 0.59981763E+00 0.32343823E+04</pdfrwt>
<pdfrwt beam="2">  1       -2 0.10319930E+00 0.32343823E+04</pdfrwt>
<totfact> 0.26458096E-01</totfact>
</mgrwt>
</event>
<event>
 6    1  0.1528034E-005  0.3810571E+04  0.7818608E-02  0.8043890E-01
          2   -1    0    0  501    0  0.00000000000E+00  0.00000000000E+00  0.37466114409E+04  0.37466114409E+04  0.00000000000E+00 0. -1.
         -2   -1    0    0    0  501 -0.00000000000E+00 -0.00000000000E+00 -0.96890560376E+03  0.96890560376E+03  0.00000000000E+00 0.  1.
         23    2    1    2    0    0 -0.37551376319E+02  0.28362421187E+03  0.37193415236E+04  0.37313775397E+04  0.88454366236E+02 0.  0.
         13    1    3    3    0    0  0.24954414352E+02  0.14324469699E+03  0.19038813991E+04  0.19094256068E+04  0.00000000000E+00 0. -1.
        -13    1    3    3    0    0 -0.62505790671E+02  0.14037951488E+03  0.18154601245E+04  0.18219519328E+04  0.00000000000E+00 0.  1.
         22    1    1    2    0    0  0.37551376319E+02 -0.28362421187E+03 -0.94163568642E+03  0.98413950503E+03  0.00000000000E+00 0.  1.
<mgrwt>
<rscale>  0 0.38105710E+04</rscale>
<asrwt>0</asrwt>
<pdfrwt beam="1">  1        2 0.57640175E+00 0.38105710E+04</pdfrwt>
<pdfrwt beam="2">  1       -2 0.14906240E+00 0.38105710E+04</pdfrwt>
<totfact> 0.13118987E-01</totfact>
</mgrwt>
</event>
<event>
 6    1  0.1528034E-005  0.8660577E+03  0.7818608E-02  0.9469035E-01
          2   -1    0    0  501    0  0.00000000000E+00  0.00000000000E+00  0.70859066980E+03  0.70859066980E+03  0.00000000000E+00 0. -1.
         -2   -1    0    0    0  501 -0.00000000000E+00 -0.00000000000E+00 -0.26462949920E+03  0.26462949920E+03  0.00000000000E+00 0.  1.
         23    2    1    2    0    0 -0.16887986987E+03 -0.39245862667E+03  0.23677303871E+03  0.49838219022E+03  0.98889592852E+02 0.  0.
         13    1    3    3    0    0 -0.17129980758E+03 -0.30516555349E+03  0.20421825402E+03  0.40518481510E+03  0.00000000000E+00 0. -1.
        -13    1    3    3    0    0  0.24199377024E+01 -0.87293073179E+02  0.32554784695E+02  0.93197375125E+02  0.00000000000E+00 0.  1.
         22    1    1    2    0    0  0.16887986987E+03  0.39245862667E+03  0.20718813189E+03  0.47483797878E+03  0.00000000000E+00 0. -1.
<mgrwt>
<rscale>  0 0.86605772E+03</rscale>
<asrwt>0</asrwt>
<pdfrwt beam="1">  1        2 0.10901395E+00 0.86605772E+03</pdfrwt>
<pdfrwt beam="2">  1       -2 0.40712231E-01 0.86605772E+03</pdfrwt>
<totfact> 0.23133562E+02</totfact>
</mgrwt>
</event>
<event>
 6    1  0.1528034E-005  0.2907649E+04  0.7818608E-02  0.8270605E-01
          2   -1    0    0  501    0  0.00000000000E+00  0.00000000000E+00  0.20168377892E+04  0.20168377892E+04  0.00000000000E+00 0. -1.
         -2   -1    0    0    0  501 -0.00000000000E+00 -0.00000000000E+00 -0.10479802094E+04  0.10479802094E+04  0.00000000000E+00 0.  1.
         23    2    1    2    0    0 -0.14721782263E+03  0.67422243980E+03 -0.86206397651E+03  0.11081568805E+04  0.92781391437E+02 0.  0.
         11    1    3    3    0    0 -0.64860120288E+02  0.48750883363E+03 -0.59105644223E+03  0.76890793725E+03  0.00000000000E+00 0. -1.
        -11    1    3    3    0    0 -0.82357702344E+02  0.18671360617E+03 -0.27100753428E+03  0.33924894326E+03  0.00000000000E+00 0.  1.
         22    1    1    2    0    0  0.14721782263E+03 -0.67422243980E+03  0.18309215564E+04  0.19566611181E+04  0.00000000000E+00 0. -1.
<mgrwt>
<rscale>  0 0.29076493E+04</rscale>
<asrwt>0</asrwt>
<pdfrwt beam="1">  1        2 0.31028274E+00 0.29076493E+04</pdfrwt>
<pdfrwt beam="2">  1       -2 0.16122772E+00 0.29076493E+04</pdfrwt>
<totfact> 0.13913467E+00</totfact>
</mgrwt>
</event>
<event>
 6    1  0.1528034E-005  0.1776096E+04  0.7818608E-02  0.8719116E-01
          1   -1    0    0  501    0  0.00000000000E+00  0.00000000000E+00  0.12752671072E+04  0.12752671072E+04  0.00000000000E+00 0. -1.
         -1   -1    0    0    0  501 -0.00000000000E+00 -0.00000000000E+00 -0.61840301269E+03  0.61840301269E+03  0.00000000000E+00 0.  1.
         23    2    1    2    0    0  0.43709638420E+03  0.44322163082E+03  0.10010168693E+04  0.11823756692E+04  0.92080332002E+02 0.  0.
         13    1    3    3    0    0  0.21806999230E+03  0.19547157969E+03  0.55013348512E+03  0.62322589120E+03  0.00000000000E+00 0.  1.
        -13    1    3    3    0    0  0.21902639190E+03  0.24775005113E+03  0.45088338415E+03  0.55914977804E+03  0.00000000000E+00 0. -1.
         22    1    1    2    0    0 -0.43709638420E+03 -0.44322163082E+03 -0.34415277478E+03  0.71129445063E+03  0.00000000000E+00 0.  1.
<mgrwt>
<rscale>  0 0.17760957E+04</rscale>
<asrwt>0</asrwt>
<pdfrwt beam="1">  1        1 0.19619494E+00 0.17760957E+04</pdfrwt>
<pdfrwt beam="2">  1       -1 0.95138925E-01 0.17760957E+04</pdfrwt>
<totfact> 0.95093894E+00</totfact>
</mgrwt>
</event>
<event>
 6    1  0.1528034E-005  0.3114251E+04  0.7818608E-02  0.8211838E-01
         -2   -1    0    0    0  501 -0.00000000000E+00  0.00000000000E+00  0.12684338027E+04  0.12684338027E+04  0.00000000000E+00 0.  1.
          2   -1    0    0  501    0  0.00000000000E+00 -0.00000000000E+00 -0.19115229279E+04  0.19115229279E+04  0.00000000000E+00 0. -1.
         23    2    1    2    0    0 -0.10512848495E+04 -0.14224791320E+03  0.84020538340E+03  0.13563348118E+04  0.90910570436E+02 0.  0.
         11    1    3    3    0    0 -0.29269540259E+03 -0.38789280801E+02  0.28713551506E+03  0.41185192850E+03  0.00000000000E+00 0.  1.
        -11    1    3    3    0    0 -0.75858944694E+03 -0.10345863240E+03  0.55306986834E+03  0.94448288332E+03  0.00000000000E+00 0. -1.
         22    1    1    2    0    0  0.10512848495E+04  0.14224791320E+03 -0.14832945085E+04  0.18236219188E+04  0.00000000000E+00 0. -1.
<mgrwt>
<rscale>  0 0.31142513E+04</rscale>
<asrwt>0</asrwt>
<pdfrwt beam="1">  1        2 0.29408045E+00 0.31142513E+04</pdfrwt>
<pdfrwt beam="2">  1       -2 0.19514366E+00 0.31142513E+04</pdfrwt>
<totfact> 0.90874553E-01</totfact>
</mgrwt>
</event>
<event>
 6    1  0.1528034E-005  0.2424800E+04  0.7818608E-02  0.8430277E-01
         -2   -1    0    0    0  501 -0.00000000000E+00  0.00000000000E+00  0.52617781061E+03  0.52617781061E+03  0.00000000000E+00 0.  1.
          2   -1    0    0  501    0  0.00000000000E+00 -0.00000000000E+00 -0.27935685056E+04  0.27935685056E+04  0.00000000000E+00 0. -1.
         23    2    1    2    0    0 -0.82535622263E+03  0.87763792413E+03 -0.12993795330E+04  0.17742668340E+04  0.90412429234E+02 0.  0.
         11    1    3    3    0    0 -0.31043895556E+03  0.28619301180E+03 -0.50070448446E+03  0.65496852283E+03  0.00000000000E+00 0. -1.
        -11    1    3    3    0    0 -0.51491726708E+03  0.59144491233E+03 -0.79867504855E+03  0.11192983112E+04  0.00000000000E+00 0.  1.
         22    1    1    2    0    0  0.82535622263E+03 -0.87763792413E+03 -0.96801116194E+03  0.15454794822E+04  0.00000000000E+00 0. -1.
<mgrwt>
<rscale>  0 0.24248000E+04</rscale>
<asrwt>0</asrwt>
<pdfrwt beam="1">  1        2 0.42977976E+00 0.24248000E+04</pdfrwt>
<pdfrwt beam="2">  1       -2 0.80950434E-01 0.24248000E+04</pdfrwt>
<totfact> 0.28185267E+00</totfact>
</mgrwt>
</event>
<event>
 6    1  0.1528034E-005  0.1690186E+04  0.7818608E-02  0.8766982E-01
         -2   -1    0    0    0  501 -0.00000000000E+00  0.00000000000E+00  0.29544925394E+03  0.29544925394E+03  0.00000000000E+00 0.  1.
          2   -1    0    0  501    0  0.00000000000E+00 -0.00000000000E+00 -0.24172749573E+04  0.24172749573E+04  0.00000000000E+00 0. -1.
         23    2    1    2    0    0  0.13771745865E+03 -0.58917836924E+03 -0.20052470824E+04  0.20965360711E+04  0.91380449940E+02 0.  0.
         13    1    3    3    0    0 -0.11467828010E+01 -0.10733790283E+03 -0.27923279258E+03  0.29915496477E+03  0.00000000000E+00 0.  1.
        -13    1    3    3    0    0  0.13886424145E+03 -0.48184046641E+03 -0.17260142898E+04  0.17973811063E+04  0.00000000000E+00 0. -1.
         22    1    1    2    0    0 -0.13771745865E+03  0.58917836924E+03 -0.11657862093E+03  0.61618814015E+03  0.00000000000E+00 0.  1.
<mgrwt>
<rscale>  0 0.16901859E+04</rscale>
<asrwt>0</asrwt>
<pdfrwt beam="1">  1        2 0.37188846E+00 0.16901859E+04</pdfrwt>
<pdfrwt beam="2">  1       -2 0.45453731E-01 0.16901859E+04</pdfrwt>
<totfact> 0.17006412E+01</totfact>
</mgrwt>
</event>
<event>
 6    1  0.1528034E-005  0.1774425E+04  0.7818608E-02  0.8720019E-01
          1   -1    0    0  501    0  0.00000000000E+00  0.00000000000E+00  0.30349256974E+04  0.30349256974E+04  0.00000000000E+00 0. -1.
         -1   -1    0    0    0  501 -0.00000000000E+00 -0.00000000000E+00 -0.25936258676E+03  0.25936258676E+03  0.00000000000E+00 0.  1.
         23    2    1    2    0    0  0.62574358413E+03 -0.91226403455E+02  0.24231633893E+03  0.68330829645E+03  0.91190625171E+02 0.  0.
         13    1    3    3    0    0  0.60181647796E+02 -0.92682378800E+01 -0.39835848495E+01  0.61021307042E+02  0.00000000000E+00 0.  1.
        -13    1    3    3    0    0  0.56556193634E+03 -0.81958165575E+02  0.24629992378E+03  0.62228698941E+03  0.00000000000E+00 0. -1.
         22    1    1    2    0    0 -0.62574358413E+03  0.91226403455E+02  0.25332467717E+04  0.26109799877E+04  0.00000000000E+00 0. -1.
<mgrwt>
<rscale>  0 0.17744252E+04</rscale>
<asrwt>0</asrwt>
<pdfrwt beam="1">  1        1 0.46691162E+00 0.17744252E+04</pdfrwt>
<pdfrwt beam="2">  1       -1 0.39901939E-01 0.17744252E+04</pdfrwt>
<totfact> 0.32724246E+00</totfact>
</mgrwt>
</event>
<event>
 6    1  0.1528034E-005  0.3135102E+04  0.7818608E-02  0.8206170E-01
          2   -1    0    0  501    0  0.00000000000E+00  0.00000000000E+00  0.15207806502E+04  0.15207806502E+04  0.00000000000E+00 0. -1.
         -2   -1    0    0    0  501 -0.00000000000E+00 -0.00000000000E+00 -0.16157593600E+04  0.16157593600E+04  0.00000000000E+00 0.  1.
         23    2    1    2    0    0 -0.55171291993E+03  0.57562460858E+03 -0.13962104351E+04  0.16104552030E+04  0.91823447823E+02 0.  0.
         13    1    3    3    0    0 -0.20637036915E+03  0.27623157821E+03 -0.63469963478E+03  0.72231311801E+03  0.00000000000E+00 0.  1.
        -13    1    3    3    0    0 -0.34534255078E+03  0.29939303037E+03 -0.76151080037E+03  0.88814208497E+03  0.00000000000E+00 0. -1.
         22    1    1    2    0    0  0.55171291993E+03 -0.57562460858E+03  0.13012317253E+04  0.15260848072E+04  0.00000000000E+00 0. -1.
<mgrwt>
<rscale>  0 0.31351016E+04</rscale>
<asrwt>0</asrwt>
<pdfrwt beam="1">  1        2 0.23396626E+00 0.31351016E+04</pdfrwt>
<pdfrwt beam="2">  1       -2 0.24857836E+00 0.31351016E+04</pdfrwt>
<totfact> 0.68587185E-01</totfact>
</mgrwt>
</event>
<event>
 6    1  0.1528034E-005  0.1257546E+04  0.7818608E-02  0.9063926E-01
         -2   -1    0    0    0  501 -0.00000000000E+00  0.00000000000E+00  0.23275995941E+03  0.23275995941E+03  0.00000000000E+00 0.  1.
          2   -1    0    0  501    0  0.00000000000E+00 -0.00000000000E+00 -0.16985552504E+04  0.16985552504E+04  0.00000000000E+00 0. -1.
         23    2    1    2    0    0  0.58884551448E+03 -0.20235865932E+03 -0.64539691419E+03  0.90139212357E+03  0.91008332857E+02 0.  0.
         11    1    3    3    0    0  0.57755221901E+02 -0.17312030055E+02 -0.10702348352E+03  0.12283891104E+03  0.00000000000E+00 0.  1.
        -11    1    3    3    0    0  0.53109029258E+03 -0.18504662927E+03 -0.53837343067E+03  0.77855321253E+03  0.00000000000E+00 0. -1.
         22    1    1    2    0    0 -0.58884551448E+03  0.20235865932E+03 -0.82039837678E+03  0.10299230862E+04  0.00000000000E+00 0. -1.
<mgrwt>
<rscale>  0 0.12575463E+04</rscale>
<asrwt>0</asrwt>
<pdfrwt beam="1">  1        2 0.26131620E+00 0.12575463E+04</pdfrwt>
<pdfrwt beam="2">  1       -2 0.35809224E-01 0.12575463E+04</pdfrwt>
<totfact> 0.70800451E+01</totfact>
</mgrwt>
</event>
<event>
 6    1  0.1528034E-005  0.3047266E+04  0.7818608E-02  0.8230361E-01
          1   -1    0    0  501    0  0.00000000000E+00  0.00000000000E+00  0.22454738669E+04  0.22454738669E+04  0.00000000000E+00 0. -1.
         -1   -1    0    0    0  501 -0.00000000000E+00 -0.00000000000E+00 -0.10338385886E+04  0.10338385886E+04  0.00000000000E+00 0.  1.
         23    2    1    2    0    0 -0.11003886228E+04  0.30674026522E+03 -0.47625364813E+03  0.12411972135E+04  0.93852405764E+02 0.  0.
         13    1    3    3    0    0 -0.40406100390E+03  0.15584979424E+03 -0.16021319570E+03  0.46176045880E+03  0.00000000000E+00 0. -1.
        -13    1    3    3    0    0 -0.69632761886E+03  0.15089047097E+03 -0.31604045243E+03  0.77943675471E+03  0.00000000000E+00 0.  1.
         22    1    1    2    0    0  0.11003886228E+04 -0.30674026522E+03  0.16878889265E+04  0.20381152420E+04  0.00000000000E+00 0. -1.
<mgrwt>
<rscale>  0 0.30472660E+04</rscale>
<asrwt>0</asrwt>
<pdfrwt beam="1">  1        1 0.34545752E+00 0.30472660E+04</pdfrwt>
<pdfrwt beam="2">  1       -1 0.15905209E+00 0.30472660E+04</pdfrwt>
<totfact> 0.51071993E-01</totfact>
</mgrwt>
</event>
<event>
 6    1  0.1528034E-005  0.2683945E+04  0.7818608E-02  0.8340233E-01
          2   -1    0    0  501    0  0.00000000000E+00  0.00000000000E+00  0.41096012523E+04  0.41096012523E+04  0.00000000000E+00 0. -1.
         -2   -1    0    0    0  501 -0.00000000000E+00 -0.00000000000E+00 -0.43821522659E+03  0.43821522659E+03  0.00000000000E+00 0.  1.
         23    2    1    2    0    0 -0.10098755506E+04 -0.78826999220E+03  0.25062075903E+04  0.28160950825E+04  0.89982331953E+02 0.  0.
         13    1    3    3    0    0 -0.38457495759E+03 -0.24840639516E+03  0.92415546503E+03  0.10313423092E+04  0.00000000000E+00 0. -1.
        -13    1    3    3    0    0 -0.62530059296E+03 -0.53986359704E+03  0.15820521252E+04  0.17847527733E+04  0.00000000000E+00 0.  1.
         22    1    1    2    0    0  0.10098755506E+04  0.78826999220E+03  0.11651784354E+04  0.17317213964E+04  0.00000000000E+00 0.  1.
<mgrwt>
<rscale>  0 0.26839447E+04</rscale>
<asrwt>0</asrwt>
<pdfrwt beam="1">  1        2 0.63224632E+00 0.26839447E+04</pdfrwt>
<pdfrwt beam="2">  1       -2 0.67417730E-01 0.26839447E+04</pdfrwt>
<totfact> 0.49326242E-01</totfact>
</mgrwt>
</event>
<event>
 6    1  0.1528034E-005  0.1137422E+04  0.7818608E-02  0.9169466E-01
         -2   -1    0    0    0  501 -0.00000000000E+00  0.00000000000E+00  0.28861447474E+03  0.28861447474E+03  0.00000000000E+00 0.  1.
          2   -1    0    0  501    0  0.00000000000E+00 -0.00000000000E+00 -0.11206372843E+04  0.11206372843E+04  0.00000000000E+00 0. -1.
         23    2    1    2    0    0  0.24776482868E+03  0.47959017263E+03 -0.62574609257E+03  0.83137268177E+03  0.90709534244E+02 0.  0.
         13    1    3    3    0    0  0.12491600152E+03  0.16463985690E+03 -0.19846107836E+03  0.28652589681E+03  0.00000000000E+00 0.  1.
        -13    1    3    3    0    0  0.12284882716E+03  0.31495031573E+03 -0.42728501421E+03  0.54484678496E+03  0.00000000000E+00 0. -1.
         22    1    1    2    0    0 -0.24776482868E+03 -0.47959017263E+03 -0.20627671702E+03  0.57787907731E+03  0.00000000000E+00 0.  1.
<mgrwt>
<rscale>  0 0.11374219E+04</rscale>
<asrwt>0</asrwt>
<pdfrwt beam="1">  1        2 0.17240574E+00 0.11374219E+04</pdfrwt>
<pdfrwt beam="2">  1       -2 0.44402226E-01 0.11374219E+04</pdfrwt>
<totfact> 0.10076776E+02</totfact>
</mgrwt>
</event>
<event>
 6    1  0.1528034E-005  0.1075256E+04  0.7818608E-02  0.9229650E-01
         -4   -1    0    0    0  501 -0.00000000000E+00  0.00000000000E+00  0.12003946732E+04  0.12003946732E+04  0.00000000000E+00 0. -1.
          4   -1    0    0  501    0  0.00000000000E+00 -0.00000000000E+00 -0.24079087804E+03  0.24079087804E+03  0.00000000000E+00 0.  1.
         23    2    1    2    0    0  0.16795160682E+03 -0.50498918557E+03  0.52741445403E+03  0.75561320175E+03  0.97793070159E+02 0.  0.
         11    1    3    3    0    0  0.93770826585E+02 -0.14424645601E+03  0.18684320967E+03  0.25398896234E+03  0.00000000000E+00 0.  1.
        -11    1    3    3    0    0  0.74180780238E+02 -0.36074272955E+03  0.34057124436E+03  0.50162423941E+03  0.00000000000E+00 0. -1.
         22    1    1    2    0    0 -0.16795160682E+03  0.50498918557E+03  0.43218934110E+03  0.68557234946E+03  0.00000000000E+00 0. -1.
<mgrwt>
<rscale>  0 0.10752564E+04</rscale>
<asrwt>0</asrwt>
<pdfrwt beam="1">  1        4 0.37044751E-01 0.10752564E+04</pdfrwt>
<pdfrwt beam="2">  1       -4 0.18467610E+00 0.10752564E+04</pdfrwt>
<totfact> 0.23539756E+00</totfact>
</mgrwt>
</event>
<event>
 6    1  0.1528034E-005  0.1715283E+04  0.7818608E-02  0.8752696E-01
          2   -1    0    0  501    0  0.00000000000E+00  0.00000000000E+00  0.52346837706E+03  0.52346837706E+03  0.00000000000E+00 0. -1.
         -2   -1    0    0    0  501 -0.00000000000E+00 -0.00000000000E+00 -0.14051444582E+04  0.14051444582E+04  0.00000000000E+00 0.  1.
         23    2    1    2    0    0 -0.18038072845E+03  0.68927235374E+03 -0.97378216912E+03  0.12101999204E+04  0.93266015555E+02 0.  0.
         13    1    3    3    0    0 -0.11211357279E+02  0.19174361992E+03 -0.23316313720E+03  0.30208667441E+03  0.00000000000E+00 0. -1.
        -13    1    3    3    0    0 -0.16916937117E+03  0.49752873383E+03 -0.74061903193E+03  0.90811324601E+03  0.00000000000E+00 0.  1.
         22    1    1    2    0    0  0.18038072845E+03 -0.68927235374E+03  0.92106087935E+02  0.71841291488E+03  0.00000000000E+00 0. -1.
<mgrwt>
<rscale>  0 0.17152827E+04</rscale>
<asrwt>0</asrwt>
<pdfrwt beam="1">  1        2 0.80533598E-01 0.17152827E+04</pdfrwt>
<pdfrwt beam="2">  1       -2 0.21617607E+00 0.17152827E+04</pdfrwt>
<totfact> 0.57935464E+00</totfact>
</mgrwt>
</event>
<event>
 6    1  0.1528034E-005  0.2522694E+04  0.7818608E-02  0.8394945E-01
          4   -1    0    0  501    0  0.00000000000E+00  0.00000000000E+00  0.19632635896E+04  0.19632635896E+04  0.00000000000E+00 0. -1.
         -4   -1    0    0    0  501 -0.00000000000E+00 -0.00000000000E+00 -0.81038356528E+03  0.81038356528E+03  0.00000000000E+00 0.  1.
         23    2    1    2    0    0  0.10996517668E+04 -0.54102654875E+03  0.89948073572E+03  0.15221860352E+04  0.77723851120E+02 0.  0.
         13    1    3    3    0    0  0.50797030383E+03 -0.28924522176E+03  0.44838619777E+03  0.73671351978E+03  0.00000000000E+00 0. -1.
        -13    1    3    3    0    0  0.59168146299E+03 -0.25178132699E+03  0.45109453795E+03  0.78547251539E+03  0.00000000000E+00 0.  1.
         22    1    1    2    0    0 -0.10996517668E+04  0.54102654875E+03  0.25339928862E+03  0.12514611197E+04  0.00000000000E+00 0.  1.
<mgrwt>
<rscale>  0 0.25226942E+04</rscale>
<asrwt>0</asrwt>
<pdfrwt beam="1">  1        4 0.30204055E+00 0.25226942E+04</pdfrwt>
<pdfrwt beam="2">  1       -4 0.12467440E+00 0.25226942E+04</pdfrwt>
<totfact> 0.25618792E-02</totfact>
</mgrwt>
</event>
<event>
 6    1  0.1528034E-005  0.4315252E+04  0.7818608E-02  0.7943804E-01
         -1   -1    0    0    0  501 -0.00000000000E+00  0.00000000000E+00  0.33298256190E+04  0.33298256190E+04  0.00000000000E+00 0.  1.
          1   -1    0    0  501    0  0.00000000000E+00 -0.00000000000E+00 -0.13980759057E+04  0.13980759057E+04  0.00000000000E+00 0. -1.
         23    2    1    2    0    0 -0.19615480426E+04 -0.37187134311E+03  0.72746083167E+02  0.19999254404E+04  0.91927989949E+02 0.  0.
         11    1    3    3    0    0 -0.15633871307E+04 -0.32350361014E+03  0.32679266587E+02  0.15968412071E+04  0.00000000000E+00 0.  1.
        -11    1    3    3    0    0 -0.39816091191E+03 -0.48367732971E+02  0.40066816580E+02  0.40308423333E+03  0.00000000000E+00 0. -1.
         22    1    1    2    0    0  0.19615480426E+04  0.37187134311E+03  0.18590036301E+04  0.27279760842E+04  0.00000000000E+00 0.  1.
<mgrwt>
<rscale>  0 0.43152515E+04</rscale>
<asrwt>0</asrwt>
<pdfrwt beam="1">  1        1 0.21508860E+00 0.43152515E+04</pdfrwt>
<pdfrwt beam="2">  1       -1 0.51228086E+00 0.43152515E+04</pdfrwt>
<totfact> 0.73397773E-03</totfact>
</mgrwt>
</event>
<event>
 6    1  0.1528034E-005  0.9008168E+03  0.7818608E-02  0.9424561E-01
          2   -1    0    0  501    0  0.00000000000E+00  0.00000000000E+00  0.13570409275E+04  0.13570409275E+04  0.00000000000E+00 0. -1.
         -2   -1    0    0    0  501 -0.00000000000E+00 -0.00000000000E+00 -0.14949272128E+03  0.14949272128E+03  0.00000000000E+00 0.  1.
         23    2    1    2    0    0  0.32171603002E+03 -0.12236391859E+03  0.10838278201E+04  0.11407729805E+04  0.90587619079E+02 0.  0.
         11    1    3    3    0    0  0.12079126181E+03 -0.80039475012E+02  0.35131180546E+03  0.38002214560E+03  0.00000000000E+00 0.  1.
        -11    1    3    3    0    0  0.20092476822E+03 -0.42324443581E+02  0.73251601468E+03  0.76075083488E+03  0.00000000000E+00 0. -1.
         22    1    1    2    0    0 -0.32171603002E+03  0.12236391859E+03  0.12372038610E+03  0.36576066831E+03  0.00000000000E+00 0.  1.
<mgrwt>
<rscale>  0 0.90081683E+03</rscale>
<asrwt>0</asrwt>
<pdfrwt beam="1">  1        2 0.20877552E+00 0.90081683E+03</pdfrwt>
<pdfrwt beam="2">  1       -2 0.22998881E-01 0.90081683E+03</pdfrwt>
<totfact> 0.25586550E+02</totfact>
</mgrwt>
</event>
<event>
 6    1  0.1528034E-005  0.2546958E+04  0.7818608E-02  0.8386445E-01
          2   -1    0    0  501    0  0.00000000000E+00  0.00000000000E+00  0.13630432191E+04  0.13630432191E+04  0.00000000000E+00 0. -1.
         -2   -1    0    0    0  501 -0.00000000000E+00 -0.00000000000E+00 -0.11897995316E+04  0.11897995316E+04  0.00000000000E+00 0.  1.
         23    2    1    2    0    0  0.60231925100E+03  0.18714237835E+03 -0.10209478308E+04  0.12023228019E+04  0.73721752072E+02 0.  0.
         13    1    3    3    0    0  0.10156808726E+03  0.56809664696E+02 -0.15997706090E+03  0.19782839626E+03  0.00000000000E+00 0. -1.
        -13    1    3    3    0    0  0.50075116374E+03  0.13033271365E+03 -0.86097076991E+03  0.10044944056E+04  0.00000000000E+00 0.  1.
         22    1    1    2    0    0 -0.60231925100E+03 -0.18714237835E+03  0.11941915183E+04  0.13505199489E+04  0.00000000000E+00 0. -1.
<mgrwt>
<rscale>  0 0.25469575E+04</rscale>
<asrwt>0</asrwt>
<pdfrwt beam="1">  1        2 0.20969896E+00 0.25469575E+04</pdfrwt>
<pdfrwt beam="2">  1       -2 0.18304608E+00 0.25469575E+04</pdfrwt>
<totfact> 0.23329027E+00</totfact>
</mgrwt>
</event>
<event>
 6    1  0.1528034E-005  0.3041290E+04  0.7818608E-02  0.8232038E-01
         -2   -1    0    0    0  501 -0.00000000000E+00  0.00000000000E+00  0.12943900951E+04  0.12943900951E+04  0.00000000000E+00 0.  1.
          2   -1    0    0  501    0  0.00000000000E+00 -0.00000000000E+00 -0.17864479755E+04  0.17864479755E+04  0.00000000000E+00 0. -1.
         23    2    1    2    0    0  0.13844829719E+04 -0.54428631320E+03  0.66059919160E+02  0.14919591676E+04  0.92398888898E+02 0.  0.
         13    1    3    3    0    0  0.11865615844E+04 -0.49975674813E+03  0.50683252794E+02  0.12885084373E+04  0.00000000000E+00 0.  1.
        -13    1    3    3    0    0  0.19792138749E+03 -0.44529565077E+02  0.15376666367E+02  0.20345073030E+03  0.00000000000E+00 0. -1.
         22    1    1    2    0    0 -0.13844829719E+04  0.54428631320E+03 -0.55811779948E+03  0.15888789030E+04  0.00000000000E+00 0. -1.
<mgrwt>
<rscale>  0 0.30412896E+04</rscale>
<asrwt>0</asrwt>
<pdfrwt beam="1">  1        2 0.27483815E+00 0.30412896E+04</pdfrwt>
<pdfrwt beam="2">  1       -2 0.19913694E+00 0.30412896E+04</pdfrwt>
<totfact> 0.10094004E+00</totfact>
</mgrwt>
</event>
<event>
 6    1  0.1528034E-005  0.1051979E+04  0.7818608E-02  0.9253303E-01
          1   -1    0    0  501    0  0.00000000000E+00  0.00000000000E+00  0.19829615563E+03  0.19829615563E+03  0.00000000000E+00 0. -1.
         -1   -1    0    0    0  501 -0.00000000000E+00 -0.00000000000E+00 -0.13952116852E+04  0.13952116852E+04  0.00000000000E+00 0.  1.
         23    2    1    2    0    0 -0.44801332259E+03  0.25245165796E+03 -0.46656819306E+03  0.70028054122E+03  0.90880035235E+02 0.  0.
         11    1    3    3    0    0 -0.27065905864E+03  0.13221464272E+03 -0.32683045592E+03  0.44447180415E+03  0.00000000000E+00 0. -1.
        -11    1    3    3    0    0 -0.17735426396E+03  0.12023701523E+03 -0.13973773715E+03  0.25580873706E+03  0.00000000000E+00 0.  1.
         22    1    1    2    0    0  0.44801332259E+03 -0.25245165796E+03 -0.73034733648E+03  0.89322729959E+03  0.00000000000E+00 0.  1.
<mgrwt>
<rscale>  0 0.10519793E+04</rscale>
<asrwt>0</asrwt>
<pdfrwt beam="1">  1        1 0.30507101E-01 0.10519793E+04</pdfrwt>
<pdfrwt beam="2">  1       -1 0.21464795E+00 0.10519793E+04</pdfrwt>
<totfact> 0.18017322E+01</totfact>
</mgrwt>
</event>
<event>
 6    1  0.1528034E-005  0.5438649E+03  0.7818608E-02  0.1002924E+00
         -2   -1    0    0    0  501 -0.00000000000E+00  0.00000000000E+00  0.38066723621E+02  0.38066723621E+02  0.00000000000E+00 0.  1.
          2   -1    0    0  501    0  0.00000000000E+00 -0.00000000000E+00 -0.19425695297E+04  0.19425695297E+04  0.00000000000E+00 0. -1.
         23    2    1    2    0    0 -0.40073339486E+02  0.19851845643E+03 -0.16021833006E+04  0.16167509232E+04  0.76660086659E+02 0.  0.
         11    1    3    3    0    0  0.22660822936E+02  0.53777203586E+02 -0.47977393948E+03  0.48330997665E+03  0.00000000000E+00 0. -1.
        -11    1    3    3    0    0 -0.62734162421E+02  0.14474125284E+03 -0.11224093611E+04  0.11334409466E+04  0.00000000000E+00 0.  1.
         22    1    1    2    0    0  0.40073339486E+02 -0.19851845643E+03 -0.30231950548E+03  0.36388533011E+03  0.00000000000E+00 0.  1.
<mgrwt>
<rscale>  0 0.54386490E+03</rscale>
<asrwt>0</asrwt>
<pdfrwt beam="1">  1        2 0.29885681E+00 0.54386490E+03</pdfrwt>
<pdfrwt beam="2">  1       -2 0.58564198E-02 0.54386490E+03</pdfrwt>
<totfact> 0.11987385E+03</totfact>
</mgrwt>
</event>
<event>
 6    1  0.1528034E-005  0.3313091E+04  0.7818608E-02  0.8159572E-01
         -1   -1    0    0    0  501 -0.00000000000E+00  0.00000000000E+00  0.93950414226E+03  0.93950414226E+03  0.00000000000E+00 0.  1.
          1   -1    0    0  501    0  0.00000000000E+00 -0.00000000000E+00 -0.29208418393E+04  0.29208418393E+04  0.00000000000E+00 0. -1.
         23    2    1    2    0    0  0.87241300178E+03 -0.14065234754E+04 -0.97390847529E+03  0.19227375667E+04  0.94917330692E+02 0.  0.
         11    1    3    3    0    0  0.59449223082E+03 -0.95808412266E+03 -0.61158077525E+03  0.12827225901E+04  0.00000000000E+00 0. -1.
        -11    1    3    3    0    0  0.27792077096E+03 -0.44843935272E+03 -0.36232770003E+03  0.64001497655E+03  0.00000000000E+00 0.  1.
         22    1    1    2    0    0 -0.87241300178E+03  0.14065234754E+04 -0.10074292217E+04  0.19376084148E+04  0.00000000000E+00 0.  1.
<mgrwt>
<rscale>  0 0.33130910E+04</rscale>
<asrwt>0</asrwt>
<pdfrwt beam="1">  1        1 0.44936028E+00 0.33130910E+04</pdfrwt>
<pdfrwt beam="2">  1       -1 0.14453910E+00 0.33130910E+04</pdfrwt>
<totfact> 0.21775148E-01</totfact>
</mgrwt>
</event>
<event>
 6    1  0.1528034E-005  0.2218375E+04  0.7818608E-02  0.8510819E-01
         -2   -1    0    0    0  501 -0.00000000000E+00  0.00000000000E+00  0.12534080217E+04  0.12534080217E+04  0.00000000000E+00 0.  1.
          2   -1    0    0  501    0  0.00000000000E+00 -0.00000000000E+00 -0.98156182312E+03  0.98156182312E+03  0.00000000000E+00 0. -1.
         23    2    1    2    0    0 -0.76615095175E+03 -0.70991792460E+03 -0.23374286586E+03  0.10745427499E+04  0.95056054218E+02 0.  0.
         11    1    3    3    0    0 -0.28307097586E+03 -0.20133641195E+03 -0.77603570935E+02  0.35593235645E+03  0.00000000000E+00 0.  1.
        -11    1    3    3    0    0 -0.48307997589E+03 -0.50858151265E+03 -0.15613929493E+03  0.71861039342E+03  0.00000000000E+00 0. -1.
         22    1    1    2    0    0  0.76615095175E+03  0.70991792460E+03  0.50558906440E+03  0.11604270949E+04  0.00000000000E+00 0.  1.
<mgrwt>
<rscale>  0 0.22183755E+04</rscale>
<asrwt>0</asrwt>
<pdfrwt beam="1">  1        2 0.15100951E+00 0.22183755E+04</pdfrwt>
<pdfrwt beam="2">  1       -2 0.19283200E+00 0.22183755E+04</pdfrwt>
<totfact> 0.35049891E+00</totfact>
</mgrwt>
</event>
<event>
 6    1  0.1528034E-005  0.7452942E+03  0.7818608E-02  0.9642762E-01
         -3   -1    0    0    0  501 -0.00000000000E+00  0.00000000000E+00  0.18272663559E+03  0.18272663559E+03  0.00000000000E+00 0.  1.
          3   -1    0    0  501    0  0.00000000000E+00 -0.00000000000E+00 -0.75996511591E+03  0.75996511591E+03  0.00000000000E+00 0. -1.
         23    2    1    2    0    0 -0.17240926253E+03  0.32372276979E+03 -0.29663129126E+03  0.48088900136E+03  0.93502530393E+02 0.  0.
         11    1    3    3    0    0 -0.71992212975E+02  0.83012124584E+02 -0.45844401942E+02  0.11906133187E+03  0.00000000000E+00 0.  1.
        -11    1    3    3    0    0 -0.10041704955E+03  0.24071064520E+03 -0.25078688932E+03  0.36182766949E+03  0.00000000000E+00 0. -1.
         22    1    1    2    0    0  0.17240926253E+03 -0.32372276979E+03 -0.28060718905E+03  0.46180275013E+03  0.00000000000E+00 0.  1.
<mgrwt>
<rscale>  0 0.74529422E+03</rscale>
<asrwt>0</asrwt>
<pdfrwt beam="1">  1        3 0.11691771E+00 0.74529422E+03</pdfrwt>
<pdfrwt beam="2">  1       -3 0.28111790E-01 0.74529422E+03</pdfrwt>
<totfact> 0.19522055E+01</totfact>
</mgrwt>
</event>
<event>
 6    1  0.1528034E-005  0.4657469E+04  0.7818608E-02  0.7883634E-01
          2   -1    0    0  501    0  0.00000000000E+00  0.00000000000E+00  0.28822841557E+04  0.28822841557E+04  0.00000000000E+00 0. -1.
         -2   -1    0    0    0  501 -0.00000000000E+00 -0.00000000000E+00 -0.18814949934E+04  0.18814949934E+04  0.00000000000E+00 0.  1.
         23    2    1    2    0    0  0.45457376416E+01 -0.23277535892E+04  0.47226797679E+03  0.23767743147E+04  0.86957836094E+02 0.  0.
         11    1    3    3    0    0 -0.21044131952E+02 -0.26274559497E+03  0.71047191747E+02  0.27299415125E+03  0.00000000000E+00 0. -1.
        -11    1    3    3    0    0  0.25589869593E+02 -0.20650079943E+04  0.40122078504E+03  0.21037801634E+04  0.00000000000E+00 0.  1.
         22    1    1    2    0    0 -0.45457376416E+01  0.23277535892E+04  0.52852118557E+03  0.23870048344E+04  0.00000000000E+00 0.  1.
<mgrwt>
<rscale>  0 0.46574685E+04</rscale>
<asrwt>0</asrwt>
<pdfrwt beam="1">  1        2 0.44342833E+00 0.46574685E+04</pdfrwt>
<pdfrwt beam="2">  1       -2 0.28946077E+00 0.46574685E+04</pdfrwt>
<totfact> 0.56805217E-02</totfact>
</mgrwt>
</event>
<event>
 6    1  0.1528034E-005  0.9565524E+03  0.7818608E-02  0.9357524E-01
         -2   -1    0    0    0  501 -0.00000000000E+00  0.00000000000E+00  0.27109332558E+03  0.27109332558E+03  0.00000000000E+00 0.  1.
          2   -1    0    0  501    0  0.00000000000E+00 -0.00000000000E+00 -0.84379851878E+03  0.84379851878E+03  0.00000000000E+00 0. -1.
         23    2    1    2    0    0  0.32229149839E+02  0.37378932320E+03  0.50009596962E+02  0.38789054717E+03  0.84858355881E+02 0.  0.
         13    1    3    3    0    0  0.29492849042E+02  0.24031820034E+03  0.71983291840E+02  0.25259505115E+03  0.00000000000E+00 0. -1.
        -13    1    3    3    0    0  0.27363007975E+01  0.13347112285E+03 -0.21973694878E+02  0.13529549602E+03  0.00000000000E+00 0.  1.
         22    1    1    2    0    0 -0.32229149839E+02 -0.37378932320E+03 -0.62271479016E+03  0.72700129719E+03  0.00000000000E+00 0. -1.
<mgrwt>
<rscale>  0 0.95655245E+03</rscale>
<asrwt>0</asrwt>
<pdfrwt beam="1">  1        2 0.12981515E+00 0.95655245E+03</pdfrwt>
<pdfrwt beam="2">  1       -2 0.41706666E-01 0.95655245E+03</pdfrwt>
<totfact> 0.17461104E+02</totfact>
</mgrwt>
</event>
<event>
 6    1  0.1528034E-005  0.3508659E+04  0.7818608E-02  0.8111741E-01
          2   -1    0    0  501    0  0.00000000000E+00  0.00000000000E+00  0.16033899658E+04  0.16033899658E+04  0.00000000000E+00 0. -1.
         -2   -1    0    0    0  501 -0.00000000000E+00 -0.00000000000E+00 -0.19194785875E+04  0.19194785875E+04  0.00000000000E+00 0.  1.
         23    2    1    2    0    0  0.13354542893E+04  0.68031478639E+03 -0.10714087084E+04  0.18445435547E+04  0.90321299584E+02 0.  0.
         11    1    3    3    0    0  0.12233894138E+04  0.64700996255E+03 -0.10017971357E+04  0.17084791630E+04  0.00000000000E+00 0. -1.
        -11    1    3    3    0    0  0.11206487548E+03  0.33304823840E+02 -0.69611572761E+02  0.13606439163E+03  0.00000000000E+00 0.  1.
         22    1    1    2    0    0 -0.13354542893E+04 -0.68031478639E+03  0.75532008668E+03  0.16783249986E+04  0.00000000000E+00 0. -1.
<mgrwt>
<rscale>  0 0.35086594E+04</rscale>
<asrwt>0</asrwt>
<pdfrwt beam="1">  1        2 0.24667538E+00 0.35086594E+04</pdfrwt>
<pdfrwt beam="2">  1       -2 0.29530440E+00 0.35086594E+04</pdfrwt>
<totfact> 0.30957655E-01</totfact>
</mgrwt>
</event>
<event>
 6    1  0.1528034E-005  0.1362496E+04  0.7818608E-02  0.8981423E-01
         -2   -1    0    0    0  501 -0.00000000000E+00  0.00000000000E+00  0.16536103473E+03  0.16536103473E+03  0.00000000000E+00 0. -1.
          2   -1    0    0  501    0  0.00000000000E+00 -0.00000000000E+00 -0.28065782107E+04  0.28065782107E+04  0.00000000000E+00 0.  1.
         23    2    1    2    0    0 -0.12463490137E+03  0.48264328005E+03 -0.23297591836E+04  0.23841599710E+04  0.89232950130E+02 0.  0.
         11    1    3    3    0    0 -0.41305695613E+02  0.19962856933E+03 -0.11595435374E+04  0.11773270324E+04  0.00000000000E+00 0. -1.
        -11    1    3    3    0    0 -0.83329205757E+02  0.28301471072E+03 -0.11702156462E+04  0.12068329386E+04  0.00000000000E+00 0.  1.
         22    1    1    2    0    0  0.12463490137E+03 -0.48264328005E+03 -0.31145799236E+03  0.58777927441E+03  0.00000000000E+00 0. -1.
<mgrwt>
<rscale>  0 0.13624958E+04</rscale>
<asrwt>0</asrwt>
<pdfrwt beam="1">  1        2 0.43178127E+00 0.13624958E+04</pdfrwt>
<pdfrwt beam="2">  1       -2 0.25440159E-01 0.13624958E+04</pdfrwt>
<totfact> 0.31306956E+01</totfact>
</mgrwt>
</event>
<event>
 6    1  0.1528034E-005  0.3252971E+04  0.7818608E-02  0.8174966E-01
          2   -1    0    0  501    0  0.00000000000E+00  0.00000000000E+00  0.16090222825E+04  0.16090222825E+04  0.00000000000E+00 0. -1.
         -2   -1    0    0    0  501 -0.00000000000E+00 -0.00000000000E+00 -0.16441382501E+04  0.16441382501E+04  0.00000000000E+00 0.  1.
         23    2    1    2    0    0 -0.12473430631E+04  0.96750075345E+03 -0.40386771113E+03  0.16320805612E+04  0.93034430273E+02 0.  0.
         11    1    3    3    0    0 -0.35549989815E+03  0.32996531976E+03 -0.12588140902E+03  0.50110220411E+03  0.00000000000E+00 0.  1.
        -11    1    3    3    0    0 -0.89184316495E+03  0.63753543370E+03 -0.27798630211E+03  0.11309783571E+04  0.00000000000E+00 0. -1.
         22    1    1    2    0    0  0.12473430631E+04 -0.96750075345E+03  0.36875174353E+03  0.16210799713E+04  0.00000000000E+00 0. -1.
<mgrwt>
<rscale>  0 0.32529710E+04</rscale>
<asrwt>0</asrwt>
<pdfrwt beam="1">  1        2 0.24754189E+00 0.32529710E+04</pdfrwt>
<pdfrwt beam="2">  1       -2 0.25294435E+00 0.32529710E+04</pdfrwt>
<totfact> 0.56965522E-01</totfact>
</mgrwt>
</event>
<event>
 6    1  0.1528034E-005  0.1177038E+04  0.7818608E-02  0.9133196E-01
         -1   -1    0    0    0  501 -0.00000000000E+00  0.00000000000E+00  0.19506786611E+03  0.19506786611E+03  0.00000000000E+00 0.  1.
          1   -1    0    0  501    0  0.00000000000E+00 -0.00000000000E+00 -0.17755595888E+04  0.17755595888E+04  0.00000000000E+00 0. -1.
         23    2    1    2    0    0  0.34619697028E+03 -0.32658235234E+03 -0.13635181961E+04  0.14475730731E+04  0.98881524203E+02 0.  0.
         11    1    3    3    0    0  0.51383093677E+02 -0.44927631223E+02 -0.11044580915E+03  0.12983447586E+03  0.00000000000E+00 0. -1.
        -11    1    3    3    0    0  0.29481387660E+03 -0.28165472112E+03 -0.12530723869E+04  0.13177385972E+04  0.00000000000E+00 0.  1.
         22    1    1    2    0    0 -0.34619697028E+03  0.32658235234E+03 -0.21697352663E+03  0.52305438183E+03  0.00000000000E+00 0.  1.
<mgrwt>
<rscale>  0 0.11770380E+04</rscale>
<asrwt>0</asrwt>
<pdfrwt beam="1">  1        1 0.27316301E+00 0.11770380E+04</pdfrwt>
<pdfrwt beam="2">  1       -1 0.30010441E-01 0.11770380E+04</pdfrwt>
<totfact> 0.42823692E+01</totfact>
</mgrwt>
</event>
<event>
 6    1  0.1528034E-005  0.2169259E+04  0.7818608E-02  0.8531333E-01
          2   -1    0    0  501    0  0.00000000000E+00  0.00000000000E+00  0.10454147007E+04  0.10454147007E+04  0.00000000000E+00 0. -1.
         -2   -1    0    0    0  501 -0.00000000000E+00 -0.00000000000E+00 -0.11253152286E+04  0.11253152286E+04  0.00000000000E+00 0.  1.
         23    2    1    2    0    0  0.29246372424E+03 -0.95262987264E+03 -0.46376222408E+03  0.11028401850E+04  0.90235075950E+02 0.  0.
         13    1    3    3    0    0  0.67454317598E+02 -0.31628815834E+03 -0.11608799621E+03  0.34360545243E+03  0.00000000000E+00 0. -1.
        -13    1    3    3    0    0  0.22500940664E+03 -0.63634171430E+03 -0.34767422786E+03  0.75923473258E+03  0.00000000000E+00 0.  1.
         22    1    1    2    0    0 -0.29246372424E+03  0.95262987264E+03  0.38386169622E+03  0.10678897443E+04  0.00000000000E+00 0. -1.
<mgrwt>
<rscale>  0 0.21692589E+04</rscale>
<asrwt>0</asrwt>
<pdfrwt beam="1">  1        2 0.16083303E+00 0.21692589E+04</pdfrwt>
<pdfrwt beam="2">  1       -2 0.17312542E+00 0.21692589E+04</pdfrwt>
<totfact> 0.43730263E+00</totfact>
</mgrwt>
</event>
<event>
 6    1  0.1528034E-005  0.6046118E+03  0.7818608E-02  0.9895884E-01
          2   -1    0    0  501    0  0.00000000000E+00  0.00000000000E+00  0.38839807893E+03  0.38839807893E+03  0.00000000000E+00 0. -1.
         -2   -1    0    0    0  501 -0.00000000000E+00 -0.00000000000E+00 -0.23529687668E+03  0.23529687668E+03  0.00000000000E+00 0.  1.
         23    2    1    2    0    0  0.27016530845E+03  0.11137490006E+03  0.33209787596E+02  0.30783483853E+03  0.90916090797E+02 0.  0.
         13    1    3    3    0    0  0.88994817726E+02  0.84676870722E+02  0.10136101714E+02  0.12325984981E+03  0.00000000000E+00 0. -1.
        -13    1    3    3    0    0  0.18117049073E+03  0.26698029341E+02  0.23073685881E+02  0.18457498872E+03  0.00000000000E+00 0.  1.
         22    1    1    2    0    0 -0.27016530845E+03 -0.11137490006E+03  0.11989141465E+03  0.31586011708E+03  0.00000000000E+00 0. -1.
<mgrwt>
<rscale>  0 0.60461179E+03</rscale>
<asrwt>0</asrwt>
<pdfrwt beam="1">  1        2 0.59753551E-01 0.60461179E+03</pdfrwt>
<pdfrwt beam="2">  1       -2 0.36199519E-01 0.60461179E+03</pdfrwt>
<totfact> 0.59435733E+02</totfact>
</mgrwt>
</event>
<event>
 6    1  0.1528034E-005  0.3500929E+04  0.7818608E-02  0.8113570E-01
          1   -1    0    0  501    0  0.00000000000E+00  0.00000000000E+00  0.13472708145E+04  0.13472708145E+04  0.00000000000E+00 0. -1.
         -1   -1    0    0    0  501 -0.00000000000E+00 -0.00000000000E+00 -0.22743213778E+04  0.22743213778E+04  0.00000000000E+00 0.  1.
         23    2    1    2    0    0 -0.21816972957E+03  0.93025586849E+03 -0.19796255463E+04  0.22000127514E+04  0.90359233248E+02 0.  0.
         11    1    3    3    0    0 -0.11302091151E+03  0.62609351715E+03 -0.12512262652E+04  0.14036858571E+04  0.00000000000E+00 0. -1.
        -11    1    3    3    0    0 -0.10514881806E+03  0.30416235134E+03 -0.72839928116E+03  0.79632689438E+03  0.00000000000E+00 0.  1.
         22    1    1    2    0    0  0.21816972957E+03 -0.93025586849E+03  0.10525749830E+04  0.14215794409E+04  0.00000000000E+00 0. -1.
<mgrwt>
<rscale>  0 0.35009295E+04</rscale>
<asrwt>0</asrwt>
<pdfrwt beam="1">  1        1 0.20727244E+00 0.35009295E+04</pdfrwt>
<pdfrwt beam="2">  1       -1 0.34989559E+00 0.35009295E+04</pdfrwt>
<totfact> 0.10622182E-01</totfact>
</mgrwt>
</event>
<event>
 6    1  0.1528034E-005  0.2355384E+04  0.7818608E-02  0.8456399E-01
          1   -1    0    0  501    0  0.00000000000E+00  0.00000000000E+00  0.13832465019E+04  0.13832465019E+04  0.00000000000E+00 0.  1.
         -1   -1    0    0    0  501 -0.00000000000E+00 -0.00000000000E+00 -0.10026831876E+04  0.10026831876E+04  0.00000000000E+00 0. -1.
         23    2    1    2    0    0  0.96944080545E+03  0.44300953850E+03  0.69371917224E+03  0.12750113677E+04  0.91294968498E+02 0.  0.
         13    1    3    3    0    0  0.53258752668E+03  0.19454846398E+03  0.37988031119E+03  0.68250101043E+03  0.00000000000E+00 0. -1.
        -13    1    3    3    0    0  0.43685327877E+03  0.24846107452E+03  0.31383886105E+03  0.59251035723E+03  0.00000000000E+00 0.  1.
         22    1    1    2    0    0 -0.96944080545E+03 -0.44300953850E+03 -0.31315585796E+03  0.11109183219E+04  0.00000000000E+00 0. -1.
<mgrwt>
<rscale>  0 0.23553836E+04</rscale>
<asrwt>0</asrwt>
<pdfrwt beam="1">  1        1 0.21280715E+00 0.23553836E+04</pdfrwt>
<pdfrwt beam="2">  1       -1 0.15425895E+00 0.23553836E+04</pdfrwt>
<totfact> 0.22964023E+00</totfact>
</mgrwt>
</event>
<event>
 6    1  0.1528034E-005  0.2193110E+04  0.7818608E-02  0.8521301E-01
         -1   -1    0    0    0  501 -0.00000000000E+00  0.00000000000E+00  0.12469198624E+04  0.12469198624E+04  0.00000000000E+00 0.  1.
          1   -1    0    0  501    0  0.00000000000E+00 -0.00000000000E+00 -0.96432240286E+03  0.96432240286E+03  0.00000000000E+00 0. -1.
         23    2    1    2    0    0 -0.33332390493E+03 -0.69710361038E+03 -0.64033471485E+03  0.10075554008E+04  0.89894768642E+02 0.  0.
         11    1    3    3    0    0 -0.19341332556E+03 -0.30478032263E+03 -0.28096098978E+03  0.45742631903E+03  0.00000000000E+00 0.  1.
        -11    1    3    3    0    0 -0.13991057937E+03 -0.39232328775E+03 -0.35937372507E+03  0.55012908176E+03  0.00000000000E+00 0. -1.
         22    1    1    2    0    0  0.33332390493E+03  0.69710361038E+03  0.92293217442E+03  0.12036868645E+04  0.00000000000E+00 0.  1.
<mgrwt>
<rscale>  0 0.21931099E+04</rscale>
<asrwt>0</asrwt>
<pdfrwt beam="1">  1        1 0.14835729E+00 0.21931099E+04</pdfrwt>
<pdfrwt beam="2">  1       -1 0.19183383E+00 0.21931099E+04</pdfrwt>
<totfact> 0.25264138E+00</totfact>
</mgrwt>
</event>
<event>
 6    1  0.1528034E-005  0.3672338E+04  0.7818608E-02  0.8074120E-01
          2   -1    0    0  501    0  0.00000000000E+00  0.00000000000E+00  0.16344727723E+04  0.16344727723E+04  0.00000000000E+00 0.  1.
         -2   -1    0    0    0  501 -0.00000000000E+00 -0.00000000000E+00 -0.20627551669E+04  0.20627551669E+04  0.00000000000E+00 0. -1.
         23    2    1    2    0    0 -0.69804954801E+03 -0.16957387863E+04 -0.14570691323E+03  0.18417894182E+04  0.90302567495E+02 0.  0.
         13    1    3    3    0    0 -0.22589438429E+03 -0.64334118924E+03 -0.78872625682E+02  0.68639423782E+03  0.00000000000E+00 0.  1.
        -13    1    3    3    0    0 -0.47215516371E+03 -0.10523975970E+04 -0.66834287544E+02  0.11553951804E+04  0.00000000000E+00 0. -1.
         22    1    1    2    0    0  0.69804954801E+03  0.16957387863E+04 -0.28257548143E+03  0.18554385210E+04  0.00000000000E+00 0.  1.
<mgrwt>
<rscale>  0 0.36723383E+04</rscale>
<asrwt>0</asrwt>
<pdfrwt beam="1">  1        2 0.25145735E+00 0.36723383E+04</pdfrwt>
<pdfrwt beam="2">  1       -2 0.31734695E+00 0.36723383E+04</pdfrwt>
<totfact> 0.21487775E-01</totfact>
</mgrwt>
</event>
<event>
 6    1  0.1528034E-005  0.1961286E+04  0.7818608E-02  0.8624938E-01
          2   -1    0    0  501    0  0.00000000000E+00  0.00000000000E+00  0.62729492418E+03  0.62729492418E+03  0.00000000000E+00 0.  1.
         -2   -1    0    0    0  501 -0.00000000000E+00 -0.00000000000E+00 -0.15330272679E+04  0.15330272679E+04  0.00000000000E+00 0. -1.
         23    2    1    2    0    0  0.21914769711E+03 -0.72397028795E+03  0.22964523513E+03  0.79604914847E+03  0.93800968889E+02 0.  0.
         13    1    3    3    0    0  0.12563526377E+02 -0.11143734698E+03  0.70440025001E+01  0.11236432916E+03  0.00000000000E+00 0. -1.
        -13    1    3    3    0    0  0.20658417073E+03 -0.61253294097E+03  0.22260123263E+03  0.68368481930E+03  0.00000000000E+00 0.  1.
         22    1    1    2    0    0 -0.21914769711E+03  0.72397028795E+03 -0.11353775789E+04  0.13642730436E+04  0.00000000000E+00 0. -1.
<mgrwt>
<rscale>  0 0.19612855E+04</rscale>
<asrwt>0</asrwt>
<pdfrwt beam="1">  1        2 0.96506912E-01 0.19612855E+04</pdfrwt>
<pdfrwt beam="2">  1       -2 0.23585035E+00 0.19612855E+04</pdfrwt>
<totfact> 0.34399520E+00</totfact>
</mgrwt>
</event>
<event>
 6    1  0.1528034E-005  0.2536604E+04  0.7818608E-02  0.8390060E-01
          2   -1    0    0  501    0  0.00000000000E+00  0.00000000000E+00  0.19146651184E+04  0.19146651184E+04  0.00000000000E+00 0. -1.
         -2   -1    0    0    0  501 -0.00000000000E+00 -0.00000000000E+00 -0.84014172187E+03  0.84014172187E+03  0.00000000000E+00 0.  1.
         23    2    1    2    0    0  0.47992614789E+03  0.10129708172E+04  0.11786983598E+04  0.16290664585E+04  0.89937305023E+02 0.  0.
         13    1    3    3    0    0  0.48048830220E+02  0.12822398775E+03  0.10691544923E+03  0.17372678091E+03  0.00000000000E+00 0.  1.
        -13    1    3    3    0    0  0.43187731767E+03  0.88474682949E+03  0.10717829106E+04  0.14553396776E+04  0.00000000000E+00 0. -1.
         22    1    1    2    0    0 -0.47992614789E+03 -0.10129708172E+04 -0.10417496333E+03  0.11257403817E+04  0.00000000000E+00 0.  1.
<mgrwt>
<rscale>  0 0.25366041E+04</rscale>
<asrwt>0</asrwt>
<pdfrwt beam="1">  1        2 0.29456386E+00 0.25366041E+04</pdfrwt>
<pdfrwt beam="2">  1       -2 0.12925257E+00 0.25366041E+04</pdfrwt>
<totfact> 0.29204828E+00</totfact>
</mgrwt>
</event>
<event>
 6    1  0.1528034E-005  0.1266173E+04  0.7818608E-02  0.9056829E-01
         -2   -1    0    0    0  501 -0.00000000000E+00  0.00000000000E+00  0.26095438027E+03  0.26095438027E+03  0.00000000000E+00 0. -1.
          2   -1    0    0  501    0  0.00000000000E+00 -0.00000000000E+00 -0.15358952432E+04  0.15358952432E+04  0.00000000000E+00 0.  1.
         23    2    1    2    0    0  0.11094964467E+03 -0.55154546068E+03 -0.10436113198E+04  0.11885523472E+04  0.83784701790E+02 0.  0.
         13    1    3    3    0    0  0.16877871142E+02 -0.21530915053E+03 -0.33479626975E+03  0.39841113824E+03  0.00000000000E+00 0. -1.
        -13    1    3    3    0    0  0.94071773529E+02 -0.33623631015E+03 -0.70881505009E+03  0.79014120894E+03  0.00000000000E+00 0.  1.
         22    1    1    2    0    0 -0.11094964467E+03  0.55154546068E+03 -0.23132954312E+03  0.60829727631E+03  0.00000000000E+00 0. -1.
<mgrwt>
<rscale>  0 0.12661731E+04</rscale>
<asrwt>0</asrwt>
<pdfrwt beam="1">  1        2 0.23629157E+00 0.12661731E+04</pdfrwt>
<pdfrwt beam="2">  1       -2 0.40146828E-01 0.12661731E+04</pdfrwt>
<totfact> 0.69861870E+01</totfact>
</mgrwt>
</event>
<event>
 6    1  0.1528034E-005  0.1506221E+04  0.7818608E-02  0.8880327E-01
         -1   -1    0    0    0  501 -0.00000000000E+00  0.00000000000E+00  0.37722230098E+03  0.37722230098E+03  0.00000000000E+00 0.  1.
          1   -1    0    0  501    0  0.00000000000E+00 -0.00000000000E+00 -0.15035568887E+04  0.15035568887E+04  0.00000000000E+00 0. -1.
         23    2    1    2    0    0  0.51251193612E+03 -0.30856655470E+03  0.26471186031E+00  0.60519783784E+03  0.91556264221E+02 0.  0.
         11    1    3    3    0    0  0.67121154197E+02 -0.74011679044E+01  0.13356175078E+01  0.67541176339E+02  0.00000000000E+00 0.  1.
        -11    1    3    3    0    0  0.44539078192E+03 -0.30116538680E+03 -0.10709056475E+01  0.53765666151E+03  0.00000000000E+00 0. -1.
         22    1    1    2    0    0 -0.51251193612E+03  0.30856655470E+03 -0.11265992995E+04  0.12755813518E+04  0.00000000000E+00 0. -1.
<mgrwt>
<rscale>  0 0.15062207E+04</rscale>
<asrwt>0</asrwt>
<pdfrwt beam="1">  1        1 0.23131644E+00 0.15062207E+04</pdfrwt>
<pdfrwt beam="2">  1       -1 0.58034200E-01 0.15062207E+04</pdfrwt>
<totfact> 0.18916923E+01</totfact>
</mgrwt>
</event>
<event>
 6    1  0.1528034E-005  0.1215778E+04  0.7818608E-02  0.9099157E-01
         -3   -1    0    0    0  501 -0.00000000000E+00  0.00000000000E+00  0.75229171890E+03  0.75229171890E+03  0.00000000000E+00 0.  1.
          3   -1    0    0  501    0  0.00000000000E+00 -0.00000000000E+00 -0.49120436763E+03  0.49120436763E+03  0.00000000000E+00 0. -1.
         23    2    1    2    0    0 -0.75662650639E+02 -0.26889686511E+03 -0.41696015589E+03  0.51016206800E+03  0.91537988078E+02 0.  0.
         11    1    3    3    0    0  0.98695359151E+01 -0.45166193575E+02 -0.12029400862E+03  0.12887218975E+03  0.00000000000E+00 0. -1.
        -11    1    3    3    0    0 -0.85532186554E+02 -0.22373067153E+03 -0.29666614727E+03  0.38128987825E+03  0.00000000000E+00 0.  1.
         22    1    1    2    0    0  0.75662650639E+02  0.26889686511E+03  0.67804750716E+03  0.73333401853E+03  0.00000000000E+00 0.  1.
<mgrwt>
<rscale>  0 0.12157779E+04</rscale>
<asrwt>0</asrwt>
<pdfrwt beam="1">  1        3 0.75569903E-01 0.12157779E+04</pdfrwt>
<pdfrwt beam="2">  1       -3 0.11573719E+00 0.12157779E+04</pdfrwt>
<totfact> 0.26326698E+00</totfact>
</mgrwt>
</event>
<event>
 6    1  0.1528034E-005  0.2802944E+04  0.7818608E-02  0.8302355E-01
         -2   -1    0    0    0  501 -0.00000000000E+00  0.00000000000E+00  0.13494431852E+04  0.13494431852E+04  0.00000000000E+00 0.  1.
          2   -1    0    0  501    0  0.00000000000E+00 -0.00000000000E+00 -0.14555072497E+04  0.14555072497E+04  0.00000000000E+00 0. -1.
         23    2    1    2    0    0 -0.65404340255E+03 -0.11997123250E+04 -0.35793794555E+03  0.14155178574E+04  0.92134665726E+02 0.  0.
         11    1    3    3    0    0 -0.19391659375E+03 -0.44309140305E+03 -0.11225455132E+03  0.49652262897E+03  0.00000000000E+00 0.  1.
        -11    1    3    3    0    0 -0.46012680880E+03 -0.75662092197E+03 -0.24568339423E+03  0.91899522847E+03  0.00000000000E+00 0. -1.
         22    1    1    2    0    0  0.65404340255E+03  0.11997123250E+04  0.25187388108E+03  0.13894325774E+04  0.00000000000E+00 0. -1.
<mgrwt>
<rscale>  0 0.28029444E+04</rscale>
<asrwt>0</asrwt>
<pdfrwt beam="1">  1        2 0.22392419E+00 0.28029444E+04</pdfrwt>
<pdfrwt beam="2">  1       -2 0.20760664E+00 0.28029444E+04</pdfrwt>
<totfact> 0.13887314E+00</totfact>
</mgrwt>
</event>
<event>
 6    1  0.1528034E-005  0.2075575E+04  0.7818608E-02  0.8572080E-01
         -1   -1    0    0    0  501 -0.00000000000E+00  0.00000000000E+00  0.82098808051E+03  0.82098808051E+03  0.00000000000E+00 0.  1.
          1   -1    0    0  501    0  0.00000000000E+00 -0.00000000000E+00 -0.13118368830E+04  0.13118368830E+04  0.00000000000E+00 0. -1.
         23    2    1    2    0    0  0.61115273744E+03  0.72658692374E+03  0.17900715036E+03  0.97086832757E+03  0.95422866078E+02 0.  0.
         11    1    3    3    0    0  0.19423912741E+03  0.20563149201E+03  0.12385092488E+02  0.28313696269E+03  0.00000000000E+00 0. -1.
        -11    1    3    3    0    0  0.41691361003E+03  0.52095543173E+03  0.16662205787E+03  0.68773136488E+03  0.00000000000E+00 0.  1.
         22    1    1    2    0    0 -0.61115273744E+03 -0.72658692374E+03 -0.66985595282E+03  0.11619566359E+04  0.00000000000E+00 0. -1.
<mgrwt>
<rscale>  0 0.20755746E+04</rscale>
<asrwt>0</asrwt>
<pdfrwt beam="1">  1        1 0.20182106E+00 0.20755746E+04</pdfrwt>
<pdfrwt beam="2">  1       -1 0.12630586E+00 0.20755746E+04</pdfrwt>
<totfact> 0.44584795E+00</totfact>
</mgrwt>
</event>
<event>
 6    1  0.1528034E-005  0.1865971E+04  0.7818608E-02  0.8671983E-01
         -1   -1    0    0    0  501 -0.00000000000E+00  0.00000000000E+00  0.71508476811E+03  0.71508476811E+03  0.00000000000E+00 0.  1.
          1   -1    0    0  501    0  0.00000000000E+00 -0.00000000000E+00 -0.12172844837E+04  0.12172844837E+04  0.00000000000E+00 0. -1.
         23    2    1    2    0    0  0.55655990087E+03 -0.33670119050E+02  0.52008909574E+03  0.76790928515E+03  0.91101056781E+02 0.  0.
         13    1    3    3    0    0  0.41398650394E+03 -0.52416993543E+02  0.34576339379E+03  0.54192683191E+03  0.00000000000E+00 0. -1.
        -13    1    3    3    0    0  0.14257339693E+03  0.18746874493E+02  0.17432570194E+03  0.22598245324E+03  0.00000000000E+00 0.  1.
         22    1    1    2    0    0 -0.55655990087E+03  0.33670119050E+02 -0.10222888113E+04  0.11644599666E+04  0.00000000000E+00 0. -1.
<mgrwt>
<rscale>  0 0.18659706E+04</rscale>
<asrwt>0</asrwt>
<pdfrwt beam="1">  1        1 0.18727454E+00 0.18659706E+04</pdfrwt>
<pdfrwt beam="2">  1       -1 0.11001304E+00 0.18659706E+04</pdfrwt>
<totfact> 0.74314196E+00</totfact>
</mgrwt>
</event>
<event>
 6    1  0.1528034E-005  0.1290030E+04  0.7818608E-02  0.9037509E-01
         -2   -1    0    0    0  501 -0.00000000000E+00  0.00000000000E+00  0.70096963557E+03  0.70096963557E+03  0.00000000000E+00 0.  1.
          2   -1    0    0  501    0  0.00000000000E+00 -0.00000000000E+00 -0.59352702945E+03  0.59352702945E+03  0.00000000000E+00 0. -1.
         23    2    1    2    0    0  0.51102852026E+03 -0.23478391347E+03  0.36491954868E+03  0.67597584039E+03  0.86622313782E+02 0.  0.
         11    1    3    3    0    0  0.31591795705E+03 -0.16994164661E+03  0.27284182400E+03  0.45069610578E+03  0.00000000000E+00 0. -1.
        -11    1    3    3    0    0  0.19511056320E+03 -0.64842266854E+02  0.92077724686E+02  0.22527973461E+03  0.00000000000E+00 0.  1.
         22    1    1    2    0    0 -0.51102852026E+03  0.23478391347E+03 -0.25747694257E+03  0.61852082462E+03  0.00000000000E+00 0. -1.
<mgrwt>
<rscale>  0 0.12900301E+04</rscale>
<asrwt>0</asrwt>
<pdfrwt beam="1">  1        2 0.91311851E-01 0.12900301E+04</pdfrwt>
<pdfrwt beam="2">  1       -2 0.10784148E+00 0.12900301E+04</pdfrwt>
<totfact> 0.33977136E+01</totfact>
</mgrwt>
</event>
<event>
 6    1  0.1528034E-005  0.2252025E+04  0.7818608E-02  0.8497081E-01
          1   -1    0    0  501    0  0.00000000000E+00  0.00000000000E+00  0.21899922825E+04  0.21899922825E+04  0.00000000000E+00 0.  1.
         -1   -1    0    0    0  501 -0.00000000000E+00 -0.00000000000E+00 -0.57895373172E+03  0.57895373172E+03  0.00000000000E+00 0. -1.
         23    2    1    2    0    0  0.45852255244E+03  0.69631547622E+03 -0.12030541478E+03  0.84731907315E+03  0.91531663255E+02 0.  0.
         13    1    3    3    0    0  0.26329370720E+03  0.33832220019E+03 -0.92763888668E+02  0.43862355891E+03  0.00000000000E+00 0. -1.
        -13    1    3    3    0    0  0.19522884524E+03  0.35799327603E+03 -0.27541526112E+02  0.40869551424E+03  0.00000000000E+00 0.  1.
         22    1    1    2    0    0 -0.45852255244E+03 -0.69631547622E+03  0.17313439655E+04  0.19216269410E+04  0.00000000000E+00 0.  1.
<mgrwt>
<rscale>  0 0.22520250E+04</rscale>
<asrwt>0</asrwt>
<pdfrwt beam="1">  1        1 0.33692189E+00 0.22520250E+04</pdfrwt>
<pdfrwt beam="2">  1       -1 0.89069806E-01 0.22520250E+04</pdfrwt>
<totfact> 0.24821089E+00</totfact>
</mgrwt>
</event>
<event>
 6    1  0.1528034E-005  0.6205200E+03  0.7818608E-02  0.9863725E-01
         -2   -1    0    0    0  501 -0.00000000000E+00  0.00000000000E+00  0.79836330353E+02  0.79836330353E+02  0.00000000000E+00 0.  1.
          2   -1    0    0  501    0  0.00000000000E+00 -0.00000000000E+00 -0.12057327256E+04  0.12057327256E+04  0.00000000000E+00 0. -1.
         23    2    1    2    0    0  0.17553863099E+03  0.23576381852E+03 -0.73176904824E+03  0.79390376864E+03  0.91645320682E+02 0.  0.
         11    1    3    3    0    0  0.12134609560E+03  0.18932772256E+03 -0.63515861818E+03  0.67379249899E+03  0.00000000000E+00 0. -1.
        -11    1    3    3    0    0  0.54192535394E+02  0.46436095960E+02 -0.96610430065E+02  0.12011126965E+03  0.00000000000E+00 0.  1.
         22    1    1    2    0    0 -0.17553863099E+03 -0.23576381852E+03 -0.39412734701E+03  0.49166528731E+03  0.00000000000E+00 0. -1.
<mgrwt>
<rscale>  0 0.62052003E+03</rscale>
<asrwt>0</asrwt>
<pdfrwt beam="1">  1        2 0.18549735E+00 0.62052003E+03</pdfrwt>
<pdfrwt beam="2">  1       -2 0.12282512E-01 0.62052003E+03</pdfrwt>
<totfact> 0.93086280E+02</totfact>
</mgrwt>
</event>
<event>
 6    1  0.1528034E-005  0.2487222E+04  0.7818608E-02  0.8407552E-01
          1   -1    0    0  501    0  0.00000000000E+00  0.00000000000E+00  0.12582022260E+04  0.12582022260E+04  0.00000000000E+00 0. -1.
         -1   -1    0    0    0  501 -0.00000000000E+00 -0.00000000000E+00 -0.12291886293E+04  0.12291886293E+04  0.00000000000E+00 0.  1.
         23    2    1    2    0    0 -0.77006520053E+03 -0.94385776595E+03  0.25583701587E+03  0.12483118590E+04  0.94667963311E+02 0.  0.
         13    1    3    3    0    0 -0.25054724169E+03 -0.24866069702E+03  0.96355833600E+02  0.36591052080E+03  0.00000000000E+00 0. -1.
        -13    1    3    3    0    0 -0.51951795883E+03 -0.69519706893E+03  0.15948118227E+03  0.88240133822E+03  0.00000000000E+00 0.  1.
         22    1    1    2    0    0  0.77006520053E+03  0.94385776595E+03 -0.22682341920E+03  0.12390789962E+04  0.00000000000E+00 0.  1.
<mgrwt>
<rscale>  0 0.24872216E+04</rscale>
<asrwt>0</asrwt>
<pdfrwt beam="1">  1        1 0.19356957E+00 0.24872216E+04</pdfrwt>
<pdfrwt beam="2">  1       -1 0.18910594E+00 0.24872216E+04</pdfrwt>
<totfact> 0.15456727E+00</totfact>
</mgrwt>
</event>
<event>
 6    1  0.1528034E-005  0.1406250E+04  0.7818608E-02  0.8949307E-01
          2   -1    0    0  501    0  0.00000000000E+00  0.00000000000E+00  0.13782272572E+04  0.13782272572E+04  0.00000000000E+00 0.  1.
         -2   -1    0    0    0  501 -0.00000000000E+00 -0.00000000000E+00 -0.35871085423E+03  0.35871085423E+03  0.00000000000E+00 0. -1.
         23    2    1    2    0    0  0.60307960877E+03  0.10522579022E+03  0.93191626073E+03  0.11185116677E+04  0.88447454721E+02 0.  0.
         11    1    3    3    0    0  0.36704109188E+03  0.21914640812E+02  0.57730302183E+03  0.68445466879E+03  0.00000000000E+00 0. -1.
        -11    1    3    3    0    0  0.23603851689E+03  0.83311149407E+02  0.35461323890E+03  0.43405699888E+03  0.00000000000E+00 0.  1.
         22    1    1    2    0    0 -0.60307960877E+03 -0.10522579022E+03  0.87600142257E+02  0.61842644378E+03  0.00000000000E+00 0. -1.
<mgrwt>
<rscale>  0 0.14062504E+04</rscale>
<asrwt>0</asrwt>
<pdfrwt beam="1">  1        2 0.21203496E+00 0.14062504E+04</pdfrwt>
<pdfrwt beam="2">  1       -2 0.55186286E-01 0.14062504E+04</pdfrwt>
<totfact> 0.44723140E+01</totfact>
</mgrwt>
</event>
<event>
 6    1  0.1528034E-005  0.3994224E+04  0.7818608E-02  0.8005713E-01
         -1   -1    0    0    0  501 -0.00000000000E+00  0.00000000000E+00  0.16435397797E+04  0.16435397797E+04  0.00000000000E+00 0.  1.
          1   -1    0    0  501    0  0.00000000000E+00 -0.00000000000E+00 -0.24267473877E+04  0.24267473877E+04  0.00000000000E+00 0. -1.
         23    2    1    2    0    0  0.12909200755E+04 -0.11258596812E+04  0.65244857829E+03  0.18353054340E+04  0.92855940846E+02 0.  0.
         13    1    3    3    0    0  0.14877907997E+03 -0.92772283175E+02  0.63240997571E+02  0.18639027586E+03  0.00000000000E+00 0.  1.
        -13    1    3    3    0    0  0.11421409956E+04 -0.10330873980E+04  0.58920758072E+03  0.16489151582E+04  0.00000000000E+00 0. -1.
         22    1    1    2    0    0 -0.12909200755E+04  0.11258596812E+04 -0.14356561863E+04  0.22349817334E+04  0.00000000000E+00 0. -1.
<mgrwt>
<rscale>  0 0.39942238E+04</rscale>
<asrwt>0</asrwt>
<pdfrwt beam="1">  1        1 0.37334575E+00 0.39942238E+04</pdfrwt>
<pdfrwt beam="2">  1       -1 0.25285227E+00 0.39942238E+04</pdfrwt>
<totfact> 0.79632695E-02</totfact>
</mgrwt>
</event>
<event>
 6    1  0.1528034E-005  0.2622622E+04  0.7818608E-02  0.8360557E-01
          2   -1    0    0  501    0  0.00000000000E+00  0.00000000000E+00  0.23731521745E+04  0.23731521745E+04  0.00000000000E+00 0.  1.
         -2   -1    0    0    0  501 -0.00000000000E+00 -0.00000000000E+00 -0.72457911329E+03  0.72457911329E+03  0.00000000000E+00 0. -1.
         23    2    1    2    0    0 -0.79178379640E+03  0.99543225740E+03  0.11942632021E+04  0.17471001733E+04  0.91035490291E+02 0.  0.
         11    1    3    3    0    0 -0.37609573971E+03  0.40051627988E+03  0.51783644944E+03  0.75499396305E+03  0.00000000000E+00 0.  1.
        -11    1    3    3    0    0 -0.41568805669E+03  0.59491597753E+03  0.67642675264E+03  0.99210621028E+03  0.00000000000E+00 0. -1.
         22    1    1    2    0    0  0.79178379640E+03 -0.99543225740E+03  0.45430985917E+03  0.13506311145E+04  0.00000000000E+00 0. -1.
<mgrwt>
<rscale>  0 0.26226220E+04</rscale>
<asrwt>0</asrwt>
<pdfrwt beam="1">  1        2 0.36510033E+00 0.26226220E+04</pdfrwt>
<pdfrwt beam="2">  1       -2 0.11147371E+00 0.26226220E+04</pdfrwt>
<totfact> 0.23128814E+00</totfact>
</mgrwt>
</event>
<event>
 6    1  0.1528034E-005  0.3341532E+04  0.7818608E-02  0.8152407E-01
         -1   -1    0    0    0  501 -0.00000000000E+00  0.00000000000E+00  0.16836601190E+04  0.16836601190E+04  0.00000000000E+00 0.  1.
          1   -1    0    0  501    0  0.00000000000E+00 -0.00000000000E+00 -0.16579709285E+04  0.16579709285E+04  0.00000000000E+00 0. -1.
         23    2    1    2    0    0  0.12097439774E+04  0.95066173307E+03 -0.63544465133E+03  0.16670158146E+04  0.88958415651E+02 0.  0.
         13    1    3    3    0    0  0.13656343756E+03  0.10527548852E+03 -0.41653051576E+02  0.17739074854E+03  0.00000000000E+00 0. -1.
        -13    1    3    3    0    0  0.10731805398E+04  0.84538624455E+03 -0.59379159975E+03  0.14896250661E+04  0.00000000000E+00 0.  1.
         22    1    1    2    0    0 -0.12097439774E+04 -0.95066173307E+03  0.66113384178E+03  0.16746152329E+04  0.00000000000E+00 0.  1.
<mgrwt>
<rscale>  0 0.33415323E+04</rscale>
<asrwt>0</asrwt>
<pdfrwt beam="1">  1        1 0.25507245E+00 0.33415323E+04</pdfrwt>
<pdfrwt beam="2">  1       -1 0.25902463E+00 0.33415323E+04</pdfrwt>
<totfact> 0.25630713E-01</totfact>
</mgrwt>
</event>
<event>
 6    1  0.1528034E-005  0.3828571E+04  0.7818608E-02  0.8040051E-01
          2   -1    0    0  501    0  0.00000000000E+00  0.00000000000E+00  0.20091688003E+04  0.20091688003E+04  0.00000000000E+00 0.  1.
         -2   -1    0    0    0  501 -0.00000000000E+00 -0.00000000000E+00 -0.18238833926E+04  0.18238833926E+04  0.00000000000E+00 0. -1.
         23    2    1    2    0    0 -0.90441527400E+03  0.90279151951E+03  0.15182312206E+04  0.19865029638E+04  0.90379589693E+02 0.  0.
         13    1    3    3    0    0 -0.45946246138E+03  0.42329924075E+03  0.80006081502E+03  0.10150789666E+04  0.00000000000E+00 0.  1.
        -13    1    3    3    0    0 -0.44495281261E+03  0.47949227876E+03  0.71817040559E+03  0.97142399719E+03  0.00000000000E+00 0. -1.
         22    1    1    2    0    0  0.90441527400E+03 -0.90279151951E+03 -0.13329458129E+04  0.18465492292E+04  0.00000000000E+00 0. -1.
<mgrwt>
<rscale>  0 0.38285713E+04</rscale>
<asrwt>0</asrwt>
<pdfrwt beam="1">  1        2 0.30910289E+00 0.38285713E+04</pdfrwt>
<pdfrwt beam="2">  1       -2 0.28059744E+00 0.38285713E+04</pdfrwt>
<totfact> 0.22059644E-01</totfact>
</mgrwt>
</event>
<event>
 6    1  0.1528034E-005  0.3217419E+04  0.7818608E-02  0.8184232E-01
          2   -1    0    0  501    0  0.00000000000E+00  0.00000000000E+00  0.26084287724E+04  0.26084287724E+04  0.00000000000E+00 0. -1.
         -2   -1    0    0    0  501 -0.00000000000E+00 -0.00000000000E+00 -0.99214759174E+03  0.99214759174E+03  0.00000000000E+00 0.  1.
         23    2    1    2    0    0 -0.15235645586E+04  0.83762269257E+02  0.24311259170E+03  0.15478082195E+04  0.91331650182E+02 0.  0.
         13    1    3    3    0    0 -0.94999430601E+03  0.94350033617E+02  0.13801966381E+03  0.96459345731E+03  0.00000000000E+00 0. -1.
        -13    1    3    3    0    0 -0.57357025255E+03 -0.10587764361E+02  0.10509292789E+03  0.58321476221E+03  0.00000000000E+00 0.  1.
         22    1    1    2    0    0  0.15235645586E+04 -0.83762269257E+02  0.13731685889E+04  0.20527681446E+04  0.00000000000E+00 0. -1.
<mgrwt>
<rscale>  0 0.32174190E+04</rscale>
<asrwt>0</asrwt>
<pdfrwt beam="1">  1        2 0.40129673E+00 0.32174190E+04</pdfrwt>
<pdfrwt beam="2">  1       -2 0.15263809E+00 0.32174190E+04</pdfrwt>
<totfact> 0.72342744E-01</totfact>
</mgrwt>
</event>
<event>
 6    1  0.1528034E-005  0.2579444E+04  0.7818608E-02  0.8375217E-01
         -2   -1    0    0    0  501 -0.00000000000E+00  0.00000000000E+00  0.13963116228E+04  0.13963116228E+04  0.00000000000E+00 0.  1.
          2   -1    0    0  501    0  0.00000000000E+00 -0.00000000000E+00 -0.11912689192E+04  0.11912689192E+04  0.00000000000E+00 0. -1.
         23    2    1    2    0    0 -0.13213140039E+03 -0.10654021925E+04 -0.61112180367E+03  0.12390016449E+04  0.95470825153E+02 0.  0.
         11    1    3    3    0    0 -0.57150567371E+00 -0.35127456977E+03 -0.21476924329E+03  0.41172803870E+03  0.00000000000E+00 0. -1.
        -11    1    3    3    0    0 -0.13155989471E+03 -0.71412762269E+03 -0.39635256038E+03  0.82727360619E+03  0.00000000000E+00 0.  1.
         22    1    1    2    0    0  0.13213140039E+03  0.10654021925E+04  0.81616450730E+03  0.13485788971E+04  0.00000000000E+00 0.  1.
<mgrwt>
<rscale>  0 0.25794438E+04</rscale>
<asrwt>0</asrwt>
<pdfrwt beam="1">  1        2 0.18327214E+00 0.25794438E+04</pdfrwt>
<pdfrwt beam="2">  1       -2 0.21481717E+00 0.25794438E+04</pdfrwt>
<totfact> 0.18112932E+00</totfact>
</mgrwt>
</event>
<event>
 6    1  0.1528034E-005  0.1663204E+04  0.7818608E-02  0.8782633E-01
          2   -1    0    0  501    0  0.00000000000E+00  0.00000000000E+00  0.10966878083E+04  0.10966878083E+04  0.00000000000E+00 0. -1.
         -2   -1    0    0    0  501 -0.00000000000E+00 -0.00000000000E+00 -0.63059157950E+03  0.63059157950E+03  0.00000000000E+00 0.  1.
         23    2    1    2    0    0  0.57750012213E+03  0.18021074129E+03  0.82233803639E+03  0.10252177610E+04  0.94070766578E+02 0.  0.
         11    1    3    3    0    0  0.35595420559E+03  0.77866069122E+02  0.54753738778E+03  0.65769575962E+03  0.00000000000E+00 0.  1.
        -11    1    3    3    0    0  0.22154591654E+03  0.10234467217E+03  0.27480064861E+03  0.36752200143E+03  0.00000000000E+00 0. -1.
         22    1    1    2    0    0 -0.57750012213E+03 -0.18021074129E+03 -0.35624180757E+03  0.70206162678E+03  0.00000000000E+00 0.  1.
<mgrwt>
<rscale>  0 0.16632043E+04</rscale>
<asrwt>0</asrwt>
<pdfrwt beam="1">  1        2 0.16872120E+00 0.16632043E+04</pdfrwt>
<pdfrwt beam="2">  1       -2 0.97014089E-01 0.16632043E+04</pdfrwt>
<totfact> 0.18537015E+01</totfact>
</mgrwt>
</event>
<event>
 6    1  0.1528034E-005  0.2264564E+04  0.7818608E-02  0.8492026E-01
         -2   -1    0    0    0  501 -0.00000000000E+00  0.00000000000E+00  0.70326577975E+03  0.70326577975E+03  0.00000000000E+00 0.  1.
          2   -1    0    0  501    0  0.00000000000E+00 -0.00000000000E+00 -0.18230128650E+04  0.18230128650E+04  0.00000000000E+00 0. -1.
         23    2    1    2    0    0  0.77697035172E+03 -0.45574765159E+03 -0.13227338629E+04  0.16029192991E+04  0.91304753123E+02 0.  0.
         13    1    3    3    0    0  0.51422697002E+03 -0.34963677191E+03 -0.92392604781E+03  0.11136941190E+04  0.00000000000E+00 0.  1.
        -13    1    3    3    0    0  0.26274338170E+03 -0.10611087968E+03 -0.39880781510E+03  0.48922518005E+03  0.00000000000E+00 0. -1.
         22    1    1    2    0    0 -0.77697035172E+03  0.45574765159E+03  0.20298677762E+03  0.92335934569E+03  0.00000000000E+00 0.  1.
<mgrwt>
<rscale>  0 0.22645640E+04</rscale>
<asrwt>0</asrwt>
<pdfrwt beam="1">  1        2 0.28046352E+00 0.22645640E+04</pdfrwt>
<pdfrwt beam="2">  1       -2 0.10819474E+00 0.22645640E+04</pdfrwt>
<totfact> 0.52099413E+00</totfact>
</mgrwt>
</event>
<event>
 6    1  0.1528034E-005  0.2672794E+04  0.7818608E-02  0.8343887E-01
          1   -1    0    0  501    0  0.00000000000E+00  0.00000000000E+00  0.10153752501E+04  0.10153752501E+04  0.00000000000E+00 0. -1.
         -1   -1    0    0    0  501 -0.00000000000E+00 -0.00000000000E+00 -0.17589126455E+04  0.17589126455E+04  0.00000000000E+00 0.  1.
         23    2    1    2    0    0  0.49072318119E+03  0.38076432693E+03  0.85420367855E+03  0.10600629241E+04  0.90987721465E+02 0.  0.
         11    1    3    3    0    0  0.63434434899E+02  0.91001513479E+02  0.16845583451E+03  0.20169920964E+03  0.00000000000E+00 0. -1.
        -11    1    3    3    0    0  0.42728874629E+03  0.28976281345E+03  0.68574784403E+03  0.85836371450E+03  0.00000000000E+00 0.  1.
         22    1    1    2    0    0 -0.49072318119E+03 -0.38076432693E+03 -0.15977410740E+04  0.17142249714E+04  0.00000000000E+00 0.  1.
<mgrwt>
<rscale>  0 0.26727936E+04</rscale>
<asrwt>0</asrwt>
<pdfrwt beam="1">  1        1 0.15621158E+00 0.26727936E+04</pdfrwt>
<pdfrwt beam="2">  1       -1 0.27060194E+00 0.26727936E+04</pdfrwt>
<totfact> 0.65959274E-01</totfact>
</mgrwt>
</event>
<event>
 6    1  0.1528034E-005  0.3268409E+04  0.7818608E-02  0.8170980E-01
          2   -1    0    0  501    0  0.00000000000E+00  0.00000000000E+00  0.22595562963E+04  0.22595562963E+04  0.00000000000E+00 0. -1.
         -2   -1    0    0    0  501 -0.00000000000E+00 -0.00000000000E+00 -0.11819245542E+04  0.11819245542E+04  0.00000000000E+00 0.  1.
         23    2    1    2    0    0 -0.11481009185E+04 -0.49948605507E+03 -0.56447185384E+03  0.13765047591E+04  0.92275889602E+02 0.  0.
         11    1    3    3    0    0 -0.58361997298E+03 -0.20415369198E+03 -0.28552078223E+03  0.68103826610E+03  0.00000000000E+00 0.  1.
        -11    1    3    3    0    0 -0.56448094554E+03 -0.29533236309E+03 -0.27895107161E+03  0.69546649302E+03  0.00000000000E+00 0. -1.
         22    1    1    2    0    0  0.11481009185E+04  0.49948605507E+03  0.16421035959E+04  0.20649760914E+04  0.00000000000E+00 0. -1.
<mgrwt>
<rscale>  0 0.32684094E+04</rscale>
<asrwt>0</asrwt>
<pdfrwt beam="1">  1        2 0.34762405E+00 0.32684094E+04</pdfrwt>
<pdfrwt beam="2">  1       -2 0.18183455E+00 0.32684094E+04</pdfrwt>
<totfact> 0.70482116E-01</totfact>
</mgrwt>
</event>
<event>
 6    1  0.1528034E-005  0.1322249E+04  0.7818608E-02  0.9012105E-01
         -2   -1    0    0    0  501 -0.00000000000E+00  0.00000000000E+00  0.29024202783E+03  0.29024202783E+03  0.00000000000E+00 0.  1.
          2   -1    0    0  501    0  0.00000000000E+00 -0.00000000000E+00 -0.15059346096E+04  0.15059346096E+04  0.00000000000E+00 0. -1.
         23    2    1    2    0    0 -0.32183057701E+03  0.41763290055E+03 -0.11451262939E+04  0.12642257366E+04  0.94658988591E+02 0.  0.
         11    1    3    3    0    0 -0.17475057896E+03  0.29845634103E+03 -0.71299402940E+03  0.79244838211E+03  0.00000000000E+00 0. -1.
        -11    1    3    3    0    0 -0.14707999805E+03  0.11917655952E+03 -0.43213226451E+03  0.47177735448E+03  0.00000000000E+00 0.  1.
         22    1    1    2    0    0  0.32183057701E+03 -0.41763290055E+03 -0.70566287843E+02  0.53195090084E+03  0.00000000000E+00 0.  1.
<mgrwt>
<rscale>  0 0.13222489E+04</rscale>
<asrwt>0</asrwt>
<pdfrwt beam="1">  1        2 0.23168225E+00 0.13222489E+04</pdfrwt>
<pdfrwt beam="2">  1       -2 0.44652620E-01 0.13222489E+04</pdfrwt>
<totfact> 0.58614894E+01</totfact>
</mgrwt>
</event>
<event>
 6    1  0.1528034E-005  0.4134329E+04  0.7818608E-02  0.7977983E-01
         -2   -1    0    0    0  501 -0.00000000000E+00  0.00000000000E+00  0.16428194346E+04  0.16428194346E+04  0.00000000000E+00 0. -1.
          2   -1    0    0  501    0  0.00000000000E+00 -0.00000000000E+00 -0.26011188651E+04  0.26011188651E+04  0.00000000000E+00 0.  1.
         23    2    1    2    0    0  0.39002133953E+03  0.19792156675E+04 -0.93757285037E+03  0.22265536326E+04  0.95325364661E+02 0.  0.
         13    1    3    3    0    0  0.16364211972E+03  0.85511750935E+03 -0.35299410796E+03  0.93947301100E+03  0.00000000000E+00 0. -1.
        -13    1    3    3    0    0  0.22637921981E+03  0.11240981582E+04 -0.58457874241E+03  0.12870806216E+04  0.00000000000E+00 0.  1.
         22    1    1    2    0    0 -0.39002133953E+03 -0.19792156675E+04 -0.20726580217E+02  0.20173846671E+04  0.00000000000E+00 0. -1.
<mgrwt>
<rscale>  0 0.41343288E+04</rscale>
<asrwt>0</asrwt>
<pdfrwt beam="1">  1        2 0.40017213E+00 0.41343288E+04</pdfrwt>
<pdfrwt beam="2">  1       -2 0.25274145E+00 0.41343288E+04</pdfrwt>
<totfact> 0.14657347E-01</totfact>
</mgrwt>
</event>
<event>
 6    1  0.1528034E-005  0.2681951E+04  0.7818608E-02  0.8340885E-01
         -2   -1    0    0    0  501 -0.00000000000E+00  0.00000000000E+00  0.64471988724E+03  0.64471988724E+03  0.00000000000E+00 0.  1.
          2   -1    0    0  501    0  0.00000000000E+00 -0.00000000000E+00 -0.27891412295E+04  0.27891412295E+04  0.00000000000E+00 0. -1.
         23    2    1    2    0    0 -0.25374034622E+03  0.12915035408E+04 -0.13915606617E+04  0.19175614222E+04  0.90747856634E+02 0.  0.
         13    1    3    3    0    0 -0.36442814696E+02  0.73070657957E+02 -0.84703093047E+02  0.11765208782E+03  0.00000000000E+00 0. -1.
        -13    1    3    3    0    0 -0.21729753152E+03  0.12184328829E+04 -0.13068575686E+04  0.17999093344E+04  0.00000000000E+00 0.  1.
         22    1    1    2    0    0  0.25374034622E+03 -0.12915035408E+04 -0.75286068060E+03  0.15162996946E+04  0.00000000000E+00 0.  1.
<mgrwt>
<rscale>  0 0.26819506E+04</rscale>
<asrwt>0</asrwt>
<pdfrwt beam="1">  1        2 0.42909865E+00 0.26819506E+04</pdfrwt>
<pdfrwt beam="2">  1       -2 0.99187674E-01 0.26819506E+04</pdfrwt>
<totfact> 0.17364529E+00</totfact>
</mgrwt>
</event>
<event>
 6    1  0.1528034E-005  0.5340432E+03  0.7818608E-02  0.1005256E+00
         -2   -1    0    0    0  501 -0.00000000000E+00  0.00000000000E+00  0.22607526035E+03  0.22607526035E+03  0.00000000000E+00 0.  1.
          2   -1    0    0  501    0  0.00000000000E+00 -0.00000000000E+00 -0.31538409257E+03  0.31538409257E+03  0.00000000000E+00 0. -1.
         23    2    1    2    0    0  0.18933562344E+02  0.25675589052E+03 -0.83655501796E+02  0.28394425192E+03  0.85697305195E+02 0.  0.
         13    1    3    3    0    0  0.26865427906E+02  0.15275244238E+03 -0.83993783384E+01  0.15532420747E+03  0.00000000000E+00 0. -1.
        -13    1    3    3    0    0 -0.79318655614E+01  0.10400344814E+03 -0.75256123457E+02  0.12862004445E+03  0.00000000000E+00 0.  1.
         22    1    1    2    0    0 -0.18933562344E+02 -0.25675589052E+03 -0.56533304247E+01  0.25751510100E+03  0.00000000000E+00 0. -1.
<mgrwt>
<rscale>  0 0.53404322E+03</rscale>
<asrwt>0</asrwt>
<pdfrwt beam="1">  1        2 0.48520629E-01 0.53404322E+03</pdfrwt>
<pdfrwt beam="2">  1       -2 0.34780810E-01 0.53404322E+03</pdfrwt>
<totfact> 0.80837749E+02</totfact>
</mgrwt>
</event>
<event>
 6    1  0.1528034E-005  0.2027248E+04  0.7818608E-02  0.8593986E-01
          1   -1    0    0  501    0  0.00000000000E+00  0.00000000000E+00  0.10562733546E+04  0.10562733546E+04  0.00000000000E+00 0. -1.
         -1   -1    0    0    0  501 -0.00000000000E+00 -0.00000000000E+00 -0.97269693215E+03  0.97269693215E+03  0.00000000000E+00 0.  1.
         23    2    1    2    0    0  0.22649356998E+03  0.79598215884E+03  0.62401221988E+03  0.10405585378E+04  0.92108010283E+02 0.  0.
         13    1    3    3    0    0  0.21836867399E+03  0.67968760860E+03  0.50886129980E+03  0.87669832069E+03  0.00000000000E+00 0. -1.
        -13    1    3    3    0    0  0.81248959913E+01  0.11629455023E+03  0.11515092008E+03  0.16386021709E+03  0.00000000000E+00 0.  1.
         22    1    1    2    0    0 -0.22649356998E+03 -0.79598215884E+03 -0.54043579741E+03  0.98841174899E+03  0.00000000000E+00 0.  1.
<mgrwt>
<rscale>  0 0.20272482E+04</rscale>
<asrwt>0</asrwt>
<pdfrwt beam="1">  1        1 0.16250359E+00 0.20272482E+04</pdfrwt>
<pdfrwt beam="2">  1       -1 0.14964568E+00 0.20272482E+04</pdfrwt>
<totfact> 0.44481244E+00</totfact>
</mgrwt>
</event>
<event>
 6    1  0.1528034E-005  0.1897222E+04  0.7818608E-02  0.8656240E-01
         -2   -1    0    0    0  501 -0.00000000000E+00  0.00000000000E+00  0.39766921807E+03  0.39766921807E+03  0.00000000000E+00 0.  1.
          2   -1    0    0  501    0  0.00000000000E+00 -0.00000000000E+00 -0.22628434247E+04  0.22628434247E+04  0.00000000000E+00 0. -1.
         23    2    1    2    0    0 -0.83300251974E+03  0.44916452789E+03 -0.92139192920E+03  0.13239622479E+04  0.90944903830E+02 0.  0.
         11    1    3    3    0    0 -0.46060831571E+03  0.19835894871E+03 -0.47063290787E+03  0.68775113741E+03  0.00000000000E+00 0. -1.
        -11    1    3    3    0    0 -0.37239420404E+03  0.25080557918E+03 -0.45075902133E+03  0.63621111045E+03  0.00000000000E+00 0.  1.
         22    1    1    2    0    0  0.83300251974E+03 -0.44916452789E+03 -0.94378227747E+03  0.13365503950E+04  0.00000000000E+00 0. -1.
<mgrwt>
<rscale>  0 0.18972224E+04</rscale>
<asrwt>0</asrwt>
<pdfrwt beam="1">  1        2 0.34812977E+00 0.18972224E+04</pdfrwt>
<pdfrwt beam="2">  1       -2 0.61179878E-01 0.18972224E+04</pdfrwt>
<totfact> 0.11081360E+01</totfact>
</mgrwt>
</event>
<event>
 6    1  0.1528034E-005  0.3933783E+04  0.7818608E-02  0.8018039E-01
         -2   -1    0    0    0  501 -0.00000000000E+00  0.00000000000E+00  0.35140112410E+04  0.35140112410E+04  0.00000000000E+00 0.  1.
          2   -1    0    0  501    0  0.00000000000E+00 -0.00000000000E+00 -0.11009249270E+04  0.11009249270E+04  0.00000000000E+00 0. -1.
         23    2    1    2    0    0  0.26474542789E+03 -0.45628429427E+03  0.34288386376E+04  0.34703671305E+04  0.90708981030E+02 0.  0.
         11    1    3    3    0    0  0.17525871134E+03 -0.29557923643E+03  0.24984064087E+04  0.25219272955E+04  0.00000000000E+00 0.  1.
        -11    1    3    3    0    0  0.89486716548E+02 -0.16070505784E+03  0.93043222888E+03  0.94843983499E+03  0.00000000000E+00 0. -1.
         22    1    1    2    0    0 -0.26474542789E+03  0.45628429427E+03 -0.10157523236E+04  0.11445690375E+04  0.00000000000E+00 0. -1.
<mgrwt>
<rscale>  0 0.39337832E+04</rscale>
<asrwt>0</asrwt>
<pdfrwt beam="1">  1        2 0.16937307E+00 0.39337832E+04</pdfrwt>
<pdfrwt beam="2">  1       -2 0.54061711E+00 0.39337832E+04</pdfrwt>
<totfact> 0.16517058E-02</totfact>
</mgrwt>
</event>
<event>
 6    1  0.1528034E-005  0.1022935E+04  0.7818608E-02  0.9283742E-01
          2   -1    0    0  501    0  0.00000000000E+00  0.00000000000E+00  0.26475848323E+04  0.26475848323E+04  0.00000000000E+00 0. -1.
         -2   -1    0    0    0  501 -0.00000000000E+00 -0.00000000000E+00 -0.98806622451E+02  0.98806622451E+02  0.00000000000E+00 0.  1.
         23    2    1    2    0    0 -0.74816929297E+02  0.22828875218E+03  0.24843426276E+04  0.24976641512E+04  0.93030068061E+02 0.  0.
         13    1    3    3    0    0 -0.88832649718E+02  0.19356893806E+03  0.18503474484E+04  0.18625643219E+04  0.00000000000E+00 0.  1.
        -13    1    3    3    0    0  0.14015720421E+02  0.34719814122E+02  0.63399517922E+03  0.63509982931E+03  0.00000000000E+00 0. -1.
         22    1    1    2    0    0  0.74816929297E+02 -0.22828875218E+03  0.64435582266E+02  0.24872730357E+03  0.00000000000E+00 0.  1.
<mgrwt>
<rscale>  0 0.10229348E+04</rscale>
<asrwt>0</asrwt>
<pdfrwt beam="1">  1        2 0.40732069E+00 0.10229348E+04</pdfrwt>
<pdfrwt beam="2">  1       -2 0.15201021E-01 0.10229348E+04</pdfrwt>
<totfact> 0.99089847E+01</totfact>
</mgrwt>
</event>
<event>
 6    1  0.1528034E-005  0.3230714E+04  0.7818608E-02  0.8180753E-01
          2   -1    0    0  501    0  0.00000000000E+00  0.00000000000E+00  0.10416530418E+04  0.10416530418E+04  0.00000000000E+00 0. -1.
         -2   -1    0    0    0  501 -0.00000000000E+00 -0.00000000000E+00 -0.25050354216E+04  0.25050354216E+04  0.00000000000E+00 0.  1.
         23    2    1    2    0    0  0.66140754388E+03  0.77631186457E+03  0.64114080772E+03  0.12080696623E+04  0.90833492994E+02 0.  0.
         11    1    3    3    0    0  0.63387383351E+03  0.71870209454E+03  0.58293045698E+03  0.11216669092E+04  0.00000000000E+00 0. -1.
        -11    1    3    3    0    0  0.27533710372E+02  0.57609770026E+02  0.58210350737E+02  0.86402753094E+02  0.00000000000E+00 0.  1.
         22    1    1    2    0    0 -0.66140754388E+03 -0.77631186457E+03 -0.21045231875E+04  0.23386188011E+04  0.00000000000E+00 0.  1.
<mgrwt>
<rscale>  0 0.32307137E+04</rscale>
<asrwt>0</asrwt>
<pdfrwt beam="1">  1        2 0.16025432E+00 0.32307137E+04</pdfrwt>
<pdfrwt beam="2">  1       -2 0.38539006E+00 0.32307137E+04</pdfrwt>
<totfact> 0.18375129E-01</totfact>
</mgrwt>
</event>
<event>
 6    1  0.1528034E-005  0.3059558E+04  0.7818608E-02  0.8226925E-01
         -1   -1    0    0    0  501 -0.00000000000E+00  0.00000000000E+00  0.24463707554E+04  0.24463707554E+04  0.00000000000E+00 0.  1.
          1   -1    0    0  501    0  0.00000000000E+00 -0.00000000000E+00 -0.95661027831E+03  0.95661027831E+03  0.00000000000E+00 0. -1.
         23    2    1    2    0    0 -0.10213955748E+04  0.51114611944E+03 -0.38414896626E+03  0.12084296268E+04  0.90622617889E+02 0.  0.
         11    1    3    3    0    0 -0.74258405598E+03  0.34257697032E+03 -0.24105970572E+03  0.85258421432E+03  0.00000000000E+00 0.  1.
        -11    1    3    3    0    0 -0.27881151887E+03  0.16856914912E+03 -0.14308926054E+03  0.35584541246E+03  0.00000000000E+00 0. -1.
         22    1    1    2    0    0  0.10213955748E+04 -0.51114611944E+03  0.18739094433E+04  0.21945514069E+04  0.00000000000E+00 0.  1.
<mgrwt>
<rscale>  0 0.30595578E+04</rscale>
<asrwt>0</asrwt>
<pdfrwt beam="1">  1        1 0.14717081E+00 0.30595578E+04</pdfrwt>
<pdfrwt beam="2">  1       -1 0.37636473E+00 0.30595578E+04</pdfrwt>
<totfact> 0.14346959E-01</totfact>
</mgrwt>
</event>
<event>
 6    1  0.1528034E-005  0.1028987E+04  0.7818608E-02  0.9277312E-01
         -2   -1    0    0    0  501 -0.00000000000E+00  0.00000000000E+00  0.19836962874E+03  0.19836962874E+03  0.00000000000E+00 0.  1.
          2   -1    0    0  501    0  0.00000000000E+00 -0.00000000000E+00 -0.13343946093E+04  0.13343946093E+04  0.00000000000E+00 0. -1.
         23    2    1    2    0    0 -0.32481575126E+03 -0.16209217295E+03 -0.11070165985E+04  0.11685930818E+04  0.91350407065E+02 0.  0.
         11    1    3    3    0    0 -0.20705994352E+02 -0.20931334418E+02 -0.18877090800E+03  0.19105317236E+03  0.00000000000E+00 0. -1.
        -11    1    3    3    0    0 -0.30410975691E+03 -0.14116083853E+03 -0.91824569046E+03  0.97753990948E+03  0.00000000000E+00 0.  1.
         22    1    1    2    0    0  0.32481575126E+03  0.16209217295E+03 -0.29008382142E+02  0.36417115623E+03  0.00000000000E+00 0.  1.
<mgrwt>
<rscale>  0 0.10289866E+04</rscale>
<asrwt>0</asrwt>
<pdfrwt beam="1">  1        2 0.20529148E+00 0.10289866E+04</pdfrwt>
<pdfrwt beam="2">  1       -2 0.30518404E-01 0.10289866E+04</pdfrwt>
<totfact> 0.15609353E+02</totfact>
</mgrwt>
</event>
<event>
 6    1  0.1528034E-005  0.1813884E+04  0.7818608E-02  0.8698951E-01
         -2   -1    0    0    0  501 -0.00000000000E+00  0.00000000000E+00  0.67639293779E+03  0.67639293779E+03  0.00000000000E+00 0.  1.
          2   -1    0    0  501    0  0.00000000000E+00 -0.00000000000E+00 -0.12160745347E+04  0.12160745347E+04  0.00000000000E+00 0. -1.
         23    2    1    2    0    0  0.61294922178E+03 -0.54723854069E+03  0.12486600699E+03  0.83567975172E+03  0.87134142758E+02 0.  0.
         13    1    3    3    0    0  0.34140032836E+03 -0.30240929677E+03  0.11298910871E+03  0.46986392250E+03  0.00000000000E+00 0.  1.
        -13    1    3    3    0    0  0.27154889342E+03 -0.24482924392E+03  0.11876898278E+02  0.36581582922E+03  0.00000000000E+00 0. -1.
         22    1    1    2    0    0 -0.61294922178E+03  0.54723854069E+03 -0.66454760388E+03  0.10567877207E+04  0.00000000000E+00 0. -1.
<mgrwt>
<rscale>  0 0.18138845E+04</rscale>
<asrwt>0</asrwt>
<pdfrwt beam="1">  1        2 0.18708839E+00 0.18138845E+04</pdfrwt>
<pdfrwt beam="2">  1       -2 0.10406045E+00 0.18138845E+04</pdfrwt>
<totfact> 0.13125187E+01</totfact>
</mgrwt>
</event>
<event>
 6    1  0.1528034E-005  0.2585762E+04  0.7818608E-02  0.8373054E-01
          2   -1    0    0  501    0  0.00000000000E+00  0.00000000000E+00  0.21507588400E+04  0.21507588400E+04  0.00000000000E+00 0. -1.
         -2   -1    0    0    0  501 -0.00000000000E+00 -0.00000000000E+00 -0.77718676608E+03  0.77718676608E+03  0.00000000000E+00 0.  1.
         23    2    1    2    0    0  0.35774037709E+03  0.15988962080E+03 -0.70539682982E+03  0.81237131740E+03  0.93912733770E+02 0.  0.
         13    1    3    3    0    0  0.83279016604E+02 -0.37398600782E+01 -0.14120433851E+03  0.16397574935E+03  0.00000000000E+00 0.  1.
        -13    1    3    3    0    0  0.27446136048E+03  0.16362948087E+03 -0.56419249132E+03  0.64839556805E+03  0.00000000000E+00 0. -1.
         22    1    1    2    0    0 -0.35774037709E+03 -0.15988962080E+03  0.20789689038E+04  0.21155742887E+04  0.00000000000E+00 0. -1.
<mgrwt>
<rscale>  0 0.25857620E+04</rscale>
<asrwt>0</asrwt>
<pdfrwt beam="1">  1        2 0.33088597E+00 0.25857620E+04</pdfrwt>
<pdfrwt beam="2">  1       -2 0.11956720E+00 0.25857620E+04</pdfrwt>
<totfact> 0.26112607E+00</totfact>
</mgrwt>
</event>
<event>
 6    1  0.1528034E-005  0.1823068E+04  0.7818608E-02  0.8694128E-01
          2   -1    0    0  501    0  0.00000000000E+00  0.00000000000E+00  0.19083322340E+04  0.19083322340E+04  0.00000000000E+00 0. -1.
         -2   -1    0    0    0  501 -0.00000000000E+00 -0.00000000000E+00 -0.43540326415E+03  0.43540326415E+03  0.00000000000E+00 0.  1.
         23    2    1    2    0    0  0.12412600266E+03 -0.49090200674E+02  0.18946603960E+04  0.19013843841E+04  0.87792069579E+02 0.  0.
         13    1    3    3    0    0  0.92864436677E+02  0.76850093285E+01  0.97483009562E+03  0.97927349515E+03  0.00000000000E+00 0. -1.
        -13    1    3    3    0    0  0.31261565980E+02 -0.56775210002E+02  0.91983030040E+03  0.92211088895E+03  0.00000000000E+00 0.  1.
         22    1    1    2    0    0 -0.12412600266E+03  0.49090200674E+02 -0.42173142614E+03  0.44235111409E+03  0.00000000000E+00 0.  1.
<mgrwt>
<rscale>  0 0.18230678E+04</rscale>
<asrwt>0</asrwt>
<pdfrwt beam="1">  1        2 0.29358957E+00 0.18230678E+04</pdfrwt>
<pdfrwt beam="2">  1       -2 0.66985119E-01 0.18230678E+04</pdfrwt>
<totfact> 0.14482787E+01</totfact>
</mgrwt>
</event>
<event>
 6    1  0.1528034E-005  0.2217426E+04  0.7818608E-02  0.8511210E-01
          2   -1    0    0  501    0  0.00000000000E+00  0.00000000000E+00  0.90425024712E+03  0.90425024712E+03  0.00000000000E+00 0. -1.
         -2   -1    0    0    0  501 -0.00000000000E+00 -0.00000000000E+00 -0.13594076356E+04  0.13594076356E+04  0.00000000000E+00 0.  1.
         23    2    1    2    0    0  0.43332932308E+03 -0.36137012913E+03  0.74462502229E+03  0.93782210644E+03  0.81738650885E+02 0.  0.
         11    1    3    3    0    0  0.99720616335E+02 -0.12709313380E+03  0.23598817519E+03  0.28598476325E+03  0.00000000000E+00 0. -1.
        -11    1    3    3    0    0  0.33360870674E+03 -0.23427699533E+03  0.50863684710E+03  0.65183734319E+03  0.00000000000E+00 0.  1.
         22    1    1    2    0    0 -0.43332932308E+03  0.36137012913E+03 -0.11997824107E+04  0.13258357762E+04  0.00000000000E+00 0.  1.
<mgrwt>
<rscale>  0 0.22174262E+04</rscale>
<asrwt>0</asrwt>
<pdfrwt beam="1">  1        2 0.13911542E+00 0.22174262E+04</pdfrwt>
<pdfrwt beam="2">  1       -2 0.20913964E+00 0.22174262E+04</pdfrwt>
<totfact> 0.30824244E+00</totfact>
</mgrwt>
</event>
<event>
 6    1  0.1528034E-005  0.1427046E+04  0.7818608E-02  0.8934471E-01
          1   -1    0    0  501    0  0.00000000000E+00  0.00000000000E+00  0.13873415708E+04  0.13873415708E+04  0.00000000000E+00 0. -1.
         -1   -1    0    0    0  501 -0.00000000000E+00 -0.00000000000E+00 -0.36697169862E+03  0.36697169862E+03  0.00000000000E+00 0.  1.
         23    2    1    2    0    0 -0.65252590975E+02  0.45939546549E+03  0.11734868101E+04  0.12656959436E+04  0.98045060255E+02 0.  0.
         13    1    3    3    0    0 -0.44476715000E+02  0.10128425886E+03  0.20550549434E+03  0.23338634809E+03  0.00000000000E+00 0. -1.
        -13    1    3    3    0    0 -0.20775875975E+02  0.35811120662E+03  0.96798131578E+03  0.10323095955E+04  0.00000000000E+00 0.  1.
         22    1    1    2    0    0  0.65252590975E+02 -0.45939546549E+03 -0.15311693797E+03  0.48861732576E+03  0.00000000000E+00 0.  1.
<mgrwt>
<rscale>  0 0.14270460E+04</rscale>
<asrwt>0</asrwt>
<pdfrwt beam="1">  1        1 0.21343716E+00 0.14270460E+04</pdfrwt>
<pdfrwt beam="2">  1       -1 0.56457185E-01 0.14270460E+04</pdfrwt>
<totfact> 0.24224902E+01</totfact>
</mgrwt>
</event>
<event>
 6    1  0.1528034E-005  0.1792787E+04  0.7818608E-02  0.8710145E-01
          1   -1    0    0  501    0  0.00000000000E+00  0.00000000000E+00  0.11468435969E+04  0.11468435969E+04  0.00000000000E+00 0. -1.
         -1   -1    0    0    0  501 -0.00000000000E+00 -0.00000000000E+00 -0.70063713379E+03  0.70063713379E+03  0.00000000000E+00 0.  1.
         23    2    1    2    0    0 -0.85051535214E+03 -0.26924279664E+03  0.29793203147E+03  0.94312828012E+03  0.69709465739E+02 0.  0.
         13    1    3    3    0    0 -0.77036233359E+03 -0.24578649903E+03  0.29075223575E+03  0.85930552816E+03  0.00000000000E+00 0. -1.
        -13    1    3    3    0    0 -0.80153018547E+02 -0.23456297609E+02  0.71797957144E+01  0.83822751961E+02  0.00000000000E+00 0.  1.
         22    1    1    2    0    0  0.85051535214E+03  0.26924279664E+03  0.14827443163E+03  0.90435245057E+03  0.00000000000E+00 0. -1.
<mgrwt>
<rscale>  0 0.17927869E+04</rscale>
<asrwt>0</asrwt>
<pdfrwt beam="1">  1        1 0.17643748E+00 0.17927869E+04</pdfrwt>
<pdfrwt beam="2">  1       -1 0.10779033E+00 0.17927869E+04</pdfrwt>
<totfact> 0.88421177E+00</totfact>
</mgrwt>
</event>
<event>
 6    1  0.1528034E-005  0.4066861E+04  0.7818608E-02  0.7991193E-01
         -2   -1    0    0    0  501 -0.00000000000E+00  0.00000000000E+00  0.12731180504E+04  0.12731180504E+04  0.00000000000E+00 0.  1.
          2   -1    0    0  501    0  0.00000000000E+00 -0.00000000000E+00 -0.32478054227E+04  0.32478054227E+04  0.00000000000E+00 0. -1.
         23    2    1    2    0    0  0.90886197189E+03  0.17613708885E+04 -0.48833134463E+03  0.20434829124E+04  0.94326139200E+02 0.  0.
         11    1    3    3    0    0  0.62558951019E+03  0.12619622843E+04 -0.30941839683E+03  0.14420994372E+04  0.00000000000E+00 0.  1.
        -11    1    3    3    0    0  0.28327246170E+03  0.49940860415E+03 -0.17891294780E+03  0.60138347528E+03  0.00000000000E+00 0. -1.
         22    1    1    2    0    0 -0.90886197189E+03 -0.17613708885E+04 -0.14863560277E+04  0.24774405607E+04  0.00000000000E+00 0. -1.
<mgrwt>
<rscale>  0 0.40668611E+04</rscale>
<asrwt>0</asrwt>
<pdfrwt beam="1">  1        2 0.49966238E+00 0.40668611E+04</pdfrwt>
<pdfrwt beam="2">  1       -2 0.19586431E+00 0.40668611E+04</pdfrwt>
<totfact> 0.13391362E-01</totfact>
</mgrwt>
</event>
<event>
 6    1  0.1528034E-005  0.2022172E+04  0.7818608E-02  0.8596324E-01
          2   -1    0    0  501    0  0.00000000000E+00  0.00000000000E+00  0.52755178088E+04  0.52755178088E+04  0.00000000000E+00 0. -1.
         -2   -1    0    0    0  501 -0.00000000000E+00 -0.00000000000E+00 -0.19378096425E+03  0.19378096425E+03  0.00000000000E+00 0.  1.
         23    2    1    2    0    0 -0.84767455911E+03  0.36220283883E+03  0.14325857485E+04  0.17055178580E+04  0.82135148047E+02 0.  0.
         13    1    3    3    0    0 -0.53668231817E+03  0.23762795885E+03  0.83908554514E+03  0.10239919480E+04  0.00000000000E+00 0.  1.
        -13    1    3    3    0    0 -0.31099224094E+03  0.12457487999E+03  0.59350020334E+03  0.68152591001E+03  0.00000000000E+00 0. -1.
         22    1    1    2    0    0  0.84767455911E+03 -0.36220283883E+03  0.36491510961E+04  0.37637809151E+04  0.00000000000E+00 0. -1.
<mgrwt>
<rscale>  0 0.20221720E+04</rscale>
<asrwt>0</asrwt>
<pdfrwt beam="1">  1        2 0.81161801E+00 0.20221720E+04</pdfrwt>
<pdfrwt beam="2">  1       -2 0.29812460E-01 0.20221720E+04</pdfrwt>
<totfact> 0.14122881E-01</totfact>
</mgrwt>
</event>
<event>
 6    1  0.1528034E-005  0.4145039E+04  0.7818608E-02  0.7975910E-01
         -2   -1    0    0    0  501 -0.00000000000E+00  0.00000000000E+00  0.24491249131E+04  0.24491249131E+04  0.00000000000E+00 0.  1.
          2   -1    0    0  501    0  0.00000000000E+00 -0.00000000000E+00 -0.17538253380E+04  0.17538253380E+04  0.00000000000E+00 0. -1.
         23    2    1    2    0    0 -0.30591829495E+03 -0.43522431987E+03  0.23777774461E+04  0.24383715484E+04  0.93936217147E+02 0.  0.
         11    1    3    3    0    0 -0.52231143205E+02 -0.10175583077E+03  0.36727999193E+03  0.38467770132E+03  0.00000000000E+00 0. -1.
        -11    1    3    3    0    0 -0.25368715174E+03 -0.33346848911E+03  0.20104974542E+04  0.20536938471E+04  0.00000000000E+00 0.  1.
         22    1    1    2    0    0  0.30591829495E+03  0.43522431987E+03 -0.16824778710E+04  0.17645787028E+04  0.00000000000E+00 0. -1.
<mgrwt>
<rscale>  0 0.41450391E+04</rscale>
<asrwt>0</asrwt>
<pdfrwt beam="1">  1        2 0.26981928E+00 0.41450391E+04</pdfrwt>
<pdfrwt beam="2">  1       -2 0.37678845E+00 0.41450391E+04</pdfrwt>
<totfact> 0.74926961E-02</totfact>
</mgrwt>
</event>
<event>
 6    1  0.1528034E-005  0.2267881E+04  0.7818608E-02  0.8490694E-01
          2   -1    0    0  501    0  0.00000000000E+00  0.00000000000E+00  0.23901674614E+04  0.23901674614E+04  0.00000000000E+00 0. -1.
         -2   -1    0    0    0  501 -0.00000000000E+00 -0.00000000000E+00 -0.53796253824E+03  0.53796253824E+03  0.00000000000E+00 0.  1.
         23    2    1    2    0    0  0.49606539522E+03  0.98146846295E+03  0.12748343316E+04  0.16860679963E+04  0.90892766950E+02 0.  0.
         13    1    3    3    0    0  0.12059972578E+03  0.27201795622E+03  0.28920806285E+03  0.41494501561E+03  0.00000000000E+00 0.  1.
        -13    1    3    3    0    0  0.37546566945E+03  0.70945050673E+03  0.98562626876E+03  0.12711229807E+04  0.00000000000E+00 0. -1.
         22    1    1    2    0    0 -0.49606539522E+03 -0.98146846295E+03  0.57737059156E+03  0.12420620033E+04  0.00000000000E+00 0.  1.
<mgrwt>
<rscale>  0 0.22678806E+04</rscale>
<asrwt>0</asrwt>
<pdfrwt beam="1">  1        2 0.36771806E+00 0.22678806E+04</pdfrwt>
<pdfrwt beam="2">  1       -2 0.82763469E-01 0.22678806E+04</pdfrwt>
<totfact> 0.46862865E+00</totfact>
</mgrwt>
</event>
<event>
 6    1  0.1528034E-005  0.2579363E+04  0.7818608E-02  0.8375245E-01
          2   -1    0    0  501    0  0.00000000000E+00  0.00000000000E+00  0.83046046431E+03  0.83046046431E+03  0.00000000000E+00 0. -1.
         -2   -1    0    0    0  501 -0.00000000000E+00 -0.00000000000E+00 -0.20028391824E+04  0.20028391824E+04  0.00000000000E+00 0.  1.
         23    2    1    2    0    0  0.97570973141E+03  0.80534412171E+03 -0.32137908590E+03  0.13085737670E+04  0.92152874879E+02 0.  0.
         11    1    3    3    0    0  0.57990929213E+03  0.48133678701E+03 -0.14467272237E+03  0.76740477339E+03  0.00000000000E+00 0. -1.
        -11    1    3    3    0    0  0.39580043928E+03  0.32400733470E+03 -0.17670636353E+03  0.54116899356E+03  0.00000000000E+00 0.  1.
         22    1    1    2    0    0 -0.97570973141E+03 -0.80534412171E+03 -0.85099963214E+03  0.15247258797E+04  0.00000000000E+00 0.  1.
<mgrwt>
<rscale>  0 0.25793633E+04</rscale>
<asrwt>0</asrwt>
<pdfrwt beam="1">  1        2 0.12776315E+00 0.25793633E+04</pdfrwt>
<pdfrwt beam="2">  1       -2 0.30812910E+00 0.25793633E+04</pdfrwt>
<totfact> 0.82263112E-01</totfact>
</mgrwt>
</event>
<event>
 6    1  0.1528034E-005  0.2702354E+04  0.7818608E-02  0.8334242E-01
         -2   -1    0    0    0  501 -0.00000000000E+00  0.00000000000E+00  0.13224273543E+04  0.13224273543E+04  0.00000000000E+00 0. -1.
          2   -1    0    0  501    0  0.00000000000E+00 -0.00000000000E+00 -0.13805514332E+04  0.13805514332E+04  0.00000000000E+00 0.  1.
         23    2    1    2    0    0 -0.12987516904E+04 -0.14955387641E+03 -0.36444221964E+03  0.13602378897E+04  0.91140933116E+02 0.  0.
         11    1    3    3    0    0 -0.79617423034E+03 -0.13253275643E+03 -0.20602397116E+03  0.83300913157E+03  0.00000000000E+00 0. -1.
        -11    1    3    3    0    0 -0.50257746009E+03 -0.17021119980E+02 -0.15841824847E+03  0.52722875810E+03  0.00000000000E+00 0.  1.
         22    1    1    2    0    0  0.12987516904E+04  0.14955387641E+03  0.30631814083E+03  0.13427408978E+04  0.00000000000E+00 0. -1.
<mgrwt>
<rscale>  0 0.27023538E+04</rscale>
<asrwt>0</asrwt>
<pdfrwt beam="1">  1        2 0.21239253E+00 0.27023538E+04</pdfrwt>
<pdfrwt beam="2">  1       -2 0.20345036E+00 0.27023538E+04</pdfrwt>
<totfact> 0.16444048E+00</totfact>
</mgrwt>
</event>
<event>
 6    1  0.1528034E-005  0.1865460E+04  0.7818608E-02  0.8672243E-01
         -2   -1    0    0    0  501 -0.00000000000E+00  0.00000000000E+00  0.78512317680E+03  0.78512317680E+03  0.00000000000E+00 0. -1.
          2   -1    0    0  501    0  0.00000000000E+00 -0.00000000000E+00 -0.11080877170E+04  0.11080877170E+04  0.00000000000E+00 0.  1.
         23    2    1    2    0    0  0.61112218400E+03  0.58673989119E+03 -0.55240309425E+03  0.10155001934E+04  0.91419037806E+02 0.  0.
         11    1    3    3    0    0  0.49279825883E+03  0.41923862013E+03 -0.42306915846E+03  0.77304505519E+03  0.00000000000E+00 0. -1.
        -11    1    3    3    0    0  0.11832392517E+03  0.16750127107E+03 -0.12933393579E+03  0.24245513817E+03  0.00000000000E+00 0.  1.
         22    1    1    2    0    0 -0.61112218400E+03 -0.58673989119E+03  0.22943855401E+03  0.87771070049E+03  0.00000000000E+00 0. -1.
<mgrwt>
<rscale>  0 0.18654601E+04</rscale>
<asrwt>0</asrwt>
<pdfrwt beam="1">  1        2 0.17047503E+00 0.18654601E+04</pdfrwt>
<pdfrwt beam="2">  1       -2 0.12078818E+00 0.18654601E+04</pdfrwt>
<totfact> 0.10568056E+01</totfact>
</mgrwt>
</event>
<event>
 6    1  0.1528034E-005  0.4464386E+04  0.7818608E-02  0.7916902E-01
         -2   -1    0    0    0  501 -0.00000000000E+00  0.00000000000E+00  0.42907705556E+04  0.42907705556E+04  0.00000000000E+00 0. -1.
          2   -1    0    0  501    0  0.00000000000E+00 -0.00000000000E+00 -0.11612564687E+04  0.11612564687E+04  0.00000000000E+00 0.  1.
         23    2    1    2    0    0 -0.15647526630E+03  0.21899762848E+04  0.10785226957E+04  0.24475226852E+04  0.81703441262E+02 0.  0.
         11    1    3    3    0    0 -0.10750653543E+03  0.98762650800E+03  0.46858696541E+03  0.10984250173E+04  0.00000000000E+00 0. -1.
        -11    1    3    3    0    0 -0.48968730866E+02  0.12023497768E+04  0.60993573031E+03  0.13490976679E+04  0.00000000000E+00 0.  1.
         22    1    1    2    0    0  0.15647526630E+03 -0.21899762848E+04  0.20509913911E+04  0.30045043391E+04  0.00000000000E+00 0. -1.
<mgrwt>
<rscale>  0 0.44643858E+04</rscale>
<asrwt>0</asrwt>
<pdfrwt beam="1">  1        2 0.17865484E+00 0.44643858E+04</pdfrwt>
<pdfrwt beam="2">  1       -2 0.66011854E+00 0.44643858E+04</pdfrwt>
<totfact> 0.47402625E-03</totfact>
</mgrwt>
</event>
<event>
 6    1  0.1528034E-005  0.1523108E+04  0.7818608E-02  0.8869230E-01
         -1   -1    0    0    0  501 -0.00000000000E+00  0.00000000000E+00  0.45871059286E+03  0.45871059286E+03  0.00000000000E+00 0.  1.
          1   -1    0    0  501    0  0.00000000000E+00 -0.00000000000E+00 -0.12643366050E+04  0.12643366050E+04  0.00000000000E+00 0. -1.
         23    2    1    2    0    0  0.17203620482E+03 -0.73824266636E+03 -0.36439838209E+03  0.84596082143E+03  0.90911167230E+02 0.  0.
         13    1    3    3    0    0  0.76828361552E+02 -0.39550269467E+03 -0.14591819257E+03  0.42850565638E+03  0.00000000000E+00 0. -1.
        -13    1    3    3    0    0  0.95207843272E+02 -0.34273997169E+03 -0.21848018952E+03  0.41745516505E+03  0.00000000000E+00 0.  1.
         22    1    1    2    0    0 -0.17203620482E+03  0.73824266636E+03 -0.44122763007E+03  0.87708637644E+03  0.00000000000E+00 0.  1.
<mgrwt>
<rscale>  0 0.15231081E+04</rscale>
<asrwt>0</asrwt>
<pdfrwt beam="1">  1        1 0.19451332E+00 0.15231081E+04</pdfrwt>
<pdfrwt beam="2">  1       -1 0.70570861E-01 0.15231081E+04</pdfrwt>
<totfact> 0.18798430E+01</totfact>
</mgrwt>
</event>
<event>
 6    1  0.1528034E-005  0.3010347E+04  0.7818608E-02  0.8240782E-01
         -1   -1    0    0    0  501 -0.00000000000E+00  0.00000000000E+00  0.92722174171E+03  0.92722174171E+03  0.00000000000E+00 0.  1.
          1   -1    0    0  501    0  0.00000000000E+00 -0.00000000000E+00 -0.24433716251E+04  0.24433716251E+04  0.00000000000E+00 0. -1.
         23    2    1    2    0    0  0.13325960960E+04  0.67957532221E+03 -0.58612519721E+03  0.16091789094E+04  0.90989242086E+02 0.  0.
         13    1    3    3    0    0  0.69213664195E+03  0.39940170122E+03 -0.29255748785E+03  0.85097869173E+03  0.00000000000E+00 0. -1.
        -13    1    3    3    0    0  0.64045945404E+03  0.28017362099E+03 -0.29356770936E+03  0.75820021772E+03  0.00000000000E+00 0.  1.
         22    1    1    2    0    0 -0.13325960960E+04 -0.67957532221E+03 -0.93002468615E+03  0.17614144573E+04  0.00000000000E+00 0. -1.
<mgrwt>
<rscale>  0 0.30103470E+04</rscale>
<asrwt>0</asrwt>
<pdfrwt beam="1">  1        1 0.37590333E+00 0.30103470E+04</pdfrwt>
<pdfrwt beam="2">  1       -1 0.14264950E+00 0.30103470E+04</pdfrwt>
<totfact> 0.50290402E-01</totfact>
</mgrwt>
</event>
<event>
 6    1  0.1528034E-005  0.2866405E+04  0.7818608E-02  0.8282944E-01
         -1   -1    0    0    0  501 -0.00000000000E+00  0.00000000000E+00  0.18622749473E+04  0.18622749473E+04  0.00000000000E+00 0.  1.
          1   -1    0    0  501    0  0.00000000000E+00 -0.00000000000E+00 -0.11029892289E+04  0.11029892289E+04  0.00000000000E+00 0. -1.
         23    2    1    2    0    0  0.49533653309E+03 -0.12795065717E+04  0.80313210411E+03  0.15925231760E+04  0.92809165892E+02 0.  0.
         13    1    3    3    0    0  0.35199842063E+03 -0.10115055375E+04  0.63808397558E+03  0.12466745768E+04  0.00000000000E+00 0. -1.
        -13    1    3    3    0    0  0.14333811246E+03 -0.26800103419E+03  0.16504812854E+03  0.34584859916E+03  0.00000000000E+00 0.  1.
         22    1    1    2    0    0 -0.49533653309E+03  0.12795065717E+04 -0.43846385687E+02  0.13727410002E+04  0.00000000000E+00 0. -1.
<mgrwt>
<rscale>  0 0.28664049E+04</rscale>
<asrwt>0</asrwt>
<pdfrwt beam="1">  1        1 0.16969065E+00 0.28664049E+04</pdfrwt>
<pdfrwt beam="2">  1       -1 0.28650384E+00 0.28664049E+04</pdfrwt>
<totfact> 0.43854506E-01</totfact>
</mgrwt>
</event>
<event>
 6    1  0.1528034E-005  0.3635218E+04  0.7818608E-02  0.8082472E-01
          1   -1    0    0  501    0  0.00000000000E+00  0.00000000000E+00  0.19804791401E+04  0.19804791401E+04  0.00000000000E+00 0. -1.
         -1   -1    0    0    0  501 -0.00000000000E+00 -0.00000000000E+00 -0.16681330366E+04  0.16681330366E+04  0.00000000000E+00 0.  1.
         23    2    1    2    0    0 -0.30764086048E+03  0.63684755652E+03  0.18355672943E+04  0.19692014153E+04  0.90715009692E+02 0.  0.
         11    1    3    3    0    0 -0.19116174820E+03  0.42488392192E+03  0.13176512958E+04  0.13975958280E+04  0.00000000000E+00 0. -1.
        -11    1    3    3    0    0 -0.11647911228E+03  0.21196363460E+03  0.51791599850E+03  0.57160558736E+03  0.00000000000E+00 0.  1.
         22    1    1    2    0    0  0.30764086048E+03 -0.63684755652E+03 -0.15232211908E+04  0.16794107614E+04  0.00000000000E+00 0.  1.
<mgrwt>
<rscale>  0 0.36352181E+04</rscale>
<asrwt>0</asrwt>
<pdfrwt beam="1">  1        1 0.30468910E+00 0.36352181E+04</pdfrwt>
<pdfrwt beam="2">  1       -1 0.25663585E+00 0.36352181E+04</pdfrwt>
<totfact> 0.15640440E-01</totfact>
</mgrwt>
</event>
<event>
 6    1  0.1528034E-005  0.8276495E+03  0.7818608E-02  0.9520836E-01
          2   -1    0    0  501    0  0.00000000000E+00  0.00000000000E+00  0.85192587073E+03  0.85192587073E+03  0.00000000000E+00 0. -1.
         -2   -1    0    0    0  501 -0.00000000000E+00 -0.00000000000E+00 -0.20101623216E+03  0.20101623216E+03  0.00000000000E+00 0.  1.
         23    2    1    2    0    0  0.17074395930E+03 -0.32021864935E+03  0.56863161267E+03  0.68083572486E+03  0.92205695525E+02 0.  0.
         11    1    3    3    0    0  0.13067795028E+03 -0.17858397342E+03  0.28046159922E+03  0.35725015170E+03  0.00000000000E+00 0. -1.
        -11    1    3    3    0    0  0.40066009013E+02 -0.14163467593E+03  0.28817001345E+03  0.32358557315E+03  0.00000000000E+00 0.  1.
         22    1    1    2    0    0 -0.17074395930E+03  0.32021864935E+03  0.82278025898E+02  0.37210637803E+03  0.00000000000E+00 0.  1.
<mgrwt>
<rscale>  0 0.82764951E+03</rscale>
<asrwt>0</asrwt>
<pdfrwt beam="1">  1        2 0.13106552E+00 0.82764951E+03</pdfrwt>
<pdfrwt beam="2">  1       -2 0.30925575E-01 0.82764951E+03</pdfrwt>
<totfact> 0.30763261E+02</totfact>
</mgrwt>
</event>
<event>
 6    1  0.1528034E-005  0.2781129E+04  0.7818608E-02  0.8309151E-01
          1   -1    0    0  501    0  0.00000000000E+00  0.00000000000E+00  0.96046227642E+03  0.96046227642E+03  0.00000000000E+00 0. -1.
         -1   -1    0    0    0  501 -0.00000000000E+00 -0.00000000000E+00 -0.20132697059E+04  0.20132697059E+04  0.00000000000E+00 0.  1.
         23    2    1    2    0    0  0.89635631529E+02 -0.12860687090E+04 -0.10800891243E+04  0.16842547387E+04  0.90079064211E+02 0.  0.
         11    1    3    3    0    0  0.73779607664E+02 -0.48191719675E+03 -0.38519717911E+03  0.62134087410E+03  0.00000000000E+00 0. -1.
        -11    1    3    3    0    0  0.15856023865E+02 -0.80415151227E+03 -0.69489194518E+03  0.10629138646E+04  0.00000000000E+00 0.  1.
         22    1    1    2    0    0 -0.89635631529E+02  0.12860687090E+04  0.27281694837E+02  0.12894772435E+04  0.00000000000E+00 0. -1.
<mgrwt>
<rscale>  0 0.27811290E+04</rscale>
<asrwt>0</asrwt>
<pdfrwt beam="1">  1        1 0.14776343E+00 0.27811290E+04</pdfrwt>
<pdfrwt beam="2">  1       -1 0.30973380E+00 0.27811290E+04</pdfrwt>
<totfact> 0.40248913E-01</totfact>
</mgrwt>
</event>
<event>
 6    1  0.1528034E-005  0.1416434E+04  0.7818608E-02  0.8942008E-01
          2   -1    0    0  501    0  0.00000000000E+00  0.00000000000E+00  0.17735730500E+04  0.17735730500E+04  0.00000000000E+00 0. -1.
         -2   -1    0    0    0  501 -0.00000000000E+00 -0.00000000000E+00 -0.28280286677E+03  0.28280286677E+03  0.00000000000E+00 0.  1.
         23    2    1    2    0    0 -0.74557018584E+02 -0.31305829062E+03  0.16596582170E+04  0.16929375997E+04  0.89487858853E+02 0.  0.
         13    1    3    3    0    0 -0.84738193371E+02 -0.29780078116E+03  0.14617787805E+04  0.14942098480E+04  0.00000000000E+00 0.  1.
        -13    1    3    3    0    0  0.10181174787E+02 -0.15257509458E+02  0.19787943656E+03  0.19872775179E+03  0.00000000000E+00 0. -1.
         22    1    1    2    0    0  0.74557018584E+02  0.31305829062E+03 -0.16888803378E+03  0.36343831705E+03  0.00000000000E+00 0.  1.
<mgrwt>
<rscale>  0 0.14164343E+04</rscale>
<asrwt>0</asrwt>
<pdfrwt beam="1">  1        2 0.27285739E+00 0.14164343E+04</pdfrwt>
<pdfrwt beam="2">  1       -2 0.43508134E-01 0.14164343E+04</pdfrwt>
<totfact> 0.43463826E+01</totfact>
</mgrwt>
</event>
<event>
 6    1  0.1528034E-005  0.4376138E+04  0.7818608E-02  0.7932688E-01
          2   -1    0    0  501    0  0.00000000000E+00  0.00000000000E+00  0.19036748081E+04  0.19036748081E+04  0.00000000000E+00 0.  1.
         -2   -1    0    0    0  501 -0.00000000000E+00 -0.00000000000E+00 -0.25149494416E+04  0.25149494416E+04  0.00000000000E+00 0. -1.
         23    2    1    2    0    0 -0.12724701895E+04  0.12063205266E+04  0.10138504069E+04  0.20279295823E+04  0.10107495837E+03 0.  0.
         13    1    3    3    0    0 -0.43354409644E+03  0.38717992302E+03  0.28532723182E+03  0.64751865268E+03  0.00000000000E+00 0.  1.
        -13    1    3    3    0    0 -0.83892609311E+03  0.81914060354E+03  0.72852317503E+03  0.13804109296E+04  0.00000000000E+00 0. -1.
         22    1    1    2    0    0  0.12724701895E+04 -0.12063205266E+04 -0.16251250403E+04  0.23906946674E+04  0.00000000000E+00 0. -1.
<mgrwt>
<rscale>  0 0.43761380E+04</rscale>
<asrwt>0</asrwt>
<pdfrwt beam="1">  1        2 0.29287305E+00 0.43761380E+04</pdfrwt>
<pdfrwt beam="2">  1       -2 0.38691530E+00 0.43761380E+04</pdfrwt>
<totfact> 0.52237621E-02</totfact>
</mgrwt>
</event>
<event>
 6    1  0.1528034E-005  0.2513020E+04  0.7818608E-02  0.8398362E-01
          1   -1    0    0  501    0  0.00000000000E+00  0.00000000000E+00  0.27329470613E+04  0.27329470613E+04  0.00000000000E+00 0. -1.
         -1   -1    0    0    0  501 -0.00000000000E+00 -0.00000000000E+00 -0.57769797114E+03  0.57769797114E+03  0.00000000000E+00 0.  1.
         23    2    1    2    0    0  0.11448647509E+04  0.30111008218E+03  0.53060488844E+03  0.13004581352E+04  0.90924333059E+02 0.  0.
         11    1    3    3    0    0  0.70450025695E+03  0.22936847389E+03  0.31907252439E+03  0.80668319970E+03  0.00000000000E+00 0.  1.
        -11    1    3    3    0    0  0.44036449398E+03  0.71741608283E+02  0.21153236405E+03  0.49377493553E+03  0.00000000000E+00 0. -1.
         22    1    1    2    0    0 -0.11448647509E+04 -0.30111008218E+03  0.16246442018E+04  0.20101868972E+04  0.00000000000E+00 0. -1.
<mgrwt>
<rscale>  0 0.25130205E+04</rscale>
<asrwt>0</asrwt>
<pdfrwt beam="1">  1        1 0.42045339E+00 0.25130205E+04</pdfrwt>
<pdfrwt beam="2">  1       -1 0.88876612E-01 0.25130205E+04</pdfrwt>
<totfact> 0.10247406E+00</totfact>
</mgrwt>
</event>
<event>
 6    1  0.1528034E-005  0.1694422E+04  0.7818608E-02  0.8764552E-01
          2   -1    0    0  501    0  0.00000000000E+00  0.00000000000E+00  0.88060089005E+03  0.88060089005E+03  0.00000000000E+00 0. -1.
         -2   -1    0    0    0  501 -0.00000000000E+00 -0.00000000000E+00 -0.81508706424E+03  0.81508706424E+03  0.00000000000E+00 0.  1.
         23    2    1    2    0    0 -0.21297052421E+03  0.55434152862E+03 -0.56833883651E+03  0.82711431200E+03  0.91967806798E+02 0.  0.
         13    1    3    3    0    0 -0.12556020250E+03  0.43129705135E+03 -0.40663754927E+03  0.60591798738E+03  0.00000000000E+00 0.  1.
        -13    1    3    3    0    0 -0.87410321705E+02  0.12304447727E+03 -0.16170128725E+03  0.22119632462E+03  0.00000000000E+00 0. -1.
         22    1    1    2    0    0  0.21297052421E+03 -0.55434152862E+03  0.63385266233E+03  0.86857364229E+03  0.00000000000E+00 0. -1.
<mgrwt>
<rscale>  0 0.16944219E+04</rscale>
<asrwt>0</asrwt>
<pdfrwt beam="1">  1        2 0.13547706E+00 0.16944219E+04</pdfrwt>
<pdfrwt beam="2">  1       -2 0.12539801E+00 0.16944219E+04</pdfrwt>
<totfact> 0.13686925E+01</totfact>
</mgrwt>
</event>
<event>
 6    1  0.1528034E-005  0.2180345E+04  0.7818608E-02  0.8526654E-01
         -2   -1    0    0    0  501 -0.00000000000E+00  0.00000000000E+00  0.32799796469E+03  0.32799796469E+03  0.00000000000E+00 0.  1.
          2   -1    0    0  501    0  0.00000000000E+00 -0.00000000000E+00 -0.36234262391E+04  0.36234262391E+04  0.00000000000E+00 0. -1.
         23    2    1    2    0    0  0.74919738009E+03  0.43174382425E+03 -0.28482557878E+04  0.29779445292E+04  0.88843355043E+02 0.  0.
         11    1    3    3    0    0  0.39354313381E+03  0.17630636452E+03 -0.13866989936E+04  0.14522032335E+04  0.00000000000E+00 0.  1.
        -11    1    3    3    0    0  0.35565424628E+03  0.25543745973E+03 -0.14615567942E+04  0.15257412957E+04  0.00000000000E+00 0. -1.
         22    1    1    2    0    0 -0.74919738009E+03 -0.43174382425E+03 -0.44717248653E+03  0.97347967458E+03  0.00000000000E+00 0.  1.
<mgrwt>
<rscale>  0 0.21803453E+04</rscale>
<asrwt>0</asrwt>
<pdfrwt beam="1">  1        2 0.55745016E+00 0.21803453E+04</pdfrwt>
<pdfrwt beam="2">  1       -2 0.50461229E-01 0.21803453E+04</pdfrwt>
<totfact> 0.22680143E+00</totfact>
</mgrwt>
</event>
<event>
 6    1  0.1528034E-005  0.2082644E+04  0.7818608E-02  0.8568927E-01
          1   -1    0    0  501    0  0.00000000000E+00  0.00000000000E+00  0.18977416488E+04  0.18977416488E+04  0.00000000000E+00 0. -1.
         -1   -1    0    0    0  501 -0.00000000000E+00 -0.00000000000E+00 -0.57139066049E+03  0.57139066049E+03  0.00000000000E+00 0.  1.
         23    2    1    2    0    0 -0.40540008542E+03  0.41570684762E+03 -0.35753253581E+03  0.68794586897E+03  0.90986768549E+02 0.  0.
         11    1    3    3    0    0 -0.22428564811E+03  0.26226546192E+03 -0.16602508073E+03  0.38295110901E+03  0.00000000000E+00 0.  1.
        -11    1    3    3    0    0 -0.18111443732E+03  0.15344138570E+03 -0.19150745508E+03  0.30499475995E+03  0.00000000000E+00 0. -1.
         22    1    1    2    0    0  0.40540008542E+03 -0.41570684762E+03  0.16838835241E+04  0.17811864403E+04  0.00000000000E+00 0. -1.
<mgrwt>
<rscale>  0 0.20826443E+04</rscale>
<asrwt>0</asrwt>
<pdfrwt beam="1">  1        1 0.29196025E+00 0.20826443E+04</pdfrwt>
<pdfrwt beam="2">  1       -1 0.87906256E-01 0.20826443E+04</pdfrwt>
<totfact> 0.40965216E+00</totfact>
</mgrwt>
</event>
<event>
 6    1  0.1528034E-005  0.1982871E+04  0.7818608E-02  0.8614671E-01
          2   -1    0    0  501    0  0.00000000000E+00  0.00000000000E+00  0.18602986869E+04  0.18602986869E+04  0.00000000000E+00 0. -1.
         -2   -1    0    0    0  501 -0.00000000000E+00 -0.00000000000E+00 -0.52837959403E+03  0.52837959403E+03  0.00000000000E+00 0.  1.
         23    2    1    2    0    0 -0.74883478566E+03  0.14816947088E+03 -0.90863188630E+02  0.77405227194E+03  0.90515591682E+02 0.  0.
         13    1    3    3    0    0 -0.25009710455E+03  0.64224147563E+02 -0.71502117048E+02  0.26792882558E+03  0.00000000000E+00 0.  1.
        -13    1    3    3    0    0 -0.49873768111E+03  0.83945323315E+02 -0.19361071583E+02  0.50612344636E+03  0.00000000000E+00 0. -1.
         22    1    1    2    0    0  0.74883478566E+03 -0.14816947088E+03  0.14227822815E+04  0.16146260090E+04  0.00000000000E+00 0. -1.
<mgrwt>
<rscale>  0 0.19828705E+04</rscale>
<asrwt>0</asrwt>
<pdfrwt beam="1">  1        2 0.28619979E+00 0.19828705E+04</pdfrwt>
<pdfrwt beam="2">  1       -2 0.81289169E-01 0.19828705E+04</pdfrwt>
<totfact> 0.99090968E+00</totfact>
</mgrwt>
</event>
<event>
 6    1  0.1528034E-005  0.3026051E+04  0.7818608E-02  0.8236331E-01
          1   -1    0    0  501    0  0.00000000000E+00  0.00000000000E+00  0.11108468347E+04  0.11108468347E+04  0.00000000000E+00 0. -1.
         -1   -1    0    0    0  501 -0.00000000000E+00 -0.00000000000E+00 -0.20608123269E+04  0.20608123269E+04  0.00000000000E+00 0.  1.
         23    2    1    2    0    0  0.91661304086E+03 -0.84712251765E+03 -0.13692414948E+04  0.18550011221E+04  0.91710770480E+02 0.  0.
         13    1    3    3    0    0  0.55121348440E+02 -0.44371311236E+02 -0.11160257144E+03  0.13214503496E+03  0.00000000000E+00 0.  1.
        -13    1    3    3    0    0  0.86149169242E+03 -0.80275120641E+03 -0.12576389233E+04  0.17228560871E+04  0.00000000000E+00 0. -1.
         22    1    1    2    0    0 -0.91661304086E+03  0.84712251765E+03  0.41927600263E+03  0.13166580395E+04  0.00000000000E+00 0. -1.
<mgrwt>
<rscale>  0 0.30260515E+04</rscale>
<asrwt>0</asrwt>
<pdfrwt beam="1">  1        1 0.17089951E+00 0.30260515E+04</pdfrwt>
<pdfrwt beam="2">  1       -1 0.31704805E+00 0.30260515E+04</pdfrwt>
<totfact> 0.27027892E-01</totfact>
</mgrwt>
</event>
<event>
 6    1  0.1528034E-005  0.2879505E+04  0.7818608E-02  0.8279002E-01
         -1   -1    0    0    0  501 -0.00000000000E+00  0.00000000000E+00  0.12082606843E+04  0.12082606843E+04  0.00000000000E+00 0.  1.
          1   -1    0    0  501    0  0.00000000000E+00 -0.00000000000E+00 -0.17155962383E+04  0.17155962383E+04  0.00000000000E+00 0. -1.
         23    2    1    2    0    0  0.11064236455E+04 -0.37732798201E+03  0.59692590543E+03  0.13157701526E+04  0.91547084176E+02 0.  0.
         13    1    3    3    0    0  0.38979191184E+03 -0.10222546228E+03  0.16948824832E+03  0.43716592502E+03  0.00000000000E+00 0. -1.
        -13    1    3    3    0    0  0.71663173365E+03 -0.27510251973E+03  0.42743765711E+03  0.87860422760E+03  0.00000000000E+00 0.  1.
         22    1    1    2    0    0 -0.11064236455E+04  0.37732798201E+03 -0.11042614594E+04  0.16080867701E+04  0.00000000000E+00 0. -1.
<mgrwt>
<rscale>  0 0.28795052E+04</rscale>
<asrwt>0</asrwt>
<pdfrwt beam="1">  1        1 0.26393788E+00 0.28795052E+04</pdfrwt>
<pdfrwt beam="2">  1       -1 0.18588626E+00 0.28795052E+04</pdfrwt>
<totfact> 0.75548527E-01</totfact>
</mgrwt>
</event>
<event>
 6    1  0.1528034E-005  0.7667437E+03  0.7818608E-02  0.9609442E-01
          1   -1    0    0  501    0  0.00000000000E+00  0.00000000000E+00  0.93776060159E+03  0.93776060159E+03  0.00000000000E+00 0. -1.
         -1   -1    0    0    0  501 -0.00000000000E+00 -0.00000000000E+00 -0.15672868759E+03  0.15672868759E+03  0.00000000000E+00 0.  1.
         23    2    1    2    0    0  0.35229959003E+03  0.18663988791E+02  0.58937069116E+03  0.69299536650E+03  0.91768299389E+02 0.  0.
         13    1    3    3    0    0  0.16794895768E+03  0.34928274838E+02  0.35579570425E+03  0.39499040486E+03  0.00000000000E+00 0.  1.
        -13    1    3    3    0    0  0.18435063236E+03 -0.16264286048E+02  0.23357498691E+03  0.29800496164E+03  0.00000000000E+00 0. -1.
         22    1    1    2    0    0 -0.35229959003E+03 -0.18663988791E+02  0.19166122284E+03  0.40149392269E+03  0.00000000000E+00 0.  1.
<mgrwt>
<rscale>  0 0.76674373E+03</rscale>
<asrwt>0</asrwt>
<pdfrwt beam="1">  1        1 0.14427086E+00 0.76674373E+03</pdfrwt>
<pdfrwt beam="2">  1       -1 0.24112106E-01 0.76674373E+03</pdfrwt>
<totfact> 0.25532019E+02</totfact>
</mgrwt>
</event>
<event>
 6    1  0.1528034E-005  0.3878648E+04  0.7818608E-02  0.8029485E-01
         -2   -1    0    0    0  501 -0.00000000000E+00  0.00000000000E+00  0.23387865293E+04  0.23387865293E+04  0.00000000000E+00 0.  1.
          2   -1    0    0  501    0  0.00000000000E+00 -0.00000000000E+00 -0.16080895272E+04  0.16080895272E+04  0.00000000000E+00 0. -1.
         23    2    1    2    0    0  0.54012194376E+03  0.19410431653E+03 -0.15183413656E+04  0.16257595624E+04  0.91243918708E+02 0.  0.
         13    1    3    3    0    0  0.21848007065E+03  0.81853816295E+02 -0.49553669210E+03  0.54771361287E+03  0.00000000000E+00 0. -1.
        -13    1    3    3    0    0  0.32164187312E+03  0.11225050023E+03 -0.10228046735E+04  0.10780459496E+04  0.00000000000E+00 0.  1.
         22    1    1    2    0    0 -0.54012194376E+03 -0.19410431653E+03  0.22490383677E+04  0.23211164941E+04  0.00000000000E+00 0.  1.
<mgrwt>
<rscale>  0 0.38786483E+04</rscale>
<asrwt>0</asrwt>
<pdfrwt beam="1">  1        2 0.24739839E+00 0.38786483E+04</pdfrwt>
<pdfrwt beam="2">  1       -2 0.35981331E+00 0.38786483E+04</pdfrwt>
<totfact> 0.11851136E-01</totfact>
</mgrwt>
</event>
<event>
 6    1  0.1528034E-005  0.2218131E+04  0.7818608E-02  0.8510919E-01
          1   -1    0    0  501    0  0.00000000000E+00  0.00000000000E+00  0.94206625889E+03  0.94206625889E+03  0.00000000000E+00 0. -1.
         -1   -1    0    0    0  501 -0.00000000000E+00 -0.00000000000E+00 -0.13056689496E+04  0.13056689496E+04  0.00000000000E+00 0.  1.
         23    2    1    2    0    0  0.81656985968E+03  0.18759423401E+03  0.55129945360E+03  0.10071612018E+04  0.92003622511E+02 0.  0.
         13    1    3    3    0    0  0.82578743035E+02 -0.86224374070E+01  0.50112823419E+02  0.96978813661E+02  0.00000000000E+00 0.  1.
        -13    1    3    3    0    0  0.73399111665E+03  0.19621667142E+03  0.50118663018E+03  0.91018238817E+03  0.00000000000E+00 0. -1.
         22    1    1    2    0    0 -0.81656985968E+03 -0.18759423401E+03 -0.91490214435E+03  0.12405740067E+04  0.00000000000E+00 0.  1.
<mgrwt>
<rscale>  0 0.22181313E+04</rscale>
<asrwt>0</asrwt>
<pdfrwt beam="1">  1        1 0.14493327E+00 0.22181313E+04</pdfrwt>
<pdfrwt beam="2">  1       -1 0.20087215E+00 0.22181313E+04</pdfrwt>
<totfact> 0.22724808E+00</totfact>
</mgrwt>
</event>
<event>
 6    1  0.1528034E-005  0.2319067E+04  0.7818608E-02  0.8470441E-01
         -1   -1    0    0    0  501 -0.00000000000E+00  0.00000000000E+00  0.16331788764E+04  0.16331788764E+04  0.00000000000E+00 0.  1.
          1   -1    0    0  501    0  0.00000000000E+00 -0.00000000000E+00 -0.82325196053E+03  0.82325196053E+03  0.00000000000E+00 0. -1.
         23    2    1    2    0    0 -0.26801655797E+02  0.10224085808E+04 -0.16878145824E+03  0.10408363623E+04  0.93890987911E+02 0.  0.
         13    1    3    3    0    0  0.17160991803E+02  0.25689101589E+03 -0.76110753170E+02  0.26847782112E+03  0.00000000000E+00 0. -1.
        -13    1    3    3    0    0 -0.43962647601E+02  0.76551756493E+03 -0.92670705069E+02  0.77235854121E+03  0.00000000000E+00 0.  1.
         22    1    1    2    0    0  0.26801655797E+02 -0.10224085808E+04  0.97870837407E+03  0.14155944745E+04  0.00000000000E+00 0.  1.
<mgrwt>
<rscale>  0 0.23190668E+04</rscale>
<asrwt>0</asrwt>
<pdfrwt beam="1">  1        1 0.12665415E+00 0.23190668E+04</pdfrwt>
<pdfrwt beam="2">  1       -1 0.25125829E+00 0.23190668E+04</pdfrwt>
<totfact> 0.13029871E+00</totfact>
</mgrwt>
</event>
<event>
 6    1  0.1528034E-005  0.5458262E+04  0.7818608E-02  0.7761459E-01
         -2   -1    0    0    0  501 -0.00000000000E+00  0.00000000000E+00  0.29127208674E+04  0.29127208674E+04  0.00000000000E+00 0.  1.
          2   -1    0    0  501    0  0.00000000000E+00 -0.00000000000E+00 -0.25571129062E+04  0.25571129062E+04  0.00000000000E+00 0. -1.
         23    2    1    2    0    0  0.34567638493E+03  0.12639223530E+04  0.25760047459E+04  0.28916263034E+04  0.93329255577E+02 0.  0.
         13    1    3    3    0    0  0.82221076064E+02  0.47059678194E+03  0.93217717988E+03  0.10474616610E+04  0.00000000000E+00 0. -1.
        -13    1    3    3    0    0  0.26345530886E+03  0.79332557107E+03  0.16438275660E+04  0.18441646424E+04  0.00000000000E+00 0.  1.
         22    1    1    2    0    0 -0.34567638493E+03 -0.12639223530E+04 -0.22203967847E+04  0.25782074702E+04  0.00000000000E+00 0. -1.
<mgrwt>
<rscale>  0 0.54582620E+04</rscale>
<asrwt>0</asrwt>
<pdfrwt beam="1">  1        2 0.39340198E+00 0.54582620E+04</pdfrwt>
<pdfrwt beam="2">  1       -2 0.44811091E+00 0.54582620E+04</pdfrwt>
<totfact> 0.81171891E-03</totfact>
</mgrwt>
</event>
<event>
 6    1  0.1528034E-005  0.1073865E+04  0.7818608E-02  0.9231046E-01
          1   -1    0    0  501    0  0.00000000000E+00  0.00000000000E+00  0.15776301124E+04  0.15776301124E+04  0.00000000000E+00 0. -1.
         -1   -1    0    0    0  501 -0.00000000000E+00 -0.00000000000E+00 -0.18274030441E+03  0.18274030441E+03  0.00000000000E+00 0.  1.
         23    2    1    2    0    0  0.45724250594E+03 -0.16625768514E+03  0.34635379944E+03  0.60445515681E+03  0.93234945698E+02 0.  0.
         11    1    3    3    0    0  0.19832464392E+03 -0.70277365115E+02  0.94270666242E+02  0.23056133879E+03  0.00000000000E+00 0. -1.
        -11    1    3    3    0    0  0.25891786202E+03 -0.95980320025E+02  0.25208313320E+03  0.37389381802E+03  0.00000000000E+00 0.  1.
         22    1    1    2    0    0 -0.45724250594E+03  0.16625768514E+03  0.10485360086E+04  0.11559152600E+04  0.00000000000E+00 0. -1.
<mgrwt>
<rscale>  0 0.10738652E+04</rscale>
<asrwt>0</asrwt>
<pdfrwt beam="1">  1        1 0.24271232E+00 0.10738652E+04</pdfrwt>
<pdfrwt beam="2">  1       -1 0.28113894E-01 0.10738652E+04</pdfrwt>
<totfact> 0.65979989E+01</totfact>
</mgrwt>
</event>
<event>
 6    1  0.1528034E-005  0.2056396E+04  0.7818608E-02  0.8580698E-01
          1   -1    0    0  501    0  0.00000000000E+00  0.00000000000E+00  0.82503010430E+03  0.82503010430E+03  0.00000000000E+00 0. -1.
         -1   -1    0    0    0  501 -0.00000000000E+00 -0.00000000000E+00 -0.12813969483E+04  0.12813969483E+04  0.00000000000E+00 0.  1.
         23    2    1    2    0    0 -0.70154049202E+03  0.73909645235E+03 -0.10427715907E+03  0.10282852372E+04  0.89856415348E+02 0.  0.
         11    1    3    3    0    0 -0.54527476765E+03  0.54256629781E+03 -0.11053547957E+03  0.77712344708E+03  0.00000000000E+00 0. -1.
        -11    1    3    3    0    0 -0.15626572437E+03  0.19653015454E+03  0.62583204953E+01  0.25116179015E+03  0.00000000000E+00 0.  1.
         22    1    1    2    0    0  0.70154049202E+03 -0.73909645235E+03 -0.35208968494E+03  0.10781418154E+04  0.00000000000E+00 0.  1.
<mgrwt>
<rscale>  0 0.20563959E+04</rscale>
<asrwt>0</asrwt>
<pdfrwt beam="1">  1        1 0.12692771E+00 0.20563959E+04</pdfrwt>
<pdfrwt beam="2">  1       -1 0.19713799E+00 0.20563959E+04</pdfrwt>
<totfact> 0.30584442E+00</totfact>
</mgrwt>
</event>
<event>
 6    1  0.1528034E-005  0.1156579E+04  0.7818608E-02  0.9151736E-01
         -2   -1    0    0    0  501 -0.00000000000E+00  0.00000000000E+00  0.27875191258E+03  0.27875191258E+03  0.00000000000E+00 0.  1.
          2   -1    0    0  501    0  0.00000000000E+00 -0.00000000000E+00 -0.11996996681E+04  0.11996996681E+04  0.00000000000E+00 0. -1.
         23    2    1    2    0    0  0.47639001874E+03 -0.13620291389E+03 -0.90827724100E+02  0.51170551770E+03  0.89967647900E+02 0.  0.
         13    1    3    3    0    0  0.26046130141E+03 -0.60177465657E+02 -0.54413775003E+01  0.26737805724E+03  0.00000000000E+00 0. -1.
        -13    1    3    3    0    0  0.21592871733E+03 -0.76025448235E+02 -0.85386346600E+02  0.24432746046E+03  0.00000000000E+00 0.  1.
         22    1    1    2    0    0 -0.47639001874E+03  0.13620291389E+03 -0.83012003144E+03  0.96674606299E+03  0.00000000000E+00 0. -1.
<mgrwt>
<rscale>  0 0.11565787E+04</rscale>
<asrwt>0</asrwt>
<pdfrwt beam="1">  1        2 0.18456917E+00 0.11565787E+04</pdfrwt>
<pdfrwt beam="2">  1       -2 0.42884911E-01 0.11565787E+04</pdfrwt>
<totfact> 0.96595448E+01</totfact>
</mgrwt>
</event>
<event>
 6    1  0.1528034E-005  0.5488744E+03  0.7818608E-02  0.1001755E+00
         -3   -1    0    0    0  501 -0.00000000000E+00  0.00000000000E+00  0.21459113488E+03  0.21459113488E+03  0.00000000000E+00 0.  1.
          3   -1    0    0  501    0  0.00000000000E+00 -0.00000000000E+00 -0.35097333161E+03  0.35097333161E+03  0.00000000000E+00 0. -1.
         23    2    1    2    0    0 -0.26204160955E+03  0.44749706487E+02 -0.99622411586E+02  0.29719974606E+03  0.87947272865E+02 0.  0.
         11    1    3    3    0    0 -0.97835561099E+02 -0.21285605812E+02 -0.56771905710E+02  0.11509962341E+03  0.00000000000E+00 0.  1.
        -11    1    3    3    0    0 -0.16420604845E+03  0.66035312299E+02 -0.42850505876E+02  0.18210012266E+03  0.00000000000E+00 0. -1.
         22    1    1    2    0    0  0.26204160955E+03 -0.44749706487E+02 -0.36759785145E+02  0.26836472042E+03  0.00000000000E+00 0.  1.
<mgrwt>
<rscale>  0 0.54887436E+03</rscale>
<asrwt>0</asrwt>
<pdfrwt beam="1">  1        3 0.53995897E-01 0.54887436E+03</pdfrwt>
<pdfrwt beam="2">  1       -3 0.33014021E-01 0.54887436E+03</pdfrwt>
<totfact> 0.80088585E+01</totfact>
</mgrwt>
</event>
<event>
 6    1  0.1528034E-005  0.3655590E+04  0.7818608E-02  0.8077875E-01
         -1   -1    0    0    0  501 -0.00000000000E+00  0.00000000000E+00  0.13172798425E+04  0.13172798425E+04  0.00000000000E+00 0.  1.
          1   -1    0    0  501    0  0.00000000000E+00 -0.00000000000E+00 -0.25361619109E+04  0.25361619109E+04  0.00000000000E+00 0. -1.
         23    2    1    2    0    0 -0.12963505357E+04 -0.56204588581E+03 -0.18301654616E+04  0.23139328460E+04  0.91429261482E+02 0.  0.
         11    1    3    3    0    0 -0.83921357716E+03 -0.38083565629E+03 -0.12588470220E+04  0.15601317412E+04  0.00000000000E+00 0. -1.
        -11    1    3    3    0    0 -0.45713695856E+03 -0.18121022952E+03 -0.57131843961E+03  0.75380110481E+03  0.00000000000E+00 0.  1.
         22    1    1    2    0    0  0.12963505357E+04  0.56204588581E+03  0.61128339312E+03  0.15395089074E+04  0.00000000000E+00 0.  1.
<mgrwt>
<rscale>  0 0.36555902E+04</rscale>
<asrwt>0</asrwt>
<pdfrwt beam="1">  1        1 0.39017875E+00 0.36555902E+04</pdfrwt>
<pdfrwt beam="2">  1       -1 0.20265844E+00 0.36555902E+04</pdfrwt>
<totfact> 0.14854489E-01</totfact>
</mgrwt>
</event>
<event>
 6    1  0.1528034E-005  0.1051449E+04  0.7818608E-02  0.9253849E-01
          1   -1    0    0  501    0  0.00000000000E+00  0.00000000000E+00  0.80512530160E+03  0.80512530160E+03  0.00000000000E+00 0. -1.
         -1   -1    0    0    0  501 -0.00000000000E+00 -0.00000000000E+00 -0.34328383595E+03  0.34328383595E+03  0.00000000000E+00 0.  1.
         23    2    1    2    0    0  0.12114907402E+03 -0.40512244168E+03 -0.10114054784E+03  0.44431394626E+03  0.91565176433E+02 0.  0.
         13    1    3    3    0    0  0.79521626816E+02 -0.24900433643E+03 -0.16500664671E+02  0.26191433834E+03  0.00000000000E+00 0. -1.
        -13    1    3    3    0    0  0.41627447200E+02 -0.15611810525E+03 -0.84639883164E+02  0.18239960792E+03  0.00000000000E+00 0.  1.
         22    1    1    2    0    0 -0.12114907402E+03  0.40512244168E+03  0.56298201349E+03  0.70409519129E+03  0.00000000000E+00 0. -1.
<mgrwt>
<rscale>  0 0.10514495E+04</rscale>
<asrwt>0</asrwt>
<pdfrwt beam="1">  1        1 0.12386543E+00 0.10514495E+04</pdfrwt>
<pdfrwt beam="2">  1       -1 0.52812898E-01 0.10514495E+04</pdfrwt>
<totfact> 0.79034805E+01</totfact>
</mgrwt>
</event>
<event>
 6    1  0.1528034E-005  0.2542341E+04  0.7818608E-02  0.8388055E-01
         -1   -1    0    0    0  501 -0.00000000000E+00  0.00000000000E+00  0.13099771261E+04  0.13099771261E+04  0.00000000000E+00 0.  1.
          1   -1    0    0  501    0  0.00000000000E+00 -0.00000000000E+00 -0.12335135217E+04  0.12335135217E+04  0.00000000000E+00 0. -1.
         23    2    1    2    0    0  0.24997453859E+02 -0.35868057275E+03  0.12564071307E+04  0.13099820944E+04  0.90650888659E+02 0.  0.
         13    1    3    3    0    0 -0.27485231553E+02 -0.45285124632E+02  0.18854884616E+03  0.19584904354E+03  0.00000000000E+00 0.  1.
        -13    1    3    3    0    0  0.52482685411E+02 -0.31339544812E+03  0.10678582845E+04  0.11141330509E+04  0.00000000000E+00 0. -1.
         22    1    1    2    0    0 -0.24997453859E+02  0.35868057275E+03 -0.11799435263E+04  0.12335085533E+04  0.00000000000E+00 0. -1.
<mgrwt>
<rscale>  0 0.25423410E+04</rscale>
<asrwt>0</asrwt>
<pdfrwt beam="1">  1        1 0.18977131E+00 0.25423410E+04</pdfrwt>
<pdfrwt beam="2">  1       -1 0.20153494E+00 0.25423410E+04</pdfrwt>
<totfact> 0.13132813E+00</totfact>
</mgrwt>
</event>
<event>
 6    1  0.1528034E-005  0.7090893E+03  0.7818608E-02  0.9701813E-01
         -1   -1    0    0    0  501 -0.00000000000E+00  0.00000000000E+00  0.41749496416E+03  0.41749496416E+03  0.00000000000E+00 0.  1.
          1   -1    0    0  501    0  0.00000000000E+00 -0.00000000000E+00 -0.30108608504E+03  0.30108608504E+03  0.00000000000E+00 0. -1.
         23    2    1    2    0    0  0.92002416782E+02  0.22590006091E+03 -0.19231085294E+03  0.32513072809E+03  0.96079362900E+02 0.  0.
         11    1    3    3    0    0 -0.19308898055E+02  0.48589524660E+02 -0.46833604605E+02  0.70193745954E+02  0.00000000000E+00 0.  1.
        -11    1    3    3    0    0  0.11131131484E+03  0.17731053625E+03 -0.14547724834E+03  0.25493698214E+03  0.00000000000E+00 0. -1.
         22    1    1    2    0    0 -0.92002416782E+02 -0.22590006091E+03  0.30871973207E+03  0.39345032111E+03  0.00000000000E+00 0.  1.
<mgrwt>
<rscale>  0 0.70908934E+03</rscale>
<asrwt>0</asrwt>
<pdfrwt beam="1">  1        1 0.46320936E-01 0.70908934E+03</pdfrwt>
<pdfrwt beam="2">  1       -1 0.64229994E-01 0.70908934E+03</pdfrwt>
<totfact> 0.21756826E+02</totfact>
</mgrwt>
</event>
<event>
 6    1  0.1528034E-005  0.1620946E+04  0.7818608E-02  0.8807783E-01
          1   -1    0    0  501    0  0.00000000000E+00  0.00000000000E+00  0.19932063211E+04  0.19932063211E+04  0.00000000000E+00 0. -1.
         -1   -1    0    0    0  501 -0.00000000000E+00 -0.00000000000E+00 -0.32955252586E+03  0.32955252586E+03  0.00000000000E+00 0.  1.
         23    2    1    2    0    0  0.46811975670E+03 -0.42227630445E+03  0.11057077992E+03  0.64659649313E+03  0.91693749165E+02 0.  0.
         11    1    3    3    0    0  0.27019161930E+03 -0.18937352707E+03  0.35392825144E+02  0.33184107035E+03  0.00000000000E+00 0. -1.
        -11    1    3    3    0    0  0.19792813740E+03 -0.23290277738E+03  0.75177954777E+02  0.31475542278E+03  0.00000000000E+00 0.  1.
         22    1    1    2    0    0 -0.46811975670E+03  0.42227630445E+03  0.15530830153E+04  0.16761623538E+04  0.00000000000E+00 0. -1.
<mgrwt>
<rscale>  0 0.16209456E+04</rscale>
<asrwt>0</asrwt>
<pdfrwt beam="1">  1        1 0.30664712E+00 0.16209456E+04</pdfrwt>
<pdfrwt beam="2">  1       -1 0.50700390E-01 0.16209456E+04</pdfrwt>
<totfact> 0.11280656E+01</totfact>
</mgrwt>
</event>
<event>
 6    1  0.1528034E-005  0.2678750E+04  0.7818608E-02  0.8341933E-01
          2   -1    0    0  501    0  0.00000000000E+00  0.00000000000E+00  0.14062833852E+04  0.14062833852E+04  0.00000000000E+00 0. -1.
         -2   -1    0    0    0  501 -0.00000000000E+00 -0.00000000000E+00 -0.12756500584E+04  0.12756500584E+04  0.00000000000E+00 0.  1.
         23    2    1    2    0    0  0.72603380156E+03 -0.69949017804E+02  0.11881829264E+04  0.13972431689E+04  0.92151290811E+02 0.  0.
         13    1    3    3    0    0  0.63203211422E+03 -0.63650874349E+02  0.96879481282E+03  0.11584815133E+04  0.00000000000E+00 0. -1.
        -13    1    3    3    0    0  0.94001687344E+02 -0.62981434549E+01  0.21938811358E+03  0.23876165566E+03  0.00000000000E+00 0.  1.
         22    1    1    2    0    0 -0.72603380156E+03  0.69949017804E+02 -0.10575495996E+04  0.12846902746E+04  0.00000000000E+00 0.  1.
<mgrwt>
<rscale>  0 0.26787501E+04</rscale>
<asrwt>0</asrwt>
<pdfrwt beam="1">  1        2 0.21635129E+00 0.26787501E+04</pdfrwt>
<pdfrwt beam="2">  1       -2 0.19625386E+00 0.26787501E+04</pdfrwt>
<totfact> 0.17758724E+00</totfact>
</mgrwt>
</event>
<event>
 6    1  0.1528034E-005  0.4264512E+04  0.7818608E-02  0.7953213E-01
         -1   -1    0    0    0  501 -0.00000000000E+00  0.00000000000E+00  0.16347414750E+04  0.16347414750E+04  0.00000000000E+00 0.  1.
          1   -1    0    0  501    0  0.00000000000E+00 -0.00000000000E+00 -0.27811828331E+04  0.27811828331E+04  0.00000000000E+00 0. -1.
         23    2    1    2    0    0 -0.11252231200E+04  0.29628560398E+03  0.12763220899E+04  0.17282310678E+04  0.62227946762E+02 0.  0.
         11    1    3    3    0    0 -0.21337254106E+03  0.70425366045E+02  0.21694795618E+03  0.31233633979E+03  0.00000000000E+00 0.  1.
        -11    1    3    3    0    0 -0.91185057896E+03  0.22586023793E+03  0.10593741337E+04  0.14158947280E+04  0.00000000000E+00 0. -1.
         22    1    1    2    0    0  0.11252231200E+04 -0.29628560398E+03 -0.24227634481E+04  0.26876932404E+04  0.00000000000E+00 0. -1.
<mgrwt>
<rscale>  0 0.42645117E+04</rscale>
<asrwt>0</asrwt>
<pdfrwt beam="1">  1        1 0.42787428E+00 0.42645117E+04</pdfrwt>
<pdfrwt beam="2">  1       -1 0.25149869E+00 0.42645117E+04</pdfrwt>
<totfact> 0.44872155E-02</totfact>
</mgrwt>
</event>
<event>
 6    1  0.1528034E-005  0.1423249E+04  0.7818608E-02  0.8937159E-01
          1   -1    0    0  501    0  0.00000000000E+00  0.00000000000E+00  0.11700574794E+04  0.11700574794E+04  0.00000000000E+00 0. -1.
         -1   -1    0    0    0  501 -0.00000000000E+00 -0.00000000000E+00 -0.43280754852E+03  0.43280754852E+03  0.00000000000E+00 0.  1.
         23    2    1    2    0    0  0.32228144787E+03 -0.62359597938E+03  0.48028597400E+03  0.85535733411E+03  0.90687788849E+02 0.  0.
         13    1    3    3    0    0  0.31415443173E+03 -0.54756211841E+03  0.43109609034E+03  0.76443516376E+03  0.00000000000E+00 0.  1.
        -13    1    3    3    0    0  0.81270161457E+01 -0.76033860967E+02  0.49189883660E+02  0.90922170341E+02  0.00000000000E+00 0. -1.
         22    1    1    2    0    0 -0.32228144787E+03  0.62359597938E+03  0.25696395685E+03  0.74750769378E+03  0.00000000000E+00 0.  1.
<mgrwt>
<rscale>  0 0.14232494E+04</rscale>
<asrwt>0</asrwt>
<pdfrwt beam="1">  1        1 0.18000884E+00 0.14232494E+04</pdfrwt>
<pdfrwt beam="2">  1       -1 0.66585777E-01 0.14232494E+04</pdfrwt>
<totfact> 0.25004773E+01</totfact>
</mgrwt>
</event>
<event>
 6    1  0.1528034E-005  0.1304348E+04  0.7818608E-02  0.9026124E-01
         -2   -1    0    0    0  501 -0.00000000000E+00  0.00000000000E+00  0.20861828256E+03  0.20861828256E+03  0.00000000000E+00 0.  1.
          2   -1    0    0  501    0  0.00000000000E+00 -0.00000000000E+00 -0.20388001661E+04  0.20388001661E+04  0.00000000000E+00 0. -1.
         23    2    1    2    0    0  0.34810104498E+03 -0.42210421169E+02 -0.18604589180E+04  0.18954628321E+04  0.92281661744E+02 0.  0.
         11    1    3    3    0    0  0.18162178251E+03 -0.59762219024E+02 -0.85075604653E+03  0.87197697528E+03  0.00000000000E+00 0. -1.
        -11    1    3    3    0    0  0.16647926247E+03  0.17551797855E+02 -0.10097028715E+04  0.10234858568E+04  0.00000000000E+00 0.  1.
         22    1    1    2    0    0 -0.34810104498E+03  0.42210421169E+02  0.30277034526E+02  0.35195561651E+03  0.00000000000E+00 0.  1.
<mgrwt>
<rscale>  0 0.13043481E+04</rscale>
<asrwt>0</asrwt>
<pdfrwt beam="1">  1        2 0.31366157E+00 0.13043481E+04</pdfrwt>
<pdfrwt beam="2">  1       -2 0.32095120E-01 0.13043481E+04</pdfrwt>
<totfact> 0.56328747E+01</totfact>
</mgrwt>
</event>
<event>
 6    1  0.1528034E-005  0.2603948E+04  0.7818608E-02  0.8366861E-01
         -1   -1    0    0    0  501 -0.00000000000E+00  0.00000000000E+00  0.22188014730E+04  0.22188014730E+04  0.00000000000E+00 0.  1.
          1   -1    0    0  501    0  0.00000000000E+00 -0.00000000000E+00 -0.76398749006E+03  0.76398749006E+03  0.00000000000E+00 0. -1.
         23    2    1    2    0    0  0.55737503863E+02  0.12975041406E+04  0.79959394197E+03  0.15281629059E+04  0.96476581483E+02 0.  0.
         13    1    3    3    0    0  0.11919077946E+02  0.10810724234E+04  0.67652897450E+03  0.12753631257E+04  0.00000000000E+00 0. -1.
        -13    1    3    3    0    0  0.43818425917E+02  0.21643171718E+03  0.12306496747E+03  0.25279978020E+03  0.00000000000E+00 0.  1.
         22    1    1    2    0    0 -0.55737503863E+02 -0.12975041406E+04  0.65522004099E+03  0.14546260572E+04  0.00000000000E+00 0. -1.
<mgrwt>
<rscale>  0 0.26039482E+04</rscale>
<asrwt>0</asrwt>
<pdfrwt beam="1">  1        1 0.11753654E+00 0.26039482E+04</pdfrwt>
<pdfrwt beam="2">  1       -1 0.34135407E+00 0.26039482E+04</pdfrwt>
<totfact> 0.37134873E-01</totfact>
</mgrwt>
</event>
<event>
 6    1  0.1528034E-005  0.2218223E+04  0.7818608E-02  0.8510881E-01
          2   -1    0    0  501    0  0.00000000000E+00  0.00000000000E+00  0.36459531302E+04  0.36459531302E+04  0.00000000000E+00 0. -1.
         -2   -1    0    0    0  501 -0.00000000000E+00 -0.00000000000E+00 -0.33739551992E+03  0.33739551992E+03  0.00000000000E+00 0.  1.
         23    2    1    2    0    0 -0.87389502325E+03  0.15218995719E+03  0.46776807736E+03  0.10072875847E+04  0.94694294240E+02 0.  0.
         11    1    3    3    0    0 -0.35043079840E+03  0.32070990586E+02  0.14431305214E+03  0.38033741588E+03  0.00000000000E+00 0.  1.
        -11    1    3    3    0    0 -0.52346422485E+03  0.12011896661E+03  0.32345502522E+03  0.62695016881E+03  0.00000000000E+00 0. -1.
         22    1    1    2    0    0  0.87389502325E+03 -0.15218995719E+03  0.28407895329E+04  0.29760610654E+04  0.00000000000E+00 0. -1.
<mgrwt>
<rscale>  0 0.22182229E+04</rscale>
<asrwt>0</asrwt>
<pdfrwt beam="1">  1        2 0.56091584E+00 0.22182229E+04</pdfrwt>
<pdfrwt beam="2">  1       -2 0.51907005E-01 0.22182229E+04</pdfrwt>
<totfact> 0.20541981E+00</totfact>
</mgrwt>
</event>
<event>
 6    1  0.1528034E-005  0.2356204E+04  0.7818608E-02  0.8456084E-01
         -2   -1    0    0    0  501 -0.00000000000E+00  0.00000000000E+00  0.37518938312E+03  0.37518938312E+03  0.00000000000E+00 0. -1.
          2   -1    0    0  501    0  0.00000000000E+00 -0.00000000000E+00 -0.36992646747E+04  0.36992646747E+04  0.00000000000E+00 0.  1.
         23    2    1    2    0    0  0.10716612003E+04 -0.55162521843E+02 -0.83126813096E+03  0.13604923462E+04  0.91826392784E+02 0.  0.
         13    1    3    3    0    0  0.91515472583E+03 -0.71652634493E+02 -0.68186252813E+03  0.11434941100E+04  0.00000000000E+00 0.  1.
        -13    1    3    3    0    0  0.15650647449E+03  0.16490112650E+02 -0.14940560283E+03  0.21699823624E+03  0.00000000000E+00 0. -1.
         22    1    1    2    0    0 -0.10716612003E+04  0.55162521843E+02 -0.24928071606E+04  0.27139617116E+04  0.00000000000E+00 0.  1.
<mgrwt>
<rscale>  0 0.23562044E+04</rscale>
<asrwt>0</asrwt>
<pdfrwt beam="1">  1        2 0.56911767E+00 0.23562044E+04</pdfrwt>
<pdfrwt beam="2">  1       -2 0.57721441E-01 0.23562044E+04</pdfrwt>
<totfact> 0.14870527E+00</totfact>
</mgrwt>
</event>
<event>
 6    1  0.1528034E-005  0.1250948E+04  0.7818608E-02  0.9069395E-01
         -2   -1    0    0    0  501 -0.00000000000E+00  0.00000000000E+00  0.78840859754E+03  0.78840859754E+03  0.00000000000E+00 0.  1.
          2   -1    0    0  501    0  0.00000000000E+00 -0.00000000000E+00 -0.49621170936E+03  0.49621170936E+03  0.00000000000E+00 0. -1.
         23    2    1    2    0    0 -0.59731223041E+03  0.41356817613E+02 -0.26138379749E+02  0.60651291882E+03  0.93179497990E+02 0.  0.
         11    1    3    3    0    0 -0.47067125782E+03  0.69917881207E+02 -0.28252138901E+02  0.47667402531E+03  0.00000000000E+00 0.  1.
        -11    1    3    3    0    0 -0.12664097258E+03 -0.28561063594E+02  0.21137591529E+01  0.12983889351E+03  0.00000000000E+00 0. -1.
         22    1    1    2    0    0  0.59731223041E+03 -0.41356817613E+02  0.31833526793E+03  0.67810738807E+03  0.00000000000E+00 0.  1.
<mgrwt>
<rscale>  0 0.12509478E+04</rscale>
<asrwt>0</asrwt>
<pdfrwt beam="1">  1        2 0.76340263E-01 0.12509478E+04</pdfrwt>
<pdfrwt beam="2">  1       -2 0.12129363E+00 0.12509478E+04</pdfrwt>
<totfact> 0.31577773E+01</totfact>
</mgrwt>
</event>
<event>
 6    1  0.1528034E-005  0.1342712E+04  0.7818608E-02  0.8996363E-01
          1   -1    0    0  501    0  0.00000000000E+00  0.00000000000E+00  0.14920398287E+04  0.14920398287E+04  0.00000000000E+00 0. -1.
         -1   -1    0    0    0  501 -0.00000000000E+00 -0.00000000000E+00 -0.30208249937E+03  0.30208249937E+03  0.00000000000E+00 0.  1.
         23    2    1    2    0    0 -0.39416408766E+03 -0.51264448397E+03  0.82297253931E+03  0.10505851528E+04  0.90970697410E+02 0.  0.
         11    1    3    3    0    0 -0.18880158121E+03 -0.20972014187E+03  0.42257732686E+03  0.50813401003E+03  0.00000000000E+00 0. -1.
        -11    1    3    3    0    0 -0.20536250644E+03 -0.30292434210E+03  0.40039521245E+03  0.54245114272E+03  0.00000000000E+00 0.  1.
         22    1    1    2    0    0  0.39416408766E+03  0.51264448397E+03  0.36698478999E+03  0.74353717528E+03  0.00000000000E+00 0.  1.
<mgrwt>
<rscale>  0 0.13427124E+04</rscale>
<asrwt>0</asrwt>
<pdfrwt beam="1">  1        1 0.22954458E+00 0.13427124E+04</pdfrwt>
<pdfrwt beam="2">  1       -1 0.46474232E-01 0.13427124E+04</pdfrwt>
<totfact> 0.29910230E+01</totfact>
</mgrwt>
</event>
<event>
 6    1  0.1528034E-005  0.6693368E+04  0.7818608E-02  0.7609912E-01
          2   -1    0    0  501    0  0.00000000000E+00  0.00000000000E+00  0.50095898045E+04  0.50095898045E+04  0.00000000000E+00 0. -1.
         -2   -1    0    0    0  501 -0.00000000000E+00 -0.00000000000E+00 -0.22357704896E+04  0.22357704896E+04  0.00000000000E+00 0.  1.
         23    2    1    2    0    0  0.93913323268E+02  0.12411715994E+04  0.47492355305E+04  0.49104950139E+04  0.91632452720E+02 0.  0.
         11    1    3    3    0    0  0.60402218409E+02  0.10395418659E+04  0.40766836688E+04  0.42075700178E+04  0.00000000000E+00 0. -1.
        -11    1    3    3    0    0  0.33511104859E+02  0.20162973348E+03  0.67255186169E+03  0.70292499617E+03  0.00000000000E+00 0.  1.
         22    1    1    2    0    0 -0.93913323268E+02 -0.12411715994E+04 -0.19754162157E+04  0.23348652802E+04  0.00000000000E+00 0.  1.
<mgrwt>
<rscale>  0 0.66933678E+04</rscale>
<asrwt>0</asrwt>
<pdfrwt beam="1">  1        2 0.77070612E+00 0.66933678E+04</pdfrwt>
<pdfrwt beam="2">  1       -2 0.34396469E+00 0.66933678E+04</pdfrwt>
<totfact> 0.35322754E-04</totfact>
</mgrwt>
</event>
<event>
 6    1  0.1528034E-005  0.1289053E+04  0.7818608E-02  0.9038292E-01
         -2   -1    0    0    0  501 -0.00000000000E+00  0.00000000000E+00  0.19840955304E+03  0.19840955304E+03  0.00000000000E+00 0.  1.
          2   -1    0    0  501    0  0.00000000000E+00 -0.00000000000E+00 -0.20937215901E+04  0.20937215901E+04  0.00000000000E+00 0. -1.
         23    2    1    2    0    0 -0.43408577516E+03 -0.46450723291E+03 -0.80291149355E+03  0.10281942867E+04  0.91209621572E+02 0.  0.
         13    1    3    3    0    0 -0.16847462742E+03 -0.24430409297E+03 -0.39137456583E+03  0.49116416879E+03  0.00000000000E+00 0. -1.
        -13    1    3    3    0    0 -0.26561114774E+03 -0.22020313995E+03 -0.41153692772E+03  0.53703011789E+03  0.00000000000E+00 0.  1.
         22    1    1    2    0    0  0.43408577516E+03  0.46450723291E+03 -0.10924005435E+04  0.12639368564E+04  0.00000000000E+00 0. -1.
<mgrwt>
<rscale>  0 0.12890529E+04</rscale>
<asrwt>0</asrwt>
<pdfrwt beam="1">  1        2 0.32211102E+00 0.12890529E+04</pdfrwt>
<pdfrwt beam="2">  1       -2 0.30524546E-01 0.12890529E+04</pdfrwt>
<totfact> 0.57766520E+01</totfact>
</mgrwt>
</event>
<event>
 6    1  0.1528034E-005  0.4134192E+04  0.7818608E-02  0.7978010E-01
         -2   -1    0    0    0  501 -0.00000000000E+00  0.00000000000E+00  0.12648887250E+04  0.12648887250E+04  0.00000000000E+00 0.  1.
          2   -1    0    0  501    0  0.00000000000E+00 -0.00000000000E+00 -0.33780731399E+04  0.33780731399E+04  0.00000000000E+00 0. -1.
         23    2    1    2    0    0  0.28363000470E+03 -0.39657611806E+02 -0.33550510383E+04  0.33685006390E+04  0.91708121971E+02 0.  0.
         11    1    3    3    0    0  0.19222427940E+03 -0.62741876149E+02 -0.25339984765E+04  0.25420533030E+04  0.00000000000E+00 0. -1.
        -11    1    3    3    0    0  0.91405725299E+02  0.23084264342E+02 -0.82105256185E+03  0.82644733601E+03  0.00000000000E+00 0.  1.
         22    1    1    2    0    0 -0.28363000470E+03  0.39657611806E+02  0.12418666234E+04  0.12744612258E+04  0.00000000000E+00 0.  1.
<mgrwt>
<rscale>  0 0.41341924E+04</rscale>
<asrwt>0</asrwt>
<pdfrwt beam="1">  1        2 0.51970356E+00 0.41341924E+04</pdfrwt>
<pdfrwt beam="2">  1       -2 0.19459827E+00 0.41341924E+04</pdfrwt>
<totfact> 0.11104043E-01</totfact>
</mgrwt>
</event>
<event>
 6    1  0.1528034E-005  0.1409537E+04  0.7818608E-02  0.8946944E-01
         -1   -1    0    0    0  501 -0.00000000000E+00  0.00000000000E+00  0.74795394037E+03  0.74795394037E+03  0.00000000000E+00 0.  1.
          1   -1    0    0  501    0  0.00000000000E+00 -0.00000000000E+00 -0.66407682972E+03  0.66407682972E+03  0.00000000000E+00 0. -1.
         23    2    1    2    0    0  0.43511469204E+02 -0.41488778128E+03 -0.52321140844E+03  0.67542939280E+03  0.91812677396E+02 0.  0.
         11    1    3    3    0    0  0.29818646707E+02 -0.94190862722E+02 -0.18118150260E+03  0.20636813513E+03  0.00000000000E+00 0.  1.
        -11    1    3    3    0    0  0.13692822497E+02 -0.32069691856E+03 -0.34202990583E+03  0.46906125767E+03  0.00000000000E+00 0. -1.
         22    1    1    2    0    0 -0.43511469204E+02  0.41488778128E+03  0.60708851908E+03  0.73660137728E+03  0.00000000000E+00 0.  1.
<mgrwt>
<rscale>  0 0.14095373E+04</rscale>
<asrwt>0</asrwt>
<pdfrwt beam="1">  1        1 0.10216567E+00 0.14095373E+04</pdfrwt>
<pdfrwt beam="2">  1       -1 0.11506984E+00 0.14095373E+04</pdfrwt>
<totfact> 0.19707548E+01</totfact>
</mgrwt>
</event>
<event>
 6    1  0.1528034E-005  0.6615971E+03  0.7818608E-02  0.9785258E-01
         -1   -1    0    0    0  501 -0.00000000000E+00  0.00000000000E+00  0.26440320854E+03  0.26440320854E+03  0.00000000000E+00 0.  1.
          1   -1    0    0  501    0  0.00000000000E+00 -0.00000000000E+00 -0.41386670268E+03  0.41386670268E+03  0.00000000000E+00 0. -1.
         23    2    1    2    0    0  0.19891892763E+03  0.25191137251E+03 -0.26403922026E+02  0.33450874753E+03  0.90392785685E+02 0.  0.
         11    1    3    3    0    0  0.35438844052E+01  0.53232264996E+02 -0.15874293807E+02  0.55661713567E+02  0.00000000000E+00 0.  1.
        -11    1    3    3    0    0  0.19537504323E+03  0.19867910752E+03 -0.10529628219E+02  0.27884703396E+03  0.00000000000E+00 0. -1.
         22    1    1    2    0    0 -0.19891892763E+03 -0.25191137251E+03 -0.12305957212E+03  0.34376116369E+03  0.00000000000E+00 0. -1.
<mgrwt>
<rscale>  0 0.66159711E+03</rscale>
<asrwt>0</asrwt>
<pdfrwt beam="1">  1        1 0.63671800E-01 0.66159711E+03</pdfrwt>
<pdfrwt beam="2">  1       -1 0.40677417E-01 0.66159711E+03</pdfrwt>
<totfact> 0.34289544E+02</totfact>
</mgrwt>
</event>
<event>
 6    1  0.1528034E-005  0.2144990E+04  0.7818608E-02  0.8541680E-01
          2   -1    0    0  501    0  0.00000000000E+00  0.00000000000E+00  0.18083211903E+04  0.18083211903E+04  0.00000000000E+00 0. -1.
         -2   -1    0    0    0  501 -0.00000000000E+00 -0.00000000000E+00 -0.63608480261E+03  0.63608480261E+03  0.00000000000E+00 0.  1.
         23    2    1    2    0    0  0.10139103320E+04  0.30404867246E+03  0.40369339377E+03  0.11363088672E+04  0.88146066053E+02 0.  0.
         11    1    3    3    0    0  0.33432310816E+03  0.13591122165E+03  0.16316264412E+03  0.39606293598E+03  0.00000000000E+00 0. -1.
        -11    1    3    3    0    0  0.67958722389E+03  0.16813745081E+03  0.24053074965E+03  0.74024593127E+03  0.00000000000E+00 0.  1.
         22    1    1    2    0    0 -0.10139103320E+04 -0.30404867246E+03  0.76854299388E+03  0.13080971256E+04  0.00000000000E+00 0. -1.
<mgrwt>
<rscale>  0 0.21449901E+04</rscale>
<asrwt>0</asrwt>
<pdfrwt beam="1">  1        2 0.27820326E+00 0.21449901E+04</pdfrwt>
<pdfrwt beam="2">  1       -2 0.97859201E-01 0.21449901E+04</pdfrwt>
<totfact> 0.68145980E+00</totfact>
</mgrwt>
</event>
<event>
 6    1  0.2944264E-005  0.2664848E+04  0.7818608E-02  0.8346501E-01
         -2   -1    0    0    0  501 -0.00000000000E+00  0.00000000000E+00  0.11683872581E+04  0.11683872581E+04  0.00000000000E+00 0. -1.
          2   -1    0    0  501    0  0.00000000000E+00 -0.00000000000E+00 -0.15194912333E+04  0.15194912333E+04  0.00000000000E+00 0.  1.
         23    2    1    2    0    0 -0.79533762305E+03  0.19894306012E+02 -0.12516573054E+04  0.14862321131E+04  0.96343997907E+02 0.  0.
         13    1    3    3    0    0 -0.26268860492E+03 -0.43165510435E+01 -0.49768473596E+03  0.56277351766E+03  0.00000000000E+00 0.  1.
        -13    1    3    3    0    0 -0.53264901813E+03  0.24210857055E+02 -0.75397256942E+03  0.92345859547E+03  0.00000000000E+00 0. -1.
         22    1    1    2    0    0  0.79533762305E+03 -0.19894306012E+02  0.90055333011E+03  0.12016463783E+04  0.00000000000E+00 0. -1.
<mgrwt>
<rscale>  0 0.26648484E+04</rscale>
<asrwt>0</asrwt>
<pdfrwt beam="1">  1        2 0.23376788E+00 0.26648484E+04</pdfrwt>
<pdfrwt beam="2">  1       -2 0.17975189E+00 0.26648484E+04</pdfrwt>
<totfact> 0.19825864E+00</totfact>
</mgrwt>
</event>
<event>
 6    1  0.1528034E-005  0.3212499E+04  0.7818608E-02  0.8185524E-01
         -2   -1    0    0    0  501 -0.00000000000E+00  0.00000000000E+00  0.10181265260E+04  0.10181265260E+04  0.00000000000E+00 0.  1.
          2   -1    0    0  501    0  0.00000000000E+00 -0.00000000000E+00 -0.25341037440E+04  0.25341037440E+04  0.00000000000E+00 0. -1.
         23    2    1    2    0    0 -0.54628595601E+03  0.35029384983E+02  0.90952953831E+03  0.10657189733E+04  0.94114533457E+02 0.  0.
         13    1    3    3    0    0 -0.34187776539E+03  0.30793094219E+02  0.48107977130E+03  0.59098762041E+03  0.00000000000E+00 0.  1.
        -13    1    3    3    0    0 -0.20440819062E+03  0.42362907646E+01  0.42844976701E+03  0.47473135287E+03  0.00000000000E+00 0. -1.
         22    1    1    2    0    0  0.54628595601E+03 -0.35029384983E+02 -0.24255067563E+04  0.24865112967E+04  0.00000000000E+00 0. -1.
<mgrwt>
<rscale>  0 0.32124995E+04</rscale>
<asrwt>0</asrwt>
<pdfrwt beam="1">  1        2 0.38986211E+00 0.32124995E+04</pdfrwt>
<pdfrwt beam="2">  1       -2 0.15663485E+00 0.32124995E+04</pdfrwt>
<totfact> 0.74640769E-01</totfact>
</mgrwt>
</event>
<event>
 6    1  0.1528034E-005  0.3557556E+04  0.7818608E-02  0.8100284E-01
          2   -1    0    0  501    0  0.00000000000E+00  0.00000000000E+00  0.18124725069E+04  0.18124725069E+04  0.00000000000E+00 0. -1.
         -2   -1    0    0    0  501 -0.00000000000E+00 -0.00000000000E+00 -0.17457100040E+04  0.17457100040E+04  0.00000000000E+00 0.  1.
         23    2    1    2    0    0  0.49544780449E+03  0.17020284521E+04 -0.99219272230E+02  0.17777557843E+04  0.90563710441E+02 0.  0.
         11    1    3    3    0    0  0.24723368395E+03  0.76337330260E+03 -0.83105568108E+02  0.80670306127E+03  0.00000000000E+00 0. -1.
        -11    1    3    3    0    0  0.24821412054E+03  0.93865514955E+03 -0.16113704122E+02  0.97105272301E+03  0.00000000000E+00 0.  1.
         22    1    1    2    0    0 -0.49544780449E+03 -0.17020284521E+04  0.16598177513E+03  0.17804267265E+04  0.00000000000E+00 0. -1.
<mgrwt>
<rscale>  0 0.35575561E+04</rscale>
<asrwt>0</asrwt>
<pdfrwt beam="1">  1        2 0.27884192E+00 0.35575561E+04</pdfrwt>
<pdfrwt beam="2">  1       -2 0.26857077E+00 0.35575561E+04</pdfrwt>
<totfact> 0.34347614E-01</totfact>
</mgrwt>
</event>
<event>
 6    1  0.1528034E-005  0.1671850E+04  0.7818608E-02  0.8777584E-01
         -2   -1    0    0    0  501 -0.00000000000E+00  0.00000000000E+00  0.31103374655E+03  0.31103374655E+03  0.00000000000E+00 0.  1.
          2   -1    0    0  501    0  0.00000000000E+00 -0.00000000000E+00 -0.22466068903E+04  0.22466068903E+04  0.00000000000E+00 0. -1.
         23    2    1    2    0    0 -0.23364395136E+03  0.45028400497E+03 -0.19822994548E+04  0.20482012104E+04  0.90949923500E+02 0.  0.
         11    1    3    3    0    0 -0.17389458607E+03  0.23746070929E+03 -0.11363254810E+04  0.11738238855E+04  0.00000000000E+00 0.  1.
        -11    1    3    3    0    0 -0.59749365292E+02  0.21282329569E+03 -0.84597397381E+03  0.87437732484E+03  0.00000000000E+00 0. -1.
         22    1    1    2    0    0  0.23364395136E+03 -0.45028400497E+03  0.46726310999E+02  0.50943942651E+03  0.00000000000E+00 0.  1.
<mgrwt>
<rscale>  0 0.16718499E+04</rscale>
<asrwt>0</asrwt>
<pdfrwt beam="1">  1        2 0.34563183E+00 0.16718499E+04</pdfrwt>
<pdfrwt beam="2">  1       -2 0.47851345E-01 0.16718499E+04</pdfrwt>
<totfact> 0.19194528E+01</totfact>
</mgrwt>
</event>
<event>
 6    1  0.1528034E-005  0.2844018E+04  0.7818608E-02  0.8289731E-01
          1   -1    0    0  501    0  0.00000000000E+00  0.00000000000E+00  0.25684874572E+04  0.25684874572E+04  0.00000000000E+00 0. -1.
         -1   -1    0    0    0  501 -0.00000000000E+00 -0.00000000000E+00 -0.78727653981E+03  0.78727653981E+03  0.00000000000E+00 0.  1.
         23    2    1    2    0    0  0.70187550921E+03 -0.84192647711E+03 -0.17511160136E+03  0.11132949960E+04  0.85394682522E+02 0.  0.
         11    1    3    3    0    0  0.39002278586E+03 -0.41608233499E+03 -0.11813648938E+03  0.58240751463E+03  0.00000000000E+00 0.  1.
        -11    1    3    3    0    0  0.31185272336E+03 -0.42584414212E+03 -0.56975111976E+02  0.53088748132E+03  0.00000000000E+00 0. -1.
         22    1    1    2    0    0 -0.70187550921E+03  0.84192647711E+03  0.19563225188E+04  0.22424690011E+04  0.00000000000E+00 0. -1.
<mgrwt>
<rscale>  0 0.28440182E+04</rscale>
<asrwt>0</asrwt>
<pdfrwt beam="1">  1        1 0.39515191E+00 0.28440182E+04</pdfrwt>
<pdfrwt beam="2">  1       -1 0.12111947E+00 0.28440182E+04</pdfrwt>
<totfact> 0.63321675E-01</totfact>
</mgrwt>
</event>
<event>
 6    1  0.1528034E-005  0.1158711E+04  0.7818608E-02  0.9149784E-01
         -1   -1    0    0    0  501 -0.00000000000E+00  0.00000000000E+00  0.31071047836E+03  0.31071047836E+03  0.00000000000E+00 0.  1.
          1   -1    0    0  501    0  0.00000000000E+00 -0.00000000000E+00 -0.10802759561E+04  0.10802759561E+04  0.00000000000E+00 0. -1.
         23    2    1    2    0    0  0.16904733736E+03 -0.55499166124E+02 -0.10447854036E+04  0.10632622100E+04  0.85398056095E+02 0.  0.
         13    1    3    3    0    0  0.30834729065E+02 -0.61619114402E+01 -0.43224042923E+03  0.43338266963E+03  0.00000000000E+00 0.  1.
        -13    1    3    3    0    0  0.13821260830E+03 -0.49337254683E+02 -0.61254497435E+03  0.62987954039E+03  0.00000000000E+00 0. -1.
         22    1    1    2    0    0 -0.16904733736E+03  0.55499166124E+02  0.27521992585E+03  0.32772422445E+03  0.00000000000E+00 0.  1.
<mgrwt>
<rscale>  0 0.11587115E+04</rscale>
<asrwt>0</asrwt>
<pdfrwt beam="1">  1        1 0.16619630E+00 0.11587115E+04</pdfrwt>
<pdfrwt beam="2">  1       -1 0.47801612E-01 0.11587115E+04</pdfrwt>
<totfact> 0.56916338E+01</totfact>
</mgrwt>
</event>
<event>
 6    1  0.1528034E-005  0.2005284E+04  0.7818608E-02  0.8604154E-01
          2   -1    0    0  501    0  0.00000000000E+00  0.00000000000E+00  0.14632165937E+04  0.14632165937E+04  0.00000000000E+00 0. -1.
         -2   -1    0    0    0  501 -0.00000000000E+00 -0.00000000000E+00 -0.68704185388E+03  0.68704185388E+03  0.00000000000E+00 0.  1.
         23    2    1    2    0    0 -0.89195166233E+03 -0.41993030120E+03  0.57181936845E+03  0.11434415111E+04  0.92530391207E+02 0.  0.
         13    1    3    3    0    0 -0.41165807279E+03 -0.24266930504E+03  0.26041706128E+03  0.54421301556E+03  0.00000000000E+00 0.  1.
        -13    1    3    3    0    0 -0.48029358954E+03 -0.17726099615E+03  0.31140230717E+03  0.59922849550E+03  0.00000000000E+00 0. -1.
         22    1    1    2    0    0  0.89195166233E+03  0.41993030120E+03  0.20435537134E+03  0.10068169365E+04  0.00000000000E+00 0.  1.
<mgrwt>
<rscale>  0 0.20052841E+04</rscale>
<asrwt>0</asrwt>
<pdfrwt beam="1">  1        2 0.22511024E+00 0.20052841E+04</pdfrwt>
<pdfrwt beam="2">  1       -2 0.10569875E+00 0.20052841E+04</pdfrwt>
<totfact> 0.89487312E+00</totfact>
</mgrwt>
</event>
<event>
 6    1  0.1528034E-005  0.5280680E+04  0.7818608E-02  0.7786610E-01
          2   -1    0    0  501    0  0.00000000000E+00  0.00000000000E+00  0.31856409755E+04  0.31856409755E+04  0.00000000000E+00 0. -1.
         -2   -1    0    0    0  501 -0.00000000000E+00 -0.00000000000E+00 -0.21883810317E+04  0.21883810317E+04  0.00000000000E+00 0.  1.
         23    2    1    2    0    0 -0.20422681677E+04 -0.10482111078E+04 -0.82711235949E+03  0.24417975792E+04  0.93030999614E+02 0.  0.
         13    1    3    3    0    0 -0.15542831465E+04 -0.83324382400E+03 -0.61013635306E+03  0.18661076440E+04  0.00000000000E+00 0.  1.
        -13    1    3    3    0    0 -0.48798502121E+03 -0.21496728378E+03 -0.21697600643E+03  0.57568993512E+03  0.00000000000E+00 0. -1.
         22    1    1    2    0    0  0.20422681677E+04  0.10482111078E+04  0.18243723033E+04  0.29322244281E+04  0.00000000000E+00 0.  1.
<mgrwt>
<rscale>  0 0.52806804E+04</rscale>
<asrwt>0</asrwt>
<pdfrwt beam="1">  1        2 0.49009861E+00 0.52806804E+04</pdfrwt>
<pdfrwt beam="2">  1       -2 0.33667400E+00 0.52806804E+04</pdfrwt>
<totfact> 0.17781007E-02</totfact>
</mgrwt>
</event>
<event>
 6    1  0.1528034E-005  0.1658953E+04  0.7818608E-02  0.8785128E-01
          1   -1    0    0  501    0  0.00000000000E+00  0.00000000000E+00  0.52544633766E+04  0.52544633766E+04  0.00000000000E+00 0. -1.
         -1   -1    0    0    0  501 -0.00000000000E+00 -0.00000000000E+00 -0.13094222845E+03  0.13094222845E+03  0.00000000000E+00 0.  1.
         23    2    1    2    0    0  0.89579980647E+02  0.50899759055E+03  0.46655009412E+04  0.46948365425E+04  0.86533282084E+02 0.  0.
         11    1    3    3    0    0 -0.15774887575E+02  0.10555243763E+03  0.88682644334E+03  0.89322522623E+03  0.00000000000E+00 0.  1.
        -11    1    3    3    0    0  0.10535486822E+03  0.40344515292E+03  0.37786744978E+04  0.38016113163E+04  0.00000000000E+00 0. -1.
         22    1    1    2    0    0 -0.89579980647E+02 -0.50899759055E+03  0.45802020699E+03  0.69056906253E+03  0.00000000000E+00 0.  1.
<mgrwt>
<rscale>  0 0.16589529E+04</rscale>
<asrwt>0</asrwt>
<pdfrwt beam="1">  1        1 0.80837882E+00 0.16589529E+04</pdfrwt>
<pdfrwt beam="2">  1       -1 0.20144962E-01 0.16589529E+04</pdfrwt>
<totfact> 0.77471223E-02</totfact>
</mgrwt>
</event>
<event>
 6    1  0.1528034E-005  0.1965262E+04  0.7818608E-02  0.8623036E-01
          2   -1    0    0  501    0  0.00000000000E+00  0.00000000000E+00  0.72165781400E+03  0.72165781400E+03  0.00000000000E+00 0. -1.
         -2   -1    0    0    0  501 -0.00000000000E+00 -0.00000000000E+00 -0.13379805647E+04  0.13379805647E+04  0.00000000000E+00 0.  1.
         23    2    1    2    0    0  0.36226730693E+03  0.85162644336E+03 -0.64836103299E+03  0.11336083294E+04  0.90502014878E+02 0.  0.
         11    1    3    3    0    0  0.23585347579E+03  0.53044658936E+03 -0.35373522669E+03  0.67980074787E+03  0.00000000000E+00 0. -1.
        -11    1    3    3    0    0  0.12641383114E+03  0.32117985400E+03 -0.29462580630E+03  0.45380758153E+03  0.00000000000E+00 0.  1.
         22    1    1    2    0    0 -0.36226730693E+03 -0.85162644336E+03  0.32038282285E+02  0.92603004931E+03  0.00000000000E+00 0.  1.
<mgrwt>
<rscale>  0 0.19652625E+04</rscale>
<asrwt>0</asrwt>
<pdfrwt beam="1">  1        2 0.11102428E+00 0.19652625E+04</pdfrwt>
<pdfrwt beam="2">  1       -2 0.20584316E+00 0.19652625E+04</pdfrwt>
<totfact> 0.44701092E+00</totfact>
</mgrwt>
</event>
<event>
 6    1  0.1528034E-005  0.2988012E+04  0.7818608E-02  0.8247162E-01
         -2   -1    0    0    0  501 -0.00000000000E+00  0.00000000000E+00  0.18923006251E+04  0.18923006251E+04  0.00000000000E+00 0. -1.
          2   -1    0    0  501    0  0.00000000000E+00 -0.00000000000E+00 -0.11795451133E+04  0.11795451133E+04  0.00000000000E+00 0.  1.
         23    2    1    2    0    0  0.11660615673E+04 -0.88545165859E+03  0.58420039265E+02  0.14681378071E+04  0.91057681673E+02 0.  0.
         11    1    3    3    0    0  0.23100358144E+03 -0.20384826733E+03 -0.17104090478E+02  0.30856007623E+03  0.00000000000E+00 0. -1.
        -11    1    3    3    0    0  0.93505798583E+03 -0.68160339126E+03  0.75524129744E+02  0.11595777309E+04  0.00000000000E+00 0.  1.
         22    1    1    2    0    0 -0.11660615673E+04  0.88545165859E+03  0.65433547253E+03  0.16037079313E+04  0.00000000000E+00 0. -1.
<mgrwt>
<rscale>  0 0.29880120E+04</rscale>
<asrwt>0</asrwt>
<pdfrwt beam="1">  1        2 0.18146848E+00 0.29880120E+04</pdfrwt>
<pdfrwt beam="2">  1       -2 0.29112317E+00 0.29880120E+04</pdfrwt>
<totfact> 0.60125921E-01</totfact>
</mgrwt>
</event>
<event>
 6    1  0.1528034E-005  0.1828476E+04  0.7818608E-02  0.8691301E-01
         -1   -1    0    0    0  501 -0.00000000000E+00  0.00000000000E+00  0.14491894338E+04  0.14491894338E+04  0.00000000000E+00 0.  1.
          1   -1    0    0  501    0  0.00000000000E+00 -0.00000000000E+00 -0.57675772151E+03  0.57675772151E+03  0.00000000000E+00 0. -1.
         23    2    1    2    0    0  0.47652229563E+03 -0.33622133629E+03 -0.33942822884E+03  0.68105950122E+03  0.92261782212E+02 0.  0.
         11    1    3    3    0    0  0.37295554552E+03 -0.21614832777E+03 -0.26382955279E+03  0.50539288822E+03  0.00000000000E+00 0. -1.
        -11    1    3    3    0    0  0.10356675011E+03 -0.12007300852E+03 -0.75598676045E+02  0.17566661300E+03  0.00000000000E+00 0.  1.
         22    1    1    2    0    0 -0.47652229563E+03  0.33622133629E+03  0.12118599411E+04  0.13448876541E+04  0.00000000000E+00 0.  1.
<mgrwt>
<rscale>  0 0.18284761E+04</rscale>
<asrwt>0</asrwt>
<pdfrwt beam="1">  1        1 0.88731958E-01 0.18284761E+04</pdfrwt>
<pdfrwt beam="2">  1       -1 0.22295222E+00 0.18284761E+04</pdfrwt>
<totfact> 0.35881011E+00</totfact>
</mgrwt>
</event>
<event>
 6    1  0.1528034E-005  0.5427120E+03  0.7818608E-02  0.1003195E+00
          1   -1    0    0  501    0  0.00000000000E+00  0.00000000000E+00  0.18138236392E+03  0.18138236392E+03  0.00000000000E+00 0. -1.
         -1   -1    0    0    0  501 -0.00000000000E+00 -0.00000000000E+00 -0.40596058639E+03  0.40596058639E+03  0.00000000000E+00 0.  1.
         23    2    1    2    0    0  0.15629196799E+03  0.56727527576E+02 -0.33718042503E+03  0.38653346929E+03  0.89845936022E+02 0.  0.
         11    1    3    3    0    0  0.27020668114E+02 -0.21421124027E+02 -0.95438754630E+02  0.10147678033E+03  0.00000000000E+00 0. -1.
        -11    1    3    3    0    0  0.12927129988E+03  0.78148651603E+02 -0.24174167040E+03  0.28505668897E+03  0.00000000000E+00 0.  1.
         22    1    1    2    0    0 -0.15629196799E+03 -0.56727527576E+02  0.11260220256E+03  0.20080948101E+03  0.00000000000E+00 0. -1.
<mgrwt>
<rscale>  0 0.54271204E+03</rscale>
<asrwt>0</asrwt>
<pdfrwt beam="1">  1        1 0.27904979E-01 0.54271204E+03</pdfrwt>
<pdfrwt beam="2">  1       -1 0.62455474E-01 0.54271204E+03</pdfrwt>
<totfact> 0.44511074E+02</totfact>
</mgrwt>
</event>
<event>
 6    1  0.1528034E-005  0.2540514E+04  0.7818608E-02  0.8388693E-01
         -1   -1    0    0    0  501 -0.00000000000E+00  0.00000000000E+00  0.70907108941E+03  0.70907108941E+03  0.00000000000E+00 0.  1.
          1   -1    0    0  501    0  0.00000000000E+00 -0.00000000000E+00 -0.22755874666E+04  0.22755874666E+04  0.00000000000E+00 0. -1.
         23    2    1    2    0    0  0.44944153712E+03 -0.26802419579E+03  0.57339093321E+03  0.78169737571E+03  0.91863812757E+02 0.  0.
         13    1    3    3    0    0  0.12967308144E+03 -0.12237199161E+03  0.16475811928E+03  0.24276583419E+03  0.00000000000E+00 0.  1.
        -13    1    3    3    0    0  0.31976845568E+03 -0.14565220418E+03  0.40863281393E+03  0.53893154153E+03  0.00000000000E+00 0. -1.
         22    1    1    2    0    0 -0.44944153712E+03  0.26802419579E+03 -0.21399073104E+04  0.22029611803E+04  0.00000000000E+00 0. -1.
<mgrwt>
<rscale>  0 0.25405143E+04</rscale>
<asrwt>0</asrwt>
<pdfrwt beam="1">  1        1 0.35009038E+00 0.25405143E+04</pdfrwt>
<pdfrwt beam="2">  1       -1 0.10908786E+00 0.25405143E+04</pdfrwt>
<totfact> 0.13324145E+00</totfact>
</mgrwt>
</event>
<event>
 6    1  0.1528034E-005  0.4194193E+04  0.7818608E-02  0.7966478E-01
          2   -1    0    0  501    0  0.00000000000E+00  0.00000000000E+00  0.32324360884E+04  0.32324360884E+04  0.00000000000E+00 0. -1.
         -2   -1    0    0    0  501 -0.00000000000E+00 -0.00000000000E+00 -0.13605263217E+04  0.13605263217E+04  0.00000000000E+00 0.  1.
         23    2    1    2    0    0 -0.19926095796E+04  0.22166270157E+03  0.16061605489E+04  0.25705257766E+04  0.90684999637E+02 0.  0.
         13    1    3    3    0    0 -0.19604218306E+03  0.29789672861E+02  0.19325076910E+03  0.27688593663E+03  0.00000000000E+00 0. -1.
        -13    1    3    3    0    0 -0.17965673966E+04  0.19187302871E+03  0.14129097798E+04  0.22936398399E+04  0.00000000000E+00 0.  1.
         22    1    1    2    0    0  0.19926095796E+04 -0.22166270157E+03  0.26574921783E+03  0.20224366336E+04  0.00000000000E+00 0. -1.
<mgrwt>
<rscale>  0 0.41941933E+04</rscale>
<asrwt>0</asrwt>
<pdfrwt beam="1">  1        2 0.49729786E+00 0.41941933E+04</pdfrwt>
<pdfrwt beam="2">  1       -2 0.20931174E+00 0.41941933E+04</pdfrwt>
<totfact> 0.11082112E-01</totfact>
</mgrwt>
</event>
<event>
 6    1  0.1528034E-005  0.5671622E+04  0.7818608E-02  0.7732506E-01
          1   -1    0    0  501    0  0.00000000000E+00  0.00000000000E+00  0.15693524833E+04  0.15693524833E+04  0.00000000000E+00 0. -1.
         -1   -1    0    0    0  501 -0.00000000000E+00 -0.00000000000E+00 -0.51242949444E+04  0.51242949444E+04  0.00000000000E+00 0.  1.
         23    2    1    2    0    0  0.21080751884E+04 -0.16068202348E+04 -0.59095409489E+03  0.27173326387E+04  0.93902398561E+02 0.  0.
         13    1    3    3    0    0  0.19066171130E+04 -0.14305544072E+04 -0.50879793605E+03  0.24373243665E+04  0.00000000000E+00 0. -1.
        -13    1    3    3    0    0  0.20145807535E+03 -0.17626582760E+03 -0.82156158841E+02  0.28000827227E+03  0.00000000000E+00 0.  1.
         22    1    1    2    0    0 -0.21080751884E+04  0.16068202348E+04 -0.29639883662E+04  0.39763147890E+04  0.00000000000E+00 0.  1.
<mgrwt>
<rscale>  0 0.56716223E+04</rscale>
<asrwt>0</asrwt>
<pdfrwt beam="1">  1        1 0.24143885E+00 0.56716223E+04</pdfrwt>
<pdfrwt beam="2">  1       -1 0.78835306E+00 0.56716223E+04</pdfrwt>
<totfact> 0.33086165E-04</totfact>
</mgrwt>
</event>
<event>
 6    1  0.1528034E-005  0.3498088E+04  0.7818608E-02  0.8114243E-01
         -2   -1    0    0    0  501 -0.00000000000E+00  0.00000000000E+00  0.10114109648E+04  0.10114109648E+04  0.00000000000E+00 0. -1.
          2   -1    0    0  501    0  0.00000000000E+00 -0.00000000000E+00 -0.30246412726E+04  0.30246412726E+04  0.00000000000E+00 0.  1.
         23    2    1    2    0    0  0.14741232376E+02 -0.17477390417E+04 -0.10010582649E+04  0.20163242097E+04  0.92933346888E+02 0.  0.
         13    1    3    3    0    0  0.45841686919E+02 -0.13276937884E+04 -0.73751448056E+03  0.15194735486E+04  0.00000000000E+00 0. -1.
        -13    1    3    3    0    0 -0.31100454542E+02 -0.42004525336E+03 -0.26354378433E+03  0.49685066107E+03  0.00000000000E+00 0.  1.
         22    1    1    2    0    0 -0.14741232376E+02  0.17477390417E+04 -0.10121720429E+04  0.20197280278E+04  0.00000000000E+00 0. -1.
<mgrwt>
<rscale>  0 0.34980882E+04</rscale>
<asrwt>0</asrwt>
<pdfrwt beam="1">  1        2 0.46532942E+00 0.34980882E+04</pdfrwt>
<pdfrwt beam="2">  1       -2 0.15560169E+00 0.34980882E+04</pdfrwt>
<totfact> 0.37484462E-01</totfact>
</mgrwt>
</event>
<event>
 6    1  0.1528034E-005  0.5329636E+04  0.7818608E-02  0.7779576E-01
          2   -1    0    0  501    0  0.00000000000E+00  0.00000000000E+00  0.18323058027E+04  0.18323058027E+04  0.00000000000E+00 0. -1.
         -2   -1    0    0    0  501 -0.00000000000E+00 -0.00000000000E+00 -0.38755843595E+04  0.38755843595E+04  0.00000000000E+00 0.  1.
         23    2    1    2    0    0 -0.15519650327E+04  0.21609530983E+04 -0.11696208636E+04  0.29076059764E+04  0.88576485706E+02 0.  0.
         11    1    3    3    0    0 -0.96287979278E+03  0.13262045609E+04 -0.67419338271E+03  0.17721435467E+04  0.00000000000E+00 0.  1.
        -11    1    3    3    0    0 -0.58908523992E+03  0.83474853738E+03 -0.49542748090E+03  0.11354624298E+04  0.00000000000E+00 0. -1.
         22    1    1    2    0    0  0.15519650327E+04 -0.21609530983E+04 -0.87365769323E+03  0.28002841857E+04  0.00000000000E+00 0.  1.
<mgrwt>
<rscale>  0 0.53296363E+04</rscale>
<asrwt>0</asrwt>
<pdfrwt beam="1">  1        2 0.28189320E+00 0.53296363E+04</pdfrwt>
<pdfrwt beam="2">  1       -2 0.59624374E+00 0.53296363E+04</pdfrwt>
<totfact> 0.31296210E-03</totfact>
</mgrwt>
</event>
<event>
 6    1  0.1528034E-005  0.4286606E+04  0.7818608E-02  0.7949099E-01
         -2   -1    0    0    0  501 -0.00000000000E+00  0.00000000000E+00  0.23379238679E+04  0.23379238679E+04  0.00000000000E+00 0.  1.
          2   -1    0    0  501    0  0.00000000000E+00 -0.00000000000E+00 -0.19648836265E+04  0.19648836265E+04  0.00000000000E+00 0. -1.
         23    2    1    2    0    0 -0.16310606121E+04 -0.13614687625E+04 -0.90897644535E+02  0.21281364218E+04  0.82136084825E+02 0.  0.
         13    1    3    3    0    0 -0.16487421348E+03 -0.16183923347E+03 -0.27468058721E+02  0.23265841487E+03  0.00000000000E+00 0.  1.
        -13    1    3    3    0    0 -0.14661863986E+04 -0.11996295291E+04 -0.63429585814E+02  0.18954780070E+04  0.00000000000E+00 0. -1.
         22    1    1    2    0    0  0.16310606121E+04  0.13614687625E+04  0.46393788590E+03  0.21746710725E+04  0.00000000000E+00 0.  1.
<mgrwt>
<rscale>  0 0.42866063E+04</rscale>
<asrwt>0</asrwt>
<pdfrwt beam="1">  1        2 0.30228979E+00 0.42866063E+04</pdfrwt>
<pdfrwt beam="2">  1       -2 0.35968059E+00 0.42866063E+04</pdfrwt>
<totfact> 0.72774350E-02</totfact>
</mgrwt>
</event>
<event>
 6    1  0.1528034E-005  0.1169005E+04  0.7818608E-02  0.9140428E-01
          1   -1    0    0  501    0  0.00000000000E+00  0.00000000000E+00  0.13890488529E+04  0.13890488529E+04  0.00000000000E+00 0.  1.
         -1   -1    0    0    0  501 -0.00000000000E+00 -0.00000000000E+00 -0.24595459732E+03  0.24595459732E+03  0.00000000000E+00 0. -1.
         23    2    1    2    0    0 -0.54347077064E+03  0.53172770841E+02  0.85421926880E+03  0.10172360344E+04  0.83010652110E+02 0.  0.
         11    1    3    3    0    0 -0.11599935482E+03  0.11588474036E+02  0.25087898015E+03  0.27664129433E+03  0.00000000000E+00 0.  1.
        -11    1    3    3    0    0 -0.42747141582E+03  0.41584296805E+02  0.60334028865E+03  0.74059474005E+03  0.00000000000E+00 0. -1.
         22    1    1    2    0    0  0.54347077064E+03 -0.53172770841E+02  0.28887498680E+03  0.61776741586E+03  0.00000000000E+00 0.  1.
<mgrwt>
<rscale>  0 0.11690046E+04</rscale>
<asrwt>0</asrwt>
<pdfrwt beam="1">  1        1 0.21369982E+00 0.11690046E+04</pdfrwt>
<pdfrwt beam="2">  1       -1 0.37839170E-01 0.11690046E+04</pdfrwt>
<totfact> 0.52262049E+01</totfact>
</mgrwt>
</event>
<event>
 6    1  0.1528034E-005  0.4781621E+04  0.7818608E-02  0.7863106E-01
          2   -1    0    0  501    0  0.00000000000E+00  0.00000000000E+00  0.23119710565E+04  0.23119710565E+04  0.00000000000E+00 0.  1.
         -2   -1    0    0    0  501 -0.00000000000E+00 -0.00000000000E+00 -0.24723386219E+04  0.24723386219E+04  0.00000000000E+00 0. -1.
         23    2    1    2    0    0  0.22200742867E+04 -0.38392863402E+03 -0.87794379048E+03  0.24197702574E+04  0.91497351224E+02 0.  0.
         11    1    3    3    0    0  0.85758956455E+03 -0.17112062060E+03 -0.29949369674E+03  0.92435848154E+03  0.00000000000E+00 0. -1.
        -11    1    3    3    0    0  0.13624847221E+04 -0.21280801341E+03 -0.57845009374E+03  0.14954117759E+04  0.00000000000E+00 0.  1.
         22    1    1    2    0    0 -0.22200742867E+04  0.38392863402E+03  0.71757622503E+03  0.23645394209E+04  0.00000000000E+00 0.  1.
<mgrwt>
<rscale>  0 0.47816212E+04</rscale>
<asrwt>0</asrwt>
<pdfrwt beam="1">  1        2 0.35568786E+00 0.47816212E+04</pdfrwt>
<pdfrwt beam="2">  1       -2 0.38035979E+00 0.47816212E+04</pdfrwt>
<totfact> 0.32932197E-02</totfact>
</mgrwt>
</event>
<event>
 6    1  0.1528034E-005  0.1536408E+04  0.7818608E-02  0.8860597E-01
         -2   -1    0    0    0  501 -0.00000000000E+00  0.00000000000E+00  0.97227596939E+03  0.97227596939E+03  0.00000000000E+00 0.  1.
          2   -1    0    0  501    0  0.00000000000E+00 -0.00000000000E+00 -0.60696465044E+03  0.60696465044E+03  0.00000000000E+00 0. -1.
         23    2    1    2    0    0 -0.17615465988E+03 -0.65655154520E+03  0.54510543723E+03  0.87609318104E+03  0.91153323871E+02 0.  0.
         13    1    3    3    0    0 -0.50671234544E+02 -0.19786870051E+03  0.11231352994E+03  0.23309638706E+03  0.00000000000E+00 0.  1.
        -13    1    3    3    0    0 -0.12548342533E+03 -0.45868284469E+03  0.43279190729E+03  0.64299679397E+03  0.00000000000E+00 0. -1.
         22    1    1    2    0    0  0.17615465988E+03  0.65655154520E+03 -0.17979411829E+03  0.70314743879E+03  0.00000000000E+00 0. -1.
<mgrwt>
<rscale>  0 0.15364077E+04</rscale>
<asrwt>0</asrwt>
<pdfrwt beam="1">  1        2 0.93379177E-01 0.15364077E+04</pdfrwt>
<pdfrwt beam="2">  1       -2 0.14958092E+00 0.15364077E+04</pdfrwt>
<totfact> 0.14214318E+01</totfact>
</mgrwt>
</event>
<event>
 6    1  0.1528034E-005  0.2046384E+04  0.7818608E-02  0.8585236E-01
         -2   -1    0    0    0  501 -0.00000000000E+00  0.00000000000E+00  0.88499863798E+03  0.88499863798E+03  0.00000000000E+00 0.  1.
          2   -1    0    0  501    0  0.00000000000E+00 -0.00000000000E+00 -0.11829649078E+04  0.11829649078E+04  0.00000000000E+00 0. -1.
         23    2    1    2    0    0 -0.10051326146E+04 -0.92993210810E+02  0.64159982441E+01  0.10136448675E+04  0.92170723384E+02 0.  0.
         13    1    3    3    0    0 -0.75129588022E+03 -0.10005532097E+03 -0.21105110861E+02  0.75822291748E+03  0.00000000000E+00 0. -1.
        -13    1    3    3    0    0 -0.25383673438E+03  0.70621101608E+01  0.27521109105E+02  0.25542195005E+03  0.00000000000E+00 0.  1.
         22    1    1    2    0    0  0.10051326146E+04  0.92993210810E+02 -0.30438226806E+03  0.10543186782E+04  0.00000000000E+00 0. -1.
<mgrwt>
<rscale>  0 0.20463845E+04</rscale>
<asrwt>0</asrwt>
<pdfrwt beam="1">  1        2 0.18199460E+00 0.20463845E+04</pdfrwt>
<pdfrwt beam="2">  1       -2 0.13615364E+00 0.20463845E+04</pdfrwt>
<totfact> 0.69291682E+00</totfact>
</mgrwt>
</event>
<event>
 6    1  0.1528034E-005  0.2286007E+04  0.7818608E-02  0.8483459E-01
         -2   -1    0    0    0  501 -0.00000000000E+00  0.00000000000E+00  0.88586106377E+03  0.88586106377E+03  0.00000000000E+00 0.  1.
          2   -1    0    0  501    0  0.00000000000E+00 -0.00000000000E+00 -0.14747873800E+04  0.14747873800E+04  0.00000000000E+00 0. -1.
         23    2    1    2    0    0 -0.66206598837E+03 -0.63312947733E+03  0.40784475028E+03  0.10068623207E+04  0.90829975778E+02 0.  0.
         13    1    3    3    0    0 -0.20286494852E+03 -0.24219924015E+03  0.11260271294E+03  0.33540129729E+03  0.00000000000E+00 0.  1.
        -13    1    3    3    0    0 -0.45920103985E+03 -0.39093023718E+03  0.29524203734E+03  0.67146102341E+03  0.00000000000E+00 0. -1.
         22    1    1    2    0    0  0.66206598837E+03  0.63312947733E+03 -0.99677106654E+03  0.13537861231E+04  0.00000000000E+00 0. -1.
<mgrwt>
<rscale>  0 0.22860068E+04</rscale>
<asrwt>0</asrwt>
<pdfrwt beam="1">  1        2 0.22689036E+00 0.22860068E+04</pdfrwt>
<pdfrwt beam="2">  1       -2 0.13628632E+00 0.22860068E+04</pdfrwt>
<totfact> 0.45853901E+00</totfact>
</mgrwt>
</event>
<event>
 6    1  0.1528034E-005  0.1377832E+04  0.7818608E-02  0.8970023E-01
         -1   -1    0    0    0  501 -0.00000000000E+00  0.00000000000E+00  0.28701987312E+03  0.28701987312E+03  0.00000000000E+00 0.  1.
          1   -1    0    0  501    0  0.00000000000E+00 -0.00000000000E+00 -0.16535618455E+04  0.16535618455E+04  0.00000000000E+00 0. -1.
         23    2    1    2    0    0 -0.63785546494E+02 -0.62007495588E+03 -0.10890042455E+04  0.12582410876E+04  0.93160297127E+02 0.  0.
         11    1    3    3    0    0 -0.55038862893E+02 -0.58242638672E+03 -0.10568405519E+04  0.12079576667E+04  0.00000000000E+00 0. -1.
        -11    1    3    3    0    0 -0.87466836009E+01 -0.37648569160E+02 -0.32163693654E+02  0.50283420958E+02  0.00000000000E+00 0.  1.
         22    1    1    2    0    0  0.63785546494E+02  0.62007495588E+03 -0.27753772684E+03  0.68234063097E+03  0.00000000000E+00 0.  1.
<mgrwt>
<rscale>  0 0.13778318E+04</rscale>
<asrwt>0</asrwt>
<pdfrwt beam="1">  1        1 0.25439413E+00 0.13778318E+04</pdfrwt>
<pdfrwt beam="2">  1       -1 0.44156904E-01 0.13778318E+04</pdfrwt>
<totfact> 0.25410803E+01</totfact>
</mgrwt>
</event>
<event>
 6    1  0.1528034E-005  0.5952574E+04  0.7818608E-02  0.7696310E-01
          2   -1    0    0  501    0  0.00000000000E+00  0.00000000000E+00  0.38080105034E+04  0.38080105034E+04  0.00000000000E+00 0. -1.
         -2   -1    0    0    0  501 -0.00000000000E+00 -0.00000000000E+00 -0.23262235273E+04  0.23262235273E+04  0.00000000000E+00 0.  1.
         23    2    1    2    0    0  0.57813151509E+03 -0.27146453309E+04  0.18464399280E+04  0.33348578330E+04  0.91657171120E+02 0.  0.
         13    1    3    3    0    0  0.31517864824E+03 -0.14758471922E+04  0.94905643775E+03  0.17827424484E+04  0.00000000000E+00 0.  1.
        -13    1    3    3    0    0  0.26295286685E+03 -0.12387981386E+04  0.89738349028E+03  0.15521153846E+04  0.00000000000E+00 0. -1.
         22    1    1    2    0    0 -0.57813151509E+03  0.27146453309E+04 -0.36465295188E+03  0.27993761977E+04  0.00000000000E+00 0.  1.
<mgrwt>
<rscale>  0 0.59525738E+04</rscale>
<asrwt>0</asrwt>
<pdfrwt beam="1">  1        2 0.58584777E+00 0.59525738E+04</pdfrwt>
<pdfrwt beam="2">  1       -2 0.35788054E+00 0.59525738E+04</pdfrwt>
<totfact> 0.45212761E-03</totfact>
</mgrwt>
</event>
<event>
 6    1  0.1528034E-005  0.1432771E+04  0.7818608E-02  0.8930433E-01
          2   -1    0    0  501    0  0.00000000000E+00  0.00000000000E+00  0.85558558032E+03  0.85558558032E+03  0.00000000000E+00 0. -1.
         -2   -1    0    0    0  501 -0.00000000000E+00 -0.00000000000E+00 -0.59983249247E+03  0.59983249247E+03  0.00000000000E+00 0.  1.
         23    2    1    2    0    0  0.71055288287E+03  0.33771024897E+01  0.19347820149E+03  0.74213344121E+03  0.91822796430E+02 0.  0.
         13    1    3    3    0    0  0.53110770760E+03 -0.15746554710E+02  0.10694100938E+03  0.54199606137E+03  0.00000000000E+00 0. -1.
        -13    1    3    3    0    0  0.17944517527E+03  0.19123657200E+02  0.86537192108E+02  0.20013737984E+03  0.00000000000E+00 0.  1.
         22    1    1    2    0    0 -0.71055288287E+03 -0.33771024897E+01  0.62274886352E+02  0.71328463158E+03  0.00000000000E+00 0. -1.
<mgrwt>
<rscale>  0 0.14327708E+04</rscale>
<asrwt>0</asrwt>
<pdfrwt beam="1">  1        2 0.13162855E+00 0.14327708E+04</pdfrwt>
<pdfrwt beam="2">  1       -2 0.92281922E-01 0.14327708E+04</pdfrwt>
<totfact> 0.30468114E+01</totfact>
</mgrwt>
</event>
<event>
 6    1  0.1528034E-005  0.3984625E+04  0.7818608E-02  0.8007655E-01
          2   -1    0    0  501    0  0.00000000000E+00  0.00000000000E+00  0.24596545279E+04  0.24596545279E+04  0.00000000000E+00 0. -1.
         -2   -1    0    0    0  501 -0.00000000000E+00 -0.00000000000E+00 -0.16137672846E+04  0.16137672846E+04  0.00000000000E+00 0.  1.
         23    2    1    2    0    0  0.18468854707E+04 -0.66305666803E+03  0.76890718799E+03  0.21096102085E+04  0.92773277846E+02 0.  0.
         13    1    3    3    0    0  0.84471074448E+03 -0.29297402259E+03  0.30187438512E+03  0.94366210274E+03  0.00000000000E+00 0. -1.
        -13    1    3    3    0    0  0.10021747262E+04 -0.37008264543E+03  0.46703280287E+03  0.11659481058E+04  0.00000000000E+00 0.  1.
         22    1    1    2    0    0 -0.18468854707E+04  0.66305666803E+03  0.76980055269E+02  0.19638116040E+04  0.00000000000E+00 0.  1.
<mgrwt>
<rscale>  0 0.39846255E+04</rscale>
<asrwt>0</asrwt>
<pdfrwt beam="1">  1        2 0.37840839E+00 0.39846255E+04</pdfrwt>
<pdfrwt beam="2">  1       -2 0.24827189E+00 0.39846255E+04</pdfrwt>
<totfact> 0.19108351E-01</totfact>
</mgrwt>
</event>
<event>
 6    1  0.1528034E-005  0.1439999E+04  0.7818608E-02  0.8925364E-01
         -2   -1    0    0    0  501 -0.00000000000E+00  0.00000000000E+00  0.56572199413E+03  0.56572199413E+03  0.00000000000E+00 0. -1.
          2   -1    0    0  501    0  0.00000000000E+00 -0.00000000000E+00 -0.91634926210E+03  0.91634926210E+03  0.00000000000E+00 0.  1.
         23    2    1    2    0    0  0.24997862028E+03 -0.29496370602E+03  0.44559317481E+03  0.59693855886E+03  0.91046510887E+02 0.  0.
         11    1    3    3    0    0  0.20902843769E+03 -0.18420445945E+03  0.29874792003E+03  0.40850274218E+03  0.00000000000E+00 0. -1.
        -11    1    3    3    0    0  0.40950182588E+02 -0.11075924658E+03  0.14684525478E+03  0.18843581668E+03  0.00000000000E+00 0.  1.
         22    1    1    2    0    0 -0.24997862028E+03  0.29496370602E+03 -0.79622044278E+03  0.88513269738E+03  0.00000000000E+00 0.  1.
<mgrwt>
<rscale>  0 0.14399985E+04</rscale>
<asrwt>0</asrwt>
<pdfrwt beam="1">  1        2 0.14097681E+00 0.14399985E+04</pdfrwt>
<pdfrwt beam="2">  1       -2 0.87034154E-01 0.14399985E+04</pdfrwt>
<totfact> 0.31677702E+01</totfact>
</mgrwt>
</event>
<event>
 6    1  0.1528034E-005  0.8051358E+03  0.7818608E-02  0.9552613E-01
         -3   -1    0    0    0  501 -0.00000000000E+00  0.00000000000E+00  0.49639272677E+03  0.49639272677E+03  0.00000000000E+00 0.  1.
          3   -1    0    0  501    0  0.00000000000E+00 -0.00000000000E+00 -0.32647717940E+03  0.32647717940E+03  0.00000000000E+00 0. -1.
         23    2    1    2    0    0 -0.21179382451E+03  0.19508332337E+02 -0.25697802250E+03  0.34592617874E+03  0.91597041209E+02 0.  0.
         13    1    3    3    0    0 -0.16426584782E+03 -0.24212931598E+02 -0.19866292560E+03  0.25891406456E+03  0.00000000000E+00 0.  1.
        -13    1    3    3    0    0 -0.47527976686E+02  0.43721263935E+02 -0.58315096901E+02  0.87012114183E+02  0.00000000000E+00 0. -1.
         22    1    1    2    0    0  0.21179382451E+03 -0.19508332337E+02  0.42689356987E+03  0.47694372742E+03  0.00000000000E+00 0.  1.
<mgrwt>
<rscale>  0 0.80513576E+03</rscale>
<asrwt>0</asrwt>
<pdfrwt beam="1">  1        3 0.50227258E-01 0.80513576E+03</pdfrwt>
<pdfrwt beam="2">  1       -3 0.76368112E-01 0.80513576E+03</pdfrwt>
<totfact> 0.16691252E+01</totfact>
</mgrwt>
</event>
<event>
 6    1  0.1528034E-005  0.8029215E+03  0.7818608E-02  0.9555798E-01
          1   -1    0    0  501    0  0.00000000000E+00  0.00000000000E+00  0.39595102682E+03  0.39595102682E+03  0.00000000000E+00 0. -1.
         -1   -1    0    0    0  501 -0.00000000000E+00 -0.00000000000E+00 -0.40704717834E+03  0.40704717834E+03  0.00000000000E+00 0.  1.
         23    2    1    2    0    0 -0.14741543665E+03  0.85970851603E+02  0.35244584776E+03  0.40139506332E+03  0.88190832674E+02 0.  0.
         13    1    3    3    0    0 -0.98819920808E+02  0.60476333281E+02  0.31316327791E+03  0.33390717612E+03  0.00000000000E+00 0. -1.
        -13    1    3    3    0    0 -0.48595515841E+02  0.25494518323E+02  0.39282569849E+02  0.67487887197E+02  0.00000000000E+00 0.  1.
         22    1    1    2    0    0  0.14741543665E+03 -0.85970851603E+02 -0.36354199929E+03  0.40160314184E+03  0.00000000000E+00 0.  1.
<mgrwt>
<rscale>  0 0.80292154E+03</rscale>
<asrwt>0</asrwt>
<pdfrwt beam="1">  1        1 0.60915542E-01 0.80292154E+03</pdfrwt>
<pdfrwt beam="2">  1       -1 0.62622643E-01 0.80292154E+03</pdfrwt>
<totfact> 0.15919974E+02</totfact>
</mgrwt>
</event>
<event>
 6    1  0.1528034E-005  0.3799525E+04  0.7818608E-02  0.8046257E-01
         -2   -1    0    0    0  501 -0.00000000000E+00  0.00000000000E+00  0.12170937645E+04  0.12170937645E+04  0.00000000000E+00 0.  1.
          2   -1    0    0  501    0  0.00000000000E+00 -0.00000000000E+00 -0.29653409241E+04  0.29653409241E+04  0.00000000000E+00 0. -1.
         23    2    1    2    0    0  0.11329620669E+04 -0.31648885281E+03  0.76586899908E+03  0.14067278780E+04  0.92518971483E+02 0.  0.
         11    1    3    3    0    0  0.88524977099E+03 -0.27181288467E+03  0.63676019486E+03  0.11238384880E+04  0.00000000000E+00 0.  1.
        -11    1    3    3    0    0  0.24771229591E+03 -0.44675968136E+02  0.12910880422E+03  0.28288939005E+03  0.00000000000E+00 0. -1.
         22    1    1    2    0    0 -0.11329620669E+04  0.31648885281E+03 -0.25141161587E+04  0.27757068106E+04  0.00000000000E+00 0. -1.
<mgrwt>
<rscale>  0 0.37995252E+04</rscale>
<asrwt>0</asrwt>
<pdfrwt beam="1">  1        2 0.45620629E+00 0.37995252E+04</pdfrwt>
<pdfrwt beam="2">  1       -2 0.18724520E+00 0.37995252E+04</pdfrwt>
<totfact> 0.23727420E-01</totfact>
</mgrwt>
</event>
<event>
 6    1  0.1528034E-005  0.5616079E+04  0.7818608E-02  0.7739916E-01
         -2   -1    0    0    0  501 -0.00000000000E+00  0.00000000000E+00  0.32505007690E+04  0.32505007690E+04  0.00000000000E+00 0. -1.
          2   -1    0    0  501    0  0.00000000000E+00 -0.00000000000E+00 -0.24258063538E+04  0.24258063538E+04  0.00000000000E+00 0.  1.
         23    2    1    2    0    0  0.10094079572E+04 -0.26193304114E+04  0.44692815368E+03  0.28439046838E+04  0.90845185281E+02 0.  0.
         11    1    3    3    0    0  0.18774128112E+03 -0.40833846920E+03  0.53877617261E+02  0.45264764630E+03  0.00000000000E+00 0. -1.
        -11    1    3    3    0    0  0.82166667610E+03 -0.22109919422E+04  0.39305053642E+03  0.23912570375E+04  0.00000000000E+00 0.  1.
         22    1    1    2    0    0 -0.10094079572E+04  0.26193304114E+04  0.37776626149E+03  0.28324024390E+04  0.00000000000E+00 0.  1.
<mgrwt>
<rscale>  0 0.56160789E+04</rscale>
<asrwt>0</asrwt>
<pdfrwt beam="1">  1        2 0.37320098E+00 0.56160789E+04</pdfrwt>
<pdfrwt beam="2">  1       -2 0.50007704E+00 0.56160789E+04</pdfrwt>
<totfact> 0.44336768E-03</totfact>
</mgrwt>
</event>
<event>
 6    1  0.1528034E-005  0.1500033E+04  0.7818608E-02  0.8884431E-01
         -2   -1    0    0    0  501 -0.00000000000E+00  0.00000000000E+00  0.33101199403E+03  0.33101199403E+03  0.00000000000E+00 0.  1.
          2   -1    0    0  501    0  0.00000000000E+00 -0.00000000000E+00 -0.16994091801E+04  0.16994091801E+04  0.00000000000E+00 0. -1.
         23    2    1    2    0    0 -0.32305813273E+03  0.23610753467E+03  0.16799288617E+03  0.44277896661E+03  0.87853733061E+02 0.  0.
         13    1    3    3    0    0 -0.18605605210E+03  0.14357571133E+03  0.51647347598E+02  0.24062063071E+03  0.00000000000E+00 0.  1.
        -13    1    3    3    0    0 -0.13700208063E+03  0.92531823333E+02  0.11634553857E+03  0.20215833590E+03  0.00000000000E+00 0. -1.
         22    1    1    2    0    0  0.32305813273E+03 -0.23610753467E+03 -0.15363900722E+04  0.15876422075E+04  0.00000000000E+00 0. -1.
<mgrwt>
<rscale>  0 0.15000331E+04</rscale>
<asrwt>0</asrwt>
<pdfrwt beam="1">  1        2 0.26144756E+00 0.15000331E+04</pdfrwt>
<pdfrwt beam="2">  1       -2 0.50924923E-01 0.15000331E+04</pdfrwt>
<totfact> 0.34558584E+01</totfact>
</mgrwt>
</event>
<event>
 6    1  0.1528034E-005  0.1535948E+04  0.7818608E-02  0.8860893E-01
         -2   -1    0    0    0  501 -0.00000000000E+00  0.00000000000E+00  0.37273069431E+03  0.37273069431E+03  0.00000000000E+00 0. -1.
          2   -1    0    0  501    0  0.00000000000E+00 -0.00000000000E+00 -0.15823336509E+04  0.15823336509E+04  0.00000000000E+00 0.  1.
         23    2    1    2    0    0 -0.50766292944E+03  0.30312298559E+03  0.12190878740E+02  0.59771937419E+03  0.86687014213E+02 0.  0.
         11    1    3    3    0    0 -0.16212008212E+03  0.73851160872E+02  0.38270687786E+02  0.18221295380E+03  0.00000000000E+00 0. -1.
        -11    1    3    3    0    0 -0.34554284732E+03  0.22927182471E+03 -0.26079809045E+02  0.41550642039E+03  0.00000000000E+00 0.  1.
         22    1    1    2    0    0  0.50766292944E+03 -0.30312298559E+03 -0.12217938354E+04  0.13573449711E+04  0.00000000000E+00 0.  1.
<mgrwt>
<rscale>  0 0.15359483E+04</rscale>
<asrwt>0</asrwt>
<pdfrwt beam="1">  1        2 0.24343595E+00 0.15359483E+04</pdfrwt>
<pdfrwt beam="2">  1       -2 0.57343183E-01 0.15359483E+04</pdfrwt>
<totfact> 0.31319800E+01</totfact>
</mgrwt>
</event>
<event>
 6    1  0.1528034E-005  0.1604926E+04  0.7818608E-02  0.8817527E-01
         -2   -1    0    0    0  501 -0.00000000000E+00  0.00000000000E+00  0.22829833931E+03  0.22829833931E+03  0.00000000000E+00 0.  1.
          2   -1    0    0  501    0  0.00000000000E+00 -0.00000000000E+00 -0.28206386298E+04  0.28206386298E+04  0.00000000000E+00 0. -1.
         23    2    1    2    0    0 -0.78710848801E+03  0.11360600615E+03 -0.14631089538E+04  0.16677745933E+04  0.91313673268E+02 0.  0.
         13    1    3    3    0    0 -0.40069162688E+03  0.59091107120E+02 -0.64990362597E+03  0.76578081841E+03  0.00000000000E+00 0. -1.
        -13    1    3    3    0    0 -0.38641686113E+03  0.54514899034E+02 -0.81320532780E+03  0.90199377489E+03  0.00000000000E+00 0.  1.
         22    1    1    2    0    0  0.78710848801E+03 -0.11360600615E+03 -0.11292313367E+04  0.13811623758E+04  0.00000000000E+00 0.  1.
<mgrwt>
<rscale>  0 0.16049263E+04</rscale>
<asrwt>0</asrwt>
<pdfrwt beam="1">  1        2 0.43394440E+00 0.16049263E+04</pdfrwt>
<pdfrwt beam="2">  1       -2 0.35122822E-01 0.16049263E+04</pdfrwt>
<totfact> 0.16459235E+01</totfact>
</mgrwt>
</event>
<event>
 6    1  0.1528034E-005  0.1956280E+04  0.7818608E-02  0.8627339E-01
          2   -1    0    0  501    0  0.00000000000E+00  0.00000000000E+00  0.12696805146E+04  0.12696805146E+04  0.00000000000E+00 0. -1.
         -2   -1    0    0    0  501 -0.00000000000E+00 -0.00000000000E+00 -0.75354201713E+03  0.75354201713E+03  0.00000000000E+00 0.  1.
         23    2    1    2    0    0  0.42587117671E+03  0.45732886958E+02 -0.64836527668E+03  0.78244584106E+03  0.91576230989E+02 0.  0.
         11    1    3    3    0    0  0.27362579434E+03  0.40337912718E+02 -0.33825922680E+03  0.43694110249E+03  0.00000000000E+00 0.  1.
        -11    1    3    3    0    0  0.15224538237E+03  0.53949742397E+01 -0.31010604988E+03  0.34550473857E+03  0.00000000000E+00 0. -1.
         22    1    1    2    0    0 -0.42587117671E+03 -0.45732886958E+02  0.11645037742E+04  0.12407766907E+04  0.00000000000E+00 0. -1.
<mgrwt>
<rscale>  0 0.19562798E+04</rscale>
<asrwt>0</asrwt>
<pdfrwt beam="1">  1        2 0.19533546E+00 0.19562798E+04</pdfrwt>
<pdfrwt beam="2">  1       -2 0.11592954E+00 0.19562798E+04</pdfrwt>
<totfact> 0.92847190E+00</totfact>
</mgrwt>
</event>
<event>
 6    1  0.1528034E-005  0.1305576E+04  0.7818608E-02  0.9025155E-01
         -1   -1    0    0    0  501 -0.00000000000E+00  0.00000000000E+00  0.20284725726E+03  0.20284725726E+03  0.00000000000E+00 0.  1.
          1   -1    0    0  501    0  0.00000000000E+00 -0.00000000000E+00 -0.21007525651E+04  0.21007525651E+04  0.00000000000E+00 0. -1.
         23    2    1    2    0    0  0.29340526990E+03 -0.57937359523E+03 -0.98708657526E+03  0.11849617312E+04  0.89632484066E+02 0.  0.
         11    1    3    3    0    0  0.25496597593E+03 -0.47645265433E+03 -0.87191518081E+03  0.10257927974E+04  0.00000000000E+00 0. -1.
        -11    1    3    3    0    0  0.38439293966E+02 -0.10292094090E+03 -0.11517139444E+03  0.15916893382E+03  0.00000000000E+00 0.  1.
         22    1    1    2    0    0 -0.29340526990E+03  0.57937359523E+03 -0.91081873254E+03  0.11186380911E+04  0.00000000000E+00 0.  1.
<mgrwt>
<rscale>  0 0.13055756E+04</rscale>
<asrwt>0</asrwt>
<pdfrwt beam="1">  1        1 0.32319269E+00 0.13055756E+04</pdfrwt>
<pdfrwt beam="2">  1       -1 0.31207271E-01 0.13055756E+04</pdfrwt>
<totfact> 0.23837771E+01</totfact>
</mgrwt>
</event>
<event>
 6    1  0.1528034E-005  0.2164183E+04  0.7818608E-02  0.8533485E-01
          1   -1    0    0  501    0  0.00000000000E+00  0.00000000000E+00  0.30372693721E+04  0.30372693721E+04  0.00000000000E+00 0. -1.
         -1   -1    0    0    0  501 -0.00000000000E+00 -0.00000000000E+00 -0.38551805563E+03  0.38551805563E+03  0.00000000000E+00 0.  1.
         23    2    1    2    0    0 -0.15935370835E+03 -0.84421989022E+03  0.29290300246E+03  0.91235595169E+03  0.92197539704E+02 0.  0.
         11    1    3    3    0    0 -0.12349118992E+02 -0.29500600617E+03  0.89756045471E+02  0.30860523669E+03  0.00000000000E+00 0. -1.
        -11    1    3    3    0    0 -0.14700458936E+03 -0.54921388405E+03  0.20314695699E+03  0.60375071500E+03  0.00000000000E+00 0.  1.
         22    1    1    2    0    0  0.15935370835E+03  0.84421989022E+03  0.23588483140E+04  0.25104314761E+04  0.00000000000E+00 0. -1.
<mgrwt>
<rscale>  0 0.21641832E+04</rscale>
<asrwt>0</asrwt>
<pdfrwt beam="1">  1        1 0.46727220E+00 0.21641832E+04</pdfrwt>
<pdfrwt beam="2">  1       -1 0.59310472E-01 0.21641832E+04</pdfrwt>
<totfact> 0.14812070E+00</totfact>
</mgrwt>
</event>
<event>
 6    1  0.1528034E-005  0.1176194E+04  0.7818608E-02  0.9133953E-01
         -2   -1    0    0    0  501 -0.00000000000E+00  0.00000000000E+00  0.30414404062E+03  0.30414404062E+03  0.00000000000E+00 0. -1.
          2   -1    0    0  501    0  0.00000000000E+00 -0.00000000000E+00 -0.11371527886E+04  0.11371527886E+04  0.00000000000E+00 0.  1.
         23    2    1    2    0    0  0.41743297209E+03 -0.17996504896E+03  0.31433504835E+02  0.46461975184E+03  0.90806076525E+02 0.  0.
         13    1    3    3    0    0  0.13044848391E+03 -0.10334320145E+03  0.67730612902E+01  0.16656079551E+03  0.00000000000E+00 0. -1.
        -13    1    3    3    0    0  0.28698448818E+03 -0.76621847509E+02  0.24660443545E+02  0.29805895633E+03  0.00000000000E+00 0.  1.
         22    1    1    2    0    0 -0.41743297209E+03  0.17996504896E+03 -0.86444225286E+03  0.97667707742E+03  0.00000000000E+00 0.  1.
<mgrwt>
<rscale>  0 0.11761943E+04</rscale>
<asrwt>0</asrwt>
<pdfrwt beam="1">  1        2 0.17494658E+00 0.11761943E+04</pdfrwt>
<pdfrwt beam="2">  1       -2 0.46791390E-01 0.11761943E+04</pdfrwt>
<totfact> 0.88415042E+01</totfact>
</mgrwt>
</event>
<event>
 6    1  0.1528034E-005  0.2479942E+04  0.7818608E-02  0.8410166E-01
          2   -1    0    0  501    0  0.00000000000E+00  0.00000000000E+00  0.19055269183E+04  0.19055269183E+04  0.00000000000E+00 0. -1.
         -2   -1    0    0    0  501 -0.00000000000E+00 -0.00000000000E+00 -0.80687799901E+03  0.80687799901E+03  0.00000000000E+00 0.  1.
         23    2    1    2    0    0  0.91468339025E+03 -0.82893955820E+03  0.44354285659E+03  0.13149248821E+04  0.92253370086E+02 0.  0.
         11    1    3    3    0    0  0.37684727368E+03 -0.35497220039E+03  0.23336947895E+03  0.56787361660E+03  0.00000000000E+00 0. -1.
        -11    1    3    3    0    0  0.53783611657E+03 -0.47396735781E+03  0.21017337764E+03  0.74705126546E+03  0.00000000000E+00 0.  1.
         22    1    1    2    0    0 -0.91468339025E+03  0.82893955820E+03  0.65510606274E+03  0.13974800353E+04  0.00000000000E+00 0. -1.
<mgrwt>
<rscale>  0 0.24799417E+04</rscale>
<asrwt>0</asrwt>
<pdfrwt beam="1">  1        2 0.29315799E+00 0.24799417E+04</pdfrwt>
<pdfrwt beam="2">  1       -2 0.12413508E+00 0.24799417E+04</pdfrwt>
<totfact> 0.32866705E+00</totfact>
</mgrwt>
</event>
<event>
 6    1  0.2125316E-005  0.3138047E+04  0.7818608E-02  0.8205373E-01
          2   -1    0    0  501    0  0.00000000000E+00  0.00000000000E+00  0.28546819246E+04  0.28546819246E+04  0.00000000000E+00 0. -1.
         -2   -1    0    0    0  501 -0.00000000000E+00 -0.00000000000E+00 -0.86238518948E+03  0.86238518948E+03  0.00000000000E+00 0.  1.
         23    2    1    2    0    0 -0.89513868986E+03 -0.12620358883E+02 -0.52739850291E+03  0.10430632547E+04  0.91647284963E+02 0.  0.
         13    1    3    3    0    0 -0.37631931104E+03 -0.43052483519E+02 -0.25140528993E+03  0.45461451803E+03  0.00000000000E+00 0.  1.
        -13    1    3    3    0    0 -0.51881937882E+03  0.30432124637E+02 -0.27599321298E+03  0.58844873665E+03  0.00000000000E+00 0. -1.
         22    1    1    2    0    0  0.89513868986E+03  0.12620358883E+02  0.25196952380E+04  0.26740038594E+04  0.00000000000E+00 0. -1.
<mgrwt>
<rscale>  0 0.31380474E+04</rscale>
<asrwt>0</asrwt>
<pdfrwt beam="1">  1        2 0.43918183E+00 0.31380474E+04</pdfrwt>
<pdfrwt beam="2">  1       -2 0.13267465E+00 0.31380474E+04</pdfrwt>
<totfact> 0.74721568E-01</totfact>
</mgrwt>
</event>
<event>
 6    1  0.3756738E-005  0.3740380E+04  0.7818608E-02  0.8059071E-01
          1   -1    0    0  501    0  0.00000000000E+00  0.00000000000E+00  0.23777651763E+04  0.23777651763E+04  0.00000000000E+00 0. -1.
         -1   -1    0    0    0  501 -0.00000000000E+00 -0.00000000000E+00 -0.14709659077E+04  0.14709659077E+04  0.00000000000E+00 0.  1.
         23    2    1    2    0    0  0.10915889628E+03 -0.30590451281E+03  0.23479872622E+04  0.23713969753E+04  0.70612996850E+02 0.  0.
         11    1    3    3    0    0  0.37993602776E+02 -0.63606501345E+02  0.36919964490E+03  0.37656032540E+03  0.00000000000E+00 0.  1.
        -11    1    3    3    0    0  0.71165293500E+02 -0.24229801146E+03  0.19787876173E+04  0.19948366499E+04  0.00000000000E+00 0. -1.
         22    1    1    2    0    0 -0.10915889628E+03  0.30590451281E+03 -0.14411879937E+04  0.14773341087E+04  0.00000000000E+00 0.  1.
<mgrwt>
<rscale>  0 0.37403805E+04</rscale>
<asrwt>0</asrwt>
<pdfrwt beam="1">  1        1 0.36581003E+00 0.37403805E+04</pdfrwt>
<pdfrwt beam="2">  1       -1 0.22630245E+00 0.37403805E+04</pdfrwt>
<totfact> 0.13145038E-01</totfact>
</mgrwt>
</event>
<event>
 6    1  0.1528034E-005  0.1737839E+04  0.7818608E-02  0.8740073E-01
         -1   -1    0    0    0  501 -0.00000000000E+00  0.00000000000E+00  0.70950983846E+03  0.70950983846E+03  0.00000000000E+00 0.  1.
          1   -1    0    0  501    0  0.00000000000E+00 -0.00000000000E+00 -0.10641442877E+04  0.10641442877E+04  0.00000000000E+00 0. -1.
         23    2    1    2    0    0 -0.22102557800E+03  0.52184172418E+03  0.49103776787E+03  0.75564990710E+03  0.93368096211E+02 0.  0.
         11    1    3    3    0    0 -0.14037347949E+03  0.24846150947E+03  0.28994039452E+03  0.40682092843E+03  0.00000000000E+00 0.  1.
        -11    1    3    3    0    0 -0.80652098508E+02  0.27338021471E+03  0.20109737335E+03  0.34882897866E+03  0.00000000000E+00 0. -1.
         22    1    1    2    0    0  0.22102557800E+03 -0.52184172418E+03 -0.84567221710E+03  0.10180042191E+04  0.00000000000E+00 0. -1.
<mgrwt>
<rscale>  0 0.17378387E+04</rscale>
<asrwt>0</asrwt>
<pdfrwt beam="1">  1        1 0.16371451E+00 0.17378387E+04</pdfrwt>
<pdfrwt beam="2">  1       -1 0.10915536E+00 0.17378387E+04</pdfrwt>
<totfact> 0.99536786E+00</totfact>
</mgrwt>
</event>
<event>
 6    1  0.1528034E-005  0.3123419E+04  0.7818608E-02  0.8209340E-01
         -1   -1    0    0    0  501 -0.00000000000E+00  0.00000000000E+00  0.66062211835E+03  0.66062211835E+03  0.00000000000E+00 0.  1.
          1   -1    0    0  501    0  0.00000000000E+00 -0.00000000000E+00 -0.36918784001E+04  0.36918784001E+04  0.00000000000E+00 0. -1.
         23    2    1    2    0    0 -0.10930591401E+04 -0.65342394025E+03 -0.26039420871E+03  0.13030058460E+04  0.90983302029E+02 0.  0.
         11    1    3    3    0    0 -0.38963326534E+03 -0.20648670878E+03 -0.52628726129E+02  0.44409528840E+03  0.00000000000E+00 0. -1.
        -11    1    3    3    0    0 -0.70342587479E+03 -0.44693723147E+03 -0.20776548258E+03  0.85891055759E+03  0.00000000000E+00 0.  1.
         22    1    1    2    0    0  0.10930591401E+04  0.65342394025E+03 -0.27708620731E+04  0.30494946725E+04  0.00000000000E+00 0. -1.
<mgrwt>
<rscale>  0 0.31234190E+04</rscale>
<asrwt>0</asrwt>
<pdfrwt beam="1">  1        1 0.56798129E+00 0.31234190E+04</pdfrwt>
<pdfrwt beam="2">  1       -1 0.10163417E+00 0.31234190E+04</pdfrwt>
<totfact> 0.13530968E-01</totfact>
</mgrwt>
</event>
<event>
 6    1  0.1528034E-005  0.1850417E+04  0.7818608E-02  0.8679938E-01
         -2   -1    0    0    0  501 -0.00000000000E+00  0.00000000000E+00  0.76160286928E+03  0.76160286928E+03  0.00000000000E+00 0.  1.
          2   -1    0    0  501    0  0.00000000000E+00 -0.00000000000E+00 -0.11239596396E+04  0.11239596396E+04  0.00000000000E+00 0. -1.
         23    2    1    2    0    0 -0.83851222359E+03 -0.34594273198E+03 -0.72082637659E+01  0.91144260629E+03  0.88862492556E+02 0.  0.
         11    1    3    3    0    0 -0.54748611205E+03 -0.27068236700E+03  0.43219224356E+00  0.61074558818E+03  0.00000000000E+00 0.  1.
        -11    1    3    3    0    0 -0.29102611154E+03 -0.75260364982E+02 -0.76404560095E+01  0.30069701811E+03  0.00000000000E+00 0. -1.
         22    1    1    2    0    0  0.83851222359E+03  0.34594273198E+03 -0.35514850656E+03  0.97411990259E+03  0.00000000000E+00 0.  1.
<mgrwt>
<rscale>  0 0.18504171E+04</rscale>
<asrwt>0</asrwt>
<pdfrwt beam="1">  1        2 0.17291687E+00 0.18504171E+04</pdfrwt>
<pdfrwt beam="2">  1       -2 0.11716967E+00 0.18504171E+04</pdfrwt>
<totfact> 0.11155065E+01</totfact>
</mgrwt>
</event>
<event>
 6    1  0.2188168E-005  0.2631772E+04  0.7818608E-02  0.8357489E-01
         -2   -1    0    0    0  501 -0.00000000000E+00  0.00000000000E+00  0.77208228140E+03  0.77208228140E+03  0.00000000000E+00 0.  1.
          2   -1    0    0  501    0  0.00000000000E+00 -0.00000000000E+00 -0.22427084404E+04  0.22427084404E+04  0.00000000000E+00 0. -1.
         23    2    1    2    0    0  0.84310573468E+03  0.18455067472E+03 -0.18718303429E+04  0.20630286567E+04  0.86325976069E+02 0.  0.
         13    1    3    3    0    0  0.53741821850E+03  0.14404631523E+03 -0.11258607323E+04  0.12558383937E+04  0.00000000000E+00 0. -1.
        -13    1    3    3    0    0  0.30568751619E+03  0.40504359485E+02 -0.74596961058E+03  0.80719026295E+03  0.00000000000E+00 0.  1.
         22    1    1    2    0    0 -0.84310573468E+03 -0.18455067472E+03  0.40120418394E+03  0.95176206512E+03  0.00000000000E+00 0.  1.
<mgrwt>
<rscale>  0 0.26317716E+04</rscale>
<asrwt>0</asrwt>
<pdfrwt beam="1">  1        2 0.34503207E+00 0.26317716E+04</pdfrwt>
<pdfrwt beam="2">  1       -2 0.11878189E+00 0.26317716E+04</pdfrwt>
<totfact> 0.23471131E+00</totfact>
</mgrwt>
</event>
<event>
 6    1  0.1528034E-005  0.1586514E+04  0.7818608E-02  0.8828876E-01
         -2   -1    0    0    0  501 -0.00000000000E+00  0.00000000000E+00  0.25539793355E+03  0.25539793355E+03  0.00000000000E+00 0.  1.
          2   -1    0    0  501    0  0.00000000000E+00 -0.00000000000E+00 -0.24638291837E+04  0.24638291837E+04  0.00000000000E+00 0. -1.
         23    2    1    2    0    0  0.65582326793E+03  0.38566624725E+03 -0.14788946939E+04  0.16651558673E+04  0.82291760376E+02 0.  0.
         11    1    3    3    0    0  0.27898401234E+03  0.13916348531E+03 -0.53149910547E+03  0.61618978724E+03  0.00000000000E+00 0. -1.
        -11    1    3    3    0    0  0.37683925560E+03  0.24650276194E+03 -0.94739558841E+03  0.10489660801E+04  0.00000000000E+00 0.  1.
         22    1    1    2    0    0 -0.65582326793E+03 -0.38566624725E+03 -0.72953655632E+03  0.10540712500E+04  0.00000000000E+00 0. -1.
<mgrwt>
<rscale>  0 0.15865143E+04</rscale>
<asrwt>0</asrwt>
<pdfrwt beam="1">  1        2 0.37905065E+00 0.15865143E+04</pdfrwt>
<pdfrwt beam="2">  1       -2 0.39291989E-01 0.15865143E+04</pdfrwt>
<totfact> 0.21520422E+01</totfact>
</mgrwt>
</event>
<event>
 6    1  0.1528034E-005  0.2063887E+04  0.7818608E-02  0.8577320E-01
         -2   -1    0    0    0  501 -0.00000000000E+00  0.00000000000E+00  0.30259816625E+03  0.30259816625E+03  0.00000000000E+00 0.  1.
          2   -1    0    0  501    0  0.00000000000E+00 -0.00000000000E+00 -0.35192132095E+04  0.35192132095E+04  0.00000000000E+00 0. -1.
         23    2    1    2    0    0 -0.86334042754E+03  0.34524572430E+03 -0.79145490337E+03  0.12245141251E+04  0.92101436513E+02 0.  0.
         11    1    3    3    0    0 -0.66801050922E+03  0.25282574071E+03 -0.55782038075E+03  0.90626843307E+03  0.00000000000E+00 0.  1.
        -11    1    3    3    0    0 -0.19532991831E+03  0.92419983590E+02 -0.23363452262E+03  0.31824569206E+03  0.00000000000E+00 0. -1.
         22    1    1    2    0    0  0.86334042754E+03 -0.34524572430E+03 -0.24251601399E+04  0.25972972506E+04  0.00000000000E+00 0. -1.
<mgrwt>
<rscale>  0 0.20638871E+04</rscale>
<asrwt>0</asrwt>
<pdfrwt beam="1">  1        2 0.54141739E+00 0.20638871E+04</pdfrwt>
<pdfrwt beam="2">  1       -2 0.46553566E-01 0.20638871E+04</pdfrwt>
<totfact> 0.32026102E+00</totfact>
</mgrwt>
</event>
<event>
 6    1  0.1528034E-005  0.2548458E+04  0.7818608E-02  0.8385923E-01
          2   -1    0    0  501    0  0.00000000000E+00  0.00000000000E+00  0.10338422791E+04  0.10338422791E+04  0.00000000000E+00 0. -1.
         -2   -1    0    0    0  501 -0.00000000000E+00 -0.00000000000E+00 -0.15705101687E+04  0.15705101687E+04  0.00000000000E+00 0.  1.
         23    2    1    2    0    0  0.92500488690E+03  0.45219022862E+03 -0.10330123249E+04  0.14613442054E+04  0.91117395078E+02 0.  0.
         13    1    3    3    0    0  0.21601142637E+03  0.12501839115E+03 -0.20244170064E+03  0.32136144231E+03  0.00000000000E+00 0. -1.
        -13    1    3    3    0    0  0.70899346053E+03  0.32717183747E+03 -0.83057062422E+03  0.11399827631E+04  0.00000000000E+00 0.  1.
         22    1    1    2    0    0 -0.92500488690E+03 -0.45219022862E+03  0.49634443524E+03  0.11430082423E+04  0.00000000000E+00 0. -1.
<mgrwt>
<rscale>  0 0.25484582E+04</rscale>
<asrwt>0</asrwt>
<pdfrwt beam="1">  1        2 0.15905266E+00 0.25484582E+04</pdfrwt>
<pdfrwt beam="2">  1       -2 0.24161695E+00 0.25484582E+04</pdfrwt>
<totfact> 0.15408882E+00</totfact>
</mgrwt>
</event>
<event>
 6    1  0.1528034E-005  0.1042780E+04  0.7818608E-02  0.9262830E-01
          2   -1    0    0  501    0  0.00000000000E+00  0.00000000000E+00  0.31094190076E+04  0.31094190076E+04  0.00000000000E+00 0. -1.
         -2   -1    0    0    0  501 -0.00000000000E+00 -0.00000000000E+00 -0.87427149625E+02  0.87427149625E+02  0.00000000000E+00 0.  1.
         23    2    1    2    0    0  0.38542258453E+03 -0.32676175335E+03  0.11668319055E+04  0.12741027366E+04  0.80729645828E+02 0.  0.
         11    1    3    3    0    0  0.17308488869E+03 -0.19820146287E+03  0.62366038421E+03  0.67690063777E+03  0.00000000000E+00 0.  1.
        -11    1    3    3    0    0  0.21233769584E+03 -0.12856029048E+03  0.54317152126E+03  0.59720209885E+03  0.00000000000E+00 0. -1.
         22    1    1    2    0    0 -0.38542258453E+03  0.32676175335E+03  0.18551599525E+04  0.19227434206E+04  0.00000000000E+00 0. -1.
<mgrwt>
<rscale>  0 0.10427802E+04</rscale>
<asrwt>0</asrwt>
<pdfrwt beam="1">  1        2 0.47837207E+00 0.10427802E+04</pdfrwt>
<pdfrwt beam="2">  1       -2 0.13450333E-01 0.10427802E+04</pdfrwt>
<totfact> 0.63928094E+01</totfact>
</mgrwt>
</event>
<event>
 6    1  0.1528034E-005  0.2033635E+04  0.7818608E-02  0.8591055E-01
          1   -1    0    0  501    0  0.00000000000E+00  0.00000000000E+00  0.54982609560E+03  0.54982609560E+03  0.00000000000E+00 0. -1.
         -1   -1    0    0    0  501 -0.00000000000E+00 -0.00000000000E+00 -0.18804456349E+04  0.18804456349E+04  0.00000000000E+00 0.  1.
         23    2    1    2    0    0  0.23752840511E+03 -0.49697920040E+03 -0.16851659212E+04  0.17752059279E+04  0.90353946625E+02 0.  0.
         13    1    3    3    0    0  0.18611826775E+03 -0.31414917003E+03 -0.10165913422E+04  0.10801794609E+04  0.00000000000E+00 0. -1.
        -13    1    3    3    0    0  0.51410137353E+02 -0.18283003036E+03 -0.66857457895E+03  0.69502646701E+03  0.00000000000E+00 0.  1.
         22    1    1    2    0    0 -0.23752840511E+03  0.49697920040E+03  0.35454638187E+03  0.65506580261E+03  0.00000000000E+00 0. -1.
<mgrwt>
<rscale>  0 0.20336352E+04</rscale>
<asrwt>0</asrwt>
<pdfrwt beam="1">  1        1 0.84588629E-01 0.20336352E+04</pdfrwt>
<pdfrwt beam="2">  1       -1 0.28929933E+00 0.20336352E+04</pdfrwt>
<totfact> 0.13913791E+00</totfact>
</mgrwt>
</event>
<event>
 6    1  0.1528034E-005  0.4100305E+04  0.7818608E-02  0.7984612E-01
          2   -1    0    0  501    0  0.00000000000E+00  0.00000000000E+00  0.18524834995E+04  0.18524834995E+04  0.00000000000E+00 0.  1.
         -2   -1    0    0    0  501 -0.00000000000E+00 -0.00000000000E+00 -0.22689137500E+04  0.22689137500E+04  0.00000000000E+00 0. -1.
         23    2    1    2    0    0 -0.19588074869E+03 -0.11741881434E+04  0.14681142601E+04  0.18923626880E+04  0.92682244694E+02 0.  0.
         11    1    3    3    0    0 -0.21512221615E+02 -0.20111523506E+03  0.19998649823E+03  0.28443753783E+03  0.00000000000E+00 0.  1.
        -11    1    3    3    0    0 -0.17436852707E+03 -0.97307290834E+03  0.12681277619E+04  0.16079251502E+04  0.00000000000E+00 0. -1.
         22    1    1    2    0    0  0.19588074869E+03  0.11741881434E+04 -0.18845445106E+04  0.22290345614E+04  0.00000000000E+00 0. -1.
<mgrwt>
<rscale>  0 0.41003050E+04</rscale>
<asrwt>0</asrwt>
<pdfrwt beam="1">  1        2 0.28499746E+00 0.41003050E+04</pdfrwt>
<pdfrwt beam="2">  1       -2 0.34906365E+00 0.41003050E+04</pdfrwt>
<totfact> 0.99562026E-02</totfact>
</mgrwt>
</event>
<event>
 6    1  0.1528034E-005  0.1123542E+04  0.7818608E-02  0.9182545E-01
          2   -1    0    0  501    0  0.00000000000E+00  0.00000000000E+00  0.68556059358E+03  0.68556059358E+03  0.00000000000E+00 0.  1.
         -2   -1    0    0    0  501 -0.00000000000E+00 -0.00000000000E+00 -0.46033406403E+03  0.46033406403E+03  0.00000000000E+00 0. -1.
         23    2    1    2    0    0 -0.40429713404E+03 -0.37998837394E+03  0.51363335511E+02  0.56445184257E+03  0.90113003606E+02 0.  0.
         11    1    3    3    0    0 -0.74717345688E+02 -0.27993985036E+02  0.33247382698E+01  0.79858617753E+02  0.00000000000E+00 0. -1.
        -11    1    3    3    0    0 -0.32957978835E+03 -0.35199438890E+03  0.48038597242E+02  0.48459322481E+03  0.00000000000E+00 0.  1.
         22    1    1    2    0    0  0.40429713404E+03  0.37998837394E+03  0.17386319403E+03  0.58144281504E+03  0.00000000000E+00 0.  1.
<mgrwt>
<rscale>  0 0.11235424E+04</rscale>
<asrwt>0</asrwt>
<pdfrwt beam="1">  1        2 0.10547086E+00 0.11235424E+04</pdfrwt>
<pdfrwt beam="2">  1       -2 0.70820625E-01 0.11235424E+04</pdfrwt>
<totfact> 0.75623427E+01</totfact>
</mgrwt>
</event>
<event>
 6    1  0.1528034E-005  0.1199141E+04  0.7818608E-02  0.9113609E-01
         -2   -1    0    0    0  501 -0.00000000000E+00  0.00000000000E+00  0.16183353006E+03  0.16183353006E+03  0.00000000000E+00 0.  1.
          2   -1    0    0  501    0  0.00000000000E+00 -0.00000000000E+00 -0.22213239408E+04  0.22213239408E+04  0.00000000000E+00 0. -1.
         23    2    1    2    0    0 -0.21973558405E+01 -0.57392796585E+03 -0.13553712831E+04  0.14747622462E+04  0.92164143113E+02 0.  0.
         11    1    3    3    0    0 -0.42441918951E+01 -0.16666640047E+03 -0.29473063662E+03  0.33861755769E+03  0.00000000000E+00 0.  1.
        -11    1    3    3    0    0  0.20468360545E+01 -0.40726156538E+03 -0.10606406465E+04  0.11361446885E+04  0.00000000000E+00 0. -1.
         22    1    1    2    0    0  0.21973558405E+01  0.57392796585E+03 -0.70411912767E+03  0.90839522473E+03  0.00000000000E+00 0.  1.
<mgrwt>
<rscale>  0 0.11991409E+04</rscale>
<asrwt>0</asrwt>
<pdfrwt beam="1">  1        2 0.34174215E+00 0.11991409E+04</pdfrwt>
<pdfrwt beam="2">  1       -2 0.24897466E-01 0.11991409E+04</pdfrwt>
<totfact> 0.71870581E+01</totfact>
</mgrwt>
</event>
<event>
 6    1  0.1606724E-005  0.3762545E+04  0.7818608E-02  0.8054241E-01
          2   -1    0    0  501    0  0.00000000000E+00  0.00000000000E+00  0.22638889358E+04  0.22638889358E+04  0.00000000000E+00 0. -1.
         -2   -1    0    0    0  501 -0.00000000000E+00 -0.00000000000E+00 -0.15633217192E+04  0.15633217192E+04  0.00000000000E+00 0.  1.
         23    2    1    2    0    0  0.86288842921E+03  0.14186807142E+04 -0.54650978762E+03  0.17505709499E+04  0.92705407942E+02 0.  0.
         11    1    3    3    0    0  0.59392149764E+03  0.10515805697E+04 -0.41116764237E+03  0.12757833946E+04  0.00000000000E+00 0. -1.
        -11    1    3    3    0    0  0.26896693157E+03  0.36710014455E+03 -0.13534214525E+03  0.47478755532E+03  0.00000000000E+00 0.  1.
         22    1    1    2    0    0 -0.86288842921E+03 -0.14186807142E+04  0.12470770042E+04  0.20766397051E+04  0.00000000000E+00 0. -1.
<mgrwt>
<rscale>  0 0.37625453E+04</rscale>
<asrwt>0</asrwt>
<pdfrwt beam="1">  1        2 0.34829061E+00 0.37625453E+04</pdfrwt>
<pdfrwt beam="2">  1       -2 0.24051103E+00 0.37625453E+04</pdfrwt>
<totfact> 0.28109205E-01</totfact>
</mgrwt>
</event>
<event>
 6    1  0.1528034E-005  0.4514383E+03  0.7818608E-02  0.1027294E+00
          1   -1    0    0  501    0  0.00000000000E+00  0.00000000000E+00  0.40098663024E+02  0.40098663024E+02  0.00000000000E+00 0. -1.
         -1   -1    0    0    0  501 -0.00000000000E+00 -0.00000000000E+00 -0.12705946017E+04  0.12705946017E+04  0.00000000000E+00 0.  1.
         23    2    1    2    0    0  0.56568355560E+02  0.70337444109E+02 -0.12119413889E+04  0.12185433531E+04  0.88874284325E+02 0.  0.
         13    1    3    3    0    0  0.27825358628E+02 -0.68480700427E+01 -0.64650493712E+03  0.64713969154E+03  0.00000000000E+00 0.  1.
        -13    1    3    3    0    0  0.28742996932E+02  0.77185514151E+02 -0.56543645176E+03  0.57140366156E+03  0.00000000000E+00 0. -1.
         22    1    1    2    0    0 -0.56568355560E+02 -0.70337444109E+02 -0.18554549802E+02  0.92149911627E+02  0.00000000000E+00 0. -1.
<mgrwt>
<rscale>  0 0.45143834E+03</rscale>
<asrwt>0</asrwt>
<pdfrwt beam="1">  1        1 0.61690252E-02 0.45143834E+03</pdfrwt>
<pdfrwt beam="2">  1       -1 0.19547609E+00 0.45143834E+03</pdfrwt>
<totfact> 0.22065214E+02</totfact>
</mgrwt>
</event>
<event>
 6    1  0.1528034E-005  0.1749505E+04  0.7818608E-02  0.8733623E-01
         -1   -1    0    0    0  501 -0.00000000000E+00  0.00000000000E+00  0.23906411020E+03  0.23906411020E+03  0.00000000000E+00 0.  1.
          1   -1    0    0  501    0  0.00000000000E+00 -0.00000000000E+00 -0.32007802176E+04  0.32007802176E+04  0.00000000000E+00 0. -1.
         23    2    1    2    0    0 -0.50436029795E+03 -0.48814770702E+03 -0.46642851501E+03  0.84771630959E+03  0.91650902427E+02 0.  0.
         13    1    3    3    0    0 -0.34669674526E+03 -0.37495496407E+03 -0.30164027464E+03  0.59310767449E+03  0.00000000000E+00 0. -1.
        -13    1    3    3    0    0 -0.15766355269E+03 -0.11319274295E+03 -0.16478824037E+03  0.25460863510E+03  0.00000000000E+00 0.  1.
         22    1    1    2    0    0  0.50436029795E+03  0.48814770702E+03 -0.24952875924E+04  0.25921280182E+04  0.00000000000E+00 0. -1.
<mgrwt>
<rscale>  0 0.17495047E+04</rscale>
<asrwt>0</asrwt>
<pdfrwt beam="1">  1        1 0.49242773E+00 0.17495047E+04</pdfrwt>
<pdfrwt beam="2">  1       -1 0.36779094E-01 0.17495047E+04</pdfrwt>
<totfact> 0.28687927E+00</totfact>
</mgrwt>
</event>
<event>
 6    1  0.1528034E-005  0.2079370E+04  0.7818608E-02  0.8570386E-01
         -1   -1    0    0    0  501 -0.00000000000E+00  0.00000000000E+00  0.61337344420E+03  0.61337344420E+03  0.00000000000E+00 0.  1.
          1   -1    0    0  501    0  0.00000000000E+00 -0.00000000000E+00 -0.17622941696E+04  0.17622941696E+04  0.00000000000E+00 0. -1.
         23    2    1    2    0    0  0.22763181978E+02  0.49826716486E+03 -0.16151173615E+04  0.16929322085E+04  0.92881868099E+02 0.  0.
         13    1    3    3    0    0  0.10133149474E+02  0.38398400152E+03 -0.10999778376E+04  0.11651170059E+04  0.00000000000E+00 0.  1.
        -13    1    3    3    0    0  0.12630032504E+02  0.11428316334E+03 -0.51513952383E+03  0.52781520266E+03  0.00000000000E+00 0. -1.
         22    1    1    2    0    0 -0.22763181978E+02 -0.49826716486E+03  0.46619663610E+03  0.68273540522E+03  0.00000000000E+00 0.  1.
<mgrwt>
<rscale>  0 0.20793696E+04</rscale>
<asrwt>0</asrwt>
<pdfrwt beam="1">  1        1 0.27112218E+00 0.20793696E+04</pdfrwt>
<pdfrwt beam="2">  1       -1 0.94365146E-01 0.20793696E+04</pdfrwt>
<totfact> 0.43278953E+00</totfact>
</mgrwt>
</event>
<event>
 6    1  0.1528034E-005  0.2935207E+04  0.7818608E-02  0.8262479E-01
         -2   -1    0    0    0  501 -0.00000000000E+00  0.00000000000E+00  0.10438208238E+04  0.10438208238E+04  0.00000000000E+00 0.  1.
          2   -1    0    0  501    0  0.00000000000E+00 -0.00000000000E+00 -0.20634387270E+04  0.20634387270E+04  0.00000000000E+00 0. -1.
         23    2    1    2    0    0 -0.14769045000E+03 -0.93371875500E+03 -0.16966929303E+04  0.19444724789E+04  0.92537229719E+02 0.  0.
         13    1    3    3    0    0 -0.75480964819E+02 -0.63781219681E+03 -0.10769072599E+04  0.12538863668E+04  0.00000000000E+00 0. -1.
        -13    1    3    3    0    0 -0.72209485176E+02 -0.29590655819E+03 -0.61978567046E+03  0.69058611211E+03  0.00000000000E+00 0.  1.
         22    1    1    2    0    0  0.14769045000E+03  0.93371875500E+03  0.67707502713E+03  0.11627870720E+04  0.00000000000E+00 0.  1.
<mgrwt>
<rscale>  0 0.29352072E+04</rscale>
<asrwt>0</asrwt>
<pdfrwt beam="1">  1        2 0.31745211E+00 0.29352072E+04</pdfrwt>
<pdfrwt beam="2">  1       -2 0.16058782E+00 0.29352072E+04</pdfrwt>
<totfact> 0.13218449E+00</totfact>
</mgrwt>
</event>
<event>
 6    1  0.1528034E-005  0.3024118E+04  0.7818608E-02  0.8236877E-01
         -1   -1    0    0    0  501 -0.00000000000E+00  0.00000000000E+00  0.10838403283E+04  0.10838403283E+04  0.00000000000E+00 0.  1.
          1   -1    0    0  501    0  0.00000000000E+00 -0.00000000000E+00 -0.21094645310E+04  0.21094645310E+04  0.00000000000E+00 0. -1.
         23    2    1    2    0    0 -0.11549547945E+03 -0.94760658795E+03 -0.17496198135E+04  0.19951950581E+04  0.91303759535E+02 0.  0.
         13    1    3    3    0    0 -0.20321609492E+02 -0.36827376305E+03 -0.59900883689E+03  0.70345584015E+03  0.00000000000E+00 0.  1.
        -13    1    3    3    0    0 -0.95173869961E+02 -0.57933282490E+03 -0.11506109766E+04  0.12917392179E+04  0.00000000000E+00 0. -1.
         22    1    1    2    0    0  0.11549547945E+03  0.94760658795E+03  0.72399561078E+03  0.11981098012E+04  0.00000000000E+00 0.  1.
<mgrwt>
<rscale>  0 0.30241182E+04</rscale>
<asrwt>0</asrwt>
<pdfrwt beam="1">  1        1 0.32453300E+00 0.30241182E+04</pdfrwt>
<pdfrwt beam="2">  1       -1 0.16674467E+00 0.30241182E+04</pdfrwt>
<totfact> 0.55461011E-01</totfact>
</mgrwt>
</event>
<event>
 6    1  0.1528034E-005  0.5600726E+04  0.7818608E-02  0.7741979E-01
          2   -1    0    0  501    0  0.00000000000E+00  0.00000000000E+00  0.36025761937E+04  0.36025761937E+04  0.00000000000E+00 0. -1.
         -2   -1    0    0    0  501 -0.00000000000E+00 -0.00000000000E+00 -0.21767846608E+04  0.21767846608E+04  0.00000000000E+00 0.  1.
         23    2    1    2    0    0 -0.18825291666E+04  0.89939776366E+03  0.26396277194E+04  0.33656022320E+04  0.82531731647E+02 0.  0.
         13    1    3    3    0    0 -0.50351611365E+03  0.25273770767E+03  0.65725145739E+03  0.86566985845E+03  0.00000000000E+00 0.  1.
        -13    1    3    3    0    0 -0.13790130529E+04  0.64666005599E+03  0.19823762620E+04  0.24999323735E+04  0.00000000000E+00 0. -1.
         22    1    1    2    0    0  0.18825291666E+04 -0.89939776366E+03 -0.12138361865E+04  0.24137586226E+04  0.00000000000E+00 0.  1.
<mgrwt>
<rscale>  0 0.56007259E+04</rscale>
<asrwt>0</asrwt>
<pdfrwt beam="1">  1        2 0.55424249E+00 0.56007259E+04</pdfrwt>
<pdfrwt beam="2">  1       -2 0.33488995E+00 0.56007259E+04</pdfrwt>
<totfact> 0.92132653E-03</totfact>
</mgrwt>
</event>
<event>
 6    1  0.1528034E-005  0.1994021E+04  0.7818608E-02  0.8609421E-01
          1   -1    0    0  501    0  0.00000000000E+00  0.00000000000E+00  0.32050990276E+04  0.32050990276E+04  0.00000000000E+00 0. -1.
         -1   -1    0    0    0  501 -0.00000000000E+00 -0.00000000000E+00 -0.31014012703E+03  0.31014012703E+03  0.00000000000E+00 0.  1.
         23    2    1    2    0    0 -0.12187316031E+03  0.69079279554E+03  0.26943848449E+04  0.27856655083E+04  0.90415032784E+02 0.  0.
         13    1    3    3    0    0  0.10125309579E+02  0.14776011899E+03  0.59885463713E+03  0.61689743967E+03  0.00000000000E+00 0. -1.
        -13    1    3    3    0    0 -0.13199846989E+03  0.54303267655E+03  0.20955302078E+04  0.21687680686E+04  0.00000000000E+00 0.  1.
         22    1    1    2    0    0  0.12187316031E+03 -0.69079279554E+03  0.20057405563E+03  0.72957364629E+03  0.00000000000E+00 0.  1.
<mgrwt>
<rscale>  0 0.19940209E+04</rscale>
<asrwt>0</asrwt>
<pdfrwt beam="1">  1        1 0.49309213E+00 0.19940209E+04</pdfrwt>
<pdfrwt beam="2">  1       -1 0.47713868E-01 0.19940209E+04</pdfrwt>
<totfact> 0.17203815E+00</totfact>
</mgrwt>
</event>
<event>
 6    1  0.1528034E-005  0.4188488E+04  0.7818608E-02  0.7967566E-01
          2   -1    0    0  501    0  0.00000000000E+00  0.00000000000E+00  0.25024249263E+04  0.25024249263E+04  0.00000000000E+00 0. -1.
         -2   -1    0    0    0  501 -0.00000000000E+00 -0.00000000000E+00 -0.17526428251E+04  0.17526428251E+04  0.00000000000E+00 0.  1.
         23    2    1    2    0    0 -0.89993732994E+03 -0.72302434589E+03  0.21489828143E+04  0.24411179070E+04  0.90984048385E+02 0.  0.
         13    1    3    3    0    0 -0.20168530236E+03 -0.11540325297E+03  0.42859666842E+03  0.48753458972E+03  0.00000000000E+00 0. -1.
        -13    1    3    3    0    0 -0.69825202758E+03 -0.60762109292E+03  0.17203861459E+04  0.19535833173E+04  0.00000000000E+00 0.  1.
         22    1    1    2    0    0  0.89993732994E+03  0.72302434589E+03 -0.13992007131E+04  0.18139498444E+04  0.00000000000E+00 0.  1.
<mgrwt>
<rscale>  0 0.41884876E+04</rscale>
<asrwt>0</asrwt>
<pdfrwt beam="1">  1        2 0.38498845E+00 0.41884876E+04</pdfrwt>
<pdfrwt beam="2">  1       -2 0.26963736E+00 0.41884876E+04</pdfrwt>
<totfact> 0.13133811E-01</totfact>
</mgrwt>
</event>
<event>
 6    1  0.1528034E-005  0.2720359E+04  0.7818608E-02  0.8328429E-01
         -2   -1    0    0    0  501 -0.00000000000E+00  0.00000000000E+00  0.11108640814E+04  0.11108640814E+04  0.00000000000E+00 0.  1.
          2   -1    0    0  501    0  0.00000000000E+00 -0.00000000000E+00 -0.16654499452E+04  0.16654499452E+04  0.00000000000E+00 0. -1.
         23    2    1    2    0    0 -0.25495832439E+03  0.11284091188E+04  0.44906589069E+03  0.12447697958E+04  0.97369316795E+02 0.  0.
         13    1    3    3    0    0 -0.19395649307E+03  0.66605321613E+03  0.29199553213E+03  0.75266685771E+03  0.00000000000E+00 0. -1.
        -13    1    3    3    0    0 -0.61001831315E+02  0.46235590264E+03  0.15707035856E+03  0.49210293808E+03  0.00000000000E+00 0.  1.
         22    1    1    2    0    0  0.25495832439E+03 -0.11284091188E+04 -0.10036517545E+04  0.15315442307E+04  0.00000000000E+00 0. -1.
<mgrwt>
<rscale>  0 0.27203592E+04</rscale>
<asrwt>0</asrwt>
<pdfrwt beam="1">  1        2 0.25622307E+00 0.27203592E+04</pdfrwt>
<pdfrwt beam="2">  1       -2 0.17090217E+00 0.27203592E+04</pdfrwt>
<totfact> 0.18858810E+00</totfact>
</mgrwt>
</event>
<event>
 6    1  0.1528034E-005  0.2159839E+04  0.7818608E-02  0.8535333E-01
          2   -1    0    0  501    0  0.00000000000E+00  0.00000000000E+00  0.23259371189E+04  0.23259371189E+04  0.00000000000E+00 0. -1.
         -2   -1    0    0    0  501 -0.00000000000E+00 -0.00000000000E+00 -0.50140031229E+03  0.50140031229E+03  0.00000000000E+00 0.  1.
         23    2    1    2    0    0  0.63927929441E+03  0.61801298258E+03  0.11599347939E+03  0.90126932131E+03  0.90630234332E+02 0.  0.
         13    1    3    3    0    0  0.33420119820E+03  0.38546982867E+03  0.66344822936E+02  0.51446969320E+03  0.00000000000E+00 0. -1.
        -13    1    3    3    0    0  0.30507809621E+03  0.23254315392E+03  0.49648656455E+02  0.38679962811E+03  0.00000000000E+00 0.  1.
         22    1    1    2    0    0 -0.63927929441E+03 -0.61801298258E+03  0.17085433272E+04  0.19260681098E+04  0.00000000000E+00 0. -1.
<mgrwt>
<rscale>  0 0.21598385E+04</rscale>
<asrwt>0</asrwt>
<pdfrwt beam="1">  1        2 0.35783647E+00 0.21598385E+04</pdfrwt>
<pdfrwt beam="2">  1       -2 0.77138511E-01 0.21598385E+04</pdfrwt>
<totfact> 0.60277386E+00</totfact>
</mgrwt>
</event>
<event>
 6    1  0.1528034E-005  0.5211909E+04  0.7818608E-02  0.7796624E-01
          2   -1    0    0  501    0  0.00000000000E+00  0.00000000000E+00  0.26280248346E+04  0.26280248346E+04  0.00000000000E+00 0. -1.
         -2   -1    0    0    0  501 -0.00000000000E+00 -0.00000000000E+00 -0.25840696958E+04  0.25840696958E+04  0.00000000000E+00 0.  1.
         23    2    1    2    0    0  0.11855403178E+04 -0.21789721459E+04  0.81776648078E+03  0.26135931449E+04  0.93282646644E+02 0.  0.
         13    1    3    3    0    0  0.10956739666E+04 -0.20281919676E+04  0.78361323251E+03  0.24347718162E+04  0.00000000000E+00 0. -1.
        -13    1    3    3    0    0  0.89866351167E+02 -0.15078017829E+03  0.34153248272E+02  0.17882132872E+03  0.00000000000E+00 0.  1.
         22    1    1    2    0    0 -0.11855403178E+04  0.21789721459E+04 -0.77381134199E+03  0.25985013855E+04  0.00000000000E+00 0.  1.
<mgrwt>
<rscale>  0 0.52119092E+04</rscale>
<asrwt>0</asrwt>
<pdfrwt beam="1">  1        2 0.40431151E+00 0.52119092E+04</pdfrwt>
<pdfrwt beam="2">  1       -2 0.39754918E+00 0.52119092E+04</pdfrwt>
<totfact> 0.16165675E-02</totfact>
</mgrwt>
</event>
<event>
 6    1  0.1528034E-005  0.1360394E+04  0.7818608E-02  0.8982997E-01
         -2   -1    0    0    0  501 -0.00000000000E+00  0.00000000000E+00  0.22789779490E+03  0.22789779490E+03  0.00000000000E+00 0. -1.
          2   -1    0    0  501    0  0.00000000000E+00 -0.00000000000E+00 -0.20301561904E+04  0.20301561904E+04  0.00000000000E+00 0.  1.
         23    2    1    2    0    0  0.49628521557E+03  0.28242496524E+03 -0.30141612114E+03  0.65225499143E+03  0.92314785304E+02 0.  0.
         13    1    3    3    0    0  0.18454738079E+03  0.10596634572E+03 -0.16367618701E+03  0.26847066204E+03  0.00000000000E+00 0. -1.
        -13    1    3    3    0    0  0.31173783477E+03  0.17645861952E+03 -0.13773993413E+03  0.38378432939E+03  0.00000000000E+00 0.  1.
         22    1    1    2    0    0 -0.49628521557E+03 -0.28242496524E+03 -0.15008422744E+04  0.16057989939E+04  0.00000000000E+00 0. -1.
<mgrwt>
<rscale>  0 0.13603942E+04</rscale>
<asrwt>0</asrwt>
<pdfrwt beam="1">  1        2 0.31233173E+00 0.13603942E+04</pdfrwt>
<pdfrwt beam="2">  1       -2 0.35061198E-01 0.13603942E+04</pdfrwt>
<totfact> 0.47942953E+01</totfact>
</mgrwt>
</event>
<event>
 6    1  0.1528034E-005  0.7816417E+03  0.7818608E-02  0.9586977E-01
         -1   -1    0    0    0  501 -0.00000000000E+00  0.00000000000E+00  0.10498704288E+04  0.10498704288E+04  0.00000000000E+00 0.  1.
          1   -1    0    0  501    0  0.00000000000E+00 -0.00000000000E+00 -0.14548549712E+03  0.14548549712E+03  0.00000000000E+00 0. -1.
         23    2    1    2    0    0  0.73887936569E+02 -0.16792832918E+03 -0.60668066127E+02  0.21301859104E+03  0.89649065636E+02 0.  0.
         11    1    3    3    0    0  0.53747422321E+01 -0.11011233667E+03 -0.11683785688E+02  0.11086083794E+03  0.00000000000E+00 0. -1.
        -11    1    3    3    0    0  0.68513194337E+02 -0.57815992509E+02 -0.48984280439E+02  0.10215775310E+03  0.00000000000E+00 0.  1.
         22    1    1    2    0    0 -0.73887936569E+02  0.16792832918E+03  0.96505299778E+03  0.98233733485E+03  0.00000000000E+00 0.  1.
<mgrwt>
<rscale>  0 0.78164166E+03</rscale>
<asrwt>0</asrwt>
<pdfrwt beam="1">  1        1 0.22382385E-01 0.78164166E+03</pdfrwt>
<pdfrwt beam="2">  1       -1 0.16151852E+00 0.78164166E+03</pdfrwt>
<totfact> 0.65367130E+01</totfact>
</mgrwt>
</event>
<event>
 6    1  0.1528034E-005  0.1383289E+04  0.7818608E-02  0.8966004E-01
          2   -1    0    0  501    0  0.00000000000E+00  0.00000000000E+00  0.21654566882E+04  0.21654566882E+04  0.00000000000E+00 0. -1.
         -2   -1    0    0    0  501 -0.00000000000E+00 -0.00000000000E+00 -0.22091059695E+03  0.22091059695E+03  0.00000000000E+00 0.  1.
         23    2    1    2    0    0 -0.63165987346E+03 -0.24814564301E+03  0.77395515723E+03  0.10332768999E+04  0.89911681992E+02 0.  0.
         11    1    3    3    0    0 -0.37132333847E+03 -0.10421337855E+03  0.40353749799E+03  0.55819706399E+03  0.00000000000E+00 0. -1.
        -11    1    3    3    0    0 -0.26033653499E+03 -0.14393226446E+03  0.37041765923E+03  0.47507983590E+03  0.00000000000E+00 0.  1.
         22    1    1    2    0    0  0.63165987346E+03  0.24814564301E+03  0.11705909340E+04  0.13530903853E+04  0.00000000000E+00 0.  1.
<mgrwt>
<rscale>  0 0.13832893E+04</rscale>
<asrwt>0</asrwt>
<pdfrwt beam="1">  1        2 0.33314717E+00 0.13832893E+04</pdfrwt>
<pdfrwt beam="2">  1       -2 0.33986247E-01 0.13832893E+04</pdfrwt>
<totfact> 0.42702559E+01</totfact>
</mgrwt>
</event>
<event>
 6    1  0.1528034E-005  0.1889624E+04  0.7818608E-02  0.8660038E-01
          2   -1    0    0  501    0  0.00000000000E+00  0.00000000000E+00  0.10380133404E+04  0.10380133404E+04  0.00000000000E+00 0. -1.
         -2   -1    0    0    0  501 -0.00000000000E+00 -0.00000000000E+00 -0.85997902062E+03  0.85997902062E+03  0.00000000000E+00 0.  1.
         23    2    1    2    0    0 -0.37668497383E+03 -0.19458222464E+03  0.93485513003E+03  0.10305065972E+04  0.90751975479E+02 0.  0.
         13    1    3    3    0    0 -0.27535053233E+03 -0.15742844372E+03  0.59984330763E+03  0.67853785764E+03  0.00000000000E+00 0. -1.
        -13    1    3    3    0    0 -0.10133444150E+03 -0.37153780924E+02  0.33501182240E+03  0.35196873955E+03  0.00000000000E+00 0.  1.
         22    1    1    2    0    0  0.37668497383E+03  0.19458222464E+03 -0.75682081023E+03  0.86748576384E+03  0.00000000000E+00 0.  1.
<mgrwt>
<rscale>  0 0.18896240E+04</rscale>
<asrwt>0</asrwt>
<pdfrwt beam="1">  1        2 0.15969436E+00 0.18896240E+04</pdfrwt>
<pdfrwt beam="2">  1       -2 0.13230446E+00 0.18896240E+04</pdfrwt>
<totfact> 0.92738275E+00</totfact>
</mgrwt>
</event>
<event>
 6    1  0.1528034E-005  0.2381695E+04  0.7818608E-02  0.8446388E-01
         -1   -1    0    0    0  501 -0.00000000000E+00  0.00000000000E+00  0.13938352194E+04  0.13938352194E+04  0.00000000000E+00 0.  1.
          1   -1    0    0  501    0  0.00000000000E+00 -0.00000000000E+00 -0.10174217192E+04  0.10174217192E+04  0.00000000000E+00 0. -1.
         23    2    1    2    0    0  0.87250636068E+03 -0.68353224676E+03  0.62436916377E+03  0.12754903724E+04  0.92494084595E+02 0.  0.
         11    1    3    3    0    0  0.90753640745E+01 -0.19329654722E+02  0.35161737849E+01  0.21641655732E+02  0.00000000000E+00 0. -1.
        -11    1    3    3    0    0  0.86343099661E+03 -0.66420259204E+03  0.62085298998E+03  0.12538487167E+04  0.00000000000E+00 0.  1.
         22    1    1    2    0    0 -0.87250636068E+03  0.68353224676E+03 -0.24795566357E+03  0.11357665662E+04  0.00000000000E+00 0. -1.
<mgrwt>
<rscale>  0 0.23816954E+04</rscale>
<asrwt>0</asrwt>
<pdfrwt beam="1">  1        1 0.15652642E+00 0.23816954E+04</pdfrwt>
<pdfrwt beam="2">  1       -1 0.21443619E+00 0.23816954E+04</pdfrwt>
<totfact> 0.15788942E+00</totfact>
</mgrwt>
</event>
<event>
 6    1  0.1528034E-005  0.1873660E+04  0.7818608E-02  0.8668080E-01
          2   -1    0    0  501    0  0.00000000000E+00  0.00000000000E+00  0.20441076883E+04  0.20441076883E+04  0.00000000000E+00 0.  1.
         -2   -1    0    0    0  501 -0.00000000000E+00 -0.00000000000E+00 -0.42935627277E+03  0.42935627277E+03  0.00000000000E+00 0. -1.
         23    2    1    2    0    0 -0.60756857457E+03  0.65396876843E+03  0.11745278110E+04  0.14781692585E+04  0.93027174365E+02 0.  0.
         13    1    3    3    0    0 -0.29522382292E+03  0.25423912122E+03  0.48395061622E+03  0.62129126448E+03  0.00000000000E+00 0.  1.
        -13    1    3    3    0    0 -0.31234475164E+03  0.39972964721E+03  0.69057719476E+03  0.85687799403E+03  0.00000000000E+00 0. -1.
         22    1    1    2    0    0  0.60756857457E+03 -0.65396876843E+03  0.44022360451E+03  0.99529470251E+03  0.00000000000E+00 0. -1.
<mgrwt>
<rscale>  0 0.18736600E+04</rscale>
<asrwt>0</asrwt>
<pdfrwt beam="1">  1        2 0.31447810E+00 0.18736600E+04</pdfrwt>
<pdfrwt beam="2">  1       -2 0.66054812E-01 0.18736600E+04</pdfrwt>
<totfact> 0.12494954E+01</totfact>
</mgrwt>
</event>
<event>
 6    1  0.1528034E-005  0.3341070E+04  0.7818608E-02  0.8152523E-01
         -2   -1    0    0    0  501 -0.00000000000E+00  0.00000000000E+00  0.15890635277E+04  0.15890635277E+04  0.00000000000E+00 0.  1.
          2   -1    0    0  501    0  0.00000000000E+00 -0.00000000000E+00 -0.17561834199E+04  0.17561834199E+04  0.00000000000E+00 0. -1.
         23    2    1    2    0    0 -0.15140635400E+03 -0.16478867215E+04 -0.30306167647E+03  0.16848449782E+04  0.91660733153E+02 0.  0.
         11    1    3    3    0    0 -0.68879268418E+01 -0.26717847011E+03 -0.19876751368E+02  0.26800534261E+03  0.00000000000E+00 0.  1.
        -11    1    3    3    0    0 -0.14451842715E+03 -0.13807082514E+04 -0.28318492510E+03  0.14168396356E+04  0.00000000000E+00 0. -1.
         22    1    1    2    0    0  0.15140635400E+03  0.16478867215E+04  0.13594178423E+03  0.16604019693E+04  0.00000000000E+00 0.  1.
<mgrwt>
<rscale>  0 0.33410699E+04</rscale>
<asrwt>0</asrwt>
<pdfrwt beam="1">  1        2 0.27018206E+00 0.33410699E+04</pdfrwt>
<pdfrwt beam="2">  1       -2 0.24447131E+00 0.33410699E+04</pdfrwt>
<totfact> 0.52805727E-01</totfact>
</mgrwt>
</event>
<event>
 6    1  0.1528034E-005  0.1409924E+04  0.7818608E-02  0.8946666E-01
         -1   -1    0    0    0  501 -0.00000000000E+00  0.00000000000E+00  0.91707771244E+03  0.91707771244E+03  0.00000000000E+00 0.  1.
          1   -1    0    0  501    0  0.00000000000E+00 -0.00000000000E+00 -0.54190792858E+03  0.54190792858E+03  0.00000000000E+00 0. -1.
         23    2    1    2    0    0  0.12511357661E+03 -0.51812241404E+03  0.66083882813E+03  0.85424516293E+03  0.94459508007E+02 0.  0.
         11    1    3    3    0    0  0.97377035818E+01 -0.86688832785E+02  0.61145509944E+02  0.10652957330E+03  0.00000000000E+00 0.  1.
        -11    1    3    3    0    0  0.11537587303E+03 -0.43143358126E+03  0.59969331818E+03  0.74771558964E+03  0.00000000000E+00 0. -1.
         22    1    1    2    0    0 -0.12511357661E+03  0.51812241404E+03 -0.28566904427E+03  0.60474047809E+03  0.00000000000E+00 0. -1.
<mgrwt>
<rscale>  0 0.14099244E+04</rscale>
<asrwt>0</asrwt>
<pdfrwt beam="1">  1        1 0.83370450E-01 0.14099244E+04</pdfrwt>
<pdfrwt beam="2">  1       -1 0.14108888E+00 0.14099244E+04</pdfrwt>
<totfact> 0.15854005E+01</totfact>
</mgrwt>
</event>
<event>
 6    1  0.1528034E-005  0.2899636E+04  0.7818608E-02  0.8272986E-01
         -1   -1    0    0    0  501 -0.00000000000E+00  0.00000000000E+00  0.10651193490E+04  0.10651193490E+04  0.00000000000E+00 0.  1.
          1   -1    0    0  501    0  0.00000000000E+00 -0.00000000000E+00 -0.19734610571E+04  0.19734610571E+04  0.00000000000E+00 0. -1.
         23    2    1    2    0    0  0.80009123658E+03  0.11113717162E+03  0.80523066648E+03  0.11441602465E+04  0.90602349455E+02 0.  0.
         11    1    3    3    0    0  0.83330588056E+02 -0.11939851795E+02  0.64070113782E+02  0.10579001109E+03  0.00000000000E+00 0. -1.
        -11    1    3    3    0    0  0.71676064852E+03  0.12307702341E+03  0.74116055270E+03  0.10383702354E+04  0.00000000000E+00 0.  1.
         22    1    1    2    0    0 -0.80009123658E+03 -0.11113717162E+03 -0.17135723746E+04  0.18944201595E+04  0.00000000000E+00 0. -1.
<mgrwt>
<rscale>  0 0.28996355E+04</rscale>
<asrwt>0</asrwt>
<pdfrwt beam="1">  1        1 0.30360939E+00 0.28996355E+04</pdfrwt>
<pdfrwt beam="2">  1       -1 0.16386452E+00 0.28996355E+04</pdfrwt>
<totfact> 0.72862001E-01</totfact>
</mgrwt>
</event>
<event>
 6    1  0.1528034E-005  0.2286756E+04  0.7818608E-02  0.8483161E-01
          1   -1    0    0  501    0  0.00000000000E+00  0.00000000000E+00  0.15072764950E+04  0.15072764950E+04  0.00000000000E+00 0. -1.
         -1   -1    0    0    0  501 -0.00000000000E+00 -0.00000000000E+00 -0.86733477900E+03  0.86733477900E+03  0.00000000000E+00 0.  1.
         23    2    1    2    0    0 -0.29794209290E+03 -0.11019223839E+04  0.32862872694E+03  0.11914298813E+04  0.92227386713E+02 0.  0.
         13    1    3    3    0    0 -0.13467629479E+03 -0.33487201364E+03  0.10812985360E+03  0.37678778528E+03  0.00000000000E+00 0. -1.
        -13    1    3    3    0    0 -0.16326579811E+03 -0.76705037029E+03  0.22049887335E+03  0.81464209598E+03  0.00000000000E+00 0.  1.
         22    1    1    2    0    0  0.29794209290E+03  0.11019223839E+04  0.31131298903E+03  0.11831813927E+04  0.00000000000E+00 0. -1.
<mgrwt>
<rscale>  0 0.22867561E+04</rscale>
<asrwt>0</asrwt>
<pdfrwt beam="1">  1        1 0.23188869E+00 0.22867561E+04</pdfrwt>
<pdfrwt beam="2">  1       -1 0.13343612E+00 0.22867561E+04</pdfrwt>
<totfact> 0.27770395E+00</totfact>
</mgrwt>
</event>
<event>
 6    1  0.1528034E-005  0.2210858E+04  0.7818608E-02  0.8513922E-01
          1   -1    0    0  501    0  0.00000000000E+00  0.00000000000E+00  0.12768761063E+04  0.12768761063E+04  0.00000000000E+00 0. -1.
         -1   -1    0    0    0  501 -0.00000000000E+00 -0.00000000000E+00 -0.95700253389E+03  0.95700253389E+03  0.00000000000E+00 0.  1.
         23    2    1    2    0    0  0.41804770378E+03  0.41641641231E+03 -0.78204176303E+03  0.98392507404E+03  0.91393222556E+02 0.  0.
         11    1    3    3    0    0  0.20871356161E+03  0.21139551449E+03 -0.46883691819E+03  0.55502925166E+03  0.00000000000E+00 0. -1.
        -11    1    3    3    0    0  0.20933414217E+03  0.20502089782E+03 -0.31320484484E+03  0.42889582238E+03  0.00000000000E+00 0.  1.
         22    1    1    2    0    0 -0.41804770378E+03 -0.41641641231E+03  0.11019153355E+04  0.12499535662E+04  0.00000000000E+00 0. -1.
<mgrwt>
<rscale>  0 0.22108584E+04</rscale>
<asrwt>0</asrwt>
<pdfrwt beam="1">  1        1 0.19644248E+00 0.22108584E+04</pdfrwt>
<pdfrwt beam="2">  1       -1 0.14723116E+00 0.22108584E+04</pdfrwt>
<totfact> 0.31403007E+00</totfact>
</mgrwt>
</event>
<event>
 6    1  0.1528034E-005  0.1201105E+04  0.7818608E-02  0.9111890E-01
         -1   -1    0    0    0  501 -0.00000000000E+00  0.00000000000E+00  0.24352714509E+03  0.24352714509E+03  0.00000000000E+00 0.  1.
          1   -1    0    0  501    0  0.00000000000E+00 -0.00000000000E+00 -0.14809979447E+04  0.14809979447E+04  0.00000000000E+00 0. -1.
         23    2    1    2    0    0  0.37745025607E+03  0.41410120684E+02  0.38616972240E+02  0.39314103724E+03  0.94260865213E+02 0.  0.
         11    1    3    3    0    0  0.47341417034E+02  0.34676165703E+02  0.21578394637E+02  0.62524182119E+02  0.00000000000E+00 0.  1.
        -11    1    3    3    0    0  0.33010883904E+03  0.67339549815E+01  0.17038577603E+02  0.33061685512E+03  0.00000000000E+00 0. -1.
         22    1    1    2    0    0 -0.37745025607E+03 -0.41410120684E+02 -0.12760877718E+04  0.13313840525E+04  0.00000000000E+00 0. -1.
<mgrwt>
<rscale>  0 0.12011048E+04</rscale>
<asrwt>0</asrwt>
<pdfrwt beam="1">  1        1 0.22784583E+00 0.12011048E+04</pdfrwt>
<pdfrwt beam="2">  1       -1 0.37465716E-01 0.12011048E+04</pdfrwt>
<totfact> 0.45788941E+01</totfact>
</mgrwt>
</event>
<event>
 6    1  0.1528034E-005  0.2619410E+04  0.7818608E-02  0.8361638E-01
          2   -1    0    0  501    0  0.00000000000E+00  0.00000000000E+00  0.39021258394E+04  0.39021258394E+04  0.00000000000E+00 0. -1.
         -2   -1    0    0    0  501 -0.00000000000E+00 -0.00000000000E+00 -0.43958794155E+03  0.43958794155E+03  0.00000000000E+00 0.  1.
         23    2    1    2    0    0 -0.43941176977E+02  0.62969280375E+03  0.36325826415E+04  0.36879867210E+04  0.84531370639E+02 0.  0.
         13    1    3    3    0    0  0.79668943119E+01  0.31139705309E+03  0.16105369992E+04  0.16403844129E+04  0.00000000000E+00 0.  1.
        -13    1    3    3    0    0 -0.51908071288E+02  0.31829575066E+03  0.20220456423E+04  0.20476023081E+04  0.00000000000E+00 0. -1.
         22    1    1    2    0    0  0.43941176977E+02 -0.62969280375E+03 -0.17004474364E+03  0.65372706000E+03  0.00000000000E+00 0.  1.
<mgrwt>
<rscale>  0 0.26194102E+04</rscale>
<asrwt>0</asrwt>
<pdfrwt beam="1">  1        2 0.60032703E+00 0.26194102E+04</pdfrwt>
<pdfrwt beam="2">  1       -2 0.67628917E-01 0.26194102E+04</pdfrwt>
<totfact> 0.72600681E-01</totfact>
</mgrwt>
</event>
<event>
 6    1  0.1528034E-005  0.2271044E+04  0.7818608E-02  0.8489426E-01
          1   -1    0    0  501    0  0.00000000000E+00  0.00000000000E+00  0.17344566682E+04  0.17344566682E+04  0.00000000000E+00 0. -1.
         -1   -1    0    0    0  501 -0.00000000000E+00 -0.00000000000E+00 -0.74340879401E+03  0.74340879401E+03  0.00000000000E+00 0.  1.
         23    2    1    2    0    0 -0.50553558885E+03  0.66075469856E+03 -0.34424851898E+03  0.90459515457E+03  0.87306056996E+02 0.  0.
         13    1    3    3    0    0 -0.21362784824E+03  0.31663933668E+03 -0.11782001127E+03  0.39972350710E+03  0.00000000000E+00 0. -1.
        -13    1    3    3    0    0 -0.29190774061E+03  0.34411536188E+03 -0.22642850771E+03  0.50487164747E+03  0.00000000000E+00 0.  1.
         22    1    1    2    0    0  0.50553558885E+03 -0.66075469856E+03  0.13352963931E+04  0.15732703076E+04  0.00000000000E+00 0. -1.
<mgrwt>
<rscale>  0 0.22710441E+04</rscale>
<asrwt>0</asrwt>
<pdfrwt beam="1">  1        1 0.26683949E+00 0.22710441E+04</pdfrwt>
<pdfrwt beam="2">  1       -1 0.11437058E+00 0.22710441E+04</pdfrwt>
<totfact> 0.28451341E+00</totfact>
</mgrwt>
</event>
<event>
 6    1  0.1528034E-005  0.3077853E+04  0.7818608E-02  0.8221842E-01
          1   -1    0    0  501    0  0.00000000000E+00  0.00000000000E+00  0.21510108338E+04  0.21510108338E+04  0.00000000000E+00 0. -1.
         -1   -1    0    0    0  501 -0.00000000000E+00 -0.00000000000E+00 -0.11010150028E+04  0.11010150028E+04  0.00000000000E+00 0.  1.
         23    2    1    2    0    0  0.36256717070E+03  0.14808618219E+04  0.31624896206E+03  0.15600473626E+04  0.96579908809E+02 0.  0.
         11    1    3    3    0    0  0.28941674586E+03  0.10317358208E+04  0.24838071461E+03  0.10999699251E+04  0.00000000000E+00 0.  1.
        -11    1    3    3    0    0  0.73150424845E+02  0.44912600103E+03  0.67868247453E+02  0.46007743747E+03  0.00000000000E+00 0. -1.
         22    1    1    2    0    0 -0.36256717070E+03 -0.14808618219E+04  0.73374686901E+03  0.16919784740E+04  0.00000000000E+00 0. -1.
<mgrwt>
<rscale>  0 0.30778533E+04</rscale>
<asrwt>0</asrwt>
<pdfrwt beam="1">  1        1 0.33092474E+00 0.30778533E+04</pdfrwt>
<pdfrwt beam="2">  1       -1 0.16938692E+00 0.30778533E+04</pdfrwt>
<totfact> 0.49449252E-01</totfact>
</mgrwt>
</event>
<event>
 6    1  0.1528034E-005  0.1429209E+04  0.7818608E-02  0.8932943E-01
          2   -1    0    0  501    0  0.00000000000E+00  0.00000000000E+00  0.11780887208E+04  0.11780887208E+04  0.00000000000E+00 0.  1.
         -2   -1    0    0    0  501 -0.00000000000E+00 -0.00000000000E+00 -0.43346431321E+03  0.43346431321E+03  0.00000000000E+00 0. -1.
         23    2    1    2    0    0 -0.60366222135E+02  0.65638286627E+03  0.67671591008E+03  0.94891126658E+03  0.89474135858E+02 0.  0.
         11    1    3    3    0    0 -0.56085030250E+02  0.21340030659E+03  0.25599994817E+03  0.33796626301E+03  0.00000000000E+00 0. -1.
        -11    1    3    3    0    0 -0.42811918844E+01  0.44298255968E+03  0.42071596191E+03  0.61094500357E+03  0.00000000000E+00 0.  1.
         22    1    1    2    0    0  0.60366222135E+02 -0.65638286627E+03  0.67908497514E+02  0.66264176743E+03  0.00000000000E+00 0. -1.
<mgrwt>
<rscale>  0 0.14292088E+04</rscale>
<asrwt>0</asrwt>
<pdfrwt beam="1">  1        2 0.18124442E+00 0.14292088E+04</pdfrwt>
<pdfrwt beam="2">  1       -2 0.66686818E-01 0.14292088E+04</pdfrwt>
<totfact> 0.39173308E+01</totfact>
</mgrwt>
</event>
<event>
 6    1  0.1528034E-005  0.6734769E+03  0.7818608E-02  0.9763697E-01
         -1   -1    0    0    0  501 -0.00000000000E+00  0.00000000000E+00  0.18429710045E+03  0.18429710045E+03  0.00000000000E+00 0.  1.
          1   -1    0    0  501    0  0.00000000000E+00 -0.00000000000E+00 -0.61527161951E+03  0.61527161951E+03  0.00000000000E+00 0. -1.
         23    2    1    2    0    0 -0.57641005051E+02  0.17221701100E+03 -0.54726342943E+03  0.58392017483E+03  0.92110395944E+02 0.  0.
         13    1    3    3    0    0 -0.69110245780E-01  0.61493610935E+01 -0.14261448351E+03  0.14274701511E+03  0.00000000000E+00 0. -1.
        -13    1    3    3    0    0 -0.57571894805E+02  0.16606764991E+03 -0.40464894592E+03  0.44117315971E+03  0.00000000000E+00 0.  1.
         22    1    1    2    0    0  0.57641005051E+02 -0.17221701100E+03  0.11628891037E+03  0.21564854513E+03  0.00000000000E+00 0.  1.
<mgrwt>
<rscale>  0 0.67347688E+03</rscale>
<asrwt>0</asrwt>
<pdfrwt beam="1">  1        1 0.94657173E-01 0.67347688E+03</pdfrwt>
<pdfrwt beam="2">  1       -1 0.28353400E-01 0.67347688E+03</pdfrwt>
<totfact> 0.37612563E+02</totfact>
</mgrwt>
</event>
<event>
 6    1  0.1528034E-005  0.3203109E+04  0.7818608E-02  0.8187997E-01
         -1   -1    0    0    0  501 -0.00000000000E+00  0.00000000000E+00  0.17059190784E+04  0.17059190784E+04  0.00000000000E+00 0.  1.
          1   -1    0    0  501    0  0.00000000000E+00 -0.00000000000E+00 -0.15035747023E+04  0.15035747023E+04  0.00000000000E+00 0. -1.
         23    2    1    2    0    0 -0.43285416312E+03 -0.63425858125E+03  0.15079742442E+04  0.16947938015E+04  0.93236442253E+02 0.  0.
         13    1    3    3    0    0 -0.30894579261E+03 -0.49033667420E+03  0.12067122142E+04  0.13386679666E+04  0.00000000000E+00 0.  1.
        -13    1    3    3    0    0 -0.12390837051E+03 -0.14392190705E+03  0.30126202997E+03  0.35612583494E+03  0.00000000000E+00 0. -1.
         22    1    1    2    0    0  0.43285416312E+03  0.63425858125E+03 -0.13056298680E+04  0.15146999791E+04  0.00000000000E+00 0. -1.
<mgrwt>
<rscale>  0 0.32031090E+04</rscale>
<asrwt>0</asrwt>
<pdfrwt beam="1">  1        1 0.23131918E+00 0.32031090E+04</pdfrwt>
<pdfrwt beam="2">  1       -1 0.26244909E+00 0.32031090E+04</pdfrwt>
<totfact> 0.31468378E-01</totfact>
</mgrwt>
</event>
<event>
 6    1  0.1528034E-005  0.3950171E+04  0.7818608E-02  0.8014675E-01
          1   -1    0    0  501    0  0.00000000000E+00  0.00000000000E+00  0.35173654552E+04  0.35173654552E+04  0.00000000000E+00 0. -1.
         -1   -1    0    0    0  501 -0.00000000000E+00 -0.00000000000E+00 -0.11090582910E+04  0.11090582910E+04  0.00000000000E+00 0.  1.
         23    2    1    2    0    0  0.95677995584E+03  0.17092558710E+04  0.91843376867E+03  0.21653861091E+04  0.91612759475E+02 0.  0.
         11    1    3    3    0    0  0.28187365407E+03  0.42863311297E+03  0.25892644548E+03  0.57464946408E+03  0.00000000000E+00 0. -1.
        -11    1    3    3    0    0  0.67490630177E+03  0.12806227580E+04  0.65950732319E+03  0.15907366450E+04  0.00000000000E+00 0.  1.
         22    1    1    2    0    0 -0.95677995584E+03 -0.17092558710E+04  0.14898733955E+04  0.24610376371E+04  0.00000000000E+00 0. -1.
<mgrwt>
<rscale>  0 0.39501713E+04</rscale>
<asrwt>0</asrwt>
<pdfrwt beam="1">  1        1 0.54113314E+00 0.39501713E+04</pdfrwt>
<pdfrwt beam="2">  1       -1 0.17062435E+00 0.39501713E+04</pdfrwt>
<totfact> 0.46249835E-02</totfact>
</mgrwt>
</event>
<event>
 6    1  0.1528034E-005  0.2833093E+04  0.7818608E-02  0.8293067E-01
         -1   -1    0    0    0  501 -0.00000000000E+00  0.00000000000E+00  0.13068565214E+04  0.13068565214E+04  0.00000000000E+00 0.  1.
          1   -1    0    0  501    0  0.00000000000E+00 -0.00000000000E+00 -0.15354430797E+04  0.15354430797E+04  0.00000000000E+00 0. -1.
         23    2    1    2    0    0  0.18183390569E+03  0.37978705948E+03 -0.14696810164E+04  0.15317206322E+04  0.94361142202E+02 0.  0.
         13    1    3    3    0    0  0.14576129124E+03  0.33898944320E+03 -0.11596226537E+04  0.12169161416E+04  0.00000000000E+00 0. -1.
        -13    1    3    3    0    0  0.36072614448E+02  0.40797616273E+02 -0.31005836271E+03  0.31480449059E+03  0.00000000000E+00 0.  1.
         22    1    1    2    0    0 -0.18183390569E+03 -0.37978705948E+03  0.12410944581E+04  0.13105789689E+04  0.00000000000E+00 0.  1.
<mgrwt>
<rscale>  0 0.28330929E+04</rscale>
<asrwt>0</asrwt>
<pdfrwt beam="1">  1        1 0.23622201E+00 0.28330929E+04</pdfrwt>
<pdfrwt beam="2">  1       -1 0.20105485E+00 0.28330929E+04</pdfrwt>
<totfact> 0.78992486E-01</totfact>
</mgrwt>
</event>
<event>
 6    1  0.1528034E-005  0.2623543E+04  0.7818608E-02  0.8360248E-01
          2   -1    0    0  501    0  0.00000000000E+00  0.00000000000E+00  0.28389193688E+04  0.28389193688E+04  0.00000000000E+00 0. -1.
         -2   -1    0    0    0  501 -0.00000000000E+00 -0.00000000000E+00 -0.60612651220E+03  0.60612651220E+03  0.00000000000E+00 0.  1.
         23    2    1    2    0    0  0.31254235848E+02  0.94943645547E+03 -0.67177378616E+02  0.95661876873E+03  0.90555277406E+02 0.  0.
         11    1    3    3    0    0  0.44559295843E+02  0.22212485921E+03 -0.62137025048E+01  0.22663537682E+03  0.00000000000E+00 0.  1.
        -11    1    3    3    0    0 -0.13305059995E+02  0.72731159625E+03 -0.60963676111E+02  0.72998339191E+03  0.00000000000E+00 0. -1.
         22    1    1    2    0    0 -0.31254235848E+02 -0.94943645547E+03  0.22999702352E+04  0.24884271123E+04  0.00000000000E+00 0. -1.
<mgrwt>
<rscale>  0 0.26235429E+04</rscale>
<asrwt>0</asrwt>
<pdfrwt beam="1">  1        2 0.43675682E+00 0.26235429E+04</pdfrwt>
<pdfrwt beam="2">  1       -2 0.93250234E-01 0.26235429E+04</pdfrwt>
<totfact> 0.18813592E+00</totfact>
</mgrwt>
</event>
<event>
 6    1  0.1528034E-005  0.5480988E+04  0.7818608E-02  0.7758311E-01
         -1   -1    0    0    0  501 -0.00000000000E+00  0.00000000000E+00  0.22281585111E+04  0.22281585111E+04  0.00000000000E+00 0.  1.
          1   -1    0    0  501    0  0.00000000000E+00 -0.00000000000E+00 -0.33706345127E+04  0.33706345127E+04  0.00000000000E+00 0. -1.
         23    2    1    2    0    0 -0.71251647603E+03 -0.21068932699E+04 -0.22053918786E+04  0.31337435028E+04  0.99579234233E+02 0.  0.
         13    1    3    3    0    0 -0.34155008096E+03 -0.85806611662E+03 -0.92369156952E+03  0.13061929543E+04  0.00000000000E+00 0. -1.
        -13    1    3    3    0    0 -0.37096639507E+03 -0.12488271533E+04 -0.12817003091E+04  0.18275505485E+04  0.00000000000E+00 0.  1.
         22    1    1    2    0    0  0.71251647603E+03  0.21068932699E+04  0.10629158769E+04  0.24650495210E+04  0.00000000000E+00 0.  1.
<mgrwt>
<rscale>  0 0.54809882E+04</rscale>
<asrwt>0</asrwt>
<pdfrwt beam="1">  1        1 0.51855915E+00 0.54809882E+04</pdfrwt>
<pdfrwt beam="2">  1       -1 0.34279362E+00 0.54809882E+04</pdfrwt>
<totfact> 0.37980998E-03</totfact>
</mgrwt>
</event>
<event>
 6    1  0.1528034E-005  0.7036723E+03  0.7818608E-02  0.9710973E-01
         -1   -1    0    0    0  501 -0.00000000000E+00  0.00000000000E+00  0.58482354573E+03  0.58482354573E+03  0.00000000000E+00 0.  1.
          1   -1    0    0  501    0  0.00000000000E+00 -0.00000000000E+00 -0.21166844335E+03  0.21166844335E+03  0.00000000000E+00 0. -1.
         23    2    1    2    0    0 -0.26374487488E+03 -0.21517125659E+03  0.26379502381E+03  0.43897324066E+03  0.85144951360E+02 0.  0.
         13    1    3    3    0    0 -0.20977422404E+03 -0.18870095406E+03  0.25071608528E+03  0.37745440857E+03  0.00000000000E+00 0.  1.
        -13    1    3    3    0    0 -0.53970650843E+02 -0.26470302526E+02  0.13078938530E+02  0.61518832086E+02  0.00000000000E+00 0. -1.
         22    1    1    2    0    0  0.26374487488E+03  0.21517125659E+03  0.10936007857E+03  0.35751874842E+03  0.00000000000E+00 0.  1.
<mgrwt>
<rscale>  0 0.70367234E+03</rscale>
<asrwt>0</asrwt>
<pdfrwt beam="1">  1        1 0.32564376E-01 0.70367234E+03</pdfrwt>
<pdfrwt beam="2">  1       -1 0.89972853E-01 0.70367234E+03</pdfrwt>
<totfact> 0.16954239E+02</totfact>
</mgrwt>
</event>
<event>
 6    1  0.1528034E-005  0.9678808E+03  0.7818608E-02  0.9344491E-01
          2   -1    0    0  501    0  0.00000000000E+00  0.00000000000E+00  0.25901924867E+03  0.25901924867E+03  0.00000000000E+00 0.  1.
         -2   -1    0    0    0  501 -0.00000000000E+00 -0.00000000000E+00 -0.90417335624E+03  0.90417335624E+03  0.00000000000E+00 0. -1.
         23    2    1    2    0    0  0.12721613058E+03 -0.42597767566E+03 -0.54205752960E+03  0.70682671176E+03  0.90203719520E+02 0.  0.
         13    1    3    3    0    0  0.61949782167E+02 -0.25947879060E+03 -0.38755369194E+03  0.47049429584E+03  0.00000000000E+00 0.  1.
        -13    1    3    3    0    0  0.65266348412E+02 -0.16649888506E+03 -0.15450383767E+03  0.23633241592E+03  0.00000000000E+00 0. -1.
         22    1    1    2    0    0 -0.12721613058E+03  0.42597767566E+03 -0.10309657797E+03  0.45636589315E+03  0.00000000000E+00 0.  1.
<mgrwt>
<rscale>  0 0.96788078E+03</rscale>
<asrwt>0</asrwt>
<pdfrwt beam="1">  1        2 0.39849115E-01 0.96788078E+03</pdfrwt>
<pdfrwt beam="2">  1       -2 0.13910360E+00 0.96788078E+03</pdfrwt>
<totfact> 0.47203683E+01</totfact>
</mgrwt>
</event>
<event>
 6    1  0.1528034E-005  0.1540890E+04  0.7818608E-02  0.8857708E-01
         -1   -1    0    0    0  501 -0.00000000000E+00  0.00000000000E+00  0.52801389337E+03  0.52801389337E+03  0.00000000000E+00 0.  1.
          1   -1    0    0  501    0  0.00000000000E+00 -0.00000000000E+00 -0.11241849252E+04  0.11241849252E+04  0.00000000000E+00 0. -1.
         23    2    1    2    0    0  0.19210052271E+03  0.73799851575E+03 -0.20335763316E+03  0.79438369499E+03  0.90259114940E+02 0.  0.
         13    1    3    3    0    0  0.92872154118E+02  0.30640523192E+03 -0.12971292850E+03  0.34544876173E+03  0.00000000000E+00 0. -1.
        -13    1    3    3    0    0  0.99228368596E+02  0.43159328383E+03 -0.73644704654E+02  0.44893493326E+03  0.00000000000E+00 0.  1.
         22    1    1    2    0    0 -0.19210052271E+03 -0.73799851575E+03 -0.39281339866E+03  0.85781512358E+03  0.00000000000E+00 0. -1.
<mgrwt>
<rscale>  0 0.15408897E+04</rscale>
<asrwt>0</asrwt>
<pdfrwt beam="1">  1        1 0.17295153E+00 0.15408897E+04</pdfrwt>
<pdfrwt beam="2">  1       -1 0.81232906E-01 0.15408897E+04</pdfrwt>
<totfact> 0.17701721E+01</totfact>
</mgrwt>
</event>
<event>
 6    1  0.1528034E-005  0.3238483E+04  0.7818608E-02  0.8178727E-01
          1   -1    0    0  501    0  0.00000000000E+00  0.00000000000E+00  0.12736068654E+04  0.12736068654E+04  0.00000000000E+00 0. -1.
         -1   -1    0    0    0  501 -0.00000000000E+00 -0.00000000000E+00 -0.20586756565E+04  0.20586756565E+04  0.00000000000E+00 0.  1.
         23    2    1    2    0    0  0.13826301699E+04  0.44352279173E+03  0.34153165985E+03  0.14944557538E+04  0.91517604550E+02 0.  0.
         13    1    3    3    0    0  0.50015651706E+03  0.18561703985E+03  0.87491850220E+02  0.54061543716E+03  0.00000000000E+00 0.  1.
        -13    1    3    3    0    0  0.88247365283E+03  0.25790575189E+03  0.25403980963E+03  0.95384031665E+03  0.00000000000E+00 0. -1.
         22    1    1    2    0    0 -0.13826301699E+04 -0.44352279173E+03 -0.11266004510E+04  0.18378267681E+04  0.00000000000E+00 0.  1.
<mgrwt>
<rscale>  0 0.32384833E+04</rscale>
<asrwt>0</asrwt>
<pdfrwt beam="1">  1        1 0.19593952E+00 0.32384833E+04</pdfrwt>
<pdfrwt beam="2">  1       -1 0.31671933E+00 0.32384833E+04</pdfrwt>
<totfact> 0.20254807E-01</totfact>
</mgrwt>
</event>
<event>
 6    1  0.1528034E-005  0.1062158E+04  0.7818608E-02  0.9242881E-01
         -1   -1    0    0    0  501 -0.00000000000E+00  0.00000000000E+00  0.30469222051E+03  0.30469222051E+03  0.00000000000E+00 0.  1.
          1   -1    0    0  501    0  0.00000000000E+00 -0.00000000000E+00 -0.92567179446E+03  0.92567179446E+03  0.00000000000E+00 0. -1.
         23    2    1    2    0    0  0.12418911540E+03 -0.15845379787E+03  0.25128898155E+03  0.33516405108E+03  0.93049698785E+02 0.  0.
         11    1    3    3    0    0  0.12463017109E+03 -0.12939153381E+03  0.16431926114E+03  0.24346594865E+03  0.00000000000E+00 0. -1.
        -11    1    3    3    0    0 -0.44105568663E+00 -0.29062264061E+02  0.86969720406E+02  0.91698102434E+02  0.00000000000E+00 0.  1.
         22    1    1    2    0    0 -0.12418911540E+03  0.15845379787E+03 -0.87226855550E+03  0.89519996389E+03  0.00000000000E+00 0. -1.
<mgrwt>
<rscale>  0 0.10621582E+04</rscale>
<asrwt>0</asrwt>
<pdfrwt beam="1">  1        1 0.14241105E+00 0.10621582E+04</pdfrwt>
<pdfrwt beam="2">  1       -1 0.46875726E-01 0.10621582E+04</pdfrwt>
<totfact> 0.78525887E+01</totfact>
</mgrwt>
</event>
<event>
 6    1  0.1528034E-005  0.4466314E+04  0.7818608E-02  0.7916561E-01
         -1   -1    0    0    0  501 -0.00000000000E+00  0.00000000000E+00  0.19478243172E+04  0.19478243172E+04  0.00000000000E+00 0.  1.
          1   -1    0    0  501    0  0.00000000000E+00 -0.00000000000E+00 -0.25602880372E+04  0.25602880372E+04  0.00000000000E+00 0. -1.
         23    2    1    2    0    0 -0.58025981961E+03 -0.87165746704E+03  0.16834473362E+04  0.19846829863E+04  0.92105505233E+02 0.  0.
         11    1    3    3    0    0 -0.82140151847E+02 -0.16769317507E+03  0.34948598107E+03  0.39624292609E+03  0.00000000000E+00 0.  1.
        -11    1    3    3    0    0 -0.49811966777E+03 -0.70396429197E+03  0.13339613551E+04  0.15884400602E+04  0.00000000000E+00 0. -1.
         22    1    1    2    0    0  0.58025981961E+03  0.87165746704E+03 -0.22959110562E+04  0.25234293681E+04  0.00000000000E+00 0. -1.
<mgrwt>
<rscale>  0 0.44663145E+04</rscale>
<asrwt>0</asrwt>
<pdfrwt beam="1">  1        1 0.39389047E+00 0.44663145E+04</pdfrwt>
<pdfrwt beam="2">  1       -1 0.29966528E+00 0.44663145E+04</pdfrwt>
<totfact> 0.30762061E-02</totfact>
</mgrwt>
</event>
<event>
 6    1  0.1528034E-005  0.1006273E+04  0.7818608E-02  0.9301691E-01
          1   -1    0    0  501    0  0.00000000000E+00  0.00000000000E+00  0.66503550306E+03  0.66503550306E+03  0.00000000000E+00 0. -1.
         -1   -1    0    0    0  501 -0.00000000000E+00 -0.00000000000E+00 -0.38065103128E+03  0.38065103128E+03  0.00000000000E+00 0.  1.
         23    2    1    2    0    0  0.19933246034E+03 -0.90590921820E+02 -0.32265195913E+03  0.40037004352E+03  0.90839089387E+02 0.  0.
         11    1    3    3    0    0  0.13633039829E+03 -0.70506644071E+02 -0.14634689822E+03  0.21207210796E+03  0.00000000000E+00 0. -1.
        -11    1    3    3    0    0  0.63002062048E+02 -0.20084277749E+02 -0.17630506091E+03  0.18829793557E+03  0.00000000000E+00 0.  1.
         22    1    1    2    0    0 -0.19933246034E+03  0.90590921820E+02  0.60703643091E+03  0.64531649081E+03  0.00000000000E+00 0. -1.
<mgrwt>
<rscale>  0 0.10062732E+04</rscale>
<asrwt>0</asrwt>
<pdfrwt beam="1">  1        1 0.10231315E+00 0.10062732E+04</pdfrwt>
<pdfrwt beam="2">  1       -1 0.58561697E-01 0.10062732E+04</pdfrwt>
<totfact> 0.87184383E+01</totfact>
</mgrwt>
</event>
<event>
 6    1  0.1528034E-005  0.3630202E+04  0.7818608E-02  0.8083608E-01
         -2   -1    0    0    0  501 -0.00000000000E+00  0.00000000000E+00  0.24528977295E+04  0.24528977295E+04  0.00000000000E+00 0.  1.
          2   -1    0    0  501    0  0.00000000000E+00 -0.00000000000E+00 -0.13431428414E+04  0.13431428414E+04  0.00000000000E+00 0. -1.
         23    2    1    2    0    0  0.34213443099E+03 -0.15497165339E+04 -0.36350324350E+03  0.16305921585E+04  0.89548171465E+02 0.  0.
         13    1    3    3    0    0  0.11031308651E+03 -0.41080508929E+03 -0.61963559280E+02  0.42984797443E+03  0.00000000000E+00 0. -1.
        -13    1    3    3    0    0  0.23182134448E+03 -0.11389114446E+04 -0.30153968422E+03  0.12007441841E+04  0.00000000000E+00 0.  1.
         22    1    1    2    0    0 -0.34213443099E+03  0.15497165339E+04  0.14732581316E+04  0.21654484124E+04  0.00000000000E+00 0.  1.
<mgrwt>
<rscale>  0 0.36302022E+04</rscale>
<asrwt>0</asrwt>
<pdfrwt beam="1">  1        2 0.20663736E+00 0.36302022E+04</pdfrwt>
<pdfrwt beam="2">  1       -2 0.37736888E+00 0.36302022E+04</pdfrwt>
<totfact> 0.13199519E-01</totfact>
</mgrwt>
</event>
<event>
 6    1  0.1528034E-005  0.2680303E+04  0.7818608E-02  0.8341424E-01
         -2   -1    0    0    0  501 -0.00000000000E+00  0.00000000000E+00  0.11452227323E+04  0.11452227323E+04  0.00000000000E+00 0.  1.
          2   -1    0    0  501    0  0.00000000000E+00 -0.00000000000E+00 -0.15682594343E+04  0.15682594343E+04  0.00000000000E+00 0. -1.
         23    2    1    2    0    0 -0.94766960880E+02  0.11391774410E+04  0.49341164002E+03  0.12483597886E+04  0.90780483678E+02 0.  0.
         11    1    3    3    0    0 -0.59658740381E+02  0.43579412288E+03  0.23077860018E+03  0.49672371108E+03  0.00000000000E+00 0. -1.
        -11    1    3    3    0    0 -0.35108220499E+02  0.70338331817E+03  0.26263303984E+03  0.75163607752E+03  0.00000000000E+00 0.  1.
         22    1    1    2    0    0  0.94766960880E+02 -0.11391774410E+04 -0.91644834199E+03  0.14651223780E+04  0.00000000000E+00 0. -1.
<mgrwt>
<rscale>  0 0.26803032E+04</rscale>
<asrwt>0</asrwt>
<pdfrwt beam="1">  1        2 0.24127068E+00 0.26803032E+04</pdfrwt>
<pdfrwt beam="2">  1       -2 0.17618811E+00 0.26803032E+04</pdfrwt>
<totfact> 0.19680858E+00</totfact>
</mgrwt>
</event>
<event>
 6    1  0.1528034E-005  0.4071996E+04  0.7818608E-02  0.7990178E-01
          2   -1    0    0  501    0  0.00000000000E+00  0.00000000000E+00  0.27868272111E+04  0.27868272111E+04  0.00000000000E+00 0. -1.
         -2   -1    0    0    0  501 -0.00000000000E+00 -0.00000000000E+00 -0.14874577533E+04  0.14874577533E+04  0.00000000000E+00 0.  1.
         23    2    1    2    0    0  0.65817293715E+03  0.12825637813E+04  0.21576847999E+04  0.25965285175E+04  0.90527223914E+02 0.  0.
         11    1    3    3    0    0  0.45904189331E+03  0.97580642942E+03  0.15875061288E+04  0.19191387017E+04  0.00000000000E+00 0.  1.
        -11    1    3    3    0    0  0.19913104384E+03  0.30675735190E+03  0.57017867115E+03  0.67738981584E+03  0.00000000000E+00 0. -1.
         22    1    1    2    0    0 -0.65817293715E+03 -0.12825637813E+04 -0.85831534215E+03  0.16777564468E+04  0.00000000000E+00 0.  1.
<mgrwt>
<rscale>  0 0.40719959E+04</rscale>
<asrwt>0</asrwt>
<pdfrwt beam="1">  1        2 0.42874265E+00 0.40719959E+04</pdfrwt>
<pdfrwt beam="2">  1       -2 0.22883966E+00 0.40719959E+04</pdfrwt>
<totfact> 0.16056476E-01</totfact>
</mgrwt>
</event>
<event>
 6    1  0.1528034E-005  0.1080374E+04  0.7818608E-02  0.9224535E-01
         -1   -1    0    0    0  501 -0.00000000000E+00  0.00000000000E+00  0.43608931955E+03  0.43608931955E+03  0.00000000000E+00 0.  1.
          1   -1    0    0  501    0  0.00000000000E+00 -0.00000000000E+00 -0.66913313694E+03  0.66913313694E+03  0.00000000000E+00 0. -1.
         23    2    1    2    0    0  0.44571673112E+03  0.98201496096E+02  0.17131829477E+03  0.49545556991E+03  0.88426949478E+02 0.  0.
         13    1    3    3    0    0  0.35298274285E+03  0.76277540408E+02  0.95124625243E+02  0.37344848942E+03  0.00000000000E+00 0.  1.
        -13    1    3    3    0    0  0.92733988263E+02  0.21923955687E+02  0.76193669527E+02  0.12200708048E+03  0.00000000000E+00 0. -1.
         22    1    1    2    0    0 -0.44571673112E+03 -0.98201496096E+02 -0.40436211216E+03  0.60976688659E+03  0.00000000000E+00 0.  1.
<mgrwt>
<rscale>  0 0.10803737E+04</rscale>
<asrwt>0</asrwt>
<pdfrwt beam="1">  1        1 0.10294356E+00 0.10803737E+04</pdfrwt>
<pdfrwt beam="2">  1       -1 0.67090665E-01 0.10803737E+04</pdfrwt>
<totfact> 0.65510974E+01</totfact>
</mgrwt>
</event>
<event>
 6    1  0.1528034E-005  0.1950414E+04  0.7818608E-02  0.8630161E-01
         -1   -1    0    0    0  501 -0.00000000000E+00  0.00000000000E+00  0.70140179877E+03  0.70140179877E+03  0.00000000000E+00 0.  1.
          1   -1    0    0  501    0  0.00000000000E+00 -0.00000000000E+00 -0.13558973254E+04  0.13558973254E+04  0.00000000000E+00 0. -1.
         23    2    1    2    0    0 -0.49482315696E+03 -0.17092025799E+03 -0.11931632940E+04  0.13061489029E+04  0.91228389049E+02 0.  0.
         11    1    3    3    0    0 -0.21794647101E+03 -0.53504677915E+02 -0.41316015566E+03  0.47017521097E+03  0.00000000000E+00 0. -1.
        -11    1    3    3    0    0 -0.27687668595E+03 -0.11741558008E+03 -0.78000313839E+03  0.83597369191E+03  0.00000000000E+00 0.  1.
         22    1    1    2    0    0  0.49482315696E+03  0.17092025799E+03  0.53866776743E+03  0.75115022128E+03  0.00000000000E+00 0.  1.
<mgrwt>
<rscale>  0 0.19504141E+04</rscale>
<asrwt>0</asrwt>
<pdfrwt beam="1">  1        1 0.20859958E+00 0.19504141E+04</pdfrwt>
<pdfrwt beam="2">  1       -1 0.10790797E+00 0.19504141E+04</pdfrwt>
<totfact> 0.61404831E+00</totfact>
</mgrwt>
</event>
<event>
 6    1  0.1528034E-005  0.1518181E+04  0.7818608E-02  0.8872452E-01
         -1   -1    0    0    0  501 -0.00000000000E+00  0.00000000000E+00  0.34758396273E+03  0.34758396273E+03  0.00000000000E+00 0.  1.
          1   -1    0    0  501    0  0.00000000000E+00 -0.00000000000E+00 -0.16577828810E+04  0.16577828810E+04  0.00000000000E+00 0. -1.
         23    2    1    2    0    0  0.11783168791E+03  0.22420183604E+03 -0.15989784470E+04  0.16212517749E+04  0.87031451383E+02 0.  0.
         13    1    3    3    0    0 -0.12807651479E+02  0.33957757329E+02 -0.26199061365E+03  0.26449243252E+03  0.00000000000E+00 0. -1.
        -13    1    3    3    0    0  0.13063933939E+03  0.19024407871E+03 -0.13369878334E+04  0.13567593423E+04  0.00000000000E+00 0.  1.
         22    1    1    2    0    0 -0.11783168791E+03 -0.22420183604E+03  0.28877952870E+03  0.38411506890E+03  0.00000000000E+00 0.  1.
<mgrwt>
<rscale>  0 0.15181815E+04</rscale>
<asrwt>0</asrwt>
<pdfrwt beam="1">  1        1 0.25504351E+00 0.15181815E+04</pdfrwt>
<pdfrwt beam="2">  1       -1 0.53474457E-01 0.15181815E+04</pdfrwt>
<totfact> 0.17359040E+01</totfact>
</mgrwt>
</event>
<event>
 6    1  0.1528034E-005  0.2512813E+04  0.7818608E-02  0.8398435E-01
         -2   -1    0    0    0  501 -0.00000000000E+00  0.00000000000E+00  0.13522947002E+04  0.13522947002E+04  0.00000000000E+00 0.  1.
          2   -1    0    0  501    0  0.00000000000E+00 -0.00000000000E+00 -0.11673172315E+04  0.11673172315E+04  0.00000000000E+00 0. -1.
         23    2    1    2    0    0  0.57513272849E+03 -0.84894969805E+03  0.81776700828E+03  0.13146572244E+04  0.89930488466E+02 0.  0.
         13    1    3    3    0    0  0.42663507329E+03 -0.56438273644E+03  0.53703308391E+03  0.88822851349E+03  0.00000000000E+00 0.  1.
        -13    1    3    3    0    0  0.14849765520E+03 -0.28456696160E+03  0.28073392437E+03  0.42642871095E+03  0.00000000000E+00 0. -1.
         22    1    1    2    0    0 -0.57513272849E+03  0.84894969805E+03 -0.63278953956E+03  0.12049547073E+04  0.00000000000E+00 0.  1.
<mgrwt>
<rscale>  0 0.25128127E+04</rscale>
<asrwt>0</asrwt>
<pdfrwt beam="1">  1        2 0.17958727E+00 0.25128127E+04</pdfrwt>
<pdfrwt beam="2">  1       -2 0.20804534E+00 0.25128127E+04</pdfrwt>
<totfact> 0.20812292E+00</totfact>
</mgrwt>
</event>
<event>
 6    1  0.1528034E-005  0.4476898E+04  0.7818608E-02  0.7914694E-01
          1   -1    0    0  501    0  0.00000000000E+00  0.00000000000E+00  0.46774998517E+04  0.46774998517E+04  0.00000000000E+00 0. -1.
         -1   -1    0    0    0  501 -0.00000000000E+00 -0.00000000000E+00 -0.10712249817E+04  0.10712249817E+04  0.00000000000E+00 0.  1.
         23    2    1    2    0    0 -0.26057953542E+03 -0.19615798163E+04  0.31449607312E+04  0.37168518539E+04  0.92263931937E+02 0.  0.
         13    1    3    3    0    0 -0.18350501722E+03 -0.15258965485E+04  0.25032158789E+04  0.29373668658E+04  0.00000000000E+00 0.  1.
        -13    1    3    3    0    0 -0.77074518192E+02 -0.43568326782E+03  0.64174485229E+03  0.77948498809E+03  0.00000000000E+00 0. -1.
         22    1    1    2    0    0  0.26057953542E+03  0.19615798163E+04  0.46131413878E+03  0.20318729795E+04  0.00000000000E+00 0.  1.
<mgrwt>
<rscale>  0 0.44768983E+04</rscale>
<asrwt>0</asrwt>
<pdfrwt beam="1">  1        1 0.71961535E+00 0.44768983E+04</pdfrwt>
<pdfrwt beam="2">  1       -1 0.16480385E+00 0.44768983E+04</pdfrwt>
<totfact> 0.41860015E-03</totfact>
</mgrwt>
</event>
<event>
 6    1  0.1528034E-005  0.3648263E+04  0.7818608E-02  0.8079525E-01
         -2   -1    0    0    0  501 -0.00000000000E+00  0.00000000000E+00  0.14654379520E+04  0.14654379520E+04  0.00000000000E+00 0.  1.
          2   -1    0    0  501    0  0.00000000000E+00 -0.00000000000E+00 -0.22706221821E+04  0.22706221821E+04  0.00000000000E+00 0. -1.
         23    2    1    2    0    0  0.65499209289E+03 -0.12209463078E+04 -0.16161546107E+04  0.21306326251E+04  0.88967009925E+02 0.  0.
         13    1    3    3    0    0  0.15526984214E+03 -0.37207559322E+03 -0.48507984537E+03  0.63075464908E+03  0.00000000000E+00 0.  1.
        -13    1    3    3    0    0  0.49972225076E+03 -0.84887071458E+03 -0.11310747654E+04  0.14998779760E+04  0.00000000000E+00 0. -1.
         22    1    1    2    0    0 -0.65499209289E+03  0.12209463078E+04  0.81097038064E+03  0.16054275090E+04  0.00000000000E+00 0.  1.
<mgrwt>
<rscale>  0 0.36482631E+04</rscale>
<asrwt>0</asrwt>
<pdfrwt beam="1">  1        2 0.34932649E+00 0.36482631E+04</pdfrwt>
<pdfrwt beam="2">  1       -2 0.22545199E+00 0.36482631E+04</pdfrwt>
<totfact> 0.34919545E-01</totfact>
</mgrwt>
</event>
<event>
 6    1  0.1528034E-005  0.3759044E+04  0.7818608E-02  0.8055001E-01
         -2   -1    0    0    0  501 -0.00000000000E+00  0.00000000000E+00  0.18170533099E+04  0.18170533099E+04  0.00000000000E+00 0.  1.
          2   -1    0    0  501    0  0.00000000000E+00 -0.00000000000E+00 -0.19441384971E+04  0.19441384971E+04  0.00000000000E+00 0. -1.
         23    2    1    2    0    0 -0.95404291980E+03 -0.90326821914E+03  0.12796348343E+04  0.18363664676E+04  0.93194023100E+02 0.  0.
         13    1    3    3    0    0 -0.65798412559E+03 -0.56244264493E+03  0.84781880272E+03  0.12116441559E+04  0.00000000000E+00 0. -1.
        -13    1    3    3    0    0 -0.29605879421E+03 -0.34082557421E+03  0.43181603153E+03  0.62472231171E+03  0.00000000000E+00 0.  1.
         22    1    1    2    0    0  0.95404291980E+03  0.90326821914E+03 -0.14067200214E+04  0.19248253394E+04  0.00000000000E+00 0. -1.
<mgrwt>
<rscale>  0 0.37590442E+04</rscale>
<asrwt>0</asrwt>
<pdfrwt beam="1">  1        2 0.29909823E+00 0.37590442E+04</pdfrwt>
<pdfrwt beam="2">  1       -2 0.27954666E+00 0.37590442E+04</pdfrwt>
<totfact> 0.24470644E-01</totfact>
</mgrwt>
</event>
<event>
 6    1  0.1528034E-005  0.1304548E+04  0.7818608E-02  0.9025967E-01
         -1   -1    0    0    0  501 -0.00000000000E+00  0.00000000000E+00  0.22384451176E+03  0.22384451176E+03  0.00000000000E+00 0.  1.
          1   -1    0    0  501    0  0.00000000000E+00 -0.00000000000E+00 -0.19006993571E+04  0.19006993571E+04  0.00000000000E+00 0. -1.
         23    2    1    2    0    0 -0.34233053405E+03  0.23388603415E+03 -0.29880667111E+02  0.42618677587E+03  0.94071473628E+02 0.  0.
         13    1    3    3    0    0 -0.30087391507E+03  0.23593746266E+03 -0.17004203617E+02  0.38272802614E+03  0.00000000000E+00 0.  1.
        -13    1    3    3    0    0 -0.41456618977E+02 -0.20514285076E+01 -0.12876463494E+02  0.43458749730E+02  0.00000000000E+00 0. -1.
         22    1    1    2    0    0  0.34233053405E+03 -0.23388603415E+03 -0.16469741782E+04  0.16983570930E+04  0.00000000000E+00 0. -1.
<mgrwt>
<rscale>  0 0.13045476E+04</rscale>
<asrwt>0</asrwt>
<pdfrwt beam="1">  1        1 0.29241528E+00 0.13045476E+04</pdfrwt>
<pdfrwt beam="2">  1       -1 0.34437618E-01 0.13045476E+04</pdfrwt>
<totfact> 0.27330216E+01</totfact>
</mgrwt>
</event>
<event>
 6    1  0.1528034E-005  0.1097151E+04  0.7818608E-02  0.9207973E-01
          1   -1    0    0  501    0  0.00000000000E+00  0.00000000000E+00  0.42499056957E+04  0.42499056957E+04  0.00000000000E+00 0. -1.
         -1   -1    0    0    0  501 -0.00000000000E+00 -0.00000000000E+00 -0.70809802985E+02  0.70809802985E+02  0.00000000000E+00 0.  1.
         23    2    1    2    0    0  0.16660217363E+03 -0.42415173390E+03  0.32787848135E+04  0.33116461170E+04  0.94388418810E+02 0.  0.
         11    1    3    3    0    0  0.38139738762E+02 -0.22515029804E+03  0.16514664680E+04  0.16671798917E+04  0.00000000000E+00 0.  1.
        -11    1    3    3    0    0  0.12846243487E+03 -0.19900143585E+03  0.16273183455E+04  0.16444662253E+04  0.00000000000E+00 0. -1.
         22    1    1    2    0    0 -0.16660217363E+03  0.42415173390E+03  0.90031107920E+03  0.10090693816E+04  0.00000000000E+00 0.  1.
<mgrwt>
<rscale>  0 0.10971508E+04</rscale>
<asrwt>0</asrwt>
<pdfrwt beam="1">  1        1 0.65383145E+00 0.10971508E+04</pdfrwt>
<pdfrwt beam="2">  1       -1 0.10893819E-01 0.10971508E+04</pdfrwt>
<totfact> 0.32772574E+00</totfact>
</mgrwt>
</event>
<event>
 6    1  0.1528034E-005  0.1924189E+04  0.7818608E-02  0.8642909E-01
         -2   -1    0    0    0  501 -0.00000000000E+00  0.00000000000E+00  0.37031511068E+03  0.37031511068E+03  0.00000000000E+00 0.  1.
          2   -1    0    0  501    0  0.00000000000E+00 -0.00000000000E+00 -0.24995636087E+04  0.24995636087E+04  0.00000000000E+00 0. -1.
         23    2    1    2    0    0  0.65239934576E+03  0.64079641487E+03 -0.15023351891E+04  0.17611563698E+04  0.91737597143E+02 0.  0.
         11    1    3    3    0    0  0.28805026694E+03  0.34348111226E+03 -0.76267496267E+03  0.88466113820E+03  0.00000000000E+00 0. -1.
        -11    1    3    3    0    0  0.36434907882E+03  0.29731530261E+03 -0.73966022641E+03  0.87649523155E+03  0.00000000000E+00 0.  1.
         22    1    1    2    0    0 -0.65239934576E+03 -0.64079641487E+03 -0.62691330896E+03  0.11087223496E+04  0.00000000000E+00 0. -1.
<mgrwt>
<rscale>  0 0.19241894E+04</rscale>
<asrwt>0</asrwt>
<pdfrwt beam="1">  1        2 0.38454825E+00 0.19241894E+04</pdfrwt>
<pdfrwt beam="2">  1       -2 0.56971555E-01 0.19241894E+04</pdfrwt>
<totfact> 0.94115910E+00</totfact>
</mgrwt>
</event>
<event>
 6    1  0.1528034E-005  0.3928590E+04  0.7818608E-02  0.8019109E-01
          1   -1    0    0  501    0  0.00000000000E+00  0.00000000000E+00  0.22873695093E+04  0.22873695093E+04  0.00000000000E+00 0. -1.
         -1   -1    0    0    0  501 -0.00000000000E+00 -0.00000000000E+00 -0.16868523378E+04  0.16868523378E+04  0.00000000000E+00 0.  1.
         23    2    1    2    0    0 -0.17081107777E+04 -0.15468038296E+03  0.12668612219E+04  0.21342265092E+04  0.91744138539E+02 0.  0.
         11    1    3    3    0    0 -0.67845246947E+03 -0.27746375368E+02  0.46432571121E+03  0.82259709504E+03  0.00000000000E+00 0. -1.
        -11    1    3    3    0    0 -0.10296583082E+04 -0.12693400760E+03  0.80253551073E+03  0.13116294141E+04  0.00000000000E+00 0.  1.
         22    1    1    2    0    0  0.17081107777E+04  0.15468038296E+03 -0.66634405044E+03  0.18399953379E+04  0.00000000000E+00 0.  1.
<mgrwt>
<rscale>  0 0.39285899E+04</rscale>
<asrwt>0</asrwt>
<pdfrwt beam="1">  1        1 0.35190300E+00 0.39285899E+04</pdfrwt>
<pdfrwt beam="2">  1       -1 0.25951575E+00 0.39285899E+04</pdfrwt>
<totfact> 0.90339428E-02</totfact>
</mgrwt>
</event>
<event>
 6    1  0.1528034E-005  0.2883274E+04  0.7818608E-02  0.8277872E-01
         -2   -1    0    0    0  501 -0.00000000000E+00  0.00000000000E+00  0.68771531262E+03  0.68771531262E+03  0.00000000000E+00 0.  1.
          2   -1    0    0  501    0  0.00000000000E+00 -0.00000000000E+00 -0.30220595755E+04  0.30220595755E+04  0.00000000000E+00 0. -1.
         23    2    1    2    0    0 -0.69381785320E+03  0.18382181383E+03 -0.27748853674E+04  0.28676049900E+04  0.89419819287E+02 0.  0.
         13    1    3    3    0    0 -0.79800759165E+02  0.37309766049E+02 -0.25233419687E+03  0.26726901563E+03  0.00000000000E+00 0. -1.
        -13    1    3    3    0    0 -0.61401709403E+03  0.14651204778E+03 -0.25225511705E+04  0.26003359744E+04  0.00000000000E+00 0.  1.
         22    1    1    2    0    0  0.69381785320E+03 -0.18382181383E+03  0.44054110443E+03  0.84216989815E+03  0.00000000000E+00 0.  1.
<mgrwt>
<rscale>  0 0.28832736E+04</rscale>
<asrwt>0</asrwt>
<pdfrwt beam="1">  1        2 0.46493225E+00 0.28832736E+04</pdfrwt>
<pdfrwt beam="2">  1       -2 0.10580235E+00 0.28832736E+04</pdfrwt>
<totfact> 0.10514071E+00</totfact>
</mgrwt>
</event>
<event>
 6    1  0.1528034E-005  0.2691801E+04  0.7818608E-02  0.8337670E-01
          1   -1    0    0  501    0  0.00000000000E+00  0.00000000000E+00  0.19821544287E+04  0.19821544287E+04  0.00000000000E+00 0. -1.
         -1   -1    0    0    0  501 -0.00000000000E+00 -0.00000000000E+00 -0.91387816947E+03  0.91387816947E+03  0.00000000000E+00 0.  1.
         23    2    1    2    0    0  0.60964357206E+03 -0.20580721458E+03 -0.73504738353E+03  0.98135297613E+03  0.93472526399E+02 0.  0.
         11    1    3    3    0    0  0.20716489680E+03 -0.59372005333E+02 -0.18351571846E+03  0.28305538046E+03  0.00000000000E+00 0. -1.
        -11    1    3    3    0    0  0.40247867527E+03 -0.14643520924E+03 -0.55153166507E+03  0.69829759567E+03  0.00000000000E+00 0.  1.
         22    1    1    2    0    0 -0.60964357206E+03  0.20580721458E+03  0.18033236427E+04  0.19146796220E+04  0.00000000000E+00 0. -1.
<mgrwt>
<rscale>  0 0.26918006E+04</rscale>
<asrwt>0</asrwt>
<pdfrwt beam="1">  1        1 0.30494683E+00 0.26918006E+04</pdfrwt>
<pdfrwt beam="2">  1       -1 0.14059664E+00 0.26918006E+04</pdfrwt>
<totfact> 0.11097112E+00</totfact>
</mgrwt>
</event>
<event>
 6    1  0.1528034E-005  0.1472305E+04  0.7818608E-02  0.8903081E-01
         -2   -1    0    0    0  501 -0.00000000000E+00  0.00000000000E+00  0.36488510858E+03  0.36488510858E+03  0.00000000000E+00 0.  1.
          2   -1    0    0  501    0  0.00000000000E+00 -0.00000000000E+00 -0.14851816162E+04  0.14851816162E+04  0.00000000000E+00 0. -1.
         23    2    1    2    0    0 -0.52887726592E+03  0.22890364899E+03 -0.11321433885E+04  0.12736568085E+04  0.91350812142E+02 0.  0.
         13    1    3    3    0    0 -0.10166043989E+03  0.64194139281E+02 -0.31192100526E+03  0.33429096022E+03  0.00000000000E+00 0.  1.
        -13    1    3    3    0    0 -0.42721682603E+03  0.16470950970E+03 -0.82022238322E+03  0.93936584831E+03  0.00000000000E+00 0. -1.
         22    1    1    2    0    0  0.52887726592E+03 -0.22890364899E+03  0.11846880897E+02  0.57640991622E+03  0.00000000000E+00 0.  1.
<mgrwt>
<rscale>  0 0.14723052E+04</rscale>
<asrwt>0</asrwt>
<pdfrwt beam="1">  1        2 0.22848947E+00 0.14723052E+04</pdfrwt>
<pdfrwt beam="2">  1       -2 0.56136172E-01 0.14723052E+04</pdfrwt>
<totfact> 0.37321495E+01</totfact>
</mgrwt>
</event>
<event>
 6    1  0.1528034E-005  0.1388110E+04  0.7818608E-02  0.8962470E-01
          1   -1    0    0  501    0  0.00000000000E+00  0.00000000000E+00  0.19137400332E+04  0.19137400332E+04  0.00000000000E+00 0. -1.
         -1   -1    0    0    0  501 -0.00000000000E+00 -0.00000000000E+00 -0.25171256668E+03  0.25171256668E+03  0.00000000000E+00 0.  1.
         23    2    1    2    0    0 -0.53649898090E+03  0.38097236188E+03  0.50685417828E+03  0.83601797460E+03  0.95151451857E+02 0.  0.
         13    1    3    3    0    0 -0.23825014980E+03  0.12024405568E+03  0.23468444666E+03  0.35538508172E+03  0.00000000000E+00 0.  1.
        -13    1    3    3    0    0 -0.29824883110E+03  0.26072830620E+03  0.27216973162E+03  0.48063289288E+03  0.00000000000E+00 0. -1.
         22    1    1    2    0    0  0.53649898090E+03 -0.38097236188E+03  0.11551732882E+04  0.13294346253E+04  0.00000000000E+00 0. -1.
<mgrwt>
<rscale>  0 0.13881101E+04</rscale>
<asrwt>0</asrwt>
<pdfrwt beam="1">  1        1 0.29442153E+00 0.13881101E+04</pdfrwt>
<pdfrwt beam="2">  1       -1 0.38725012E-01 0.13881101E+04</pdfrwt>
<totfact> 0.21522229E+01</totfact>
</mgrwt>
</event>
<event>
 6    1  0.1528034E-005  0.2073289E+04  0.7818608E-02  0.8573102E-01
          2   -1    0    0  501    0  0.00000000000E+00  0.00000000000E+00  0.25200350336E+04  0.25200350336E+04  0.00000000000E+00 0. -1.
         -2   -1    0    0    0  501 -0.00000000000E+00 -0.00000000000E+00 -0.42643524287E+03  0.42643524287E+03  0.00000000000E+00 0.  1.
         23    2    1    2    0    0 -0.81371877227E+03  0.50534587917E+03  0.16055379775E+04  0.18714274719E+04  0.83521780136E+02 0.  0.
         11    1    3    3    0    0 -0.54700273207E+03  0.38185150884E+03  0.11415522637E+04  0.13221815815E+04  0.00000000000E+00 0. -1.
        -11    1    3    3    0    0 -0.26671604020E+03  0.12349437033E+03  0.46398571380E+03  0.54924589048E+03  0.00000000000E+00 0.  1.
         22    1    1    2    0    0  0.81371877227E+03 -0.50534587917E+03  0.48806181323E+03  0.10750428045E+04  0.00000000000E+00 0.  1.
<mgrwt>
<rscale>  0 0.20732889E+04</rscale>
<asrwt>0</asrwt>
<pdfrwt beam="1">  1        2 0.38769769E+00 0.20732889E+04</pdfrwt>
<pdfrwt beam="2">  1       -2 0.65605423E-01 0.20732889E+04</pdfrwt>
<totfact> 0.67008596E+00</totfact>
</mgrwt>
</event>
<event>
 6    1  0.1528034E-005  0.1742272E+04  0.7818608E-02  0.8737615E-01
          2   -1    0    0  501    0  0.00000000000E+00  0.00000000000E+00  0.11951084389E+04  0.11951084389E+04  0.00000000000E+00 0.  1.
         -2   -1    0    0    0  501 -0.00000000000E+00 -0.00000000000E+00 -0.63498698682E+03  0.63498698682E+03  0.00000000000E+00 0. -1.
         23    2    1    2    0    0  0.92648509391E+02 -0.27044823245E+03  0.11425776440E+04  0.11812647789E+04  0.90425728591E+02 0.  0.
         11    1    3    3    0    0 -0.17885278764E+01 -0.12787351496E+03  0.53555923796E+03  0.55061650177E+03  0.00000000000E+00 0. -1.
        -11    1    3    3    0    0  0.94437037267E+02 -0.14257471749E+03  0.60701840608E+03  0.63064827708E+03  0.00000000000E+00 0.  1.
         22    1    1    2    0    0 -0.92648509391E+02  0.27044823245E+03 -0.58245619197E+03  0.64883064684E+03  0.00000000000E+00 0. -1.
<mgrwt>
<rscale>  0 0.17422724E+04</rscale>
<asrwt>0</asrwt>
<pdfrwt beam="1">  1        2 0.18386284E+00 0.17422724E+04</pdfrwt>
<pdfrwt beam="2">  1       -2 0.97690306E-01 0.17422724E+04</pdfrwt>
<totfact> 0.15788837E+01</totfact>
</mgrwt>
</event>
<event>
 6    1  0.1528034E-005  0.4603314E+04  0.7818608E-02  0.7892795E-01
          2   -1    0    0  501    0  0.00000000000E+00  0.00000000000E+00  0.24146165860E+04  0.24146165860E+04  0.00000000000E+00 0. -1.
         -2   -1    0    0    0  501 -0.00000000000E+00 -0.00000000000E+00 -0.21939818301E+04  0.21939818301E+04  0.00000000000E+00 0.  1.
         23    2    1    2    0    0  0.12376148232E+04 -0.12421309501E+04  0.16016656255E+04  0.23765979657E+04  0.91133786670E+02 0.  0.
         13    1    3    3    0    0  0.87437191732E+03 -0.83023277065E+03  0.11351628773E+04  0.16560215764E+04  0.00000000000E+00 0.  1.
        -13    1    3    3    0    0  0.36324290588E+03 -0.41189817944E+03  0.46650274814E+03  0.72057638937E+03  0.00000000000E+00 0. -1.
         22    1    1    2    0    0 -0.12376148232E+04  0.12421309501E+04 -0.13810308696E+04  0.22320004504E+04  0.00000000000E+00 0.  1.
<mgrwt>
<rscale>  0 0.46033140E+04</rscale>
<asrwt>0</asrwt>
<pdfrwt beam="1">  1        2 0.37147947E+00 0.46033140E+04</pdfrwt>
<pdfrwt beam="2">  1       -2 0.33753567E+00 0.46033140E+04</pdfrwt>
<totfact> 0.54590517E-02</totfact>
</mgrwt>
</event>
<event>
 6    1  0.1528034E-005  0.2281789E+04  0.7818608E-02  0.8485136E-01
         -4   -1    0    0    0  501 -0.00000000000E+00  0.00000000000E+00  0.20777963555E+04  0.20777963555E+04  0.00000000000E+00 0. -1.
          4   -1    0    0  501    0  0.00000000000E+00 -0.00000000000E+00 -0.62645208002E+03  0.62645208002E+03  0.00000000000E+00 0.  1.
         23    2    1    2    0    0 -0.23330778640E+03 -0.70963562019E+03  0.17459915516E+04  0.19012339562E+04  0.90492104499E+02 0.  0.
         11    1    3    3    0    0 -0.13675421419E+03 -0.40618953278E+03  0.11127003803E+04  0.11923899479E+04  0.00000000000E+00 0.  1.
        -11    1    3    3    0    0 -0.96553572205E+02 -0.30344608741E+03  0.63329117137E+03  0.70884400823E+03  0.00000000000E+00 0. -1.
         22    1    1    2    0    0  0.23330778640E+03  0.70963562019E+03 -0.29464727620E+03  0.80301447933E+03  0.00000000000E+00 0.  1.
<mgrwt>
<rscale>  0 0.22817886E+04</rscale>
<asrwt>0</asrwt>
<pdfrwt beam="1">  1        4 0.96377244E-01 0.22817886E+04</pdfrwt>
<pdfrwt beam="2">  1       -4 0.31966097E+00 0.22817886E+04</pdfrwt>
<totfact> 0.38022148E-02</totfact>
</mgrwt>
</event>
<event>
 6    1  0.1528034E-005  0.3225932E+04  0.7818608E-02  0.8182002E-01
         -2   -1    0    0    0  501 -0.00000000000E+00  0.00000000000E+00  0.93718489663E+03  0.93718489663E+03  0.00000000000E+00 0.  1.
          2   -1    0    0  501    0  0.00000000000E+00 -0.00000000000E+00 -0.27760365816E+04  0.27760365816E+04  0.00000000000E+00 0. -1.
         23    2    1    2    0    0 -0.75763141283E+03 -0.14166209892E+04 -0.10688112947E+04  0.19317101571E+04  0.91247809643E+02 0.  0.
         13    1    3    3    0    0 -0.39518199616E+03 -0.83385856122E+03 -0.60621207783E+03  0.11040751757E+04  0.00000000000E+00 0.  1.
        -13    1    3    3    0    0 -0.36244941668E+03 -0.58276242795E+03 -0.46259921691E+03  0.82763498148E+03  0.00000000000E+00 0. -1.
         22    1    1    2    0    0  0.75763141283E+03  0.14166209892E+04 -0.77004039026E+03  0.17815113211E+04  0.00000000000E+00 0. -1.
<mgrwt>
<rscale>  0 0.32259321E+04</rscale>
<asrwt>0</asrwt>
<pdfrwt beam="1">  1        2 0.42708255E+00 0.32259321E+04</pdfrwt>
<pdfrwt beam="2">  1       -2 0.14418229E+00 0.32259321E+04</pdfrwt>
<totfact> 0.66782134E-01</totfact>
</mgrwt>
</event>
<event>
 6    1  0.1528034E-005  0.2010386E+04  0.7818608E-02  0.8601780E-01
          2   -1    0    0  501    0  0.00000000000E+00  0.00000000000E+00  0.10579117269E+04  0.10579117269E+04  0.00000000000E+00 0. -1.
         -2   -1    0    0    0  501 -0.00000000000E+00 -0.00000000000E+00 -0.95510162238E+03  0.95510162238E+03  0.00000000000E+00 0.  1.
         23    2    1    2    0    0 -0.28224631180E+03  0.66158812639E+02 -0.91003820625E+03  0.95949464054E+03  0.91763061121E+02 0.  0.
         13    1    3    3    0    0 -0.16966201981E+03  0.74461624698E+02 -0.46990194703E+03  0.50511144745E+03  0.00000000000E+00 0. -1.
        -13    1    3    3    0    0 -0.11258429199E+03 -0.83028120587E+01 -0.44013625922E+03  0.45438319310E+03  0.00000000000E+00 0.  1.
         22    1    1    2    0    0  0.28224631180E+03 -0.66158812639E+02  0.10128483107E+04  0.10535187087E+04  0.00000000000E+00 0. -1.
<mgrwt>
<rscale>  0 0.20103862E+04</rscale>
<asrwt>0</asrwt>
<pdfrwt beam="1">  1        2 0.16275565E+00 0.20103862E+04</pdfrwt>
<pdfrwt beam="2">  1       -2 0.14693871E+00 0.20103862E+04</pdfrwt>
<totfact> 0.67970913E+00</totfact>
</mgrwt>
</event>
<event>
 6    1  0.1528034E-005  0.3420243E+04  0.7818608E-02  0.8132956E-01
          2   -1    0    0  501    0  0.00000000000E+00  0.00000000000E+00  0.13355400573E+04  0.13355400573E+04  0.00000000000E+00 0. -1.
         -2   -1    0    0    0  501 -0.00000000000E+00 -0.00000000000E+00 -0.21897628750E+04  0.21897628750E+04  0.00000000000E+00 0.  1.
         23    2    1    2    0    0 -0.24924006852E+03 -0.38513403998E+03 -0.21241925342E+04  0.21750170658E+04  0.89757862254E+02 0.  0.
         11    1    3    3    0    0 -0.12518632958E+03 -0.16098092589E+03 -0.11357957209E+04  0.11539577095E+04  0.00000000000E+00 0.  1.
        -11    1    3    3    0    0 -0.12405373894E+03 -0.22415311409E+03 -0.98839681324E+03  0.10210593563E+04  0.00000000000E+00 0. -1.
         22    1    1    2    0    0  0.24924006852E+03  0.38513403998E+03  0.12699697165E+04  0.13502858665E+04  0.00000000000E+00 0. -1.
<mgrwt>
<rscale>  0 0.34202433E+04</rscale>
<asrwt>0</asrwt>
<pdfrwt beam="1">  1        2 0.20546770E+00 0.34202433E+04</pdfrwt>
<pdfrwt beam="2">  1       -2 0.33688659E+00 0.34202433E+04</pdfrwt>
<totfact> 0.24508440E-01</totfact>
</mgrwt>
</event>
<event>
 6    1  0.1528034E-005  0.1481860E+04  0.7818608E-02  0.8896606E-01
         -2   -1    0    0    0  501 -0.00000000000E+00  0.00000000000E+00  0.31172407061E+03  0.31172407061E+03  0.00000000000E+00 0.  1.
          2   -1    0    0  501    0  0.00000000000E+00 -0.00000000000E+00 -0.17611007626E+04  0.17611007626E+04  0.00000000000E+00 0. -1.
         23    2    1    2    0    0  0.73142197851E+03 -0.85350239653E+02 -0.79891860236E+03  0.10902982430E+04  0.90645195663E+02 0.  0.
         13    1    3    3    0    0  0.46826332407E+03 -0.36822135109E+02 -0.56615660902E+03  0.73563558657E+03  0.00000000000E+00 0.  1.
        -13    1    3    3    0    0  0.26315865443E+03 -0.48528104544E+02 -0.23276199335E+03  0.35466265645E+03  0.00000000000E+00 0. -1.
         22    1    1    2    0    0 -0.73142197851E+03  0.85350239653E+02 -0.65045808962E+03  0.98252659017E+03  0.00000000000E+00 0.  1.
<mgrwt>
<rscale>  0 0.14818603E+04</rscale>
<asrwt>0</asrwt>
<pdfrwt beam="1">  1        2 0.27093858E+00 0.14818603E+04</pdfrwt>
<pdfrwt beam="2">  1       -2 0.47957549E-01 0.14818603E+04</pdfrwt>
<totfact> 0.36142457E+01</totfact>
</mgrwt>
</event>
<event>
 6    1  0.1528034E-005  0.1684915E+04  0.7818608E-02  0.8770015E-01
         -1   -1    0    0    0  501 -0.00000000000E+00  0.00000000000E+00  0.82924937262E+03  0.82924937262E+03  0.00000000000E+00 0.  1.
          1   -1    0    0  501    0  0.00000000000E+00 -0.00000000000E+00 -0.85587640817E+03  0.85587640817E+03  0.00000000000E+00 0. -1.
         23    2    1    2    0    0  0.69917751777E+02 -0.44022410344E+03  0.69877180264E+03  0.83372151270E+03  0.90131988235E+02 0.  0.
         13    1    3    3    0    0  0.47215971475E+02 -0.26354289311E+03  0.33646623689E+03  0.42999271277E+03  0.00000000000E+00 0. -1.
        -13    1    3    3    0    0  0.22701780302E+02 -0.17668121033E+03  0.36230556575E+03  0.40372879992E+03  0.00000000000E+00 0.  1.
         22    1    1    2    0    0 -0.69917751777E+02  0.44022410344E+03 -0.72539883820E+03  0.85140426809E+03  0.00000000000E+00 0. -1.
<mgrwt>
<rscale>  0 0.16849154E+04</rscale>
<asrwt>0</asrwt>
<pdfrwt beam="1">  1        1 0.13167329E+00 0.16849154E+04</pdfrwt>
<pdfrwt beam="2">  1       -1 0.12757683E+00 0.16849154E+04</pdfrwt>
<totfact> 0.10034597E+01</totfact>
</mgrwt>
</event>
<event>
 6    1  0.1528034E-005  0.3298594E+04  0.7818608E-02  0.8163253E-01
          2   -1    0    0  501    0  0.00000000000E+00  0.00000000000E+00  0.24798171346E+04  0.24798171346E+04  0.00000000000E+00 0.  1.
         -2   -1    0    0    0  501 -0.00000000000E+00 -0.00000000000E+00 -0.10969276616E+04  0.10969276616E+04  0.00000000000E+00 0. -1.
         23    2    1    2    0    0  0.89984560700E+03 -0.10486342428E+04  0.16658268391E+04  0.21662805305E+04  0.91849808991E+02 0.  0.
         13    1    3    3    0    0  0.42729253391E+03 -0.53072483588E+03  0.75746296425E+03  0.10188218211E+04  0.00000000000E+00 0. -1.
        -13    1    3    3    0    0  0.47255307308E+03 -0.51790940692E+03  0.90836387481E+03  0.11474587094E+04  0.00000000000E+00 0.  1.
         22    1    1    2    0    0 -0.89984560700E+03  0.10486342428E+04 -0.28293736604E+03  0.14104642657E+04  0.00000000000E+00 0. -1.
<mgrwt>
<rscale>  0 0.32985936E+04</rscale>
<asrwt>0</asrwt>
<pdfrwt beam="1">  1        2 0.38151033E+00 0.32985936E+04</pdfrwt>
<pdfrwt beam="2">  1       -2 0.16875810E+00 0.32985936E+04</pdfrwt>
<totfact> 0.64968842E-01</totfact>
</mgrwt>
</event>
<event>
 6    1  0.1528034E-005  0.1294840E+04  0.7818608E-02  0.9033667E-01
         -2   -1    0    0    0  501 -0.00000000000E+00  0.00000000000E+00  0.14131765967E+03  0.14131765967E+03  0.00000000000E+00 0.  1.
          2   -1    0    0  501    0  0.00000000000E+00 -0.00000000000E+00 -0.29660304758E+04  0.29660304758E+04  0.00000000000E+00 0. -1.
         23    2    1    2    0    0  0.44255338005E+03 -0.20152646166E+03 -0.24332250858E+04  0.24830653054E+04  0.92534230345E+02 0.  0.
         13    1    3    3    0    0  0.25361975986E+03 -0.99019471921E+02 -0.11373507288E+04  0.11694847236E+04  0.00000000000E+00 0. -1.
        -13    1    3    3    0    0  0.18893362018E+03 -0.10250698974E+03 -0.12958743569E+04  0.13135805818E+04  0.00000000000E+00 0.  1.
         22    1    1    2    0    0 -0.44255338005E+03  0.20152646166E+03 -0.39148773038E+03  0.62428283012E+03  0.00000000000E+00 0.  1.
<mgrwt>
<rscale>  0 0.12948397E+04</rscale>
<asrwt>0</asrwt>
<pdfrwt beam="1">  1        2 0.45631230E+00 0.12948397E+04</pdfrwt>
<pdfrwt beam="2">  1       -2 0.21741182E-01 0.12948397E+04</pdfrwt>
<totfact> 0.33425897E+01</totfact>
</mgrwt>
</event>
<event>
 6    1  0.1528034E-005  0.2574737E+04  0.7818608E-02  0.8376833E-01
         -2   -1    0    0    0  501 -0.00000000000E+00  0.00000000000E+00  0.18042619000E+04  0.18042619000E+04  0.00000000000E+00 0.  1.
          2   -1    0    0  501    0  0.00000000000E+00 -0.00000000000E+00 -0.91855726236E+03  0.91855726236E+03  0.00000000000E+00 0. -1.
         23    2    1    2    0    0  0.74037920055E+03 -0.54243989276E+03 -0.50879082095E+03  0.10533821369E+04  0.91342372886E+02 0.  0.
         11    1    3    3    0    0  0.15277986673E+03 -0.15014875596E+03 -0.14533303108E+03  0.25885908622E+03  0.00000000000E+00 0. -1.
        -11    1    3    3    0    0  0.58759933382E+03 -0.39229113680E+03 -0.36345778987E+03  0.79452305072E+03  0.00000000000E+00 0.  1.
         22    1    1    2    0    0 -0.74037920055E+03  0.54243989276E+03  0.13944954586E+04  0.16694370255E+04  0.00000000000E+00 0.  1.
<mgrwt>
<rscale>  0 0.25747372E+04</rscale>
<asrwt>0</asrwt>
<pdfrwt beam="1">  1        2 0.14131650E+00 0.25747372E+04</pdfrwt>
<pdfrwt beam="2">  1       -2 0.27757875E+00 0.25747372E+04</pdfrwt>
<totfact> 0.11002391E+00</totfact>
</mgrwt>
</event>
<event>
 6    1  0.1528034E-005  0.4353684E+04  0.7818608E-02  0.7936765E-01
         -1   -1    0    0    0  501 -0.00000000000E+00  0.00000000000E+00  0.13570692286E+04  0.13570692286E+04  0.00000000000E+00 0.  1.
          1   -1    0    0  501    0  0.00000000000E+00 -0.00000000000E+00 -0.34918192842E+04  0.34918192842E+04  0.00000000000E+00 0. -1.
         23    2    1    2    0    0  0.89675154382E+03  0.88720240804E+03 -0.30423965636E+04  0.32948249274E+04  0.91667922665E+02 0.  0.
         13    1    3    3    0    0  0.77942467144E+03  0.80688552835E+03 -0.26629744501E+04  0.28896366547E+04  0.00000000000E+00 0. -1.
        -13    1    3    3    0    0  0.11732687238E+03  0.80316879696E+02 -0.37942211350E+03  0.40518827273E+03  0.00000000000E+00 0.  1.
         22    1    1    2    0    0 -0.89675154382E+03 -0.88720240804E+03  0.90764650800E+03  0.15540635855E+04  0.00000000000E+00 0.  1.
<mgrwt>
<rscale>  0 0.43536837E+04</rscale>
<asrwt>0</asrwt>
<pdfrwt beam="1">  1        1 0.53720296E+00 0.43536837E+04</pdfrwt>
<pdfrwt beam="2">  1       -1 0.20877988E+00 0.43536837E+04</pdfrwt>
<totfact> 0.25237486E-02</totfact>
</mgrwt>
</event>
<event>
 6    1  0.2135578E-005  0.2843230E+04  0.7818608E-02  0.8289971E-01
          2   -1    0    0  501    0  0.00000000000E+00  0.00000000000E+00  0.24769372443E+04  0.24769372443E+04  0.00000000000E+00 0. -1.
         -2   -1    0    0    0  501 -0.00000000000E+00 -0.00000000000E+00 -0.81592274526E+03  0.81592274526E+03  0.00000000000E+00 0.  1.
         23    2    1    2    0    0 -0.12351093461E+04 -0.47974087856E+03  0.14232634534E+04  0.19466906217E+04  0.90989622831E+02 0.  0.
         11    1    3    3    0    0 -0.50481754728E+03 -0.18949770683E+03  0.51487865822E+03  0.74555359943E+03  0.00000000000E+00 0. -1.
        -11    1    3    3    0    0 -0.73029179880E+03 -0.29024317173E+03  0.90838479514E+03  0.12011370222E+04  0.00000000000E+00 0.  1.
         22    1    1    2    0    0  0.12351093461E+04  0.47974087856E+03  0.23775104568E+03  0.13461693679E+04  0.00000000000E+00 0. -1.
<mgrwt>
<rscale>  0 0.28432302E+04</rscale>
<asrwt>0</asrwt>
<pdfrwt beam="1">  1        2 0.38106727E+00 0.28432302E+04</pdfrwt>
<pdfrwt beam="2">  1       -2 0.12552658E+00 0.28432302E+04</pdfrwt>
<totfact> 0.14764920E+00</totfact>
</mgrwt>
</event>
<event>
 6    1  0.1528034E-005  0.3668350E+04  0.7818608E-02  0.8075012E-01
         -2   -1    0    0    0  501 -0.00000000000E+00  0.00000000000E+00  0.18415091735E+04  0.18415091735E+04  0.00000000000E+00 0.  1.
          2   -1    0    0  501    0  0.00000000000E+00 -0.00000000000E+00 -0.18268703047E+04  0.18268703047E+04  0.00000000000E+00 0. -1.
         23    2    1    2    0    0 -0.11193584627E+04 -0.12550568199E+04 -0.72214715326E+03  0.18323553412E+04  0.88874045655E+02 0.  0.
         11    1    3    3    0    0 -0.62267310523E+03 -0.64993276398E+03 -0.41945313675E+03  0.99301325651E+03  0.00000000000E+00 0.  1.
        -11    1    3    3    0    0 -0.49668535751E+03 -0.60512405593E+03 -0.30269401651E+03  0.83934208465E+03  0.00000000000E+00 0. -1.
         22    1    1    2    0    0  0.11193584627E+04  0.12550568199E+04  0.73678602207E+03  0.18360241370E+04  0.00000000000E+00 0.  1.
<mgrwt>
<rscale>  0 0.36683503E+04</rscale>
<asrwt>0</asrwt>
<pdfrwt beam="1">  1        2 0.28105697E+00 0.36683503E+04</pdfrwt>
<pdfrwt beam="2">  1       -2 0.28330910E+00 0.36683503E+04</pdfrwt>
<totfact> 0.27165215E-01</totfact>
</mgrwt>
</event>
<event>
 6    1  0.1528034E-005  0.1271174E+04  0.7818608E-02  0.9052742E-01
          1   -1    0    0  501    0  0.00000000000E+00  0.00000000000E+00  0.95109577814E+03  0.95109577814E+03  0.00000000000E+00 0. -1.
         -1   -1    0    0    0  501 -0.00000000000E+00 -0.00000000000E+00 -0.42474229260E+03  0.42474229260E+03  0.00000000000E+00 0.  1.
         23    2    1    2    0    0 -0.58016550092E+03 -0.16758023599E+03  0.46726560282E+03  0.76907079918E+03  0.91965246819E+02 0.  0.
         13    1    3    3    0    0 -0.34897966246E+03 -0.86582155794E+02  0.33120832885E+03  0.48885808945E+03  0.00000000000E+00 0.  1.
        -13    1    3    3    0    0 -0.23118583845E+03 -0.80998080194E+02  0.13605727397E+03  0.28021270973E+03  0.00000000000E+00 0. -1.
         22    1    1    2    0    0  0.58016550092E+03  0.16758023599E+03  0.59087882717E+02  0.60676727156E+03  0.00000000000E+00 0.  1.
<mgrwt>
<rscale>  0 0.12711736E+04</rscale>
<asrwt>0</asrwt>
<pdfrwt beam="1">  1        1 0.14632243E+00 0.12711736E+04</pdfrwt>
<pdfrwt beam="2">  1       -1 0.65344968E-01 0.12711736E+04</pdfrwt>
<totfact> 0.38672923E+01</totfact>
</mgrwt>
</event>
<event>
 6    1  0.1528034E-005  0.1382802E+04  0.7818608E-02  0.8966362E-01
         -2   -1    0    0    0  501 -0.00000000000E+00  0.00000000000E+00  0.39333990899E+03  0.39333990899E+03  0.00000000000E+00 0. -1.
          2   -1    0    0  501    0  0.00000000000E+00 -0.00000000000E+00 -0.12153242063E+04  0.12153242063E+04  0.00000000000E+00 0.  1.
         23    2    1    2    0    0  0.23102944530E+03  0.11173021543E+03 -0.11558793510E+04  0.11875416241E+04  0.91322446807E+02 0.  0.
         11    1    3    3    0    0  0.54440866503E+02  0.51968155373E+02 -0.20088728522E+03  0.21452318868E+03  0.00000000000E+00 0. -1.
        -11    1    3    3    0    0  0.17658857880E+03  0.59762060061E+02 -0.95499206582E+03  0.97301843547E+03  0.00000000000E+00 0.  1.
         22    1    1    2    0    0 -0.23102944530E+03 -0.11173021543E+03  0.33389505373E+03  0.42112249114E+03  0.00000000000E+00 0. -1.
<mgrwt>
<rscale>  0 0.13828022E+04</rscale>
<asrwt>0</asrwt>
<pdfrwt beam="1">  1        2 0.18697296E+00 0.13828022E+04</pdfrwt>
<pdfrwt beam="2">  1       -2 0.60513832E-01 0.13828022E+04</pdfrwt>
<totfact> 0.45969255E+01</totfact>
</mgrwt>
</event>
<event>
 6    1  0.1528034E-005  0.8902348E+03  0.7818608E-02  0.9437871E-01
         -2   -1    0    0    0  501 -0.00000000000E+00  0.00000000000E+00  0.34074987059E+03  0.34074987059E+03  0.00000000000E+00 0.  1.
          2   -1    0    0  501    0  0.00000000000E+00 -0.00000000000E+00 -0.58145140389E+03  0.58145140389E+03  0.00000000000E+00 0. -1.
         23    2    1    2    0    0  0.71974276365E+02  0.82524155586E+02 -0.56148578575E+03  0.58324247265E+03  0.11364401256E+03 0.  0.
         13    1    3    3    0    0  0.71279157667E+02  0.80689345768E+02 -0.25559097847E+03  0.27734137288E+03  0.00000000000E+00 0.  1.
        -13    1    3    3    0    0  0.69511869829E+00  0.18348098175E+01 -0.30589480728E+03  0.30590109977E+03  0.00000000000E+00 0. -1.
         22    1    1    2    0    0 -0.71974276365E+02 -0.82524155586E+02  0.32078425245E+03  0.33895880183E+03  0.00000000000E+00 0.  1.
<mgrwt>
<rscale>  0 0.89023478E+03</rscale>
<asrwt>0</asrwt>
<pdfrwt beam="1">  1        2 0.89454062E-01 0.89023478E+03</pdfrwt>
<pdfrwt beam="2">  1       -2 0.52423057E-01 0.89023478E+03</pdfrwt>
<totfact> 0.17758698E+02</totfact>
</mgrwt>
</event>
<event>
 6    1  0.1528034E-005  0.3961159E+04  0.7818608E-02  0.8012428E-01
         -1   -1    0    0    0  501 -0.00000000000E+00  0.00000000000E+00  0.21141276988E+04  0.21141276988E+04  0.00000000000E+00 0.  1.
          1   -1    0    0  501    0  0.00000000000E+00 -0.00000000000E+00 -0.18554670093E+04  0.18554670093E+04  0.00000000000E+00 0. -1.
         23    2    1    2    0    0  0.21992612003E+03 -0.19047701330E+04  0.62239923805E+03  0.20179742302E+04  0.91227321739E+02 0.  0.
         11    1    3    3    0    0  0.15276275541E+03 -0.12500560270E+04  0.36387995358E+03  0.13108719048E+04  0.00000000000E+00 0.  1.
        -11    1    3    3    0    0  0.67163364621E+02 -0.65471410605E+03  0.25851928447E+03  0.70710232545E+03  0.00000000000E+00 0. -1.
         22    1    1    2    0    0 -0.21992612003E+03  0.19047701330E+04 -0.36373854853E+03  0.19516204779E+04  0.00000000000E+00 0. -1.
<mgrwt>
<rscale>  0 0.39611585E+04</rscale>
<asrwt>0</asrwt>
<pdfrwt beam="1">  1        1 0.28545646E+00 0.39611585E+04</pdfrwt>
<pdfrwt beam="2">  1       -1 0.32525042E+00 0.39611585E+04</pdfrwt>
<totfact> 0.66312318E-02</totfact>
</mgrwt>
</event>
<event>
 6    1  0.2191570E-005  0.3595004E+04  0.7818608E-02  0.8091637E-01
         -1   -1    0    0    0  501 -0.00000000000E+00  0.00000000000E+00  0.14361528626E+04  0.14361528626E+04  0.00000000000E+00 0.  1.
          1   -1    0    0  501    0  0.00000000000E+00 -0.00000000000E+00 -0.22497692479E+04  0.22497692479E+04  0.00000000000E+00 0. -1.
         23    2    1    2    0    0  0.49098203480E+03 -0.98942388852E+03 -0.18595081243E+04  0.21647671154E+04  0.91778046176E+02 0.  0.
         13    1    3    3    0    0  0.31253321959E+03 -0.72220016924E+03 -0.13071470828E+04  0.15257403429E+04  0.00000000000E+00 0. -1.
        -13    1    3    3    0    0  0.17844881521E+03 -0.26722371928E+03 -0.55236104146E+03  0.63902677246E+03  0.00000000000E+00 0.  1.
         22    1    1    2    0    0 -0.49098203480E+03  0.98942388852E+03  0.10458917389E+04  0.15211549951E+04  0.00000000000E+00 0.  1.
<mgrwt>
<rscale>  0 0.35950035E+04</rscale>
<asrwt>0</asrwt>
<pdfrwt beam="1">  1        1 0.34611834E+00 0.35950035E+04</pdfrwt>
<pdfrwt beam="2">  1       -1 0.22094660E+00 0.35950035E+04</pdfrwt>
<totfact> 0.17684641E-01</totfact>
</mgrwt>
</event>
<event>
 6    1  0.1528034E-005  0.1934755E+04  0.7818608E-02  0.8637748E-01
          2   -1    0    0  501    0  0.00000000000E+00  0.00000000000E+00  0.23732366669E+04  0.23732366669E+04  0.00000000000E+00 0. -1.
         -2   -1    0    0    0  501 -0.00000000000E+00 -0.00000000000E+00 -0.39432177770E+03  0.39432177770E+03  0.00000000000E+00 0.  1.
         23    2    1    2    0    0 -0.74070924091E+03  0.98204411320E+02  0.11679073292E+03  0.76111864750E+03  0.85832594577E+02 0.  0.
         11    1    3    3    0    0 -0.22265867622E+03 -0.80524246845E+00  0.60262391434E+02  0.23067095684E+03  0.00000000000E+00 0. -1.
        -11    1    3    3    0    0 -0.51805056470E+03  0.99009653789E+02  0.56528341484E+02  0.53044769065E+03  0.00000000000E+00 0.  1.
         22    1    1    2    0    0  0.74070924091E+03 -0.98204411320E+02  0.18621241563E+04  0.20064397971E+04  0.00000000000E+00 0. -1.
<mgrwt>
<rscale>  0 0.19347547E+04</rscale>
<asrwt>0</asrwt>
<pdfrwt beam="1">  1        2 0.36511332E+00 0.19347547E+04</pdfrwt>
<pdfrwt beam="2">  1       -2 0.60664890E-01 0.19347547E+04</pdfrwt>
<totfact> 0.97356810E+00</totfact>
</mgrwt>
</event>
<event>
 6    1  0.1528034E-005  0.1487397E+04  0.7818608E-02  0.8892877E-01
          2   -1    0    0  501    0  0.00000000000E+00  0.00000000000E+00  0.36848645513E+03  0.36848645513E+03  0.00000000000E+00 0. -1.
         -2   -1    0    0    0  501 -0.00000000000E+00 -0.00000000000E+00 -0.15009718913E+04  0.15009718913E+04  0.00000000000E+00 0.  1.
         23    2    1    2    0    0  0.43349785320E+03  0.11388251774E+03  0.17326632883E+03  0.48892320078E+03  0.90194561789E+02 0.  0.
         13    1    3    3    0    0  0.41173885649E+02  0.38113434860E+02  0.34877252394E+02  0.66063193314E+02  0.00000000000E+00 0.  1.
        -13    1    3    3    0    0  0.39232396755E+03  0.75769082883E+02  0.13838907644E+03  0.42286000747E+03  0.00000000000E+00 0. -1.
         22    1    1    2    0    0 -0.43349785320E+03 -0.11388251774E+03 -0.13057517650E+04  0.13805351457E+04  0.00000000000E+00 0.  1.
<mgrwt>
<rscale>  0 0.14873975E+04</rscale>
<asrwt>0</asrwt>
<pdfrwt beam="1">  1        2 0.56690224E-01 0.14873975E+04</pdfrwt>
<pdfrwt beam="2">  1       -2 0.23091875E+00 0.14873975E+04</pdfrwt>
<totfact> 0.71157006E+00</totfact>
</mgrwt>
</event>
<event>
 6    1  0.1528034E-005  0.7689631E+03  0.7818608E-02  0.9606061E-01
          1   -1    0    0  501    0  0.00000000000E+00  0.00000000000E+00  0.67014093790E+03  0.67014093790E+03  0.00000000000E+00 0. -1.
         -1   -1    0    0    0  501 -0.00000000000E+00 -0.00000000000E+00 -0.22058952524E+03  0.22058952524E+03  0.00000000000E+00 0.  1.
         23    2    1    2    0    0  0.17504672601E+03 -0.20441733675E+03  0.53635181446E+03  0.60795473292E+03  0.97508381924E+02 0.  0.
         11    1    3    3    0    0  0.37859789868E+02 -0.29028879036E+02  0.19233388408E+03  0.19816246484E+03  0.00000000000E+00 0. -1.
        -11    1    3    3    0    0  0.13718693615E+03 -0.17538845771E+03  0.34401793038E+03  0.40979226807E+03  0.00000000000E+00 0.  1.
         22    1    1    2    0    0 -0.17504672601E+03  0.20441733675E+03 -0.86800401804E+02  0.28277573022E+03  0.00000000000E+00 0.  1.
<mgrwt>
<rscale>  0 0.76896312E+03</rscale>
<asrwt>0</asrwt>
<pdfrwt beam="1">  1        1 0.10309860E+00 0.76896312E+03</pdfrwt>
<pdfrwt beam="2">  1       -1 0.33936850E-01 0.76896312E+03</pdfrwt>
<totfact> 0.24121830E+02</totfact>
</mgrwt>
</event>
<event>
 6    1  0.1528034E-005  0.1808304E+04  0.7818608E-02  0.8701896E-01
         -2   -1    0    0    0  501 -0.00000000000E+00  0.00000000000E+00  0.55710959522E+03  0.55710959522E+03  0.00000000000E+00 0.  1.
          2   -1    0    0  501    0  0.00000000000E+00 -0.00000000000E+00 -0.14673790453E+04  0.14673790453E+04  0.00000000000E+00 0. -1.
         23    2    1    2    0    0 -0.15249658717E+03 -0.88858390985E+03 -0.45053781935E+03  0.10124660389E+04  0.96263073164E+02 0.  0.
         11    1    3    3    0    0 -0.70336646640E+02 -0.27103747113E+03 -0.98135984808E+02  0.29671404775E+03  0.00000000000E+00 0. -1.
        -11    1    3    3    0    0 -0.82159940527E+02 -0.61754643872E+03 -0.35240183454E+03  0.71575199112E+03  0.00000000000E+00 0.  1.
         22    1    1    2    0    0  0.15249658717E+03  0.88858390985E+03 -0.45973163072E+03  0.10120226016E+04  0.00000000000E+00 0. -1.
<mgrwt>
<rscale>  0 0.18083041E+04</rscale>
<asrwt>0</asrwt>
<pdfrwt beam="1">  1        2 0.22575062E+00 0.18083041E+04</pdfrwt>
<pdfrwt beam="2">  1       -2 0.85709168E-01 0.18083041E+04</pdfrwt>
<totfact> 0.14774769E+01</totfact>
</mgrwt>
</event>
<event>
 6    1  0.4814743E-005  0.2743771E+04  0.7818608E-02  0.8320941E-01
          1   -1    0    0  501    0  0.00000000000E+00  0.00000000000E+00  0.16373961405E+04  0.16373961405E+04  0.00000000000E+00 0. -1.
         -1   -1    0    0    0  501 -0.00000000000E+00 -0.00000000000E+00 -0.11494285501E+04  0.11494285501E+04  0.00000000000E+00 0.  1.
         23    2    1    2    0    0 -0.26123571982E+03  0.68974837659E+03  0.14173003146E+04  0.16003777947E+04  0.92043357692E+02 0.  0.
         13    1    3    3    0    0 -0.10842496722E+03  0.23677836294E+03  0.41561289442E+03  0.49046309206E+03  0.00000000000E+00 0. -1.
        -13    1    3    3    0    0 -0.15281075260E+03  0.45297001365E+03  0.10016874202E+04  0.11099147027E+04  0.00000000000E+00 0.  1.
         22    1    1    2    0    0  0.26123571982E+03 -0.68974837659E+03 -0.92933272420E+03  0.11864468958E+04  0.00000000000E+00 0.  1.
<mgrwt>
<rscale>  0 0.27437710E+04</rscale>
<asrwt>0</asrwt>
<pdfrwt beam="1">  1        1 0.25190710E+00 0.27437710E+04</pdfrwt>
<pdfrwt beam="2">  1       -1 0.17683516E+00 0.27437710E+04</pdfrwt>
<totfact> 0.10036968E+00</totfact>
</mgrwt>
</event>
<event>
 6    1  0.1528034E-005  0.2315835E+04  0.7818608E-02  0.8471704E-01
          2   -1    0    0  501    0  0.00000000000E+00  0.00000000000E+00  0.31599411322E+04  0.31599411322E+04  0.00000000000E+00 0. -1.
         -2   -1    0    0    0  501 -0.00000000000E+00 -0.00000000000E+00 -0.42430325332E+03  0.42430325332E+03  0.00000000000E+00 0.  1.
         23    2    1    2    0    0 -0.33102652288E+03 -0.41077199426E+03  0.29621086865E+04  0.30101353220E+04  0.92274567533E+02 0.  0.
         11    1    3    3    0    0 -0.13379854785E+03 -0.22727982339E+03  0.16089595526E+04  0.16304321548E+04  0.00000000000E+00 0. -1.
        -11    1    3    3    0    0 -0.19722797502E+03 -0.18349217087E+03  0.13531491339E+04  0.13797031672E+04  0.00000000000E+00 0.  1.
         22    1    1    2    0    0  0.33102652288E+03  0.41077199426E+03 -0.22647080765E+03  0.57410906353E+03  0.00000000000E+00 0.  1.
<mgrwt>
<rscale>  0 0.23158353E+04</rscale>
<asrwt>0</asrwt>
<pdfrwt beam="1">  1        2 0.48614478E+00 0.23158353E+04</pdfrwt>
<pdfrwt beam="2">  1       -2 0.65277425E-01 0.23158353E+04</pdfrwt>
<totfact> 0.27002352E+00</totfact>
</mgrwt>
</event>
<event>
 6    1  0.1528034E-005  0.2437976E+04  0.7818608E-02  0.8425421E-01
          2   -1    0    0  501    0  0.00000000000E+00  0.00000000000E+00  0.29910313610E+04  0.29910313610E+04  0.00000000000E+00 0.  1.
         -2   -1    0    0    0  501 -0.00000000000E+00 -0.00000000000E+00 -0.49679594327E+03  0.49679594327E+03  0.00000000000E+00 0. -1.
         23    2    1    2    0    0  0.21535091853E+03 -0.36346271484E+03  0.28821220288E+04  0.29142968463E+04  0.89540806686E+02 0.  0.
         13    1    3    3    0    0  0.15494536520E+03 -0.26504970239E+03  0.17958610402E+04  0.18219155542E+04  0.00000000000E+00 0. -1.
        -13    1    3    3    0    0  0.60405553323E+02 -0.98413012445E+02  0.10862609886E+04  0.10923812921E+04  0.00000000000E+00 0.  1.
         22    1    1    2    0    0 -0.21535091853E+03  0.36346271484E+03 -0.38788661109E+03  0.57353045800E+03  0.00000000000E+00 0. -1.
<mgrwt>
<rscale>  0 0.24379764E+04</rscale>
<asrwt>0</asrwt>
<pdfrwt beam="1">  1        2 0.46015866E+00 0.24379764E+04</pdfrwt>
<pdfrwt beam="2">  1       -2 0.76430147E-01 0.24379764E+04</pdfrwt>
<totfact> 0.24217439E+00</totfact>
</mgrwt>
</event>
<event>
 6    1  0.1528034E-005  0.3179133E+04  0.7818608E-02  0.8194350E-01
         -2   -1    0    0    0  501 -0.00000000000E+00  0.00000000000E+00  0.85472090150E+03  0.85472090150E+03  0.00000000000E+00 0.  1.
          2   -1    0    0  501    0  0.00000000000E+00 -0.00000000000E+00 -0.29561947186E+04  0.29561947186E+04  0.00000000000E+00 0. -1.
         23    2    1    2    0    0 -0.10776143966E+04 -0.89509124434E+03 -0.19488003153E+04  0.24017490858E+04  0.90193562233E+02 0.  0.
         13    1    3    3    0    0 -0.57103039253E+03 -0.45981433018E+03 -0.94492589829E+03  0.11959890805E+04  0.00000000000E+00 0. -1.
        -13    1    3    3    0    0 -0.50658400402E+03 -0.43527691415E+03 -0.10038744170E+04  0.12057600053E+04  0.00000000000E+00 0.  1.
         22    1    1    2    0    0  0.10776143966E+04  0.89509124434E+03 -0.15267350179E+03  0.14091665343E+04  0.00000000000E+00 0. -1.
<mgrwt>
<rscale>  0 0.31791328E+04</rscale>
<asrwt>0</asrwt>
<pdfrwt beam="1">  1        2 0.45479919E+00 0.31791328E+04</pdfrwt>
<pdfrwt beam="2">  1       -2 0.13149552E+00 0.31791328E+04</pdfrwt>
<totfact> 0.65946751E-01</totfact>
</mgrwt>
</event>
<event>
 6    1  0.1528034E-005  0.2436002E+04  0.7818608E-02  0.8426147E-01
         -2   -1    0    0    0  501 -0.00000000000E+00  0.00000000000E+00  0.10504588994E+04  0.10504588994E+04  0.00000000000E+00 0.  1.
          2   -1    0    0  501    0  0.00000000000E+00 -0.00000000000E+00 -0.14122652794E+04  0.14122652794E+04  0.00000000000E+00 0. -1.
         23    2    1    2    0    0 -0.11150069612E+04  0.48255197747E+03 -0.12360092630E+03  0.12246455171E+04  0.91556098229E+02 0.  0.
         13    1    3    3    0    0 -0.94869988584E+03  0.44246527247E+03 -0.11856676997E+03  0.10535013382E+04  0.00000000000E+00 0. -1.
        -13    1    3    3    0    0 -0.16630707535E+03  0.40086704999E+02 -0.50341563324E+01  0.17114417887E+03  0.00000000000E+00 0.  1.
         22    1    1    2    0    0  0.11150069612E+04 -0.48255197747E+03 -0.23820545370E+03  0.12380786617E+04  0.00000000000E+00 0.  1.
<mgrwt>
<rscale>  0 0.24360022E+04</rscale>
<asrwt>0</asrwt>
<pdfrwt beam="1">  1        2 0.21727158E+00 0.24360022E+04</pdfrwt>
<pdfrwt beam="2">  1       -2 0.16160906E+00 0.24360022E+04</pdfrwt>
<totfact> 0.31294233E+00</totfact>
</mgrwt>
</event>
<event>
 6    1  0.1528034E-005  0.3565282E+04  0.7818608E-02  0.8098491E-01
          1   -1    0    0  501    0  0.00000000000E+00  0.00000000000E+00  0.37458388810E+04  0.37458388810E+04  0.00000000000E+00 0. -1.
         -1   -1    0    0    0  501 -0.00000000000E+00 -0.00000000000E+00 -0.84835702056E+03  0.84835702056E+03  0.00000000000E+00 0.  1.
         23    2    1    2    0    0 -0.17531965853E+03  0.97784242802E+03  0.33551808991E+04  0.35003946368E+04  0.92795208805E+02 0.  0.
         11    1    3    3    0    0 -0.81763324162E+02  0.25125600410E+03  0.95826406118E+03  0.99402456294E+03  0.00000000000E+00 0.  1.
        -11    1    3    3    0    0 -0.93556334368E+02  0.72658642392E+03  0.23969168379E+04  0.25063700738E+04  0.00000000000E+00 0. -1.
         22    1    1    2    0    0  0.17531965853E+03 -0.97784242802E+03 -0.45769903870E+03  0.10938012647E+04  0.00000000000E+00 0.  1.
<mgrwt>
<rscale>  0 0.35652819E+04</rscale>
<asrwt>0</asrwt>
<pdfrwt beam="1">  1        1 0.57628289E+00 0.35652819E+04</pdfrwt>
<pdfrwt beam="2">  1       -1 0.13051647E+00 0.35652819E+04</pdfrwt>
<totfact> 0.64294902E-02</totfact>
</mgrwt>
</event>
<event>
 6    1  0.1528034E-005  0.1958361E+04  0.7818608E-02  0.8626339E-01
          2   -1    0    0  501    0  0.00000000000E+00  0.00000000000E+00  0.17197162602E+04  0.17197162602E+04  0.00000000000E+00 0. -1.
         -2   -1    0    0    0  501 -0.00000000000E+00 -0.00000000000E+00 -0.55753075228E+03  0.55753075228E+03  0.00000000000E+00 0.  1.
         23    2    1    2    0    0 -0.27904117792E+03 -0.87086509512E+03  0.18245230967E+03  0.93704287406E+03  0.92143961459E+02 0.  0.
         13    1    3    3    0    0 -0.17599202147E+03 -0.46327768705E+03  0.13708091920E+03  0.51418925051E+03  0.00000000000E+00 0.  1.
        -13    1    3    3    0    0 -0.10304915646E+03 -0.40758740808E+03  0.45371390469E+02  0.42285362354E+03  0.00000000000E+00 0. -1.
         22    1    1    2    0    0  0.27904117792E+03  0.87086509512E+03  0.97973319827E+03  0.13402041384E+04  0.00000000000E+00 0. -1.
<mgrwt>
<rscale>  0 0.19583613E+04</rscale>
<asrwt>0</asrwt>
<pdfrwt beam="1">  1        2 0.26457173E+00 0.19583613E+04</pdfrwt>
<pdfrwt beam="2">  1       -2 0.85773962E-01 0.19583613E+04</pdfrwt>
<totfact> 0.10520070E+01</totfact>
</mgrwt>
</event>
<event>
 6    1  0.1528034E-005  0.4747708E+04  0.7818608E-02  0.7868650E-01
          1   -1    0    0  501    0  0.00000000000E+00  0.00000000000E+00  0.38430218329E+04  0.38430218329E+04  0.00000000000E+00 0. -1.
         -1   -1    0    0    0  501 -0.00000000000E+00 -0.00000000000E+00 -0.14663415165E+04  0.14663415165E+04  0.00000000000E+00 0.  1.
         23    2    1    2    0    0  0.16229131677E+04 -0.16326310040E+04  0.54473949314E+03  0.23673677129E+04  0.91420060547E+02 0.  0.
         11    1    3    3    0    0  0.26841097202E+03 -0.24351932041E+03  0.57612656433E+02  0.36696774721E+03  0.00000000000E+00 0. -1.
        -11    1    3    3    0    0  0.13545021957E+04 -0.13891116836E+04  0.48712683671E+03  0.20003999657E+04  0.00000000000E+00 0.  1.
         22    1    1    2    0    0 -0.16229131677E+04  0.16326310040E+04  0.18319408232E+04  0.29419956365E+04  0.00000000000E+00 0. -1.
<mgrwt>
<rscale>  0 0.47477079E+04</rscale>
<asrwt>0</asrwt>
<pdfrwt beam="1">  1        1 0.59123412E+00 0.47477079E+04</pdfrwt>
<pdfrwt beam="2">  1       -1 0.22559100E+00 0.47477079E+04</pdfrwt>
<totfact> 0.97253114E-03</totfact>
</mgrwt>
</event>
<event>
 6    1  0.1528034E-005  0.2760184E+04  0.7818608E-02  0.8315737E-01
         -1   -1    0    0    0  501 -0.00000000000E+00  0.00000000000E+00  0.18610583967E+04  0.18610583967E+04  0.00000000000E+00 0.  1.
          1   -1    0    0  501    0  0.00000000000E+00 -0.00000000000E+00 -0.10234248766E+04  0.10234248766E+04  0.00000000000E+00 0. -1.
         23    2    1    2    0    0 -0.19469434756E+02  0.40079604088E+03  0.17975267551E+04  0.18440931792E+04  0.92524012132E+02 0.  0.
         13    1    3    3    0    0 -0.43529640643E+02  0.10430044473E+03  0.56312012058E+03  0.57434979114E+03  0.00000000000E+00 0. -1.
        -13    1    3    3    0    0  0.24060205887E+02  0.29649559615E+03  0.12344066345E+04  0.12697433880E+04  0.00000000000E+00 0.  1.
         22    1    1    2    0    0  0.19469434756E+02 -0.40079604088E+03 -0.95989323508E+03  0.10403900942E+04  0.00000000000E+00 0. -1.
<mgrwt>
<rscale>  0 0.27601837E+04</rscale>
<asrwt>0</asrwt>
<pdfrwt beam="1">  1        1 0.15744998E+00 0.27601837E+04</pdfrwt>
<pdfrwt beam="2">  1       -1 0.28631668E+00 0.27601837E+04</pdfrwt>
<totfact> 0.51046887E-01</totfact>
</mgrwt>
</event>
<event>
 6    1  0.1528034E-005  0.2696148E+04  0.7818608E-02  0.8336256E-01
          2   -1    0    0  501    0  0.00000000000E+00  0.00000000000E+00  0.34152086191E+04  0.34152086191E+04  0.00000000000E+00 0.  1.
         -2   -1    0    0    0  501 -0.00000000000E+00 -0.00000000000E+00 -0.53212072170E+03  0.53212072170E+03  0.00000000000E+00 0. -1.
         23    2    1    2    0    0 -0.32039183394E+03 -0.44930246368E+03 -0.35503334156E+03  0.66252298587E+03  0.91457105047E+02 0.  0.
         11    1    3    3    0    0 -0.27219213692E+03 -0.42488830027E+03 -0.31024933691E+03  0.59234557326E+03  0.00000000000E+00 0. -1.
        -11    1    3    3    0    0 -0.48199697027E+02 -0.24414163407E+02 -0.44784004657E+02  0.70177412616E+02  0.00000000000E+00 0.  1.
         22    1    1    2    0    0  0.32039183394E+03  0.44930246368E+03  0.32381212390E+04  0.32848063550E+04  0.00000000000E+00 0.  1.
<mgrwt>
<rscale>  0 0.26961478E+04</rscale>
<asrwt>0</asrwt>
<pdfrwt beam="1">  1        2 0.52541670E+00 0.26961478E+04</pdfrwt>
<pdfrwt beam="2">  1       -2 0.81864729E-01 0.26961478E+04</pdfrwt>
<totfact> 0.10720188E+00</totfact>
</mgrwt>
</event>
<event>
 6    1  0.1528034E-005  0.2891578E+04  0.7818608E-02  0.8275388E-01
         -2   -1    0    0    0  501 -0.00000000000E+00  0.00000000000E+00  0.11262214575E+04  0.11262214575E+04  0.00000000000E+00 0. -1.
          2   -1    0    0  501    0  0.00000000000E+00 -0.00000000000E+00 -0.18560339442E+04  0.18560339442E+04  0.00000000000E+00 0.  1.
         23    2    1    2    0    0 -0.47595415955E+03  0.78695660433E+03 -0.15139212218E+04  0.17736779042E+04  0.90237369684E+02 0.  0.
         13    1    3    3    0    0 -0.85531906391E+02  0.10383338848E+03 -0.17571330210E+03  0.22129673317E+03  0.00000000000E+00 0. -1.
        -13    1    3    3    0    0 -0.39042225316E+03  0.68312321585E+03 -0.13382079197E+04  0.15523811710E+04  0.00000000000E+00 0.  1.
         22    1    1    2    0    0  0.47595415955E+03 -0.78695660433E+03  0.78410873512E+03  0.12085774975E+04  0.00000000000E+00 0. -1.
<mgrwt>
<rscale>  0 0.28915776E+04</rscale>
<asrwt>0</asrwt>
<pdfrwt beam="1">  1        2 0.28554368E+00 0.28915776E+04</pdfrwt>
<pdfrwt beam="2">  1       -2 0.17326484E+00 0.28915776E+04</pdfrwt>
<totfact> 0.14021011E+00</totfact>
</mgrwt>
</event>
<event>
 6    1  0.1528034E-005  0.1919392E+04  0.7818608E-02  0.8645263E-01
          2   -1    0    0  501    0  0.00000000000E+00  0.00000000000E+00  0.14237560941E+04  0.14237560941E+04  0.00000000000E+00 0. -1.
         -2   -1    0    0    0  501 -0.00000000000E+00 -0.00000000000E+00 -0.64689214735E+03  0.64689214735E+03  0.00000000000E+00 0.  1.
         23    2    1    2    0    0 -0.26998870507E+03  0.26179895330E+03  0.13392703920E+04  0.13940881166E+04  0.91672793662E+02 0.  0.
         11    1    3    3    0    0 -0.91863383886E+02  0.92034766619E+02  0.31730555780E+03  0.34291704037E+03  0.00000000000E+00 0. -1.
        -11    1    3    3    0    0 -0.17812532119E+03  0.16976418668E+03  0.10219648342E+04  0.10511710762E+04  0.00000000000E+00 0.  1.
         22    1    1    2    0    0  0.26998870507E+03 -0.26179895330E+03 -0.56240644529E+03  0.67656012484E+03  0.00000000000E+00 0.  1.
<mgrwt>
<rscale>  0 0.19193922E+04</rscale>
<asrwt>0</asrwt>
<pdfrwt beam="1">  1        2 0.21903940E+00 0.19193922E+04</pdfrwt>
<pdfrwt beam="2">  1       -2 0.99521869E-01 0.19193922E+04</pdfrwt>
<totfact> 0.10958048E+01</totfact>
</mgrwt>
</event>
<event>
 6    1  0.1528034E-005  0.2861364E+04  0.7818608E-02  0.8284466E-01
          1   -1    0    0  501    0  0.00000000000E+00  0.00000000000E+00  0.15932050877E+04  0.15932050877E+04  0.00000000000E+00 0. -1.
         -1   -1    0    0    0  501 -0.00000000000E+00 -0.00000000000E+00 -0.12847382459E+04  0.12847382459E+04  0.00000000000E+00 0.  1.
         23    2    1    2    0    0  0.65802638857E+03  0.12042369565E+04  0.55596403167E+03  0.14835114657E+04  0.92330324101E+02 0.  0.
         13    1    3    3    0    0  0.55562963625E+03  0.96779948087E+03  0.48070135674E+03  0.12150859732E+04  0.00000000000E+00 0.  1.
        -13    1    3    3    0    0  0.10239675232E+03  0.23643747566E+03  0.75262674930E+02  0.26842549250E+03  0.00000000000E+00 0. -1.
         22    1    1    2    0    0 -0.65802638857E+03 -0.12042369565E+04 -0.24749718988E+03  0.13944318680E+04  0.00000000000E+00 0. -1.
<mgrwt>
<rscale>  0 0.28613644E+04</rscale>
<asrwt>0</asrwt>
<pdfrwt beam="1">  1        1 0.24510847E+00 0.28613644E+04</pdfrwt>
<pdfrwt beam="2">  1       -1 0.19765204E+00 0.28613644E+04</pdfrwt>
<totfact> 0.75899200E-01</totfact>
</mgrwt>
</event>
<event>
 6    1  0.2062928E-005  0.3940010E+04  0.7818608E-02  0.8016759E-01
         -2   -1    0    0    0  501 -0.00000000000E+00  0.00000000000E+00  0.15489965585E+04  0.15489965585E+04  0.00000000000E+00 0.  1.
          2   -1    0    0  501    0  0.00000000000E+00 -0.00000000000E+00 -0.25054413624E+04  0.25054413624E+04  0.00000000000E+00 0. -1.
         23    2    1    2    0    0 -0.52349485360E+03 -0.12022679692E+04  0.10328619628E+04  0.16718266342E+04  0.93302352129E+02 0.  0.
         13    1    3    3    0    0 -0.18163321482E+03 -0.33448793206E+03  0.33347799967E+03  0.50604384956E+03  0.00000000000E+00 0.  1.
        -13    1    3    3    0    0 -0.34186163878E+03 -0.86778003715E+03  0.69938396317E+03  0.11657827846E+04  0.00000000000E+00 0. -1.
         22    1    1    2    0    0  0.52349485360E+03  0.12022679692E+04 -0.19893067668E+04  0.23826112868E+04  0.00000000000E+00 0. -1.
<mgrwt>
<rscale>  0 0.39400102E+04</rscale>
<asrwt>0</asrwt>
<pdfrwt beam="1">  1        2 0.38545251E+00 0.39400102E+04</pdfrwt>
<pdfrwt beam="2">  1       -2 0.23830717E+00 0.39400102E+04</pdfrwt>
<totfact> 0.20789382E-01</totfact>
</mgrwt>
</event>
<event>
 6    1  0.1528034E-005  0.1142059E+04  0.7818608E-02  0.9165141E-01
         -2   -1    0    0    0  501 -0.00000000000E+00  0.00000000000E+00  0.58034929022E+03  0.58034929022E+03  0.00000000000E+00 0.  1.
          2   -1    0    0  501    0  0.00000000000E+00 -0.00000000000E+00 -0.56185930622E+03  0.56185930622E+03  0.00000000000E+00 0. -1.
         23    2    1    2    0    0 -0.39125042023E+03  0.39481817147E+03 -0.10351809183E+03  0.57313544612E+03  0.93861410631E+02 0.  0.
         13    1    3    3    0    0 -0.26917863267E+03  0.20798818659E+03 -0.72563505195E+02  0.34782421470E+03  0.00000000000E+00 0. -1.
        -13    1    3    3    0    0 -0.12207178757E+03  0.18682998488E+03 -0.30954586637E+02  0.22531123142E+03  0.00000000000E+00 0.  1.
         22    1    1    2    0    0  0.39125042023E+03 -0.39481817147E+03  0.12200807583E+03  0.56907315033E+03  0.00000000000E+00 0.  1.
<mgrwt>
<rscale>  0 0.11420589E+04</rscale>
<asrwt>0</asrwt>
<pdfrwt beam="1">  1        2 0.86439893E-01 0.11420589E+04</pdfrwt>
<pdfrwt beam="2">  1       -2 0.89284506E-01 0.11420589E+04</pdfrwt>
<totfact> 0.57244928E+01</totfact>
</mgrwt>
</event>
<event>
 6    1  0.1528034E-005  0.5913550E+04  0.7818608E-02  0.7701214E-01
         -2   -1    0    0    0  501 -0.00000000000E+00  0.00000000000E+00  0.26327017828E+04  0.26327017828E+04  0.00000000000E+00 0.  1.
          2   -1    0    0  501    0  0.00000000000E+00 -0.00000000000E+00 -0.33207396913E+04  0.33207396913E+04  0.00000000000E+00 0. -1.
         23    2    1    2    0    0  0.23217998159E+04  0.16439256464E+04 -0.11527376192E+04  0.30708746080E+04  0.90669306593E+02 0.  0.
         13    1    3    3    0    0  0.10062810407E+04  0.65762117166E+03 -0.48765093094E+03  0.12972550130E+04  0.00000000000E+00 0. -1.
        -13    1    3    3    0    0  0.13155187753E+04  0.98630447474E+03 -0.66508668827E+03  0.17736195950E+04  0.00000000000E+00 0.  1.
         22    1    1    2    0    0 -0.23217998159E+04 -0.16439256464E+04  0.46469971066E+03  0.28825668661E+04  0.00000000000E+00 0.  1.
<mgrwt>
<rscale>  0 0.59135496E+04</rscale>
<asrwt>0</asrwt>
<pdfrwt beam="1">  1        2 0.51088303E+00 0.59135496E+04</pdfrwt>
<pdfrwt beam="2">  1       -2 0.40503104E+00 0.59135496E+04</pdfrwt>
<totfact> 0.50298165E-03</totfact>
</mgrwt>
</event>
<event>
 6    1  0.1528034E-005  0.1595048E+04  0.7818608E-02  0.8823596E-01
          4   -1    0    0  501    0  0.00000000000E+00  0.00000000000E+00  0.36749230877E+03  0.36749230877E+03  0.00000000000E+00 0. -1.
         -4   -1    0    0    0  501 -0.00000000000E+00 -0.00000000000E+00 -0.17307695496E+04  0.17307695496E+04  0.00000000000E+00 0.  1.
         23    2    1    2    0    0 -0.43543551542E+03 -0.10653347103E+03  0.17958385581E+03  0.49159641962E+03  0.91995706309E+02 0.  0.
         11    1    3    3    0    0 -0.41980236569E+03 -0.81078884218E+02  0.16430245303E+03  0.45804269209E+03  0.00000000000E+00 0. -1.
        -11    1    3    3    0    0 -0.15633149725E+02 -0.25454586812E+02  0.15281402783E+02  0.33553727530E+02  0.00000000000E+00 0.  1.
         22    1    1    2    0    0  0.43543551542E+03  0.10653347103E+03 -0.15428610966E+04  0.16066654387E+04  0.00000000000E+00 0.  1.
<mgrwt>
<rscale>  0 0.15950480E+04</rscale>
<asrwt>0</asrwt>
<pdfrwt beam="1">  1        4 0.56537278E-01 0.15950480E+04</pdfrwt>
<pdfrwt beam="2">  1       -4 0.26627224E+00 0.15950480E+04</pdfrwt>
<totfact> 0.28678616E-01</totfact>
</mgrwt>
</event>
<event>
 6    1  0.1528034E-005  0.1679876E+04  0.7818608E-02  0.8772926E-01
         -1   -1    0    0    0  501 -0.00000000000E+00  0.00000000000E+00  0.12391667260E+04  0.12391667260E+04  0.00000000000E+00 0.  1.
          1   -1    0    0  501    0  0.00000000000E+00 -0.00000000000E+00 -0.56933055827E+03  0.56933055827E+03  0.00000000000E+00 0. -1.
         23    2    1    2    0    0  0.22199779413E+03  0.71273079719E+01  0.12052255295E+04  0.12288632724E+04  0.90567908669E+02 0.  0.
         13    1    3    3    0    0  0.15971665689E+03 -0.28546525132E+02  0.69950827564E+03  0.71807808926E+03  0.00000000000E+00 0. -1.
        -13    1    3    3    0    0  0.62281137239E+02  0.35673833104E+02  0.50571725386E+03  0.51078518310E+03  0.00000000000E+00 0.  1.
         22    1    1    2    0    0 -0.22199779413E+03 -0.71273079719E+01 -0.53538936175E+03  0.57963401194E+03  0.00000000000E+00 0. -1.
<mgrwt>
<rscale>  0 0.16798756E+04</rscale>
<asrwt>0</asrwt>
<pdfrwt beam="1">  1        1 0.87589317E-01 0.16798756E+04</pdfrwt>
<pdfrwt beam="2">  1       -1 0.19064103E+00 0.16798756E+04</pdfrwt>
<totfact> 0.61553784E+00</totfact>
</mgrwt>
</event>
<event>
 6    1  0.1528034E-005  0.4037461E+04  0.7818608E-02  0.7997032E-01
         -2   -1    0    0    0  501 -0.00000000000E+00  0.00000000000E+00  0.24431152918E+04  0.24431152918E+04  0.00000000000E+00 0.  1.
          2   -1    0    0  501    0  0.00000000000E+00 -0.00000000000E+00 -0.16680639501E+04  0.16680639501E+04  0.00000000000E+00 0. -1.
         23    2    1    2    0    0  0.62870957818E+02 -0.11404036629E+04  0.20816213852E+04  0.23757834512E+04  0.82013071644E+02 0.  0.
         13    1    3    3    0    0  0.33394316905E+02 -0.54370463522E+03  0.90834008981E+03  0.10591560931E+04  0.00000000000E+00 0.  1.
        -13    1    3    3    0    0  0.29476640913E+02 -0.59669902771E+03  0.11732812954E+04  0.13166273582E+04  0.00000000000E+00 0. -1.
         22    1    1    2    0    0 -0.62870957818E+02  0.11404036629E+04 -0.13065700435E+04  0.17353957907E+04  0.00000000000E+00 0. -1.
<mgrwt>
<rscale>  0 0.40374609E+04</rscale>
<asrwt>0</asrwt>
<pdfrwt beam="1">  1        2 0.25662522E+00 0.40374609E+04</pdfrwt>
<pdfrwt beam="2">  1       -2 0.37586389E+00 0.40374609E+04</pdfrwt>
<totfact> 0.85516401E-02</totfact>
</mgrwt>
</event>
<event>
 6    1  0.1528034E-005  0.2294917E+04  0.7818608E-02  0.8479928E-01
         -1   -1    0    0    0  501 -0.00000000000E+00  0.00000000000E+00  0.77536463590E+03  0.77536463590E+03  0.00000000000E+00 0.  1.
          1   -1    0    0  501    0  0.00000000000E+00 -0.00000000000E+00 -0.16981188303E+04  0.16981188303E+04  0.00000000000E+00 0. -1.
         23    2    1    2    0    0  0.61042672547E+03 -0.57515493515E+03 -0.13033109385E+04  0.15524799798E+04  0.90281220483E+02 0.  0.
         11    1    3    3    0    0  0.39098476115E+03 -0.42312826536E+03 -0.86606508494E+03  0.10401804381E+04  0.00000000000E+00 0. -1.
        -11    1    3    3    0    0  0.21944196433E+03 -0.15202666980E+03 -0.43724585353E+03  0.51229954174E+03  0.00000000000E+00 0.  1.
         22    1    1    2    0    0 -0.61042672547E+03  0.57515493515E+03  0.38055674402E+03  0.92100348643E+03  0.00000000000E+00 0.  1.
<mgrwt>
<rscale>  0 0.22949172E+04</rscale>
<asrwt>0</asrwt>
<pdfrwt beam="1">  1        1 0.26124905E+00 0.22949172E+04</pdfrwt>
<pdfrwt beam="2">  1       -1 0.11928687E+00 0.22949172E+04</pdfrwt>
<totfact> 0.27152275E+00</totfact>
</mgrwt>
</event>
<event>
 6    1  0.1528034E-005  0.1071641E+04  0.7818608E-02  0.9233282E-01
          1   -1    0    0  501    0  0.00000000000E+00  0.00000000000E+00  0.58116106082E+03  0.58116106082E+03  0.00000000000E+00 0. -1.
         -1   -1    0    0    0  501 -0.00000000000E+00 -0.00000000000E+00 -0.49401738100E+03  0.49401738100E+03  0.00000000000E+00 0.  1.
         23    2    1    2    0    0 -0.24079678314E+03  0.45841659075E+03  0.16058200339E+03  0.55218508736E+03  0.10484717188E+03 0.  0.
         11    1    3    3    0    0 -0.11544902674E+03  0.30421784682E+03  0.13317116962E+03  0.35158432349E+03  0.00000000000E+00 0. -1.
        -11    1    3    3    0    0 -0.12534775640E+03  0.15419874392E+03  0.27410833770E+02  0.20060076388E+03  0.00000000000E+00 0.  1.
         22    1    1    2    0    0  0.24079678314E+03 -0.45841659075E+03 -0.73438323573E+02  0.52299335446E+03  0.00000000000E+00 0.  1.
<mgrwt>
<rscale>  0 0.10716411E+04</rscale>
<asrwt>0</asrwt>
<pdfrwt beam="1">  1        1 0.89409394E-01 0.10716411E+04</pdfrwt>
<pdfrwt beam="2">  1       -1 0.76002674E-01 0.10716411E+04</pdfrwt>
<totfact> 0.62278981E+01</totfact>
</mgrwt>
</event>
<event>
 6    1  0.1528034E-005  0.1021908E+04  0.7818608E-02  0.9284837E-01
         -1   -1    0    0    0  501 -0.00000000000E+00  0.00000000000E+00  0.26490896096E+03  0.26490896096E+03  0.00000000000E+00 0.  1.
          1   -1    0    0  501    0  0.00000000000E+00 -0.00000000000E+00 -0.98552399022E+03  0.98552399022E+03  0.00000000000E+00 0. -1.
         23    2    1    2    0    0  0.11310370875E+03  0.49167632800E+03 -0.41968011532E+03  0.66298092515E+03  0.94203224262E+02 0.  0.
         13    1    3    3    0    0  0.64386409541E+02  0.42868841011E+03 -0.34949748192E+03  0.55683736635E+03  0.00000000000E+00 0.  1.
        -13    1    3    3    0    0  0.48717299211E+02  0.62987917893E+02 -0.70182633394E+02  0.10614355879E+03  0.00000000000E+00 0. -1.
         22    1    1    2    0    0 -0.11310370875E+03 -0.49167632800E+03 -0.30093491394E+03  0.58745202603E+03  0.00000000000E+00 0. -1.
<mgrwt>
<rscale>  0 0.10219083E+04</rscale>
<asrwt>0</asrwt>
<pdfrwt beam="1">  1        1 0.15161907E+00 0.10219083E+04</pdfrwt>
<pdfrwt beam="2">  1       -1 0.40755225E-01 0.10219083E+04</pdfrwt>
<totfact> 0.91453888E+01</totfact>
</mgrwt>
</event>
<event>
 6    1  0.1528034E-005  0.1391174E+04  0.7818608E-02  0.8960232E-01
         -2   -1    0    0    0  501 -0.00000000000E+00  0.00000000000E+00  0.62357289659E+03  0.62357289659E+03  0.00000000000E+00 0.  1.
          2   -1    0    0  501    0  0.00000000000E+00 -0.00000000000E+00 -0.77591799994E+03  0.77591799994E+03  0.00000000000E+00 0. -1.
         23    2    1    2    0    0 -0.40536632166E+03 -0.26735087178E+03  0.42025316163E+03  0.64871322210E+03  0.91748467537E+02 0.  0.
         13    1    3    3    0    0 -0.14185842125E+03 -0.62970040025E+02  0.90171369736E+02  0.17949906278E+03  0.00000000000E+00 0.  1.
        -13    1    3    3    0    0 -0.26350790041E+03 -0.20438083175E+03  0.33008179189E+03  0.46921415932E+03  0.00000000000E+00 0. -1.
         22    1    1    2    0    0  0.40536632166E+03  0.26735087178E+03 -0.57259826497E+03  0.75077767443E+03  0.00000000000E+00 0. -1.
<mgrwt>
<rscale>  0 0.13911742E+04</rscale>
<asrwt>0</asrwt>
<pdfrwt beam="1">  1        2 0.11937200E+00 0.13911742E+04</pdfrwt>
<pdfrwt beam="2">  1       -2 0.95934291E-01 0.13911742E+04</pdfrwt>
<totfact> 0.31830403E+01</totfact>
</mgrwt>
</event>
<event>
 6    1  0.1528034E-005  0.3976735E+04  0.7818608E-02  0.8009256E-01
         -2   -1    0    0    0  501 -0.00000000000E+00  0.00000000000E+00  0.13889350989E+04  0.13889350989E+04  0.00000000000E+00 0.  1.
          2   -1    0    0  501    0  0.00000000000E+00 -0.00000000000E+00 -0.28465008839E+04  0.28465008839E+04  0.00000000000E+00 0. -1.
         23    2    1    2    0    0  0.64811389567E+03 -0.15969372607E+04  0.32479471433E+03  0.17561076088E+04  0.90344290294E+02 0.  0.
         13    1    3    3    0    0  0.93515051271E+02 -0.23523317282E+03  0.80552927182E+02  0.26564729339E+03  0.00000000000E+00 0.  1.
        -13    1    3    3    0    0  0.55459884440E+03 -0.13617040879E+04  0.24424178714E+03  0.14904603154E+04  0.00000000000E+00 0. -1.
         22    1    1    2    0    0 -0.64811389567E+03  0.15969372607E+04 -0.17823604994E+04  0.24793283740E+04  0.00000000000E+00 0. -1.
<mgrwt>
<rscale>  0 0.39767348E+04</rscale>
<asrwt>0</asrwt>
<pdfrwt beam="1">  1        2 0.43792321E+00 0.39767348E+04</pdfrwt>
<pdfrwt beam="2">  1       -2 0.21368232E+00 0.39767348E+04</pdfrwt>
<totfact> 0.18562802E-01</totfact>
</mgrwt>
</event>
<event>
 6    1  0.1528034E-005  0.1382357E+04  0.7818608E-02  0.8966689E-01
         -1   -1    0    0    0  501 -0.00000000000E+00  0.00000000000E+00  0.34591864982E+03  0.34591864982E+03  0.00000000000E+00 0.  1.
          1   -1    0    0  501    0  0.00000000000E+00 -0.00000000000E+00 -0.13810408778E+04  0.13810408778E+04  0.00000000000E+00 0. -1.
         23    2    1    2    0    0  0.21291191619E+03  0.25854022590E+03  0.23122341156E+03  0.41707181821E+03  0.91159766523E+02 0.  0.
         11    1    3    3    0    0  0.15014529402E+03  0.22826723770E+03  0.15637594947E+03  0.31480625581E+03  0.00000000000E+00 0. -1.
        -11    1    3    3    0    0  0.62766622165E+02  0.30272988199E+02  0.74847462092E+02  0.10226556241E+03  0.00000000000E+00 0.  1.
         22    1    1    2    0    0 -0.21291191619E+03 -0.25854022590E+03 -0.12663456396E+04  0.13098877094E+04  0.00000000000E+00 0. -1.
<mgrwt>
<rscale>  0 0.13823571E+04</rscale>
<asrwt>0</asrwt>
<pdfrwt beam="1">  1        1 0.21246783E+00 0.13823571E+04</pdfrwt>
<pdfrwt beam="2">  1       -1 0.53218254E-01 0.13823571E+04</pdfrwt>
<totfact> 0.27544848E+01</totfact>
</mgrwt>
</event>
<event>
 6    1  0.1528034E-005  0.1663469E+04  0.7818608E-02  0.8782478E-01
         -1   -1    0    0    0  501 -0.00000000000E+00  0.00000000000E+00  0.12087789053E+04  0.12087789053E+04  0.00000000000E+00 0.  1.
          1   -1    0    0  501    0  0.00000000000E+00 -0.00000000000E+00 -0.57229846054E+03  0.57229846054E+03  0.00000000000E+00 0. -1.
         23    2    1    2    0    0 -0.53150634900E+03  0.44414176417E+03 -0.16824112836E+03  0.71931575608E+03  0.96691126647E+02 0.  0.
         11    1    3    3    0    0 -0.34826451831E+03  0.29334391758E+03 -0.62883359974E+02  0.45966634166E+03  0.00000000000E+00 0.  1.
        -11    1    3    3    0    0 -0.18324183069E+03  0.15079784658E+03 -0.10535776838E+03  0.25964941442E+03  0.00000000000E+00 0. -1.
         22    1    1    2    0    0  0.53150634900E+03 -0.44414176417E+03  0.80472157308E+03  0.10617616097E+04  0.00000000000E+00 0. -1.
<mgrwt>
<rscale>  0 0.16634690E+04</rscale>
<asrwt>0</asrwt>
<pdfrwt beam="1">  1        1 0.88045917E-01 0.16634690E+04</pdfrwt>
<pdfrwt beam="2">  1       -1 0.18596598E+00 0.16634690E+04</pdfrwt>
<totfact> 0.66008251E+00</totfact>
</mgrwt>
</event>
<event>
 6    1  0.1665904E-005  0.3474578E+04  0.7818608E-02  0.8119841E-01
         -2   -1    0    0    0  501 -0.00000000000E+00  0.00000000000E+00  0.13988910326E+04  0.13988910326E+04  0.00000000000E+00 0. -1.
          2   -1    0    0  501    0  0.00000000000E+00 -0.00000000000E+00 -0.21575469882E+04  0.21575469882E+04  0.00000000000E+00 0.  1.
         23    2    1    2    0    0  0.20122616410E+03  0.13896830255E+04 -0.14246498059E+04  0.20023277644E+04  0.89322595547E+02 0.  0.
         11    1    3    3    0    0  0.48770775143E+02  0.52714239113E+03 -0.48927981431E+03  0.72086921541E+03  0.00000000000E+00 0. -1.
        -11    1    3    3    0    0  0.15245538896E+03  0.86254063438E+03 -0.93536999161E+03  0.12814585490E+04  0.00000000000E+00 0.  1.
         22    1    1    2    0    0 -0.20122616410E+03 -0.13896830255E+04  0.66599385025E+03  0.15541102564E+04  0.00000000000E+00 0. -1.
<mgrwt>
<rscale>  0 0.34745780E+04</rscale>
<asrwt>0</asrwt>
<pdfrwt beam="1">  1        2 0.33193030E+00 0.34745780E+04</pdfrwt>
<pdfrwt beam="2">  1       -2 0.21521401E+00 0.34745780E+04</pdfrwt>
<totfact> 0.47626091E-01</totfact>
</mgrwt>
</event>
<event>
 6    1  0.1528034E-005  0.3139216E+04  0.7818608E-02  0.8205057E-01
         -2   -1    0    0    0  501 -0.00000000000E+00  0.00000000000E+00  0.26227729452E+04  0.26227729452E+04  0.00000000000E+00 0.  1.
          2   -1    0    0  501    0  0.00000000000E+00 -0.00000000000E+00 -0.93933771708E+03  0.93933771708E+03  0.00000000000E+00 0. -1.
         23    2    1    2    0    0  0.17066384647E+03 -0.11796556803E+04 -0.31427437176E+03  0.12358352448E+04  0.88355525250E+02 0.  0.
         11    1    3    3    0    0  0.12600649118E+03 -0.70819349505E+03 -0.22703221875E+03  0.75429390200E+03  0.00000000000E+00 0. -1.
        -11    1    3    3    0    0  0.44657355297E+02 -0.47146218529E+03 -0.87242153017E+02  0.48154134278E+03  0.00000000000E+00 0.  1.
         22    1    1    2    0    0 -0.17066384647E+03  0.11796556803E+04  0.19977095999E+04  0.23262754175E+04  0.00000000000E+00 0.  1.
<mgrwt>
<rscale>  0 0.31392162E+04</rscale>
<asrwt>0</asrwt>
<pdfrwt beam="1">  1        2 0.14451350E+00 0.31392162E+04</pdfrwt>
<pdfrwt beam="2">  1       -2 0.40350353E+00 0.31392162E+04</pdfrwt>
<totfact> 0.16426671E-01</totfact>
</mgrwt>
</event>
<event>
 6    1  0.1528034E-005  0.2234990E+04  0.7818608E-02  0.8504004E-01
          1   -1    0    0  501    0  0.00000000000E+00  0.00000000000E+00  0.14710551152E+04  0.14710551152E+04  0.00000000000E+00 0. -1.
         -1   -1    0    0    0  501 -0.00000000000E+00 -0.00000000000E+00 -0.84891150477E+03  0.84891150477E+03  0.00000000000E+00 0.  1.
         23    2    1    2    0    0 -0.74548763552E+03 -0.46071256290E+02  0.11718450976E+04  0.13925799152E+04  0.90462765777E+02 0.  0.
         13    1    3    3    0    0 -0.11110763029E+03  0.45474914586E+01  0.12344898320E+03  0.16614823694E+03  0.00000000000E+00 0.  1.
        -13    1    3    3    0    0 -0.63438000524E+03 -0.50618747749E+02  0.10483961144E+04  0.12264316782E+04  0.00000000000E+00 0. -1.
         22    1    1    2    0    0  0.74548763552E+03  0.46071256290E+02 -0.54970148713E+03  0.92738670485E+03  0.00000000000E+00 0.  1.
<mgrwt>
<rscale>  0 0.22349905E+04</rscale>
<asrwt>0</asrwt>
<pdfrwt beam="1">  1        1 0.22631617E+00 0.22349905E+04</pdfrwt>
<pdfrwt beam="2">  1       -1 0.13060177E+00 0.22349905E+04</pdfrwt>
<totfact> 0.31218733E+00</totfact>
</mgrwt>
</event>
<event>
 6    1  0.1528034E-005  0.1335628E+04  0.7818608E-02  0.9001780E-01
          2   -1    0    0  501    0  0.00000000000E+00  0.00000000000E+00  0.10905174119E+04  0.10905174119E+04  0.00000000000E+00 0. -1.
         -2   -1    0    0    0  501 -0.00000000000E+00 -0.00000000000E+00 -0.40895748859E+03  0.40895748859E+03  0.00000000000E+00 0.  1.
         23    2    1    2    0    0  0.10955014531E+03 -0.35277952845E+03  0.96310576492E+03  0.10350153318E+04  0.85025835028E+02 0.  0.
         13    1    3    3    0    0  0.37725029685E+02 -0.13491515697E+03  0.25867289150E+03  0.29417162039E+03  0.00000000000E+00 0.  1.
        -13    1    3    3    0    0  0.71825115628E+02 -0.21786437149E+03  0.70443287341E+03  0.74084371142E+03  0.00000000000E+00 0. -1.
         22    1    1    2    0    0 -0.10955014531E+03  0.35277952845E+03 -0.28154584159E+03  0.46445956870E+03  0.00000000000E+00 0.  1.
<mgrwt>
<rscale>  0 0.13356276E+04</rscale>
<asrwt>0</asrwt>
<pdfrwt beam="1">  1        2 0.16777191E+00 0.13356276E+04</pdfrwt>
<pdfrwt beam="2">  1       -2 0.62916537E-01 0.13356276E+04</pdfrwt>
<totfact> 0.50554634E+01</totfact>
</mgrwt>
</event>
<event>
 6    1  0.1528034E-005  0.4820803E+03  0.7818608E-02  0.1018565E+00
          1   -1    0    0  501    0  0.00000000000E+00  0.00000000000E+00  0.68242544596E+03  0.68242544596E+03  0.00000000000E+00 0. -1.
         -1   -1    0    0    0  501 -0.00000000000E+00 -0.00000000000E+00 -0.85138022849E+02  0.85138022849E+02  0.00000000000E+00 0.  1.
         23    2    1    2    0    0 -0.56904850729E+02 -0.19953064541E+03  0.47641435820E+03  0.52743654755E+03  0.90377156936E+02 0.  0.
         11    1    3    3    0    0 -0.57581658910E+02 -0.62876191069E+02  0.13476128870E+03  0.15946682344E+03  0.00000000000E+00 0.  1.
        -11    1    3    3    0    0  0.67680818096E+00 -0.13665445434E+03  0.34165306950E+03  0.36796972411E+03  0.00000000000E+00 0. -1.
         22    1    1    2    0    0  0.56904850729E+02  0.19953064541E+03  0.12087306491E+03  0.24012692126E+03  0.00000000000E+00 0.  1.
<mgrwt>
<rscale>  0 0.48208030E+03</rscale>
<asrwt>0</asrwt>
<pdfrwt beam="1">  1        1 0.10498853E+00 0.48208030E+03</pdfrwt>
<pdfrwt beam="2">  1       -1 0.13098158E-01 0.48208030E+03</pdfrwt>
<totfact> 0.11672223E+03</totfact>
</mgrwt>
</event>
<event>
 6    1  0.1528034E-005  0.1293818E+04  0.7818608E-02  0.9034482E-01
         -1   -1    0    0    0  501 -0.00000000000E+00  0.00000000000E+00  0.33662747410E+03  0.33662747410E+03  0.00000000000E+00 0.  1.
          1   -1    0    0  501    0  0.00000000000E+00 -0.00000000000E+00 -0.12431884493E+04  0.12431884493E+04  0.00000000000E+00 0. -1.
         23    2    1    2    0    0  0.17835798764E+02  0.28823562553E+03  0.24690564031E+03  0.39074774847E+03  0.91233306293E+02 0.  0.
         11    1    3    3    0    0  0.37632061005E+02  0.21737596596E+03  0.14108936759E+03  0.26186769988E+03  0.00000000000E+00 0.  1.
        -11    1    3    3    0    0 -0.19796262241E+02  0.70859659569E+02  0.10581627272E+03  0.12888004859E+03  0.00000000000E+00 0. -1.
         22    1    1    2    0    0 -0.17835798764E+02 -0.28823562553E+03 -0.11534666155E+04  0.11890681749E+04  0.00000000000E+00 0. -1.
<mgrwt>
<rscale>  0 0.12938182E+04</rscale>
<asrwt>0</asrwt>
<pdfrwt beam="1">  1        1 0.19125976E+00 0.12938182E+04</pdfrwt>
<pdfrwt beam="2">  1       -1 0.51788842E-01 0.12938182E+04</pdfrwt>
<totfact> 0.36657202E+01</totfact>
</mgrwt>
</event>
<event>
 6    1  0.1528034E-005  0.1766376E+04  0.7818608E-02  0.8724387E-01
         -1   -1    0    0    0  501 -0.00000000000E+00  0.00000000000E+00  0.12701929038E+04  0.12701929038E+04  0.00000000000E+00 0.  1.
          1   -1    0    0  501    0  0.00000000000E+00 -0.00000000000E+00 -0.61409684746E+03  0.61409684746E+03  0.00000000000E+00 0. -1.
         23    2    1    2    0    0  0.54601303527E+02 -0.87515857001E+03  0.24023131288E+03  0.91381187421E+03  0.91963214100E+02 0.  0.
         13    1    3    3    0    0  0.80378231066E+02 -0.61748850280E+03  0.17212513338E+03  0.64604935776E+03  0.00000000000E+00 0.  1.
        -13    1    3    3    0    0 -0.25776927539E+02 -0.25767006722E+03  0.68106179492E+02  0.26776251645E+03  0.00000000000E+00 0. -1.
         22    1    1    2    0    0 -0.54601303527E+02  0.87515857001E+03  0.41586474348E+03  0.97047787707E+03  0.00000000000E+00 0. -1.
<mgrwt>
<rscale>  0 0.17663765E+04</rscale>
<asrwt>0</asrwt>
<pdfrwt beam="1">  1        1 0.94476438E-01 0.17663765E+04</pdfrwt>
<pdfrwt beam="2">  1       -1 0.19541429E+00 0.17663765E+04</pdfrwt>
<totfact> 0.50732841E+00</totfact>
</mgrwt>
</event>
<event>
 6    1  0.1528034E-005  0.1385892E+04  0.7818608E-02  0.8964094E-01
         -2   -1    0    0    0  501 -0.00000000000E+00  0.00000000000E+00  0.18153226616E+04  0.18153226616E+04  0.00000000000E+00 0.  1.
          2   -1    0    0  501    0  0.00000000000E+00 -0.00000000000E+00 -0.26451169542E+03  0.26451169542E+03  0.00000000000E+00 0. -1.
         23    2    1    2    0    0  0.35819579122E+03 -0.44233508592E+03  0.13640251758E+04  0.14807905484E+04  0.90616858347E+02 0.  0.
         13    1    3    3    0    0  0.19613143876E+03 -0.25936735339E+03  0.88831998563E+03  0.94596583561E+03  0.00000000000E+00 0. -1.
        -13    1    3    3    0    0  0.16206435246E+03 -0.18296773253E+03  0.47570519018E+03  0.53482471282E+03  0.00000000000E+00 0.  1.
         22    1    1    2    0    0 -0.35819579122E+03  0.44233508592E+03  0.18678579034E+03  0.59904380855E+03  0.00000000000E+00 0. -1.
<mgrwt>
<rscale>  0 0.13858919E+04</rscale>
<asrwt>0</asrwt>
<pdfrwt beam="1">  1        2 0.40694108E-01 0.13858919E+04</pdfrwt>
<pdfrwt beam="2">  1       -2 0.27928040E+00 0.13858919E+04</pdfrwt>
<totfact> 0.52545508E+00</totfact>
</mgrwt>
</event>
<event>
 6    1  0.1528034E-005  0.1995618E+04  0.7818608E-02  0.8608672E-01
         -2   -1    0    0    0  501 -0.00000000000E+00  0.00000000000E+00  0.70408716317E+03  0.70408716317E+03  0.00000000000E+00 0. -1.
          2   -1    0    0  501    0  0.00000000000E+00 -0.00000000000E+00 -0.14140620088E+04  0.14140620088E+04  0.00000000000E+00 0.  1.
         23    2    1    2    0    0 -0.69043664839E+03 -0.73085340392E+02  0.40190567852E+03  0.80730115164E+03  0.90347897580E+02 0.  0.
         13    1    3    3    0    0 -0.39295032447E+02  0.66985640178E+01  0.40374117349E+01  0.40065833679E+02  0.00000000000E+00 0. -1.
        -13    1    3    3    0    0 -0.65114161594E+03 -0.79783904410E+02  0.39786826679E+03  0.76723531796E+03  0.00000000000E+00 0.  1.
         22    1    1    2    0    0  0.69043664839E+03  0.73085340392E+02 -0.11118805242E+04  0.13108480204E+04  0.00000000000E+00 0.  1.
<mgrwt>
<rscale>  0 0.19956181E+04</rscale>
<asrwt>0</asrwt>
<pdfrwt beam="1">  1        2 0.21754800E+00 0.19956181E+04</pdfrwt>
<pdfrwt beam="2">  1       -2 0.10832110E+00 0.19956181E+04</pdfrwt>
<totfact> 0.90043024E+00</totfact>
</mgrwt>
</event>
<event>
 6    1  0.1528034E-005  0.2521725E+04  0.7818608E-02  0.8395286E-01
         -1   -1    0    0    0  501 -0.00000000000E+00  0.00000000000E+00  0.93032499121E+03  0.93032499121E+03  0.00000000000E+00 0.  1.
          1   -1    0    0  501    0  0.00000000000E+00 -0.00000000000E+00 -0.17088380441E+04  0.17088380441E+04  0.00000000000E+00 0. -1.
         23    2    1    2    0    0  0.50753283149E+03  0.96189690392E+01 -0.15961275194E+04  0.16767829048E+04  0.79345776567E+02 0.  0.
         13    1    3    3    0    0  0.26598399406E+03 -0.20174367773E+02 -0.93389962398E+03  0.97124816493E+03  0.00000000000E+00 0. -1.
        -13    1    3    3    0    0  0.24154883743E+03  0.29793336812E+02 -0.66222789539E+03  0.70553473991E+03  0.00000000000E+00 0.  1.
         22    1    1    2    0    0 -0.50753283149E+03 -0.96189690392E+01  0.81761446652E+03  0.96238013044E+03  0.00000000000E+00 0.  1.
<mgrwt>
<rscale>  0 0.25217254E+04</rscale>
<asrwt>0</asrwt>
<pdfrwt beam="1">  1        1 0.26289816E+00 0.25217254E+04</pdfrwt>
<pdfrwt beam="2">  1       -1 0.14312692E+00 0.25217254E+04</pdfrwt>
<totfact> 0.16482933E+00</totfact>
</mgrwt>
</event>
<event>
 6    1  0.1528034E-005  0.9481672E+03  0.7818608E-02  0.9367295E-01
          1   -1    0    0  501    0  0.00000000000E+00  0.00000000000E+00  0.76991143375E+03  0.76991143375E+03  0.00000000000E+00 0. -1.
         -1   -1    0    0    0  501 -0.00000000000E+00 -0.00000000000E+00 -0.29192352251E+03  0.29192352251E+03  0.00000000000E+00 0.  1.
         23    2    1    2    0    0  0.39806456867E+02 -0.44827084354E+03  0.39180296310E+03  0.60362196162E+03  0.91206400444E+02 0.  0.
         11    1    3    3    0    0  0.36273661952E+02 -0.20189494752E+03  0.23324440286E+03  0.31061278121E+03  0.00000000000E+00 0.  1.
        -11    1    3    3    0    0  0.35327949156E+01 -0.24637589602E+03  0.15855856023E+03  0.29300918041E+03  0.00000000000E+00 0. -1.
         22    1    1    2    0    0 -0.39806456867E+02  0.44827084354E+03  0.86184948145E+02  0.45821299464E+03  0.00000000000E+00 0.  1.
<mgrwt>
<rscale>  0 0.94816720E+03</rscale>
<asrwt>0</asrwt>
<pdfrwt beam="1">  1        1 0.11844791E+00 0.94816720E+03</pdfrwt>
<pdfrwt beam="2">  1       -1 0.44911311E-01 0.94816720E+03</pdfrwt>
<totfact> 0.11608678E+02</totfact>
</mgrwt>
</event>
<event>
 6    1  0.1528034E-005  0.2475198E+04  0.7818608E-02  0.8411875E-01
         -2   -1    0    0    0  501 -0.00000000000E+00  0.00000000000E+00  0.59852905465E+03  0.59852905465E+03  0.00000000000E+00 0.  1.
          2   -1    0    0  501    0  0.00000000000E+00 -0.00000000000E+00 -0.25590249496E+04  0.25590249496E+04  0.00000000000E+00 0. -1.
         23    2    1    2    0    0 -0.85279888513E+02 -0.36791515931E+03 -0.24827369102E+04  0.25130620324E+04  0.94148761462E+02 0.  0.
         13    1    3    3    0    0 -0.57690257292E+02 -0.16673175910E+03 -0.87998353350E+03  0.89749577409E+03  0.00000000000E+00 0. -1.
        -13    1    3    3    0    0 -0.27589631222E+02 -0.20118340021E+03 -0.16027533767E+04  0.16155662583E+04  0.00000000000E+00 0.  1.
         22    1    1    2    0    0  0.85279888513E+02  0.36791515931E+03  0.52224101525E+03  0.64449197190E+03  0.00000000000E+00 0.  1.
<mgrwt>
<rscale>  0 0.24751976E+04</rscale>
<asrwt>0</asrwt>
<pdfrwt beam="1">  1        2 0.39369615E+00 0.24751976E+04</pdfrwt>
<pdfrwt beam="2">  1       -2 0.92081393E-01 0.24751976E+04</pdfrwt>
<totfact> 0.28805779E+00</totfact>
</mgrwt>
</event>
<event>
 6    1  0.1528034E-005  0.3152979E+04  0.7818608E-02  0.8201347E-01
         -2   -1    0    0    0  501 -0.00000000000E+00  0.00000000000E+00  0.68436026670E+03  0.68436026670E+03  0.00000000000E+00 0.  1.
          2   -1    0    0  501    0  0.00000000000E+00 -0.00000000000E+00 -0.36315954244E+04  0.36315954244E+04  0.00000000000E+00 0. -1.
         23    2    1    2    0    0  0.13090501306E+04  0.86999114416E+03 -0.16159986013E+04  0.22561771582E+04  0.91580862070E+02 0.  0.
         13    1    3    3    0    0  0.15467486506E+03  0.14000121724E+03 -0.21363071179E+03  0.29860129894E+03  0.00000000000E+00 0. -1.
        -13    1    3    3    0    0  0.11543752656E+04  0.72998992692E+03 -0.14023678896E+04  0.19575758593E+04  0.00000000000E+00 0.  1.
         22    1    1    2    0    0 -0.13090501306E+04 -0.86999114416E+03 -0.13312365563E+04  0.20597785328E+04  0.00000000000E+00 0.  1.
<mgrwt>
<rscale>  0 0.31529793E+04</rscale>
<asrwt>0</asrwt>
<pdfrwt beam="1">  1        2 0.55870700E+00 0.31529793E+04</pdfrwt>
<pdfrwt beam="2">  1       -2 0.10528619E+00 0.31529793E+04</pdfrwt>
<totfact> 0.40387290E-01</totfact>
</mgrwt>
</event>
<event>
 6    1  0.1528034E-005  0.2943440E+04  0.7818608E-02  0.8260069E-01
         -1   -1    0    0    0  501 -0.00000000000E+00  0.00000000000E+00  0.15005300063E+04  0.15005300063E+04  0.00000000000E+00 0.  1.
          1   -1    0    0  501    0  0.00000000000E+00 -0.00000000000E+00 -0.14434632565E+04  0.14434632565E+04  0.00000000000E+00 0. -1.
         23    2    1    2    0    0 -0.18238336745E+03  0.76988818666E+03 -0.12109461689E+04  0.14493868683E+04  0.91324461762E+02 0.  0.
         11    1    3    3    0    0 -0.79400265465E+02  0.41275517523E+03 -0.71853083292E+03  0.83244086558E+03  0.00000000000E+00 0.  1.
        -11    1    3    3    0    0 -0.10298310198E+03  0.35713301144E+03 -0.49241533598E+03  0.61694600271E+03  0.00000000000E+00 0. -1.
         22    1    1    2    0    0  0.18238336745E+03 -0.76988818666E+03  0.12680129186E+04  0.14946063945E+04  0.00000000000E+00 0.  1.
<mgrwt>
<rscale>  0 0.29434401E+04</rscale>
<asrwt>0</asrwt>
<pdfrwt beam="1">  1        1 0.22207127E+00 0.29434401E+04</pdfrwt>
<pdfrwt beam="2">  1       -1 0.23085077E+00 0.29434401E+04</pdfrwt>
<totfact> 0.57070854E-01</totfact>
</mgrwt>
</event>
<event>
 6    1  0.1528034E-005  0.2878526E+04  0.7818608E-02  0.8279295E-01
         -2   -1    0    0    0  501 -0.00000000000E+00  0.00000000000E+00  0.65409364759E+03  0.65409364759E+03  0.00000000000E+00 0.  1.
          2   -1    0    0  501    0  0.00000000000E+00 -0.00000000000E+00 -0.31669443545E+04  0.31669443545E+04  0.00000000000E+00 0. -1.
         23    2    1    2    0    0 -0.12650742238E+04 -0.32336142128E+03 -0.45862021033E+03  0.13869389216E+04  0.91058632408E+02 0.  0.
         13    1    3    3    0    0 -0.66568469264E+03 -0.18542288432E+03 -0.28812985327E+03  0.74868990135E+03  0.00000000000E+00 0. -1.
        -13    1    3    3    0    0 -0.59938953115E+03 -0.13793853696E+03 -0.17049035706E+03  0.63824902027E+03  0.00000000000E+00 0.  1.
         22    1    1    2    0    0  0.12650742238E+04  0.32336142128E+03 -0.20542304965E+04  0.24340990804E+04  0.00000000000E+00 0. -1.
<mgrwt>
<rscale>  0 0.28785261E+04</rscale>
<asrwt>0</asrwt>
<pdfrwt beam="1">  1        2 0.48722221E+00 0.28785261E+04</pdfrwt>
<pdfrwt beam="2">  1       -2 0.10062979E+00 0.28785261E+04</pdfrwt>
<totfact> 0.95820069E-01</totfact>
</mgrwt>
</event>
<event>
 6    1  0.1528034E-005  0.3102950E+04  0.7818608E-02  0.8214929E-01
         -2   -1    0    0    0  501 -0.00000000000E+00  0.00000000000E+00  0.20858711198E+04  0.20858711198E+04  0.00000000000E+00 0. -1.
          2   -1    0    0  501    0  0.00000000000E+00 -0.00000000000E+00 -0.11539903743E+04  0.11539903743E+04  0.00000000000E+00 0.  1.
         23    2    1    2    0    0 -0.14419698269E+04  0.38487138992E+03  0.90360025863E+03  0.17471449254E+04  0.92838539976E+02 0.  0.
         13    1    3    3    0    0 -0.66259452820E+03  0.13165650061E+03  0.39067915950E+03  0.78038141227E+03  0.00000000000E+00 0. -1.
        -13    1    3    3    0    0 -0.77937529872E+03  0.25321488931E+03  0.51292109913E+03  0.96676351315E+03  0.00000000000E+00 0.  1.
         22    1    1    2    0    0  0.14419698269E+04 -0.38487138992E+03  0.28280486875E+02  0.14927165687E+04  0.00000000000E+00 0. -1.
<mgrwt>
<rscale>  0 0.31029503E+04</rscale>
<asrwt>0</asrwt>
<pdfrwt beam="1">  1        2 0.17753698E+00 0.31029503E+04</pdfrwt>
<pdfrwt beam="2">  1       -2 0.32090325E+00 0.31029503E+04</pdfrwt>
<totfact> 0.40502014E-01</totfact>
</mgrwt>
</event>
<event>
 6    1  0.1528034E-005  0.1425881E+04  0.7818608E-02  0.8935295E-01
         -1   -1    0    0    0  501 -0.00000000000E+00  0.00000000000E+00  0.18329602380E+04  0.18329602380E+04  0.00000000000E+00 0. -1.
          1   -1    0    0  501    0  0.00000000000E+00 -0.00000000000E+00 -0.27730244546E+03  0.27730244546E+03  0.00000000000E+00 0.  1.
         23    2    1    2    0    0 -0.50310644334E+01  0.63731018826E+03  0.31803389567E+03  0.71817701879E+03  0.91886254995E+02 0.  0.
         11    1    3    3    0    0 -0.14312255318E+02  0.28950805872E+03  0.19405236856E+03  0.34882098340E+03  0.00000000000E+00 0. -1.
        -11    1    3    3    0    0  0.92811908842E+01  0.34780212954E+03  0.12398152711E+03  0.36935603539E+03  0.00000000000E+00 0.  1.
         22    1    1    2    0    0  0.50310644334E+01 -0.63731018826E+03  0.12376238969E+04  0.13920856647E+04  0.00000000000E+00 0. -1.
<mgrwt>
<rscale>  0 0.14258813E+04</rscale>
<asrwt>0</asrwt>
<pdfrwt beam="1">  1        1 0.42661916E-01 0.14258813E+04</pdfrwt>
<pdfrwt beam="2">  1       -1 0.28199387E+00 0.14258813E+04</pdfrwt>
<totfact> 0.40938741E+00</totfact>
</mgrwt>
</event>
<event>
 6    1  0.1528034E-005  0.1452813E+04  0.7818608E-02  0.8916453E-01
         -1   -1    0    0    0  501 -0.00000000000E+00  0.00000000000E+00  0.42379695288E+03  0.42379695288E+03  0.00000000000E+00 0.  1.
          1   -1    0    0  501    0  0.00000000000E+00 -0.00000000000E+00 -0.12450926896E+04  0.12450926896E+04  0.00000000000E+00 0. -1.
         23    2    1    2    0    0 -0.39874208470E+03  0.16959120514E+03  0.25334089768E+03  0.51018332811E+03  0.91372812540E+02 0.  0.
         11    1    3    3    0    0 -0.15788082289E+03  0.74384618176E+02  0.51922798761E+02  0.18208625068E+03  0.00000000000E+00 0. -1.
        -11    1    3    3    0    0 -0.24086126181E+03  0.95206586962E+02  0.20141809892E+03  0.32809707743E+03  0.00000000000E+00 0.  1.
         22    1    1    2    0    0  0.39874208470E+03 -0.16959120514E+03 -0.10746366344E+04  0.11587063144E+04  0.00000000000E+00 0. -1.
<mgrwt>
<rscale>  0 0.14528131E+04</rscale>
<asrwt>0</asrwt>
<pdfrwt beam="1">  1        1 0.19155272E+00 0.14528131E+04</pdfrwt>
<pdfrwt beam="2">  1       -1 0.65199532E-01 0.14528131E+04</pdfrwt>
<totfact> 0.22943296E+01</totfact>
</mgrwt>
</event>
<event>
 6    1  0.1528034E-005  0.1059046E+04  0.7818608E-02  0.9246054E-01
          1   -1    0    0  501    0  0.00000000000E+00  0.00000000000E+00  0.66663488826E+03  0.66663488826E+03  0.00000000000E+00 0. -1.
         -1   -1    0    0    0  501 -0.00000000000E+00 -0.00000000000E+00 -0.42061194953E+03  0.42061194953E+03  0.00000000000E+00 0.  1.
         23    2    1    2    0    0 -0.45899394870E+03 -0.30330649956E+02  0.38499233349E+03  0.60671808116E+03  0.91062285806E+02 0.  0.
         11    1    3    3    0    0 -0.77647888964E+02 -0.32053795948E+02  0.42479734918E+02  0.94133779134E+02  0.00000000000E+00 0.  1.
        -11    1    3    3    0    0 -0.38134605974E+03  0.17231459926E+01  0.34251259857E+03  0.51258430203E+03  0.00000000000E+00 0. -1.
         22    1    1    2    0    0  0.45899394870E+03  0.30330649956E+02 -0.13896939476E+03  0.48052875663E+03  0.00000000000E+00 0.  1.
<mgrwt>
<rscale>  0 0.10590460E+04</rscale>
<asrwt>0</asrwt>
<pdfrwt beam="1">  1        1 0.10255921E+00 0.10590460E+04</pdfrwt>
<pdfrwt beam="2">  1       -1 0.64709531E-01 0.10590460E+04</pdfrwt>
<totfact> 0.70976243E+01</totfact>
</mgrwt>
</event>
<event>
 6    1  0.1528034E-005  0.2822137E+04  0.7818608E-02  0.8296428E-01
         -2   -1    0    0    0  501 -0.00000000000E+00  0.00000000000E+00  0.49519017107E+03  0.49519017107E+03  0.00000000000E+00 0.  1.
          2   -1    0    0  501    0  0.00000000000E+00 -0.00000000000E+00 -0.40209090876E+04  0.40209090876E+04  0.00000000000E+00 0. -1.
         23    2    1    2    0    0 -0.89726314535E+03 -0.96971549526E+03 -0.97780860271E+03  0.16460337087E+04  0.88814486342E+02 0.  0.
         11    1    3    3    0    0 -0.20846673668E+03 -0.27534145855E+03 -0.23166495704E+03  0.41586049514E+03  0.00000000000E+00 0.  1.
        -11    1    3    3    0    0 -0.68879640867E+03 -0.69437403671E+03 -0.74614364567E+03  0.12301732136E+04  0.00000000000E+00 0. -1.
         22    1    1    2    0    0  0.89726314535E+03  0.96971549526E+03 -0.25479103139E+04  0.28700655500E+04  0.00000000000E+00 0. -1.
<mgrwt>
<rscale>  0 0.28221372E+04</rscale>
<asrwt>0</asrwt>
<pdfrwt beam="1">  1        2 0.61860141E+00 0.28221372E+04</pdfrwt>
<pdfrwt beam="2">  1       -2 0.76183102E-01 0.28221372E+04</pdfrwt>
<totfact> 0.44094843E-01</totfact>
</mgrwt>
</event>
<event>
 6    1  0.1528034E-005  0.7483118E+03  0.7818608E-02  0.9638003E-01
          1   -1    0    0  501    0  0.00000000000E+00  0.00000000000E+00  0.66417372788E+03  0.66417372788E+03  0.00000000000E+00 0. -1.
         -1   -1    0    0    0  501 -0.00000000000E+00 -0.00000000000E+00 -0.21077713200E+03  0.21077713200E+03  0.00000000000E+00 0.  1.
         23    2    1    2    0    0  0.31975876056E+03 -0.16987225880E+03  0.31460222121E+03  0.48718014451E+03  0.85250726371E+02 0.  0.
         11    1    3    3    0    0  0.22496257535E+03 -0.16088563162E+03  0.24070136445E+03  0.36664627862E+03  0.00000000000E+00 0.  1.
        -11    1    3    3    0    0  0.94796185202E+02 -0.89866271785E+01  0.73900856756E+02  0.12053386589E+03  0.00000000000E+00 0. -1.
         22    1    1    2    0    0 -0.31975876056E+03  0.16987225880E+03  0.13879437467E+03  0.38777071538E+03  0.00000000000E+00 0. -1.
<mgrwt>
<rscale>  0 0.74831179E+03</rscale>
<asrwt>0</asrwt>
<pdfrwt beam="1">  1        1 0.10218057E+00 0.74831179E+03</pdfrwt>
<pdfrwt beam="2">  1       -1 0.32427251E-01 0.74831179E+03</pdfrwt>
<totfact> 0.26518908E+02</totfact>
</mgrwt>
</event>
<event>
 6    1  0.2294868E-005  0.3485024E+04  0.7818608E-02  0.8117348E-01
         -2   -1    0    0    0  501 -0.00000000000E+00  0.00000000000E+00  0.10910381281E+04  0.10910381281E+04  0.00000000000E+00 0. -1.
          2   -1    0    0  501    0  0.00000000000E+00 -0.00000000000E+00 -0.27829899519E+04  0.27829899519E+04  0.00000000000E+00 0.  1.
         23    2    1    2    0    0  0.74725283417E+03  0.83535560750E+03 -0.23279246509E+04  0.25853592994E+04  0.92971705025E+02 0.  0.
         11    1    3    3    0    0  0.26562430981E+03  0.36401875384E+03 -0.95287228849E+03  0.10540548018E+04  0.00000000000E+00 0. -1.
        -11    1    3    3    0    0  0.48162852436E+03  0.47133685366E+03 -0.13750523624E+04  0.15313044976E+04  0.00000000000E+00 0.  1.
         22    1    1    2    0    0 -0.74725283417E+03 -0.83535560750E+03  0.63597282702E+03  0.12886687805E+04  0.00000000000E+00 0. -1.
<mgrwt>
<rscale>  0 0.34850240E+04</rscale>
<asrwt>0</asrwt>
<pdfrwt beam="1">  1        2 0.42815229E+00 0.34850240E+04</pdfrwt>
<pdfrwt beam="2">  1       -2 0.16785202E+00 0.34850240E+04</pdfrwt>
<totfact> 0.42996324E-01</totfact>
</mgrwt>
</event>
<event>
 6    1  0.1528034E-005  0.1742836E+04  0.7818608E-02  0.8737303E-01
         -2   -1    0    0    0  501 -0.00000000000E+00  0.00000000000E+00  0.91552655887E+03  0.91552655887E+03  0.00000000000E+00 0.  1.
          2   -1    0    0  501    0  0.00000000000E+00 -0.00000000000E+00 -0.82943495050E+03  0.82943495050E+03  0.00000000000E+00 0. -1.
         23    2    1    2    0    0 -0.36203080111E+03 -0.49942287548E+02 -0.74602558209E+03  0.83612733765E+03  0.94837875340E+02 0.  0.
         13    1    3    3    0    0 -0.20892229991E+03 -0.25211030350E+02 -0.32237429651E+03  0.38497962349E+03  0.00000000000E+00 0.  1.
        -13    1    3    3    0    0 -0.15310850120E+03 -0.24731257198E+02 -0.42365128558E+03  0.45114771416E+03  0.00000000000E+00 0. -1.
         22    1    1    2    0    0  0.36203080111E+03  0.49942287548E+02  0.83211719045E+03  0.90883417172E+03  0.00000000000E+00 0.  1.
<mgrwt>
<rscale>  0 0.17428365E+04</rscale>
<asrwt>0</asrwt>
<pdfrwt beam="1">  1        2 0.12760538E+00 0.17428365E+04</pdfrwt>
<pdfrwt beam="2">  1       -2 0.14085024E+00 0.17428365E+04</pdfrwt>
<totfact> 0.10999164E+01</totfact>
</mgrwt>
</event>
<event>
 6    1  0.1528034E-005  0.4090142E+03  0.7818608E-02  0.1040702E+00
          2   -1    0    0  501    0  0.00000000000E+00  0.00000000000E+00  0.12375734963E+04  0.12375734963E+04  0.00000000000E+00 0. -1.
         -2   -1    0    0    0  501 -0.00000000000E+00 -0.00000000000E+00 -0.33794485857E+02  0.33794485857E+02  0.00000000000E+00 0.  1.
         23    2    1    2    0    0  0.30511103710E+02  0.18462675243E+03  0.79661523638E+03  0.82326051282E+03  0.90244512208E+02 0.  0.
         11    1    3    3    0    0  0.29721914068E+02  0.67272231471E+02  0.47987184474E+03  0.48547495576E+03  0.00000000000E+00 0. -1.
        -11    1    3    3    0    0  0.78918964192E+00  0.11735452096E+03  0.31674339164E+03  0.33778555706E+03  0.00000000000E+00 0.  1.
         22    1    1    2    0    0 -0.30511103710E+02 -0.18462675243E+03  0.40716377411E+03  0.44810746937E+03  0.00000000000E+00 0.  1.
<mgrwt>
<rscale>  0 0.40901423E+03</rscale>
<asrwt>0</asrwt>
<pdfrwt beam="1">  1        2 0.19039589E+00 0.40901423E+03</pdfrwt>
<pdfrwt beam="2">  1       -2 0.51991526E-02 0.40901423E+03</pdfrwt>
<totfact> 0.35179973E+03</totfact>
</mgrwt>
</event>
<event>
 6    1  0.1528034E-005  0.2337076E+04  0.7818608E-02  0.8463444E-01
          2   -1    0    0  501    0  0.00000000000E+00  0.00000000000E+00  0.27929135683E+04  0.27929135683E+04  0.00000000000E+00 0. -1.
         -2   -1    0    0    0  501 -0.00000000000E+00 -0.00000000000E+00 -0.48890938013E+03  0.48890938013E+03  0.00000000000E+00 0.  1.
         23    2    1    2    0    0 -0.90677120270E+03  0.53746101868E+03  0.45154540519E+03  0.11504614344E+04  0.92573746468E+02 0.  0.
         13    1    3    3    0    0 -0.39450793501E+03  0.18954381817E+03  0.15984242835E+03  0.46595383000E+03  0.00000000000E+00 0. -1.
        -13    1    3    3    0    0 -0.51226326769E+03  0.34791720050E+03  0.29170297683E+03  0.68450760443E+03  0.00000000000E+00 0.  1.
         22    1    1    2    0    0  0.90677120270E+03 -0.53746101868E+03  0.18524587829E+04  0.21313615139E+04  0.00000000000E+00 0. -1.
<mgrwt>
<rscale>  0 0.23370765E+04</rscale>
<asrwt>0</asrwt>
<pdfrwt beam="1">  1        2 0.42967900E+00 0.23370765E+04</pdfrwt>
<pdfrwt beam="2">  1       -2 0.75216830E-01 0.23370765E+04</pdfrwt>
<totfact> 0.33500080E+00</totfact>
</mgrwt>
</event>
<event>
 6    1  0.1528034E-005  0.1084917E+04  0.7818608E-02  0.9220018E-01
         -1   -1    0    0    0  501 -0.00000000000E+00  0.00000000000E+00  0.12813549315E+04  0.12813549315E+04  0.00000000000E+00 0. -1.
          1   -1    0    0  501    0  0.00000000000E+00 -0.00000000000E+00 -0.22964866270E+03  0.22964866270E+03  0.00000000000E+00 0.  1.
         23    2    1    2    0    0  0.15935345970E+03 -0.25447766737E+03  0.11526568802E+04  0.11942332764E+04  0.86155827628E+02 0.  0.
         13    1    3    3    0    0  0.12362355249E+02 -0.93554047416E+02  0.35832717851E+03  0.37054494258E+03  0.00000000000E+00 0. -1.
        -13    1    3    3    0    0  0.14699110445E+03 -0.16092361995E+03  0.79432970167E+03  0.82368833378E+03  0.00000000000E+00 0.  1.
         22    1    1    2    0    0 -0.15935345970E+03  0.25447766737E+03 -0.10095061141E+03  0.31677031782E+03  0.00000000000E+00 0.  1.
<mgrwt>
<rscale>  0 0.10849174E+04</rscale>
<asrwt>0</asrwt>
<pdfrwt beam="1">  1        1 0.35330564E-01 0.10849174E+04</pdfrwt>
<pdfrwt beam="2">  1       -1 0.19713152E+00 0.10849174E+04</pdfrwt>
<totfact> 0.19538049E+01</totfact>
</mgrwt>
</event>
<event>
 6    1  0.1528034E-005  0.1629598E+04  0.7818608E-02  0.8802569E-01
          2   -1    0    0  501    0  0.00000000000E+00  0.00000000000E+00  0.17896297128E+04  0.17896297128E+04  0.00000000000E+00 0.  1.
         -2   -1    0    0    0  501 -0.00000000000E+00 -0.00000000000E+00 -0.37096903504E+03  0.37096903504E+03  0.00000000000E+00 0. -1.
         23    2    1    2    0    0  0.37782158162E+03  0.22049184365E+03  0.16191888258E+04  0.16793739160E+04  0.84607891801E+02 0.  0.
         11    1    3    3    0    0  0.18624973757E+03  0.61133570285E+02  0.68021946246E+03  0.70790168475E+03  0.00000000000E+00 0.  1.
        -11    1    3    3    0    0  0.19157184405E+03  0.15935827336E+03  0.93896936333E+03  0.97147223120E+03  0.00000000000E+00 0. -1.
         22    1    1    2    0    0 -0.37782158162E+03 -0.22049184365E+03 -0.20052814805E+03  0.48122483187E+03  0.00000000000E+00 0. -1.
<mgrwt>
<rscale>  0 0.16295978E+04</rscale>
<asrwt>0</asrwt>
<pdfrwt beam="1">  1        2 0.27532764E+00 0.16295978E+04</pdfrwt>
<pdfrwt beam="2">  1       -2 0.57072160E-01 0.16295978E+04</pdfrwt>
<totfact> 0.24073420E+01</totfact>
</mgrwt>
</event>
<event>
 6    1  0.1528034E-005  0.1858246E+04  0.7818608E-02  0.8675924E-01
          2   -1    0    0  501    0  0.00000000000E+00  0.00000000000E+00  0.36797380060E+04  0.36797380060E+04  0.00000000000E+00 0. -1.
         -2   -1    0    0    0  501 -0.00000000000E+00 -0.00000000000E+00 -0.23460071286E+03  0.23460071286E+03  0.00000000000E+00 0.  1.
         23    2    1    2    0    0  0.61553705758E+03 -0.39798356549E+03  0.53376823606E+03  0.91211511389E+03  0.98836549451E+02 0.  0.
         13    1    3    3    0    0  0.28810716649E+03 -0.23820077988E+03  0.29897647659E+03  0.47867764150E+03  0.00000000000E+00 0. -1.
        -13    1    3    3    0    0  0.32742989110E+03 -0.15978278561E+03  0.23479175947E+03  0.43343747240E+03  0.00000000000E+00 0.  1.
         22    1    1    2    0    0 -0.61553705758E+03  0.39798356549E+03  0.29113690571E+04  0.30022236050E+04  0.00000000000E+00 0. -1.
<mgrwt>
<rscale>  0 0.18582456E+04</rscale>
<asrwt>0</asrwt>
<pdfrwt beam="1">  1        2 0.56611350E+00 0.18582456E+04</pdfrwt>
<pdfrwt beam="2">  1       -2 0.36092420E-01 0.18582456E+04</pdfrwt>
<totfact> 0.41378585E+00</totfact>
</mgrwt>
</event>
<event>
 6    1  0.1528034E-005  0.6379277E+04  0.7818608E-02  0.7645076E-01
          2   -1    0    0  501    0  0.00000000000E+00  0.00000000000E+00  0.37381492766E+04  0.37381492766E+04  0.00000000000E+00 0. -1.
         -2   -1    0    0    0  501 -0.00000000000E+00 -0.00000000000E+00 -0.27216126940E+04  0.27216126940E+04  0.00000000000E+00 0.  1.
         23    2    1    2    0    0  0.87003942965E+03 -0.22060780413E+04  0.26674028592E+04  0.35702795954E+04  0.90052443860E+02 0.  0.
         11    1    3    3    0    0  0.63963075028E+03 -0.15819696938E+04  0.18616797721E+04  0.25253924809E+04  0.00000000000E+00 0. -1.
        -11    1    3    3    0    0  0.23040867937E+03 -0.62410834755E+03  0.80572308710E+03  0.10448871145E+04  0.00000000000E+00 0.  1.
         22    1    1    2    0    0 -0.87003942965E+03  0.22060780413E+04 -0.16508662766E+04  0.28894823752E+04  0.00000000000E+00 0.  1.
<mgrwt>
<rscale>  0 0.63792772E+04</rscale>
<asrwt>0</asrwt>
<pdfrwt beam="1">  1        2 0.57509989E+00 0.63792772E+04</pdfrwt>
<pdfrwt beam="2">  1       -2 0.41870964E+00 0.63792772E+04</pdfrwt>
<totfact> 0.19968577E-03</totfact>
</mgrwt>
</event>
<event>
 6    1  0.1528034E-005  0.1146150E+04  0.7818608E-02  0.9161343E-01
          2   -1    0    0  501    0  0.00000000000E+00  0.00000000000E+00  0.12586901390E+04  0.12586901390E+04  0.00000000000E+00 0.  1.
         -2   -1    0    0    0  501 -0.00000000000E+00 -0.00000000000E+00 -0.26091804695E+03  0.26091804695E+03  0.00000000000E+00 0. -1.
         23    2    1    2    0    0 -0.40655471137E+03 -0.29243782248E+03  0.14266378685E+03  0.52864056439E+03  0.91111343330E+02 0.  0.
         13    1    3    3    0    0 -0.17188240837E+03 -0.17929412335E+03  0.75558404913E+02  0.25961320754E+03  0.00000000000E+00 0. -1.
        -13    1    3    3    0    0 -0.23467230300E+03 -0.11314369913E+03  0.67105381938E+02  0.26902735685E+03  0.00000000000E+00 0.  1.
         22    1    1    2    0    0  0.40655471137E+03  0.29243782248E+03  0.85510830520E+03  0.99096762156E+03  0.00000000000E+00 0.  1.
<mgrwt>
<rscale>  0 0.11461500E+04</rscale>
<asrwt>0</asrwt>
<pdfrwt beam="1">  1        2 0.19364463E+00 0.11461500E+04</pdfrwt>
<pdfrwt beam="2">  1       -2 0.40141239E-01 0.11461500E+04</pdfrwt>
<totfact> 0.10158100E+02</totfact>
</mgrwt>
</event>
<event>
 6    1  0.1528034E-005  0.6190574E+03  0.7818608E-02  0.9866638E-01
         -2   -1    0    0    0  501 -0.00000000000E+00  0.00000000000E+00  0.10969543326E+04  0.10969543326E+04  0.00000000000E+00 0.  1.
          2   -1    0    0  501    0  0.00000000000E+00 -0.00000000000E+00 -0.87340011694E+02  0.87340011694E+02  0.00000000000E+00 0. -1.
         23    2    1    2    0    0 -0.13875078258E+02  0.30284295089E+03  0.49286376530E+03  0.58518040905E+03  0.87264249776E+02 0.  0.
         13    1    3    3    0    0 -0.42733928530E+02  0.22841999221E+03  0.40112151319E+03  0.46357345678E+03  0.00000000000E+00 0. -1.
        -13    1    3    3    0    0  0.28858850272E+02  0.74422958675E+02  0.91742252110E+02  0.12160695227E+03  0.00000000000E+00 0.  1.
         22    1    1    2    0    0  0.13875078258E+02 -0.30284295089E+03  0.51675055565E+03  0.59911393530E+03  0.00000000000E+00 0.  1.
<mgrwt>
<rscale>  0 0.61905736E+03</rscale>
<asrwt>0</asrwt>
<pdfrwt beam="1">  1        2 0.13436926E-01 0.61905736E+03</pdfrwt>
<pdfrwt beam="2">  1       -2 0.16876220E+00 0.61905736E+03</pdfrwt>
<totfact> 0.10169147E+02</totfact>
</mgrwt>
</event>
<event>
 6    1  0.1528034E-005  0.1649663E+04  0.7818608E-02  0.8790606E-01
          2   -1    0    0  501    0  0.00000000000E+00  0.00000000000E+00  0.39972019000E+03  0.39972019000E+03  0.00000000000E+00 0. -1.
         -2   -1    0    0    0  501 -0.00000000000E+00 -0.00000000000E+00 -0.17020572921E+04  0.17020572921E+04  0.00000000000E+00 0.  1.
         23    2    1    2    0    0  0.41965749062E+03 -0.68858496777E+03 -0.85794459276E+03  0.11810460502E+04  0.92407690644E+02 0.  0.
         11    1    3    3    0    0  0.28652702165E+03 -0.42270915605E+03 -0.48720386468E+03  0.70579626700E+03  0.00000000000E+00 0. -1.
        -11    1    3    3    0    0  0.13313046897E+03 -0.26587581172E+03 -0.37074072808E+03  0.47524978325E+03  0.00000000000E+00 0.  1.
         22    1    1    2    0    0 -0.41965749062E+03  0.68858496777E+03 -0.44439250937E+03  0.92073143188E+03  0.00000000000E+00 0.  1.
<mgrwt>
<rscale>  0 0.16496626E+04</rscale>
<asrwt>0</asrwt>
<pdfrwt beam="1">  1        2 0.61495414E-01 0.16496626E+04</pdfrwt>
<pdfrwt beam="2">  1       -2 0.26185497E+00 0.16496626E+04</pdfrwt>
<totfact> 0.41348412E+00</totfact>
</mgrwt>
</event>
<event>
 6    1  0.1528034E-005  0.4185696E+04  0.7818608E-02  0.7968099E-01
         -2   -1    0    0    0  501 -0.00000000000E+00  0.00000000000E+00  0.16351595750E+04  0.16351595750E+04  0.00000000000E+00 0.  1.
          2   -1    0    0  501    0  0.00000000000E+00 -0.00000000000E+00 -0.26786458664E+04  0.26786458664E+04  0.00000000000E+00 0. -1.
         23    2    1    2    0    0  0.62808258834E+02  0.88819703068E+03  0.14288481947E+04  0.16860161322E+04  0.90578096907E+02 0.  0.
         11    1    3    3    0    0  0.85592493492E+02  0.71768188400E+03  0.11394824282E+04  0.13493752502E+04  0.00000000000E+00 0. -1.
        -11    1    3    3    0    0 -0.22784234657E+02  0.17051514668E+03  0.28936576653E+03  0.33664088200E+03  0.00000000000E+00 0.  1.
         22    1    1    2    0    0 -0.62808258834E+02 -0.88819703068E+03 -0.24723344861E+04  0.26277893093E+04  0.00000000000E+00 0. -1.
<mgrwt>
<rscale>  0 0.41856963E+04</rscale>
<asrwt>0</asrwt>
<pdfrwt beam="1">  1        2 0.41209936E+00 0.41856963E+04</pdfrwt>
<pdfrwt beam="2">  1       -2 0.25156301E+00 0.41856963E+04</pdfrwt>
<totfact> 0.13355350E-01</totfact>
</mgrwt>
</event>
<event>
 6    1  0.1528034E-005  0.8367279E+03  0.7818608E-02  0.9508326E-01
         -2   -1    0    0    0  501 -0.00000000000E+00  0.00000000000E+00  0.22057410317E+03  0.22057410317E+03  0.00000000000E+00 0. -1.
          2   -1    0    0  501    0  0.00000000000E+00 -0.00000000000E+00 -0.79351286334E+03  0.79351286334E+03  0.00000000000E+00 0.  1.
         23    2    1    2    0    0  0.16771461090E+03 -0.20771774532E+03 -0.67221283392E+03  0.72925334113E+03  0.93088608434E+02 0.  0.
         13    1    3    3    0    0  0.58692018775E+02 -0.88019516258E+02 -0.38794676798E+03  0.40211302279E+03  0.00000000000E+00 0.  1.
        -13    1    3    3    0    0  0.10902259212E+03 -0.11969822907E+03 -0.28426606594E+03  0.32714031834E+03  0.00000000000E+00 0. -1.
         22    1    1    2    0    0 -0.16771461090E+03  0.20771774532E+03  0.99274073746E+02  0.28483362538E+03  0.00000000000E+00 0. -1.
<mgrwt>
<rscale>  0 0.83672788E+03</rscale>
<asrwt>0</asrwt>
<pdfrwt beam="1">  1        2 0.12207890E+00 0.83672788E+03</pdfrwt>
<pdfrwt beam="2">  1       -2 0.33934477E-01 0.83672788E+03</pdfrwt>
<totfact> 0.28407804E+02</totfact>
</mgrwt>
</event>
<event>
 6    1  0.1528034E-005  0.4115384E+04  0.7818608E-02  0.7981666E-01
          2   -1    0    0  501    0  0.00000000000E+00  0.00000000000E+00  0.22590188610E+04  0.22590188610E+04  0.00000000000E+00 0.  1.
         -2   -1    0    0    0  501 -0.00000000000E+00 -0.00000000000E+00 -0.18743079637E+04  0.18743079637E+04  0.00000000000E+00 0. -1.
         23    2    1    2    0    0 -0.19639430368E+04  0.46560677316E+03 -0.20388129462E+03  0.20308752348E+04  0.94998516438E+02 0.  0.
         11    1    3    3    0    0 -0.91356389179E+03  0.23399050943E+03 -0.50766737670E+02  0.94441929488E+03  0.00000000000E+00 0. -1.
        -11    1    3    3    0    0 -0.10503791450E+04  0.23161626372E+03 -0.15311455695E+03  0.10864559400E+04  0.00000000000E+00 0.  1.
         22    1    1    2    0    0  0.19639430368E+04 -0.46560677316E+03  0.58859219198E+03  0.21024515898E+04  0.00000000000E+00 0. -1.
<mgrwt>
<rscale>  0 0.41153843E+04</rscale>
<asrwt>0</asrwt>
<pdfrwt beam="1">  1        2 0.34754136E+00 0.41153843E+04</pdfrwt>
<pdfrwt beam="2">  1       -2 0.28835507E+00 0.41153843E+04</pdfrwt>
<totfact> 0.13998224E-01</totfact>
</mgrwt>
</event>
<event>
 6    1  0.1528034E-005  0.2785294E+04  0.7818608E-02  0.8307848E-01
          2   -1    0    0  501    0  0.00000000000E+00  0.00000000000E+00  0.11781913521E+04  0.11781913521E+04  0.00000000000E+00 0. -1.
         -2   -1    0    0    0  501 -0.00000000000E+00 -0.00000000000E+00 -0.16461383422E+04  0.16461383422E+04  0.00000000000E+00 0.  1.
         23    2    1    2    0    0  0.96882249802E+03  0.94726264855E+03  0.83131372961E+02  0.13615888012E+04  0.10530755169E+03 0.  0.
         11    1    3    3    0    0  0.55654188216E+02  0.77249146985E+02  0.27465981872E+02  0.99091874219E+02  0.00000000000E+00 0.  1.
        -11    1    3    3    0    0  0.91316830980E+03  0.87001350156E+03  0.55665391089E+02  0.12624969270E+04  0.00000000000E+00 0. -1.
         22    1    1    2    0    0 -0.96882249802E+03 -0.94726264855E+03 -0.55107836314E+03  0.14627408931E+04  0.00000000000E+00 0.  1.
<mgrwt>
<rscale>  0 0.27852942E+04</rscale>
<asrwt>0</asrwt>
<pdfrwt beam="1">  1        2 0.18126021E+00 0.27852942E+04</pdfrwt>
<pdfrwt beam="2">  1       -2 0.25325205E+00 0.27852942E+04</pdfrwt>
<totfact> 0.10436542E+00</totfact>
</mgrwt>
</event>
<event>
 6    1  0.1528034E-005  0.1054719E+04  0.7818608E-02  0.9250485E-01
          2   -1    0    0  501    0  0.00000000000E+00  0.00000000000E+00  0.11323936805E+04  0.11323936805E+04  0.00000000000E+00 0. -1.
         -2   -1    0    0    0  501 -0.00000000000E+00 -0.00000000000E+00 -0.24559313430E+03  0.24559313430E+03  0.00000000000E+00 0.  1.
         23    2    1    2    0    0  0.32860777731E+03 -0.14748385096E+03 -0.49624077774E+02  0.37467946709E+03  0.90485337844E+02 0.  0.
         11    1    3    3    0    0  0.11261272515E+03 -0.53659056519E+01 -0.11453836433E+02  0.11332082411E+03  0.00000000000E+00 0. -1.
        -11    1    3    3    0    0  0.21599505216E+03 -0.14211794531E+03 -0.38170241341E+02  0.26135864298E+03  0.00000000000E+00 0.  1.
         22    1    1    2    0    0 -0.32860777731E+03  0.14748385096E+03  0.93642462398E+03  0.10033073477E+04  0.00000000000E+00 0. -1.
<mgrwt>
<rscale>  0 0.10547191E+04</rscale>
<asrwt>0</asrwt>
<pdfrwt beam="1">  1        2 0.17421441E+00 0.10547191E+04</pdfrwt>
<pdfrwt beam="2">  1       -2 0.37783560E-01 0.10547191E+04</pdfrwt>
<totfact> 0.13679076E+02</totfact>
</mgrwt>
</event>
<event>
 6    1  0.1528034E-005  0.2602147E+04  0.7818608E-02  0.8367472E-01
         -2   -1    0    0    0  501 -0.00000000000E+00  0.00000000000E+00  0.95358453475E+03  0.95358453475E+03  0.00000000000E+00 0.  1.
          2   -1    0    0  501    0  0.00000000000E+00 -0.00000000000E+00 -0.17751883197E+04  0.17751883197E+04  0.00000000000E+00 0. -1.
         23    2    1    2    0    0  0.12195884734E+04 -0.95028080369E+02 -0.87193682850E+03  0.15044527183E+04  0.81717613369E+02 0.  0.
         13    1    3    3    0    0  0.59506500783E+03 -0.26340075309E+02 -0.46810487613E+03  0.75757398198E+03  0.00000000000E+00 0. -1.
        -13    1    3    3    0    0  0.62452346553E+03 -0.68688005061E+02 -0.40383195236E+03  0.74687873634E+03  0.00000000000E+00 0.  1.
         22    1    1    2    0    0 -0.12195884734E+04  0.95028080369E+02  0.50333043564E+02  0.12243201361E+04  0.00000000000E+00 0.  1.
<mgrwt>
<rscale>  0 0.26021469E+04</rscale>
<asrwt>0</asrwt>
<pdfrwt beam="1">  1        2 0.27310589E+00 0.26021469E+04</pdfrwt>
<pdfrwt beam="2">  1       -2 0.14670531E+00 0.26021469E+04</pdfrwt>
<totfact> 0.25033524E+00</totfact>
</mgrwt>
</event>
<event>
 6    1  0.1528034E-005  0.6171363E+03  0.7818608E-02  0.9870478E-01
          2   -1    0    0  501    0  0.00000000000E+00  0.00000000000E+00  0.16587187198E+04  0.16587187198E+04  0.00000000000E+00 0. -1.
         -2   -1    0    0    0  501 -0.00000000000E+00 -0.00000000000E+00 -0.57402325102E+02  0.57402325102E+02  0.00000000000E+00 0.  1.
         23    2    1    2    0    0 -0.91666698595E+02  0.74088279662E+02  0.15906926800E+04  0.15977795047E+04  0.93296766339E+02 0.  0.
         11    1    3    3    0    0 -0.21930918259E+02 -0.22009061599E+02  0.27939361879E+03  0.28111591593E+03  0.00000000000E+00 0.  1.
        -11    1    3    3    0    0 -0.69735780336E+02  0.96097341261E+02  0.13112990612E+04  0.13166635888E+04  0.00000000000E+00 0. -1.
         22    1    1    2    0    0  0.91666698595E+02 -0.74088279662E+02  0.10623714653E+02  0.11834154016E+03  0.00000000000E+00 0.  1.
<mgrwt>
<rscale>  0 0.61713633E+03</rscale>
<asrwt>0</asrwt>
<pdfrwt beam="1">  1        2 0.25518746E+00 0.61713633E+03</pdfrwt>
<pdfrwt beam="2">  1       -2 0.88311282E-02 0.61713633E+03</pdfrwt>
<totfact> 0.88748231E+02</totfact>
</mgrwt>
</event>
<event>
 6    1  0.1528034E-005  0.1075319E+04  0.7818608E-02  0.9229587E-01
          2   -1    0    0  501    0  0.00000000000E+00  0.00000000000E+00  0.29935382783E+04  0.29935382783E+04  0.00000000000E+00 0. -1.
         -2   -1    0    0    0  501 -0.00000000000E+00 -0.00000000000E+00 -0.96567214060E+02  0.96567214060E+02  0.00000000000E+00 0.  1.
         23    2    1    2    0    0 -0.33687825684E+03 -0.28677517803E+03  0.59230804863E+03  0.74336337228E+03  0.77674423728E+02 0.  0.
         11    1    3    3    0    0 -0.16195647762E+03 -0.18821968537E+03  0.31990809853E+03  0.40496634689E+03  0.00000000000E+00 0. -1.
        -11    1    3    3    0    0 -0.17492177922E+03 -0.98555492664E+02  0.27239995010E+03  0.33839702539E+03  0.00000000000E+00 0.  1.
         22    1    1    2    0    0  0.33687825684E+03  0.28677517803E+03  0.23046630157E+04  0.23467421201E+04  0.00000000000E+00 0. -1.
<mgrwt>
<rscale>  0 0.10753188E+04</rscale>
<asrwt>0</asrwt>
<pdfrwt beam="1">  1        2 0.46054428E+00 0.10753188E+04</pdfrwt>
<pdfrwt beam="2">  1       -2 0.14856497E-01 0.10753188E+04</pdfrwt>
<totfact> 0.63617959E+01</totfact>
</mgrwt>
</event>
<event>
 6    1  0.1528034E-005  0.1020325E+04  0.7818608E-02  0.9286529E-01
          2   -1    0    0  501    0  0.00000000000E+00  0.00000000000E+00  0.71231615214E+03  0.71231615214E+03  0.00000000000E+00 0. -1.
         -2   -1    0    0    0  501 -0.00000000000E+00 -0.00000000000E+00 -0.36537983137E+03  0.36537983137E+03  0.00000000000E+00 0.  1.
         23    2    1    2    0    0 -0.26848177397E+03 -0.12293689693E+03  0.60892373896E+03  0.68293865188E+03  0.91766762967E+02 0.  0.
         13    1    3    3    0    0 -0.82997471041E+02 -0.41851340253E+02  0.10703484946E+03  0.14176238528E+03  0.00000000000E+00 0.  1.
        -13    1    3    3    0    0 -0.18548430292E+03 -0.81085556677E+02  0.50188888950E+03  0.54117626661E+03  0.00000000000E+00 0. -1.
         22    1    1    2    0    0  0.26848177397E+03  0.12293689693E+03 -0.26198741819E+03  0.39475733162E+03  0.00000000000E+00 0.  1.
<mgrwt>
<rscale>  0 0.10203254E+04</rscale>
<asrwt>0</asrwt>
<pdfrwt beam="1">  1        2 0.10958710E+00 0.10203254E+04</pdfrwt>
<pdfrwt beam="2">  1       -2 0.56212282E-01 0.10203254E+04</pdfrwt>
<totfact> 0.11877417E+02</totfact>
</mgrwt>
</event>
<event>
 6    1  0.1528034E-005  0.1185891E+04  0.7818608E-02  0.9125296E-01
         -1   -1    0    0    0  501 -0.00000000000E+00  0.00000000000E+00  0.30094537831E+03  0.30094537831E+03  0.00000000000E+00 0. -1.
          1   -1    0    0  501    0  0.00000000000E+00 -0.00000000000E+00 -0.11682668864E+04  0.11682668864E+04  0.00000000000E+00 0.  1.
         23    2    1    2    0    0  0.40946166872E+03  0.52319813826E+02  0.85171568777E+02  0.43111820223E+03  0.90622773603E+02 0.  0.
         11    1    3    3    0    0  0.27499081409E+03  0.76541184046E+02  0.47347020321E+02  0.28934450232E+03  0.00000000000E+00 0.  1.
        -11    1    3    3    0    0  0.13447085463E+03 -0.24221370220E+02  0.37824548456E+02  0.14177369991E+03  0.00000000000E+00 0. -1.
         22    1    1    2    0    0 -0.40946166872E+03 -0.52319813826E+02 -0.95249307689E+03  0.10380940625E+04  0.00000000000E+00 0.  1.
<mgrwt>
<rscale>  0 0.11858913E+04</rscale>
<asrwt>0</asrwt>
<pdfrwt beam="1">  1        1 0.17973337E+00 0.11858913E+04</pdfrwt>
<pdfrwt beam="2">  1       -1 0.46299288E-01 0.11858913E+04</pdfrwt>
<totfact> 0.51843934E+01</totfact>
</mgrwt>
</event>
<event>
 6    1  0.1528034E-005  0.3854667E+04  0.7818608E-02  0.8034524E-01
         -4   -1    0    0    0  501 -0.00000000000E+00  0.00000000000E+00  0.30170066680E+04  0.30170066680E+04  0.00000000000E+00 0.  1.
          4   -1    0    0  501    0  0.00000000000E+00 -0.00000000000E+00 -0.12312254309E+04  0.12312254309E+04  0.00000000000E+00 0. -1.
         23    2    1    2    0    0  0.40637069271E+03 -0.71122320846E+03 -0.10280218184E+04  0.13176241027E+04  0.91262395098E+02 0.  0.
         11    1    3    3    0    0  0.27855821402E+03 -0.56445188457E+03 -0.79516928402E+03  0.10141473260E+04  0.00000000000E+00 0. -1.
        -11    1    3    3    0    0  0.12781247869E+03 -0.14677132389E+03 -0.23285253436E+03  0.30347677667E+03  0.00000000000E+00 0.  1.
         22    1    1    2    0    0 -0.40637069271E+03  0.71122320846E+03  0.28138030555E+04  0.29306079962E+04  0.00000000000E+00 0.  1.
<mgrwt>
<rscale>  0 0.38546675E+04</rscale>
<asrwt>0</asrwt>
<pdfrwt beam="1">  1        4 0.18941930E+00 0.38546675E+04</pdfrwt>
<pdfrwt beam="2">  1       -4 0.46415487E+00 0.38546675E+04</pdfrwt>
<totfact> 0.55981863E-04</totfact>
</mgrwt>
</event>
<event>
 6    1  0.1528034E-005  0.9823886E+03  0.7818608E-02  0.9328074E-01
         -1   -1    0    0    0  501 -0.00000000000E+00  0.00000000000E+00  0.17216525099E+03  0.17216525099E+03  0.00000000000E+00 0.  1.
          1   -1    0    0  501    0  0.00000000000E+00 -0.00000000000E+00 -0.14013967895E+04  0.14013967895E+04  0.00000000000E+00 0. -1.
         23    2    1    2    0    0  0.45729070454E+03  0.49303683995E+02 -0.87585780709E+03  0.99354597539E+03  0.91984048871E+02 0.  0.
         11    1    3    3    0    0  0.12165711186E+03  0.54295134526E+02 -0.26048905449E+03  0.29257983869E+03  0.00000000000E+00 0. -1.
        -11    1    3    3    0    0  0.33563359268E+03 -0.49914505309E+01 -0.61536875260E+03  0.70096613669E+03  0.00000000000E+00 0.  1.
         22    1    1    2    0    0 -0.45729070454E+03 -0.49303683995E+02 -0.35337373139E+03  0.58001606508E+03  0.00000000000E+00 0.  1.
<mgrwt>
<rscale>  0 0.98238858E+03</rscale>
<asrwt>0</asrwt>
<pdfrwt beam="1">  1        1 0.21559951E+00 0.98238858E+03</pdfrwt>
<pdfrwt beam="2">  1       -1 0.26486961E-01 0.98238858E+03</pdfrwt>
<totfact> 0.97498110E+01</totfact>
</mgrwt>
</event>
<event>
 6    1  0.1528034E-005  0.5883581E+03  0.7818608E-02  0.9929858E-01
         -2   -1    0    0    0  501 -0.00000000000E+00  0.00000000000E+00  0.25881802347E+02  0.25881802347E+02  0.00000000000E+00 0.  1.
          2   -1    0    0  501    0  0.00000000000E+00 -0.00000000000E+00 -0.33437124419E+04  0.33437124419E+04  0.00000000000E+00 0. -1.
         23    2    1    2    0    0 -0.23187101849E+03  0.64438147505E+02 -0.25953796735E+04  0.26081142101E+04  0.91365415659E+02 0.  0.
         11    1    3    3    0    0 -0.11205172942E+03  0.94356096921E+01 -0.16148992904E+04  0.16188095437E+04  0.00000000000E+00 0.  1.
        -11    1    3    3    0    0 -0.11981928906E+03  0.55002537813E+02 -0.98048038314E+03  0.98930466638E+03  0.00000000000E+00 0. -1.
         22    1    1    2    0    0  0.23187101849E+03 -0.64438147505E+02 -0.72245096599E+03  0.76148003409E+03  0.00000000000E+00 0.  1.
<mgrwt>
<rscale>  0 0.58835807E+03</rscale>
<asrwt>0</asrwt>
<pdfrwt beam="1">  1        2 0.51441706E+00 0.58835807E+03</pdfrwt>
<pdfrwt beam="2">  1       -2 0.39818176E-02 0.58835807E+03</pdfrwt>
<totfact> 0.33359435E+02</totfact>
</mgrwt>
</event>
<event>
 6    1  0.1528034E-005  0.1884061E+04  0.7818608E-02  0.8662831E-01
          2   -1    0    0  501    0  0.00000000000E+00  0.00000000000E+00  0.21426143838E+04  0.21426143838E+04  0.00000000000E+00 0. -1.
         -2   -1    0    0    0  501 -0.00000000000E+00 -0.00000000000E+00 -0.41417711643E+03  0.41417711643E+03  0.00000000000E+00 0.  1.
         23    2    1    2    0    0 -0.84523067367E+03  0.20338492679E+03  0.13506936084E+04  0.16089146137E+04  0.91938512523E+02 0.  0.
         11    1    3    3    0    0 -0.48939906871E+03  0.85521062143E+02  0.70855844868E+03  0.86537874697E+03  0.00000000000E+00 0. -1.
        -11    1    3    3    0    0 -0.35583160496E+03  0.11786386465E+03  0.64213515977E+03  0.74353586672E+03  0.00000000000E+00 0.  1.
         22    1    1    2    0    0  0.84523067367E+03 -0.20338492679E+03  0.37774365892E+03  0.94787688653E+03  0.00000000000E+00 0.  1.
<mgrwt>
<rscale>  0 0.18840614E+04</rscale>
<asrwt>0</asrwt>
<pdfrwt beam="1">  1        2 0.32963298E+00 0.18840614E+04</pdfrwt>
<pdfrwt beam="2">  1       -2 0.63719557E-01 0.18840614E+04</pdfrwt>
<totfact> 0.11884397E+01</totfact>
</mgrwt>
</event>
<event>
 6    1  0.1528034E-005  0.5539393E+03  0.7818608E-02  0.1000586E+00
          1   -1    0    0  501    0  0.00000000000E+00  0.00000000000E+00  0.87430157377E+02  0.87430157377E+02  0.00000000000E+00 0. -1.
         -1   -1    0    0    0  501 -0.00000000000E+00 -0.00000000000E+00 -0.87741112174E+03  0.87741112174E+03  0.00000000000E+00 0.  1.
         23    2    1    2    0    0  0.83677222905E+02 -0.22173769712E+03 -0.62849854787E+03  0.67805554936E+03  0.92625155246E+02 0.  0.
         13    1    3    3    0    0  0.10240458849E+03 -0.18642205564E+03 -0.55551677248E+03  0.59484348116E+03  0.00000000000E+00 0. -1.
        -13    1    3    3    0    0 -0.18727365583E+02 -0.35315641478E+02 -0.72981775394E+02  0.83212068201E+02  0.00000000000E+00 0.  1.
         22    1    1    2    0    0 -0.83677222905E+02  0.22173769712E+03 -0.16148241649E+03  0.28678572976E+03  0.00000000000E+00 0. -1.
<mgrwt>
<rscale>  0 0.55393932E+03</rscale>
<asrwt>0</asrwt>
<pdfrwt beam="1">  1        1 0.13450793E-01 0.55393932E+03</pdfrwt>
<pdfrwt beam="2">  1       -1 0.13498633E+00 0.55393932E+03</pdfrwt>
<totfact> 0.21064956E+02</totfact>
</mgrwt>
</event>
<event>
 6    1  0.1528034E-005  0.1189534E+04  0.7818608E-02  0.9122067E-01
         -1   -1    0    0    0  501 -0.00000000000E+00  0.00000000000E+00  0.54009181788E+03  0.54009181788E+03  0.00000000000E+00 0.  1.
          1   -1    0    0  501    0  0.00000000000E+00 -0.00000000000E+00 -0.65497663448E+03  0.65497663448E+03  0.00000000000E+00 0. -1.
         23    2    1    2    0    0 -0.12668831076E+03 -0.92461828669E+02  0.51502738799E+03  0.54592401285E+03  0.90447219859E+02 0.  0.
         13    1    3    3    0    0 -0.12177392020E+03 -0.86440583773E+02  0.34765575971E+03  0.37837202516E+03  0.00000000000E+00 0.  1.
        -13    1    3    3    0    0 -0.49143905556E+01 -0.60212448964E+01  0.16737162829E+03  0.16755198770E+03  0.00000000000E+00 0. -1.
         22    1    1    2    0    0  0.12668831076E+03  0.92461828669E+02 -0.62991220459E+03  0.64914443950E+03  0.00000000000E+00 0. -1.
<mgrwt>
<rscale>  0 0.11895336E+04</rscale>
<asrwt>0</asrwt>
<pdfrwt beam="1">  1        1 0.10076564E+00 0.11895336E+04</pdfrwt>
<pdfrwt beam="2">  1       -1 0.83091049E-01 0.11895336E+04</pdfrwt>
<totfact> 0.42914297E+01</totfact>
</mgrwt>
</event>
<event>
 6    1  0.1528034E-005  0.5294734E+04  0.7818608E-02  0.7784583E-01
         -1   -1    0    0    0  501 -0.00000000000E+00  0.00000000000E+00  0.26633550762E+04  0.26633550762E+04  0.00000000000E+00 0.  1.
          1   -1    0    0  501    0  0.00000000000E+00 -0.00000000000E+00 -0.26314753847E+04  0.26314753847E+04  0.00000000000E+00 0. -1.
         23    2    1    2    0    0 -0.21853788093E+04 -0.10603667111E+04 -0.10348459087E+04  0.26418770863E+04  0.91380427382E+02 0.  0.
         13    1    3    3    0    0 -0.91588941073E+03 -0.48558130414E+03 -0.46959560510E+03  0.11380521288E+04  0.00000000000E+00 0. -1.
        -13    1    3    3    0    0 -0.12694893986E+04 -0.57478540693E+03 -0.56525030356E+03  0.15038249575E+04  0.00000000000E+00 0.  1.
         22    1    1    2    0    0  0.21853788093E+04  0.10603667111E+04  0.10667256001E+04  0.26529533746E+04  0.00000000000E+00 0.  1.
<mgrwt>
<rscale>  0 0.52947345E+04</rscale>
<asrwt>0</asrwt>
<pdfrwt beam="1">  1        1 0.40484237E+00 0.52947345E+04</pdfrwt>
<pdfrwt beam="2">  1       -1 0.40974693E+00 0.52947345E+04</pdfrwt>
<totfact> 0.47497412E-03</totfact>
</mgrwt>
</event>
<event>
 6    1  0.1528034E-005  0.6156222E+03  0.7818608E-02  0.9873515E-01
          3   -1    0    0  501    0  0.00000000000E+00  0.00000000000E+00  0.53551088127E+03  0.53551088127E+03  0.00000000000E+00 0. -1.
         -3   -1    0    0    0  501 -0.00000000000E+00 -0.00000000000E+00 -0.17692949933E+03  0.17692949933E+03  0.00000000000E+00 0.  1.
         23    2    1    2    0    0 -0.72987481779E+02 -0.28870693640E+03  0.23463412532E+03  0.38988528446E+03  0.90986233290E+02 0.  0.
         11    1    3    3    0    0 -0.67031879665E+02 -0.15553809572E+03  0.85047290258E+02  0.18952153886E+03  0.00000000000E+00 0. -1.
        -11    1    3    3    0    0 -0.59556021139E+01 -0.13316884068E+03  0.14958683507E+03  0.20036374559E+03  0.00000000000E+00 0.  1.
         22    1    1    2    0    0  0.72987481779E+02  0.28870693640E+03  0.12394725661E+03  0.32255509614E+03  0.00000000000E+00 0.  1.
<mgrwt>
<rscale>  0 0.61562220E+03</rscale>
<asrwt>0</asrwt>
<pdfrwt beam="1">  1        3 0.82386288E-01 0.61562220E+03</pdfrwt>
<pdfrwt beam="2">  1       -3 0.27219923E-01 0.61562220E+03</pdfrwt>
<totfact> 0.46699529E+01</totfact>
</mgrwt>
</event>
<event>
 6    1  0.1528034E-005  0.2087064E+04  0.7818608E-02  0.8566963E-01
          1   -1    0    0  501    0  0.00000000000E+00  0.00000000000E+00  0.18450859652E+04  0.18450859652E+04  0.00000000000E+00 0. -1.
         -1   -1    0    0    0  501 -0.00000000000E+00 -0.00000000000E+00 -0.59019429503E+03  0.59019429503E+03  0.00000000000E+00 0.  1.
         23    2    1    2    0    0  0.89927383346E+03 -0.28761264916E+03  0.11425151166E+04  0.14844685264E+04  0.83015363508E+02 0.  0.
         13    1    3    3    0    0  0.47970011042E+03 -0.16764183456E+03  0.55310647158E+03  0.75109436794E+03  0.00000000000E+00 0. -1.
        -13    1    3    3    0    0  0.41957372304E+03 -0.11997081459E+03  0.58940864504E+03  0.73337415844E+03  0.00000000000E+00 0.  1.
         22    1    1    2    0    0 -0.89927383346E+03  0.28761264916E+03  0.11237655357E+03  0.95081173389E+03  0.00000000000E+00 0.  1.
<mgrwt>
<rscale>  0 0.20870642E+04</rscale>
<asrwt>0</asrwt>
<pdfrwt beam="1">  1        1 0.28385938E+00 0.20870642E+04</pdfrwt>
<pdfrwt beam="2">  1       -1 0.90799123E-01 0.20870642E+04</pdfrwt>
<totfact> 0.41399402E+00</totfact>
</mgrwt>
</event>
<event>
 6    1  0.1528034E-005  0.2331167E+04  0.7818608E-02  0.8465733E-01
         -2   -1    0    0    0  501 -0.00000000000E+00  0.00000000000E+00  0.17780364772E+04  0.17780364772E+04  0.00000000000E+00 0.  1.
          2   -1    0    0  501    0  0.00000000000E+00 -0.00000000000E+00 -0.76409265766E+03  0.76409265766E+03  0.00000000000E+00 0. -1.
         23    2    1    2    0    0 -0.23256937456E+03 -0.47012720932E+02  0.17501947714E+04  0.17685891075E+04  0.91798602095E+02 0.  0.
         11    1    3    3    0    0 -0.55587360518E+02  0.48398814752E+01  0.70862488329E+03  0.71081826392E+03  0.00000000000E+00 0.  1.
        -11    1    3    3    0    0 -0.17698201404E+03 -0.51852602407E+02  0.10415698881E+04  0.10577708436E+04  0.00000000000E+00 0. -1.
         22    1    1    2    0    0  0.23256937456E+03  0.47012720932E+02 -0.73625095184E+03  0.77354002740E+03  0.00000000000E+00 0. -1.
<mgrwt>
<rscale>  0 0.23311668E+04</rscale>
<asrwt>0</asrwt>
<pdfrwt beam="1">  1        2 0.11755272E+00 0.23311668E+04</pdfrwt>
<pdfrwt beam="2">  1       -2 0.27354407E+00 0.23311668E+04</pdfrwt>
<totfact> 0.15262363E+00</totfact>
</mgrwt>
</event>
<event>
 6    1  0.1528034E-005  0.1630852E+04  0.7818608E-02  0.8801816E-01
         -2   -1    0    0    0  501 -0.00000000000E+00  0.00000000000E+00  0.31738240438E+03  0.31738240438E+03  0.00000000000E+00 0.  1.
          2   -1    0    0  501    0  0.00000000000E+00 -0.00000000000E+00 -0.20950096399E+04  0.20950096399E+04  0.00000000000E+00 0. -1.
         23    2    1    2    0    0  0.74365955477E+03  0.98091874681E+02 -0.13549394787E+04  0.15513946639E+04  0.91174902508E+02 0.  0.
         13    1    3    3    0    0  0.42581685058E+03  0.97341082961E+02 -0.74504260166E+03  0.86364561885E+03  0.00000000000E+00 0. -1.
        -13    1    3    3    0    0  0.31784270419E+03  0.75079171972E+00 -0.60989687706E+03  0.68774904503E+03  0.00000000000E+00 0.  1.
         22    1    1    2    0    0 -0.74365955477E+03 -0.98091874681E+02 -0.42268775679E+03  0.86099738038E+03  0.00000000000E+00 0.  1.
<mgrwt>
<rscale>  0 0.16308516E+04</rscale>
<asrwt>0</asrwt>
<pdfrwt beam="1">  1        2 0.32230918E+00 0.16308516E+04</pdfrwt>
<pdfrwt beam="2">  1       -2 0.48828061E-01 0.16308516E+04</pdfrwt>
<totfact> 0.22478704E+01</totfact>
</mgrwt>
</event>
<event>
 6    1  0.1528034E-005  0.1516654E+04  0.7818608E-02  0.8873453E-01
         -2   -1    0    0    0  501 -0.00000000000E+00  0.00000000000E+00  0.35067595988E+03  0.35067595988E+03  0.00000000000E+00 0.  1.
          2   -1    0    0  501    0  0.00000000000E+00 -0.00000000000E+00 -0.16398599815E+04  0.16398599815E+04  0.00000000000E+00 0. -1.
         23    2    1    2    0    0  0.73299482450E+03  0.15527064578E+03 -0.50323178517E+03  0.90466702473E+03  0.61561431434E+02 0.  0.
         11    1    3    3    0    0  0.58010218358E+03  0.14182447565E+03 -0.41977588084E+03  0.72996199588E+03  0.00000000000E+00 0.  1.
        -11    1    3    3    0    0  0.15289264092E+03  0.13446170130E+02 -0.83455904325E+02  0.17470502885E+03  0.00000000000E+00 0. -1.
         22    1    1    2    0    0 -0.73299482450E+03 -0.15527064578E+03 -0.78595223648E+03  0.10858689167E+04  0.00000000000E+00 0. -1.
<mgrwt>
<rscale>  0 0.15166535E+04</rscale>
<asrwt>0</asrwt>
<pdfrwt beam="1">  1        2 0.25228615E+00 0.15166535E+04</pdfrwt>
<pdfrwt beam="2">  1       -2 0.53950147E-01 0.15166535E+04</pdfrwt>
<totfact> 0.33076857E+01</totfact>
</mgrwt>
</event>
<event>
 6    1  0.1528034E-005  0.4467666E+04  0.7818608E-02  0.7916322E-01
          2   -1    0    0  501    0  0.00000000000E+00  0.00000000000E+00  0.29247667840E+04  0.29247667840E+04  0.00000000000E+00 0. -1.
         -2   -1    0    0    0  501 -0.00000000000E+00 -0.00000000000E+00 -0.17061223892E+04  0.17061223892E+04  0.00000000000E+00 0.  1.
         23    2    1    2    0    0 -0.61692851133E+03 -0.17623097356E+04  0.18788530809E+04  0.26504316752E+04  0.91448198225E+02 0.  0.
         13    1    3    3    0    0 -0.10358755487E+03 -0.31603855920E+03  0.28730102917E+03  0.43949133528E+03  0.00000000000E+00 0. -1.
        -13    1    3    3    0    0 -0.51334095646E+03 -0.14462711764E+04  0.15915520518E+04  0.22109403399E+04  0.00000000000E+00 0.  1.
         22    1    1    2    0    0  0.61692851133E+03  0.17623097356E+04 -0.66020868620E+03  0.19804574980E+04  0.00000000000E+00 0.  1.
<mgrwt>
<rscale>  0 0.44676661E+04</rscale>
<asrwt>0</asrwt>
<pdfrwt beam="1">  1        2 0.44996412E+00 0.44676661E+04</pdfrwt>
<pdfrwt beam="2">  1       -2 0.26248037E+00 0.44676661E+04</pdfrwt>
<totfact> 0.79353892E-02</totfact>
</mgrwt>
</event>
<event>
 6    1  0.1528034E-005  0.2037968E+04  0.7818608E-02  0.8589072E-01
          1   -1    0    0  501    0  0.00000000000E+00  0.00000000000E+00  0.11265215467E+04  0.11265215467E+04  0.00000000000E+00 0. -1.
         -1   -1    0    0    0  501 -0.00000000000E+00 -0.00000000000E+00 -0.92171190574E+03  0.92171190574E+03  0.00000000000E+00 0.  1.
         23    2    1    2    0    0  0.48791825301E+03 -0.21634255764E+03  0.97267293359E+03  0.11130958368E+04  0.89562170650E+02 0.  0.
         11    1    3    3    0    0  0.27497325227E+03 -0.10098452699E+03  0.44861286552E+03  0.53578136144E+03  0.00000000000E+00 0. -1.
        -11    1    3    3    0    0  0.21294500074E+03 -0.11535803065E+03  0.52406006806E+03  0.57731447541E+03  0.00000000000E+00 0.  1.
         22    1    1    2    0    0 -0.48791825301E+03  0.21634255764E+03 -0.76786329265E+03  0.93513761557E+03  0.00000000000E+00 0.  1.
<mgrwt>
<rscale>  0 0.20379679E+04</rscale>
<asrwt>0</asrwt>
<pdfrwt beam="1">  1        1 0.17331101E+00 0.20379679E+04</pdfrwt>
<pdfrwt beam="2">  1       -1 0.14180183E+00 0.20379679E+04</pdfrwt>
<totfact> 0.45389792E+00</totfact>
</mgrwt>
</event>
<event>
 6    1  0.1528034E-005  0.1715047E+04  0.7818608E-02  0.8752829E-01
         -2   -1    0    0    0  501 -0.00000000000E+00  0.00000000000E+00  0.28157281717E+03  0.28157281717E+03  0.00000000000E+00 0.  1.
          2   -1    0    0  501    0  0.00000000000E+00 -0.00000000000E+00 -0.26115680050E+04  0.26115680050E+04  0.00000000000E+00 0. -1.
         23    2    1    2    0    0  0.68772541432E+03  0.17160681763E+03 -0.36162892672E+03  0.80104118706E+03  0.92067135127E+02 0.  0.
         11    1    3    3    0    0  0.40012017512E+03  0.90592299697E+02 -0.15882595543E+03  0.43991908736E+03  0.00000000000E+00 0. -1.
        -11    1    3    3    0    0  0.28760523919E+03  0.81014517929E+02 -0.20280297129E+03  0.36112209970E+03  0.00000000000E+00 0.  1.
         22    1    1    2    0    0 -0.68772541432E+03 -0.17160681763E+03 -0.19683662612E+04  0.20920996352E+04  0.00000000000E+00 0. -1.
<mgrwt>
<rscale>  0 0.17150470E+04</rscale>
<asrwt>0</asrwt>
<pdfrwt beam="1">  1        2 0.40177971E+00 0.17150470E+04</pdfrwt>
<pdfrwt beam="2">  1       -2 0.43318893E-01 0.17150470E+04</pdfrwt>
<totfact> 0.14418246E+01</totfact>
</mgrwt>
</event>
<event>
 6    1  0.1528034E-005  0.2046593E+04  0.7818608E-02  0.8585142E-01
          1   -1    0    0  501    0  0.00000000000E+00  0.00000000000E+00  0.51542002229E+03  0.51542002229E+03  0.00000000000E+00 0. -1.
         -1   -1    0    0    0  501 -0.00000000000E+00 -0.00000000000E+00 -0.20316159847E+04  0.20316159847E+04  0.00000000000E+00 0.  1.
         23    2    1    2    0    0  0.79380647903E+02  0.35549641464E+02 -0.20259807702E+04  0.20298845644E+04  0.90929639787E+02 0.  0.
         13    1    3    3    0    0 -0.20644470737E+01 -0.10365510401E+02 -0.88999268514E+03  0.89005543948E+03  0.00000000000E+00 0. -1.
        -13    1    3    3    0    0  0.81445094976E+02  0.45915151865E+02 -0.11359880851E+04  0.11398291250E+04  0.00000000000E+00 0.  1.
         22    1    1    2    0    0 -0.79380647903E+02 -0.35549641464E+02  0.50978480780E+03  0.51715144255E+03  0.00000000000E+00 0. -1.
<mgrwt>
<rscale>  0 0.20465928E+04</rscale>
<asrwt>0</asrwt>
<pdfrwt beam="1">  1        1 0.79295387E-01 0.20465928E+04</pdfrwt>
<pdfrwt beam="2">  1       -1 0.31255631E+00 0.20465928E+04</pdfrwt>
<totfact> 0.10753453E+00</totfact>
</mgrwt>
</event>
<event>
 6    1  0.2377160E-005  0.2845470E+04  0.7818608E-02  0.8289289E-01
         -1   -1    0    0    0  501 -0.00000000000E+00  0.00000000000E+00  0.15326163873E+04  0.15326163873E+04  0.00000000000E+00 0.  1.
          1   -1    0    0  501    0  0.00000000000E+00 -0.00000000000E+00 -0.13207314658E+04  0.13207314658E+04  0.00000000000E+00 0. -1.
         23    2    1    2    0    0 -0.11149779937E+04  0.92938956264E+02  0.98538322741E+03  0.14931591879E+04  0.82040717595E+02 0.  0.
         13    1    3    3    0    0 -0.34280202690E+03  0.57101576892E+02  0.33950090685E+03  0.48583401022E+03  0.00000000000E+00 0.  1.
        -13    1    3    3    0    0 -0.77217596681E+03  0.35837379373E+02  0.64588232056E+03  0.10073251776E+04  0.00000000000E+00 0. -1.
         22    1    1    2    0    0  0.11149779937E+04 -0.92938956264E+02 -0.77349830591E+03  0.13601886653E+04  0.00000000000E+00 0. -1.
<mgrwt>
<rscale>  0 0.28454699E+04</rscale>
<asrwt>0</asrwt>
<pdfrwt beam="1">  1        1 0.20318946E+00 0.28454699E+04</pdfrwt>
<pdfrwt beam="2">  1       -1 0.23578714E+00 0.28454699E+04</pdfrwt>
<totfact> 0.65156327E-01</totfact>
</mgrwt>
</event>
<event>
 6    1  0.1528034E-005  0.3899676E+04  0.7818608E-02  0.8025096E-01
          1   -1    0    0  501    0  0.00000000000E+00  0.00000000000E+00  0.32266322737E+04  0.32266322737E+04  0.00000000000E+00 0. -1.
         -1   -1    0    0    0  501 -0.00000000000E+00 -0.00000000000E+00 -0.11782777928E+04  0.11782777928E+04  0.00000000000E+00 0.  1.
         23    2    1    2    0    0 -0.13770465479E+04  0.19040442405E+03  0.25673675065E+04  0.29210348829E+04  0.92508562503E+02 0.  0.
         13    1    3    3    0    0 -0.49882686743E+03  0.25283931506E+02  0.94096200282E+03  0.10653060648E+04  0.00000000000E+00 0.  1.
        -13    1    3    3    0    0 -0.87821968047E+03  0.16512049255E+03  0.16264055037E+04  0.18557288182E+04  0.00000000000E+00 0. -1.
         22    1    1    2    0    0  0.13770465479E+04 -0.19040442405E+03 -0.51901302553E+03  0.14838751836E+04  0.00000000000E+00 0.  1.
<mgrwt>
<rscale>  0 0.38996765E+04</rscale>
<asrwt>0</asrwt>
<pdfrwt beam="1">  1        1 0.49640496E+00 0.38996765E+04</pdfrwt>
<pdfrwt beam="2">  1       -1 0.18127351E+00 0.38996765E+04</pdfrwt>
<totfact> 0.65205700E-02</totfact>
</mgrwt>
</event>
<event>
 6    1  0.1528034E-005  0.6167778E+03  0.7818608E-02  0.9871196E-01
         -2   -1    0    0    0  501 -0.00000000000E+00  0.00000000000E+00  0.72890224675E+02  0.72890224675E+02  0.00000000000E+00 0.  1.
          2   -1    0    0  501    0  0.00000000000E+00 -0.00000000000E+00 -0.13047528235E+04  0.13047528235E+04  0.00000000000E+00 0. -1.
         23    2    1    2    0    0 -0.25123810751E+03 -0.52681189481E+01 -0.10020198248E+04  0.10370904964E+04  0.91458343986E+02 0.  0.
         13    1    3    3    0    0 -0.21076412090E+03  0.25268721844E+02 -0.72366791635E+03  0.75415865447E+03  0.00000000000E+00 0. -1.
        -13    1    3    3    0    0 -0.40473986616E+02 -0.30536840792E+02 -0.27835190845E+03  0.28293184193E+03  0.00000000000E+00 0.  1.
         22    1    1    2    0    0  0.25123810751E+03  0.52681189481E+01 -0.22984277400E+03  0.34055255175E+03  0.00000000000E+00 0. -1.
<mgrwt>
<rscale>  0 0.61677784E+03</rscale>
<asrwt>0</asrwt>
<pdfrwt beam="1">  1        2 0.20073121E+00 0.61677784E+03</pdfrwt>
<pdfrwt beam="2">  1       -2 0.11213880E-01 0.61677784E+03</pdfrwt>
<totfact> 0.94759376E+02</totfact>
</mgrwt>
</event>
<event>
 6    1  0.1528034E-005  0.1780363E+04  0.7818608E-02  0.8716813E-01
         -1   -1    0    0    0  501 -0.00000000000E+00  0.00000000000E+00  0.57205478891E+03  0.57205478891E+03  0.00000000000E+00 0.  1.
          1   -1    0    0  501    0  0.00000000000E+00 -0.00000000000E+00 -0.13852220516E+04  0.13852220516E+04  0.00000000000E+00 0. -1.
         23    2    1    2    0    0  0.13590377999E+03  0.20618929800E+03 -0.13451742303E+04  0.13707486846E+04  0.92056408390E+02 0.  0.
         11    1    3    3    0    0  0.22691058101E+02  0.58230887844E+02 -0.57388729367E+03  0.57728012806E+03  0.00000000000E+00 0. -1.
        -11    1    3    3    0    0  0.11321272189E+03  0.14795841016E+03 -0.77128693667E+03  0.79346855653E+03  0.00000000000E+00 0.  1.
         22    1    1    2    0    0 -0.13590377999E+03 -0.20618929800E+03  0.53200696766E+03  0.58652815591E+03  0.00000000000E+00 0.  1.
<mgrwt>
<rscale>  0 0.17803628E+04</rscale>
<asrwt>0</asrwt>
<pdfrwt beam="1">  1        1 0.21311109E+00 0.17803628E+04</pdfrwt>
<pdfrwt beam="2">  1       -1 0.88008429E-01 0.17803628E+04</pdfrwt>
<totfact> 0.94383977E+00</totfact>
</mgrwt>
</event>
<event>
 6    1  0.1528034E-005  0.3692024E+04  0.7818608E-02  0.8069732E-01
          2   -1    0    0  501    0  0.00000000000E+00  0.00000000000E+00  0.15136994309E+04  0.15136994309E+04  0.00000000000E+00 0. -1.
         -2   -1    0    0    0  501 -0.00000000000E+00 -0.00000000000E+00 -0.22512791427E+04  0.22512791427E+04  0.00000000000E+00 0.  1.
         23    2    1    2    0    0 -0.11275051950E+04  0.16394477036E+03  0.11108788841E+04  0.15935861555E+04  0.85551664356E+02 0.  0.
         11    1    3    3    0    0 -0.83351882830E+03  0.11643781535E+03  0.76701696529E+03  0.11386950544E+04  0.00000000000E+00 0. -1.
        -11    1    3    3    0    0 -0.29398636668E+03  0.47506955008E+02  0.34386191882E+03  0.45489110102E+03  0.00000000000E+00 0.  1.
         22    1    1    2    0    0  0.11275051950E+04 -0.16394477036E+03 -0.18484585960E+04  0.21713924181E+04  0.00000000000E+00 0.  1.
<mgrwt>
<rscale>  0 0.36920238E+04</rscale>
<asrwt>0</asrwt>
<pdfrwt beam="1">  1        2 0.23287684E+00 0.36920238E+04</pdfrwt>
<pdfrwt beam="2">  1       -2 0.34635063E+00 0.36920238E+04</pdfrwt>
<totfact> 0.16540745E-01</totfact>
</mgrwt>
</event>
<event>
 6    1  0.1528034E-005  0.5810690E+03  0.7818608E-02  0.9945479E-01
          2   -1    0    0  501    0  0.00000000000E+00  0.00000000000E+00  0.15604934580E+04  0.15604934580E+04  0.00000000000E+00 0. -1.
         -2   -1    0    0    0  501 -0.00000000000E+00 -0.00000000000E+00 -0.54092049758E+02  0.54092049758E+02  0.00000000000E+00 0.  1.
         23    2    1    2    0    0  0.55323422789E+02  0.13118228730E+03  0.14526437516E+04  0.14624035139E+04  0.90447193569E+02 0.  0.
         13    1    3    3    0    0  0.37900042873E+02  0.34200615698E+01  0.42535478547E+03  0.42705363082E+03  0.00000000000E+00 0.  1.
        -13    1    3    3    0    0  0.17423379916E+02  0.12776222573E+03  0.10272889661E+04  0.10353498831E+04  0.00000000000E+00 0. -1.
         22    1    1    2    0    0 -0.55323422789E+02 -0.13118228730E+03  0.53757656672E+02  0.15218199388E+03  0.00000000000E+00 0.  1.
<mgrwt>
<rscale>  0 0.58106898E+03</rscale>
<asrwt>0</asrwt>
<pdfrwt beam="1">  1        2 0.24007588E+00 0.58106898E+03</pdfrwt>
<pdfrwt beam="2">  1       -2 0.83218550E-02 0.58106898E+03</pdfrwt>
<totfact> 0.11064935E+03</totfact>
</mgrwt>
</event>
<event>
 6    1  0.1528034E-005  0.2392672E+04  0.7818608E-02  0.8442252E-01
         -1   -1    0    0    0  501 -0.00000000000E+00  0.00000000000E+00  0.14408371052E+04  0.14408371052E+04  0.00000000000E+00 0.  1.
          1   -1    0    0  501    0  0.00000000000E+00 -0.00000000000E+00 -0.99332480560E+03  0.99332480560E+03  0.00000000000E+00 0. -1.
         23    2    1    2    0    0  0.58318338497E+03 -0.23866414311E+03  0.12565070326E+04  0.14087176600E+04  0.92801340959E+02 0.  0.
         11    1    3    3    0    0  0.45621834362E+03 -0.21176423926E+03  0.92871704598E+03  0.10561697882E+04  0.00000000000E+00 0.  1.
        -11    1    3    3    0    0  0.12696504135E+03 -0.26899903850E+02  0.32778998659E+03  0.35254787173E+03  0.00000000000E+00 0. -1.
         22    1    1    2    0    0 -0.58318338497E+03  0.23866414311E+03 -0.80899473294E+03  0.10254442509E+04  0.00000000000E+00 0. -1.
<mgrwt>
<rscale>  0 0.23926715E+04</rscale>
<asrwt>0</asrwt>
<pdfrwt beam="1">  1        1 0.15281920E+00 0.23926715E+04</pdfrwt>
<pdfrwt beam="2">  1       -1 0.22166725E+00 0.23926715E+04</pdfrwt>
<totfact> 0.14728122E+00</totfact>
</mgrwt>
</event>
<event>
 6    1  0.1528034E-005  0.1629209E+04  0.7818608E-02  0.8802802E-01
         -1   -1    0    0    0  501 -0.00000000000E+00  0.00000000000E+00  0.10635520075E+04  0.10635520075E+04  0.00000000000E+00 0.  1.
          1   -1    0    0  501    0  0.00000000000E+00 -0.00000000000E+00 -0.62392834118E+03  0.62392834118E+03  0.00000000000E+00 0. -1.
         23    2    1    2    0    0  0.10389540137E+03  0.54517939456E+03 -0.39334068201E+03  0.68655855740E+03  0.92902819842E+02 0.  0.
         11    1    3    3    0    0  0.28718429394E+02  0.32079523096E+02 -0.42151491354E+02  0.60254395792E+02  0.00000000000E+00 0.  1.
        -11    1    3    3    0    0  0.75176971977E+02  0.51309987146E+03 -0.35118919066E+03  0.62630416161E+03  0.00000000000E+00 0. -1.
         22    1    1    2    0    0 -0.10389540137E+03 -0.54517939456E+03  0.83296434834E+03  0.10009217913E+04  0.00000000000E+00 0.  1.
<mgrwt>
<rscale>  0 0.16292087E+04</rscale>
<asrwt>0</asrwt>
<pdfrwt beam="1">  1        1 0.95988975E-01 0.16292087E+04</pdfrwt>
<pdfrwt beam="2">  1       -1 0.16362339E+00 0.16292087E+04</pdfrwt>
<totfact> 0.84980042E+00</totfact>
</mgrwt>
</event>
<event>
 6    1  0.1528034E-005  0.2505928E+04  0.7818608E-02  0.8400877E-01
         -2   -1    0    0    0  501 -0.00000000000E+00  0.00000000000E+00  0.11408910923E+04  0.11408910923E+04  0.00000000000E+00 0.  1.
          2   -1    0    0  501    0  0.00000000000E+00 -0.00000000000E+00 -0.13760459856E+04  0.13760459856E+04  0.00000000000E+00 0. -1.
         23    2    1    2    0    0  0.31574562701E+03  0.11920978819E+04  0.96615540964E+02  0.12398841103E+04  0.84766639378E+02 0.  0.
         13    1    3    3    0    0  0.18628632433E+03  0.56617215752E+03  0.70381104615E+02  0.60017248060E+03  0.00000000000E+00 0.  1.
        -13    1    3    3    0    0  0.12945930268E+03  0.62592572437E+03  0.26234436349E+02  0.63971162966E+03  0.00000000000E+00 0. -1.
         22    1    1    2    0    0 -0.31574562701E+03 -0.11920978819E+04 -0.33177043429E+03  0.12770529676E+04  0.00000000000E+00 0.  1.
<mgrwt>
<rscale>  0 0.25059279E+04</rscale>
<asrwt>0</asrwt>
<pdfrwt beam="1">  1        2 0.21169938E+00 0.25059279E+04</pdfrwt>
<pdfrwt beam="2">  1       -2 0.17552171E+00 0.25059279E+04</pdfrwt>
<totfact> 0.25943992E+00</totfact>
</mgrwt>
</event>
<event>
 6    1  0.1528034E-005  0.1393608E+04  0.7818608E-02  0.8958459E-01
          1   -1    0    0  501    0  0.00000000000E+00  0.00000000000E+00  0.99889108873E+03  0.99889108873E+03  0.00000000000E+00 0. -1.
         -1   -1    0    0    0  501 -0.00000000000E+00 -0.00000000000E+00 -0.48607448117E+03  0.48607448117E+03  0.00000000000E+00 0.  1.
         23    2    1    2    0    0 -0.61353841125E+02  0.21495800387E+03  0.95711232442E+03  0.98760260258E+03  0.96559110520E+02 0.  0.
         11    1    3    3    0    0 -0.69115988350E+02  0.13992400087E+03  0.48468791556E+03  0.50919359909E+03  0.00000000000E+00 0. -1.
        -11    1    3    3    0    0  0.77621472248E+01  0.75034002997E+02  0.47242440886E+03  0.47840900349E+03  0.00000000000E+00 0.  1.
         22    1    1    2    0    0  0.61353841125E+02 -0.21495800387E+03 -0.44429571686E+03  0.49736296732E+03  0.00000000000E+00 0.  1.
<mgrwt>
<rscale>  0 0.13936075E+04</rscale>
<asrwt>0</asrwt>
<pdfrwt beam="1">  1        1 0.15367555E+00 0.13936075E+04</pdfrwt>
<pdfrwt beam="2">  1       -1 0.74780690E-01 0.13936075E+04</pdfrwt>
<totfact> 0.26612283E+01</totfact>
</mgrwt>
</event>
<event>
 6    1  0.1528034E-005  0.1984804E+04  0.7818608E-02  0.8613758E-01
          1   -1    0    0  501    0  0.00000000000E+00  0.00000000000E+00  0.13771094906E+04  0.13771094906E+04  0.00000000000E+00 0. -1.
         -1   -1    0    0    0  501 -0.00000000000E+00 -0.00000000000E+00 -0.71516608748E+03  0.71516608748E+03  0.00000000000E+00 0.  1.
         23    2    1    2    0    0 -0.27501151714E+03 -0.40277595144E+03 -0.57673249525E+03  0.76104389921E+03  0.93314756694E+02 0.  0.
         13    1    3    3    0    0 -0.69761301007E+02 -0.18296932376E+03 -0.22835578563E+03  0.30081685023E+03  0.00000000000E+00 0. -1.
        -13    1    3    3    0    0 -0.20525021613E+03 -0.21980662769E+03 -0.34837670963E+03  0.46022704897E+03  0.00000000000E+00 0.  1.
         22    1    1    2    0    0  0.27501151714E+03  0.40277595144E+03  0.12386758984E+04  0.13312316789E+04  0.00000000000E+00 0. -1.
<mgrwt>
<rscale>  0 0.19848043E+04</rscale>
<asrwt>0</asrwt>
<pdfrwt beam="1">  1        1 0.21186300E+00 0.19848043E+04</pdfrwt>
<pdfrwt beam="2">  1       -1 0.11002555E+00 0.19848043E+04</pdfrwt>
<totfact> 0.56493330E+00</totfact>
</mgrwt>
</event>
<event>
 6    1  0.1528034E-005  0.8973401E+03  0.7818608E-02  0.9428913E-01
         -2   -1    0    0    0  501 -0.00000000000E+00  0.00000000000E+00  0.96426420904E+02  0.96426420904E+02  0.00000000000E+00 0.  1.
          2   -1    0    0  501    0  0.00000000000E+00 -0.00000000000E+00 -0.20876520976E+04  0.20876520976E+04  0.00000000000E+00 0. -1.
         23    2    1    2    0    0 -0.22758586293E+03  0.53492116027E+02 -0.19248293685E+04  0.19410451849E+04  0.89619086348E+02 0.  0.
         11    1    3    3    0    0 -0.19959242382E+03  0.76705023934E+02 -0.16704423981E+04  0.16840720299E+04  0.00000000000E+00 0.  1.
        -11    1    3    3    0    0 -0.27993439119E+02 -0.23212907907E+02 -0.25438697035E+03  0.25697315504E+03  0.00000000000E+00 0. -1.
         22    1    1    2    0    0  0.22758586293E+03 -0.53492116027E+02 -0.66396308202E+02  0.24303333357E+03  0.00000000000E+00 0.  1.
<mgrwt>
<rscale>  0 0.89734011E+03</rscale>
<asrwt>0</asrwt>
<pdfrwt beam="1">  1        2 0.32117723E+00 0.89734011E+03</pdfrwt>
<pdfrwt beam="2">  1       -2 0.14834835E-01 0.89734011E+03</pdfrwt>
<totfact> 0.21603818E+02</totfact>
</mgrwt>
</event>
<event>
 6    1  0.1528034E-005  0.2874405E+04  0.7818608E-02  0.8280534E-01
          2   -1    0    0  501    0  0.00000000000E+00  0.00000000000E+00  0.13027819888E+04  0.13027819888E+04  0.00000000000E+00 0. -1.
         -2   -1    0    0    0  501 -0.00000000000E+00 -0.00000000000E+00 -0.15854924300E+04  0.15854924300E+04  0.00000000000E+00 0.  1.
         23    2    1    2    0    0  0.85920430582E+03  0.10257371256E+04  0.38208813856E+03  0.13941774201E+04  0.85852449952E+02 0.  0.
         13    1    3    3    0    0  0.42077580008E+03  0.48296738696E+03  0.22559268988E+03  0.67911842305E+03  0.00000000000E+00 0. -1.
        -13    1    3    3    0    0  0.43842850574E+03  0.54276973863E+03  0.15649544868E+03  0.71505899706E+03  0.00000000000E+00 0.  1.
         22    1    1    2    0    0 -0.85920430582E+03 -0.10257371256E+04 -0.66479857968E+03  0.14940969987E+04  0.00000000000E+00 0.  1.
<mgrwt>
<rscale>  0 0.28744050E+04</rscale>
<asrwt>0</asrwt>
<pdfrwt beam="1">  1        2 0.20042800E+00 0.28744050E+04</pdfrwt>
<pdfrwt beam="2">  1       -2 0.24392191E+00 0.28744050E+04</pdfrwt>
<totfact> 0.99784083E-01</totfact>
</mgrwt>
</event>
<event>
 6    1  0.1528034E-005  0.3486620E+04  0.7818608E-02  0.8116968E-01
          2   -1    0    0  501    0  0.00000000000E+00  0.00000000000E+00  0.26192758536E+04  0.26192758536E+04  0.00000000000E+00 0. -1.
         -2   -1    0    0    0  501 -0.00000000000E+00 -0.00000000000E+00 -0.11602941634E+04  0.11602941634E+04  0.00000000000E+00 0.  1.
         23    2    1    2    0    0  0.53290669366E+03  0.13551606356E+04  0.17667068528E+04  0.22912338090E+04  0.89718289157E+02 0.  0.
         13    1    3    3    0    0  0.17468400819E+03  0.56410683897E+03  0.70925595470E+03  0.92291659307E+03  0.00000000000E+00 0. -1.
        -13    1    3    3    0    0  0.35822268547E+03  0.79105379659E+03  0.10574508981E+04  0.13683172159E+04  0.00000000000E+00 0.  1.
         22    1    1    2    0    0 -0.53290669366E+03 -0.13551606356E+04 -0.30772516261E+03  0.14883362080E+04  0.00000000000E+00 0.  1.
<mgrwt>
<rscale>  0 0.34866204E+04</rscale>
<asrwt>0</asrwt>
<pdfrwt beam="1">  1        2 0.40296551E+00 0.34866204E+04</pdfrwt>
<pdfrwt beam="2">  1       -2 0.17850680E+00 0.34866204E+04</pdfrwt>
<totfact> 0.45279603E-01</totfact>
</mgrwt>
</event>
<event>
 6    1  0.1528034E-005  0.7435757E+04  0.7818608E-02  0.7534092E-01
         -2   -1    0    0    0  501 -0.00000000000E+00  0.00000000000E+00  0.39346544999E+04  0.39346544999E+04  0.00000000000E+00 0. -1.
          2   -1    0    0  501    0  0.00000000000E+00 -0.00000000000E+00 -0.35130459619E+04  0.35130459619E+04  0.00000000000E+00 0.  1.
         23    2    1    2    0    0  0.23229355915E+04  0.19903399907E+04  0.23263349103E+04  0.38441653094E+04  0.91048178684E+02 0.  0.
         11    1    3    3    0    0  0.12855876408E+04  0.11199118517E+04  0.12424227802E+04  0.21096332626E+04  0.00000000000E+00 0. -1.
        -11    1    3    3    0    0  0.10373479507E+04  0.87042813898E+03  0.10839121300E+04  0.17345320468E+04  0.00000000000E+00 0.  1.
         22    1    1    2    0    0 -0.23229355915E+04 -0.19903399907E+04 -0.19047263723E+04  0.36035351523E+04  0.00000000000E+00 0.  1.
<mgrwt>
<rscale>  0 0.74357574E+04</rscale>
<asrwt>0</asrwt>
<pdfrwt beam="1">  1        2 0.54046861E+00 0.74357574E+04</pdfrwt>
<pdfrwt beam="2">  1       -2 0.60533146E+00 0.74357574E+04</pdfrwt>
<totfact> 0.23972713E-04</totfact>
</mgrwt>
</event>
<event>
 6    1  0.1528034E-005  0.3929619E+04  0.7818608E-02  0.8018897E-01
         -1   -1    0    0    0  501 -0.00000000000E+00  0.00000000000E+00  0.19920540839E+04  0.19920540839E+04  0.00000000000E+00 0.  1.
          1   -1    0    0  501    0  0.00000000000E+00 -0.00000000000E+00 -0.19379371274E+04  0.19379371274E+04  0.00000000000E+00 0. -1.
         23    2    1    2    0    0  0.16920824168E+04 -0.89847637703E+03  0.45824959904E+03  0.19720009411E+04  0.91609559570E+02 0.  0.
         13    1    3    3    0    0  0.12810060007E+04 -0.66874765661E+03  0.30616041527E+03  0.14771370965E+04  0.00000000000E+00 0. -1.
        -13    1    3    3    0    0  0.41107641608E+03 -0.22972872041E+03  0.15208918378E+03  0.49486384457E+03  0.00000000000E+00 0.  1.
         22    1    1    2    0    0 -0.16920824168E+04  0.89847637703E+03 -0.40413264261E+03  0.19579902702E+04  0.00000000000E+00 0. -1.
<mgrwt>
<rscale>  0 0.39296186E+04</rscale>
<asrwt>0</asrwt>
<pdfrwt beam="1">  1        1 0.29814417E+00 0.39296186E+04</pdfrwt>
<pdfrwt beam="2">  1       -1 0.30646986E+00 0.39296186E+04</pdfrwt>
<totfact> 0.77483355E-02</totfact>
</mgrwt>
</event>
<event>
 6    1  0.1528034E-005  0.2247808E+04  0.7818608E-02  0.8498789E-01
         -2   -1    0    0    0  501 -0.00000000000E+00  0.00000000000E+00  0.19990130211E+04  0.19990130211E+04  0.00000000000E+00 0.  1.
          2   -1    0    0  501    0  0.00000000000E+00 -0.00000000000E+00 -0.63189172066E+03  0.63189172066E+03  0.00000000000E+00 0. -1.
         23    2    1    2    0    0 -0.13691162622E+01  0.49285696495E+03 -0.49508794267E+03  0.70457841231E+03  0.91699540515E+02 0.  0.
         13    1    3    3    0    0  0.72844838605E+01  0.41485330187E+03 -0.45728168410E+03  0.61746486895E+03  0.00000000000E+00 0.  1.
        -13    1    3    3    0    0 -0.86536001227E+01  0.78003663076E+02 -0.37806258579E+02  0.87113543356E+02  0.00000000000E+00 0. -1.
         22    1    1    2    0    0  0.13691162622E+01 -0.49285696495E+03  0.18622092431E+04  0.19263263294E+04  0.00000000000E+00 0.  1.
<mgrwt>
<rscale>  0 0.22478076E+04</rscale>
<asrwt>0</asrwt>
<pdfrwt beam="1">  1        2 0.97214112E-01 0.22478076E+04</pdfrwt>
<pdfrwt beam="2">  1       -2 0.30754046E+00 0.22478076E+04</pdfrwt>
<totfact> 0.12119253E+00</totfact>
</mgrwt>
</event>
<event>
 6    1  0.1528034E-005  0.1613460E+04  0.7818608E-02  0.8812321E-01
          2   -1    0    0  501    0  0.00000000000E+00  0.00000000000E+00  0.15016513171E+04  0.15016513171E+04  0.00000000000E+00 0. -1.
         -2   -1    0    0    0  501 -0.00000000000E+00 -0.00000000000E+00 -0.43339860875E+03  0.43339860875E+03  0.00000000000E+00 0.  1.
         23    2    1    2    0    0  0.53030364116E+03  0.24033864432E+02  0.12603207323E+04  0.13705238376E+04  0.90153550005E+02 0.  0.
         13    1    3    3    0    0  0.87988965732E+02 -0.16828439536E+02  0.28648946927E+03  0.30016906981E+03  0.00000000000E+00 0. -1.
        -13    1    3    3    0    0  0.44231467543E+03  0.40862303968E+02  0.97383126305E+03  0.10703547678E+04  0.00000000000E+00 0.  1.
         22    1    1    2    0    0 -0.53030364116E+03 -0.24033864432E+02 -0.19206802401E+03  0.56452608825E+03  0.00000000000E+00 0.  1.
<mgrwt>
<rscale>  0 0.16134604E+04</rscale>
<asrwt>0</asrwt>
<pdfrwt beam="1">  1        2 0.23102328E+00 0.16134604E+04</pdfrwt>
<pdfrwt beam="2">  1       -2 0.66676710E-01 0.16134604E+04</pdfrwt>
<totfact> 0.25071112E+01</totfact>
</mgrwt>
</event>
<event>
 6    1  0.1528034E-005  0.1473180E+04  0.7818608E-02  0.8902486E-01
         -1   -1    0    0    0  501 -0.00000000000E+00  0.00000000000E+00  0.96919597959E+03  0.96919597959E+03  0.00000000000E+00 0.  1.
          1   -1    0    0  501    0  0.00000000000E+00 -0.00000000000E+00 -0.55980949893E+03  0.55980949893E+03  0.00000000000E+00 0. -1.
         23    2    1    2    0    0  0.21054369983E+03  0.70239692107E+03  0.23369657762E+03  0.77497827325E+03  0.91033781403E+02 0.  0.
         11    1    3    3    0    0  0.49552509082E+02  0.83418916110E+02  0.10559961025E+02  0.97599587592E+02  0.00000000000E+00 0. -1.
        -11    1    3    3    0    0  0.16099119075E+03  0.61897800496E+03  0.22313661660E+03  0.67737868566E+03  0.00000000000E+00 0.  1.
         22    1    1    2    0    0 -0.21054369983E+03 -0.70239692107E+03  0.17568990304E+03  0.75402720527E+03  0.00000000000E+00 0.  1.
<mgrwt>
<rscale>  0 0.14731804E+04</rscale>
<asrwt>0</asrwt>
<pdfrwt beam="1">  1        1 0.86124538E-01 0.14731804E+04</pdfrwt>
<pdfrwt beam="2">  1       -1 0.14910707E+00 0.14731804E+04</pdfrwt>
<totfact> 0.13004373E+01</totfact>
</mgrwt>
</event>
<event>
 6    1  0.1528034E-005  0.7056711E+03  0.7818608E-02  0.9707583E-01
         -2   -1    0    0    0  501 -0.00000000000E+00  0.00000000000E+00  0.11811513693E+03  0.11811513693E+03  0.00000000000E+00 0.  1.
          2   -1    0    0  501    0  0.00000000000E+00 -0.00000000000E+00 -0.10539962359E+04  0.10539962359E+04  0.00000000000E+00 0. -1.
         23    2    1    2    0    0 -0.36232096809E+02  0.27558530942E+03 -0.13124314701E+03  0.32081691065E+03  0.91862391213E+02 0.  0.
         13    1    3    3    0    0 -0.88873490536E+01  0.88414702651E+02  0.29246583380E+01  0.88908369935E+02  0.00000000000E+00 0. -1.
        -13    1    3    3    0    0 -0.27344747755E+02  0.18717060677E+03 -0.13416780535E+03  0.23190854072E+03  0.00000000000E+00 0.  1.
         22    1    1    2    0    0  0.36232096809E+02 -0.27558530942E+03 -0.80463795198E+03  0.85129446220E+03  0.00000000000E+00 0. -1.
<mgrwt>
<rscale>  0 0.70567106E+03</rscale>
<asrwt>0</asrwt>
<pdfrwt beam="1">  1        2 0.16215327E+00 0.70567106E+03</pdfrwt>
<pdfrwt beam="2">  1       -2 0.18171560E-01 0.70567106E+03</pdfrwt>
<totfact> 0.59142698E+02</totfact>
</mgrwt>
</event>
<event>
 6    1  0.1528034E-005  0.1800440E+04  0.7818608E-02  0.8706066E-01
          1   -1    0    0  501    0  0.00000000000E+00  0.00000000000E+00  0.96421905509E+03  0.96421905509E+03  0.00000000000E+00 0. -1.
         -1   -1    0    0    0  501 -0.00000000000E+00 -0.00000000000E+00 -0.84046851419E+03  0.84046851419E+03  0.00000000000E+00 0.  1.
         23    2    1    2    0    0 -0.31225433026E+03  0.67248682492E+03  0.56953520469E+03  0.93954870012E+03  0.92952213824E+02 0.  0.
         13    1    3    3    0    0 -0.17896564176E+03  0.45511595165E+03  0.41500090765E+03  0.64139300256E+03  0.00000000000E+00 0. -1.
        -13    1    3    3    0    0 -0.13328868849E+03  0.21737087327E+03  0.15453429704E+03  0.29815569756E+03  0.00000000000E+00 0.  1.
         22    1    1    2    0    0  0.31225433026E+03 -0.67248682492E+03 -0.44578466379E+03  0.86513886916E+03  0.00000000000E+00 0.  1.
<mgrwt>
<rscale>  0 0.18004397E+04</rscale>
<asrwt>0</asrwt>
<pdfrwt beam="1">  1        1 0.14834139E+00 0.18004397E+04</pdfrwt>
<pdfrwt beam="2">  1       -1 0.12930285E+00 0.18004397E+04</pdfrwt>
<totfact> 0.78338911E+00</totfact>
</mgrwt>
</event>
<event>
 6    1  0.1528034E-005  0.4283217E+04  0.7818608E-02  0.7949729E-01
          2   -1    0    0  501    0  0.00000000000E+00  0.00000000000E+00  0.35898147107E+04  0.35898147107E+04  0.00000000000E+00 0.  1.
         -2   -1    0    0    0  501 -0.00000000000E+00 -0.00000000000E+00 -0.12776387891E+04  0.12776387891E+04  0.00000000000E+00 0. -1.
         23    2    1    2    0    0  0.18945883233E+04 -0.82359651520E+02  0.22848757738E+04  0.29708793976E+04  0.96015969152E+02 0.  0.
         13    1    3    3    0    0  0.17411422272E+04 -0.99673246175E+02  0.21151777855E+04  0.27414390519E+04  0.00000000000E+00 0. -1.
        -13    1    3    3    0    0  0.15344609614E+03  0.17313594655E+02  0.16969798831E+03  0.22944034566E+03  0.00000000000E+00 0.  1.
         22    1    1    2    0    0 -0.18945883233E+04  0.82359651520E+02  0.27300147783E+02  0.18965741022E+04  0.00000000000E+00 0. -1.
<mgrwt>
<rscale>  0 0.42832168E+04</rscale>
<asrwt>0</asrwt>
<pdfrwt beam="1">  1        2 0.55227918E+00 0.42832168E+04</pdfrwt>
<pdfrwt beam="2">  1       -2 0.19655982E+00 0.42832168E+04</pdfrwt>
<totfact> 0.75703188E-02</totfact>
</mgrwt>
</event>
<event>
 6    1  0.1528034E-005  0.1715158E+04  0.7818608E-02  0.8752766E-01
          1   -1    0    0  501    0  0.00000000000E+00  0.00000000000E+00  0.20691635258E+03  0.20691635258E+03  0.00000000000E+00 0. -1.
         -1   -1    0    0    0  501 -0.00000000000E+00 -0.00000000000E+00 -0.35542949221E+04  0.35542949221E+04  0.00000000000E+00 0.  1.
         23    2    1    2    0    0  0.85249777682E+03 -0.67226872108E+02 -0.17651711490E+04  0.19626973789E+04  0.71273445373E+02 0.  0.
         13    1    3    3    0    0  0.24292347667E+03  0.11900380322E+02 -0.51999786401E+03  0.57406551294E+03  0.00000000000E+00 0. -1.
        -13    1    3    3    0    0  0.60957430015E+03 -0.79127252430E+02 -0.12451732850E+04  0.13886318660E+04  0.00000000000E+00 0.  1.
         22    1    1    2    0    0 -0.85249777682E+03  0.67226872108E+02 -0.15822074204E+04  0.17985138957E+04  0.00000000000E+00 0. -1.
<mgrwt>
<rscale>  0 0.17151580E+04</rscale>
<asrwt>0</asrwt>
<pdfrwt beam="1">  1        1 0.31833286E-01 0.17151580E+04</pdfrwt>
<pdfrwt beam="2">  1       -1 0.54681458E+00 0.17151580E+04</pdfrwt>
<totfact> 0.10428200E-01</totfact>
</mgrwt>
</event>
<event>
 6    1  0.1528034E-005  0.1806050E+04  0.7818608E-02  0.8703089E-01
         -2   -1    0    0    0  501 -0.00000000000E+00  0.00000000000E+00  0.45145467114E+03  0.45145467114E+03  0.00000000000E+00 0.  1.
          2   -1    0    0  501    0  0.00000000000E+00 -0.00000000000E+00 -0.18062822844E+04  0.18062822844E+04  0.00000000000E+00 0. -1.
         23    2    1    2    0    0  0.18681549269E+03 -0.54465123765E+03  0.18670252101E+03  0.61217925255E+03  0.91436354432E+02 0.  0.
         11    1    3    3    0    0  0.12493536533E+03 -0.29010478345E+03  0.14248542347E+03  0.34651367475E+03  0.00000000000E+00 0.  1.
        -11    1    3    3    0    0  0.61880127363E+02 -0.25454645421E+03  0.44217097545E+02  0.26566557780E+03  0.00000000000E+00 0. -1.
         22    1    1    2    0    0 -0.18681549269E+03  0.54465123765E+03 -0.15415301342E+04  0.16455577029E+04  0.00000000000E+00 0. -1.
<mgrwt>
<rscale>  0 0.18060505E+04</rscale>
<asrwt>0</asrwt>
<pdfrwt beam="1">  1        2 0.27788958E+00 0.18060505E+04</pdfrwt>
<pdfrwt beam="2">  1       -2 0.69454564E-01 0.18060505E+04</pdfrwt>
<totfact> 0.15271910E+01</totfact>
</mgrwt>
</event>
<event>
 6    1  0.1590474E-005  0.2900214E+04  0.7818608E-02  0.8272814E-01
         -1   -1    0    0    0  501 -0.00000000000E+00  0.00000000000E+00  0.11661707100E+04  0.11661707100E+04  0.00000000000E+00 0.  1.
          1   -1    0    0  501    0  0.00000000000E+00 -0.00000000000E+00 -0.18031755297E+04  0.18031755297E+04  0.00000000000E+00 0. -1.
         23    2    1    2    0    0  0.49528493666E+03 -0.41116829235E+03 -0.16475752625E+04  0.17711729830E+04  0.90459698760E+02 0.  0.
         13    1    3    3    0    0  0.24263547545E+03 -0.24327802016E+03 -0.78834514435E+03  0.85996757826E+03  0.00000000000E+00 0.  1.
        -13    1    3    3    0    0  0.25264946121E+03 -0.16789027218E+03 -0.85923011812E+03  0.91120540474E+03  0.00000000000E+00 0. -1.
         22    1    1    2    0    0 -0.49528493666E+03  0.41116829235E+03  0.10105704428E+04  0.11981732567E+04  0.00000000000E+00 0.  1.
<mgrwt>
<rscale>  0 0.29002141E+04</rscale>
<asrwt>0</asrwt>
<pdfrwt beam="1">  1        1 0.27741162E+00 0.29002141E+04</pdfrwt>
<pdfrwt beam="2">  1       -1 0.17941088E+00 0.29002141E+04</pdfrwt>
<totfact> 0.73125867E-01</totfact>
</mgrwt>
</event>
<event>
 6    1  0.1528034E-005  0.4777395E+04  0.7818608E-02  0.7863795E-01
          2   -1    0    0  501    0  0.00000000000E+00  0.00000000000E+00  0.23208415513E+04  0.23208415513E+04  0.00000000000E+00 0.  1.
         -2   -1    0    0    0  501 -0.00000000000E+00 -0.00000000000E+00 -0.24585374894E+04  0.24585374894E+04  0.00000000000E+00 0. -1.
         23    2    1    2    0    0 -0.62844960263E+03 -0.54486292869E+03  0.21704066289E+04  0.23259809944E+04  0.87739031706E+02 0.  0.
         11    1    3    3    0    0 -0.50772872622E+03 -0.43779677120E+03  0.16454023870E+04  0.17767395665E+04  0.00000000000E+00 0.  1.
        -11    1    3    3    0    0 -0.12072087640E+03 -0.10706615749E+03  0.52500424192E+03  0.54924142789E+03  0.00000000000E+00 0. -1.
         22    1    1    2    0    0  0.62844960263E+03  0.54486292869E+03 -0.23081025670E+04  0.24533980463E+04  0.00000000000E+00 0. -1.
<mgrwt>
<rscale>  0 0.47773951E+04</rscale>
<asrwt>0</asrwt>
<pdfrwt beam="1">  1        2 0.35705255E+00 0.47773951E+04</pdfrwt>
<pdfrwt beam="2">  1       -2 0.37823654E+00 0.47773951E+04</pdfrwt>
<totfact> 0.33605648E-02</totfact>
</mgrwt>
</event>
<event>
 6    1  0.1528034E-005  0.2402451E+04  0.7818608E-02  0.8438586E-01
          2   -1    0    0  501    0  0.00000000000E+00  0.00000000000E+00  0.12707821534E+04  0.12707821534E+04  0.00000000000E+00 0. -1.
         -2   -1    0    0    0  501 -0.00000000000E+00 -0.00000000000E+00 -0.11354762663E+04  0.11354762663E+04  0.00000000000E+00 0.  1.
         23    2    1    2    0    0  0.20785414909E+03 -0.52435273508E+03 -0.99248407016E+03  0.11452828744E+04  0.92190535027E+02 0.  0.
         13    1    3    3    0    0  0.69872315226E+02 -0.28795131316E+03 -0.47436505778E+03  0.55930341250E+03  0.00000000000E+00 0. -1.
        -13    1    3    3    0    0  0.13798183387E+03 -0.23640142192E+03 -0.51811901238E+03  0.58597946188E+03  0.00000000000E+00 0.  1.
         22    1    1    2    0    0 -0.20785414909E+03  0.52435273508E+03  0.11277899573E+04  0.12609755453E+04  0.00000000000E+00 0. -1.
<mgrwt>
<rscale>  0 0.24024512E+04</rscale>
<asrwt>0</asrwt>
<pdfrwt beam="1">  1        2 0.19550495E+00 0.24024512E+04</pdfrwt>
<pdfrwt beam="2">  1       -2 0.17468866E+00 0.24024512E+04</pdfrwt>
<totfact> 0.30530978E+00</totfact>
</mgrwt>
</event>
<event>
 6    1  0.1528034E-005  0.1483057E+04  0.7818608E-02  0.8895798E-01
         -1   -1    0    0    0  501 -0.00000000000E+00  0.00000000000E+00  0.42903246004E+03  0.42903246004E+03  0.00000000000E+00 0.  1.
          1   -1    0    0  501    0  0.00000000000E+00 -0.00000000000E+00 -0.12816390716E+04  0.12816390716E+04  0.00000000000E+00 0. -1.
         23    2    1    2    0    0 -0.18852749285E+03  0.64536067284E+03 -0.78047016701E+03  0.10344787483E+04  0.94760674805E+02 0.  0.
         13    1    3    3    0    0 -0.32275175538E+02  0.15508621621E+03 -0.12893686377E+03  0.20425018054E+03  0.00000000000E+00 0.  1.
        -13    1    3    3    0    0 -0.15625231731E+03  0.49027445663E+03 -0.65153330325E+03  0.83022856776E+03  0.00000000000E+00 0. -1.
         22    1    1    2    0    0  0.18852749285E+03 -0.64536067284E+03 -0.72136444557E+02  0.67619278334E+03  0.00000000000E+00 0.  1.
<mgrwt>
<rscale>  0 0.14830573E+04</rscale>
<asrwt>0</asrwt>
<pdfrwt beam="1">  1        1 0.19717524E+00 0.14830573E+04</pdfrwt>
<pdfrwt beam="2">  1       -1 0.66004993E-01 0.14830573E+04</pdfrwt>
<totfact> 0.21011038E+01</totfact>
</mgrwt>
</event>
<event>
 6    1  0.1528034E-005  0.1531916E+04  0.7818608E-02  0.8863502E-01
         -1   -1    0    0    0  501 -0.00000000000E+00  0.00000000000E+00  0.78458844274E+03  0.78458844274E+03  0.00000000000E+00 0.  1.
          1   -1    0    0  501    0  0.00000000000E+00 -0.00000000000E+00 -0.74777005965E+03  0.74777005965E+03  0.00000000000E+00 0. -1.
         23    2    1    2    0    0 -0.43121282689E+03 -0.59551252312E+03 -0.18652143551E+03  0.76394432902E+03  0.90780089557E+02 0.  0.
         11    1    3    3    0    0 -0.17088998609E+03 -0.31144979835E+03 -0.99729064408E+02  0.36898543402E+03  0.00000000000E+00 0.  1.
        -11    1    3    3    0    0 -0.26032284080E+03 -0.28406272478E+03 -0.86792371103E+02  0.39495889499E+03  0.00000000000E+00 0. -1.
         22    1    1    2    0    0  0.43121282689E+03  0.59551252312E+03  0.22333981860E+03  0.76841417337E+03  0.00000000000E+00 0.  1.
<mgrwt>
<rscale>  0 0.15319161E+04</rscale>
<asrwt>0</asrwt>
<pdfrwt beam="1">  1        1 0.11504155E+00 0.15319161E+04</pdfrwt>
<pdfrwt beam="2">  1       -1 0.12070591E+00 0.15319161E+04</pdfrwt>
<totfact> 0.14492209E+01</totfact>
</mgrwt>
</event>
<event>
 6    1  0.1528034E-005  0.8691592E+03  0.7818608E-02  0.9464977E-01
          2   -1    0    0  501    0  0.00000000000E+00  0.00000000000E+00  0.13814456073E+03  0.13814456073E+03  0.00000000000E+00 0. -1.
         -2   -1    0    0    0  501 -0.00000000000E+00 -0.00000000000E+00 -0.13671143868E+04  0.13671143868E+04  0.00000000000E+00 0.  1.
         23    2    1    2    0    0  0.40898937097E+03  0.11293547551E+02 -0.39274823498E+03  0.57430975493E+03  0.90447049394E+02 0.  0.
         13    1    3    3    0    0  0.22622531003E+03  0.73929598563E+01 -0.15467105601E+03  0.27414536713E+03  0.00000000000E+00 0. -1.
        -13    1    3    3    0    0  0.18276406095E+03  0.39005876947E+01 -0.23807717897E+03  0.30016438780E+03  0.00000000000E+00 0.  1.
         22    1    1    2    0    0 -0.40898937097E+03 -0.11293547551E+02 -0.83622159105E+03  0.93094919255E+03  0.00000000000E+00 0. -1.
<mgrwt>
<rscale>  0 0.86915917E+03</rscale>
<asrwt>0</asrwt>
<pdfrwt beam="1">  1        2 0.21253010E-01 0.86915917E+03</pdfrwt>
<pdfrwt beam="2">  1       -2 0.21032528E+00 0.86915917E+03</pdfrwt>
<totfact> 0.30471701E+01</totfact>
</mgrwt>
</event>
<event>
 6    1  0.1528034E-005  0.1824944E+04  0.7818608E-02  0.8693146E-01
          2   -1    0    0  501    0  0.00000000000E+00  0.00000000000E+00  0.11073649892E+04  0.11073649892E+04  0.00000000000E+00 0. -1.
         -2   -1    0    0    0  501 -0.00000000000E+00 -0.00000000000E+00 -0.75187945679E+03  0.75187945679E+03  0.00000000000E+00 0.  1.
         23    2    1    2    0    0 -0.70009236875E+03 -0.19844174167E+03  0.73521857325E+03  0.10384487150E+04  0.91219152119E+02 0.  0.
         11    1    3    3    0    0 -0.22345008173E+03 -0.56336024487E+02  0.17542878981E+03  0.28961862332E+03  0.00000000000E+00 0. -1.
        -11    1    3    3    0    0 -0.47664228702E+03 -0.14210571718E+03  0.55978978344E+03  0.74883009173E+03  0.00000000000E+00 0.  1.
         22    1    1    2    0    0  0.70009236875E+03  0.19844174167E+03 -0.37973304084E+03  0.82079573094E+03  0.00000000000E+00 0.  1.
<mgrwt>
<rscale>  0 0.18249438E+04</rscale>
<asrwt>0</asrwt>
<pdfrwt beam="1">  1        2 0.17036384E+00 0.18249438E+04</pdfrwt>
<pdfrwt beam="2">  1       -2 0.11567376E+00 0.18249438E+04</pdfrwt>
<totfact> 0.11809334E+01</totfact>
</mgrwt>
</event>
<event>
 6    1  0.1528034E-005  0.8207692E+03  0.7818608E-02  0.9530432E-01
         -2   -1    0    0    0  501 -0.00000000000E+00  0.00000000000E+00  0.15832249097E+03  0.15832249097E+03  0.00000000000E+00 0.  1.
          2   -1    0    0  501    0  0.00000000000E+00 -0.00000000000E+00 -0.10637498531E+04  0.10637498531E+04  0.00000000000E+00 0. -1.
         23    2    1    2    0    0 -0.33424814263E+03  0.14037350527E+03 -0.19152889436E+03  0.42139914975E+03  0.97300484069E+02 0.  0.
         11    1    3    3    0    0 -0.38852775186E+01 -0.11065955693E+02 -0.85570334680E+01  0.14518043207E+02  0.00000000000E+00 0.  1.
        -11    1    3    3    0    0 -0.33036286511E+03  0.15143946096E+03 -0.18297186089E+03  0.40688110654E+03  0.00000000000E+00 0. -1.
         22    1    1    2    0    0  0.33424814263E+03 -0.14037350527E+03 -0.71389846774E+03  0.80067319430E+03  0.00000000000E+00 0. -1.
<mgrwt>
<rscale>  0 0.82076922E+03</rscale>
<asrwt>0</asrwt>
<pdfrwt beam="1">  1        2 0.16365383E+00 0.82076922E+03</pdfrwt>
<pdfrwt beam="2">  1       -2 0.24357305E-01 0.82076922E+03</pdfrwt>
<totfact> 0.34627209E+02</totfact>
</mgrwt>
</event>
<event>
 6    1  0.1528034E-005  0.2590784E+04  0.7818608E-02  0.8371338E-01
         -2   -1    0    0    0  501 -0.00000000000E+00  0.00000000000E+00  0.13830012519E+04  0.13830012519E+04  0.00000000000E+00 0.  1.
          2   -1    0    0  501    0  0.00000000000E+00 -0.00000000000E+00 -0.12133328998E+04  0.12133328998E+04  0.00000000000E+00 0. -1.
         23    2    1    2    0    0  0.72582255756E+03  0.77755094347E+03  0.82302026777E+03  0.13480262648E+04  0.91698389520E+02 0.  0.
         11    1    3    3    0    0  0.57433425441E+03  0.55716113324E+03  0.61476171321E+03  0.10090690404E+04  0.00000000000E+00 0. -1.
        -11    1    3    3    0    0  0.15148830315E+03  0.22038981023E+03  0.20825855456E+03  0.33895722443E+03  0.00000000000E+00 0.  1.
         22    1    1    2    0    0 -0.72582255756E+03 -0.77755094347E+03 -0.65335191569E+03  0.12483078869E+04  0.00000000000E+00 0. -1.
<mgrwt>
<rscale>  0 0.25907844E+04</rscale>
<asrwt>0</asrwt>
<pdfrwt beam="1">  1        2 0.18666660E+00 0.25907844E+04</pdfrwt>
<pdfrwt beam="2">  1       -2 0.21276942E+00 0.25907844E+04</pdfrwt>
<totfact> 0.18092925E+00</totfact>
</mgrwt>
</event>
<event>
 6    1  0.1528034E-005  0.4282050E+04  0.7818608E-02  0.7949946E-01
         -2   -1    0    0    0  501 -0.00000000000E+00  0.00000000000E+00  0.24481349083E+04  0.24481349083E+04  0.00000000000E+00 0. -1.
          2   -1    0    0  501    0  0.00000000000E+00 -0.00000000000E+00 -0.18724407181E+04  0.18724407181E+04  0.00000000000E+00 0.  1.
         23    2    1    2    0    0  0.78826223925E+03  0.13002416972E+04 -0.12315711935E+04  0.19587555664E+04  0.89274495048E+02 0.  0.
         13    1    3    3    0    0  0.57777005755E+03  0.93943416255E+03 -0.94278667510E+03  0.14509312526E+04  0.00000000000E+00 0.  1.
        -13    1    3    3    0    0  0.21049218171E+03  0.36080753461E+03 -0.28878451837E+03  0.50782431376E+03  0.00000000000E+00 0. -1.
         22    1    1    2    0    0 -0.78826223925E+03 -0.13002416972E+04  0.18072653836E+04  0.23618200600E+04  0.00000000000E+00 0. -1.
<mgrwt>
<rscale>  0 0.42820497E+04</rscale>
<asrwt>0</asrwt>
<pdfrwt beam="1">  1        2 0.28806780E+00 0.42820497E+04</pdfrwt>
<pdfrwt beam="2">  1       -2 0.37663614E+00 0.42820497E+04</pdfrwt>
<totfact> 0.63828182E-02</totfact>
</mgrwt>
</event>
<event>
 6    1  0.1528034E-005  0.5838608E+03  0.7818608E-02  0.9939467E-01
          2   -1    0    0  501    0  0.00000000000E+00  0.00000000000E+00  0.12015815206E+04  0.12015815206E+04  0.00000000000E+00 0. -1.
         -2   -1    0    0    0  501 -0.00000000000E+00 -0.00000000000E+00 -0.70925994983E+02  0.70925994983E+02  0.00000000000E+00 0.  1.
         23    2    1    2    0    0  0.15782201639E+03 -0.21759843297E+03  0.78820955328E+03  0.83716154872E+03  0.85488548337E+02 0.  0.
         11    1    3    3    0    0  0.51373923359E+02 -0.27490014536E+02  0.24614289837E+03  0.25294526546E+03  0.00000000000E+00 0.  1.
        -11    1    3    3    0    0  0.10644809303E+03 -0.19010841843E+03  0.54206665490E+03  0.58421628326E+03  0.00000000000E+00 0. -1.
         22    1    1    2    0    0 -0.15782201639E+03  0.21759843297E+03  0.34244597233E+03  0.43534596685E+03  0.00000000000E+00 0.  1.
<mgrwt>
<rscale>  0 0.58386082E+03</rscale>
<asrwt>0</asrwt>
<pdfrwt beam="1">  1        2 0.18485868E+00 0.58386082E+03</pdfrwt>
<pdfrwt beam="2">  1       -2 0.10911692E-01 0.58386082E+03</pdfrwt>
<totfact> 0.11383171E+03</totfact>
</mgrwt>
</event>
<event>
 6    1  0.2834518E-005  0.3727642E+04  0.7818608E-02  0.8061863E-01
          1   -1    0    0  501    0  0.00000000000E+00  0.00000000000E+00  0.21065967487E+04  0.21065967487E+04  0.00000000000E+00 0. -1.
         -1   -1    0    0    0  501 -0.00000000000E+00 -0.00000000000E+00 -0.16490241353E+04  0.16490241353E+04  0.00000000000E+00 0.  1.
         23    2    1    2    0    0 -0.62936736966E+03 -0.66920859585E+03  0.18615092556E+04  0.20778302158E+04  0.90654654097E+02 0.  0.
         11    1    3    3    0    0 -0.31266746483E+03 -0.39214295516E+03  0.10552105555E+04  0.11683348652E+04  0.00000000000E+00 0. -1.
        -11    1    3    3    0    0 -0.31669990484E+03 -0.27706564068E+03  0.80629870011E+03  0.90949535061E+03  0.00000000000E+00 0.  1.
         22    1    1    2    0    0  0.62936736966E+03  0.66920859585E+03 -0.14039366422E+04  0.16777906681E+04  0.00000000000E+00 0.  1.
<mgrwt>
<rscale>  0 0.37276421E+04</rscale>
<asrwt>0</asrwt>
<pdfrwt beam="1">  1        1 0.32409181E+00 0.37276421E+04</pdfrwt>
<pdfrwt beam="2">  1       -1 0.25369602E+00 0.37276421E+04</pdfrwt>
<totfact> 0.13316505E-01</totfact>
</mgrwt>
</event>
<event>
 6    1  0.1528034E-005  0.4015941E+04  0.7818608E-02  0.8001339E-01
          1   -1    0    0  501    0  0.00000000000E+00  0.00000000000E+00  0.87418763822E+03  0.87418763822E+03  0.00000000000E+00 0. -1.
         -1   -1    0    0    0  501 -0.00000000000E+00 -0.00000000000E+00 -0.46122192051E+04  0.46122192051E+04  0.00000000000E+00 0.  1.
         23    2    1    2    0    0  0.13011376365E+04 -0.15270113272E+04 -0.19568546183E+04  0.28036258115E+04  0.79466666693E+02 0.  0.
         13    1    3    3    0    0  0.63568218682E+03 -0.80133237564E+03 -0.97320618934E+03  0.14118624954E+04  0.00000000000E+00 0. -1.
        -13    1    3    3    0    0  0.66545544967E+03 -0.72567895158E+03 -0.98364842899E+03  0.13917633161E+04  0.00000000000E+00 0.  1.
         22    1    1    2    0    0 -0.13011376365E+04  0.15270113272E+04 -0.17811769485E+04  0.26827810318E+04  0.00000000000E+00 0.  1.
<mgrwt>
<rscale>  0 0.40159407E+04</rscale>
<asrwt>0</asrwt>
<pdfrwt beam="1">  1        1 0.13449040E+00 0.40159407E+04</pdfrwt>
<pdfrwt beam="2">  1       -1 0.70957219E+00 0.40159407E+04</pdfrwt>
<totfact> 0.27678099E-03</totfact>
</mgrwt>
</event>
<event>
 6    1  0.1528034E-005  0.2059659E+04  0.7818608E-02  0.8579225E-01
          2   -1    0    0  501    0  0.00000000000E+00  0.00000000000E+00  0.14440076265E+04  0.14440076265E+04  0.00000000000E+00 0. -1.
         -2   -1    0    0    0  501 -0.00000000000E+00 -0.00000000000E+00 -0.73444837843E+03  0.73444837843E+03  0.00000000000E+00 0.  1.
         23    2    1    2    0    0 -0.51091933977E+03 -0.25880147457E+03  0.12582611974E+04  0.13853036840E+04  0.88477573370E+02 0.  0.
         13    1    3    3    0    0 -0.24296569198E+03 -0.74682301272E+02  0.57122841730E+03  0.62522930061E+03  0.00000000000E+00 0. -1.
        -13    1    3    3    0    0 -0.26795364779E+03 -0.18411917330E+03  0.68703278011E+03  0.76007438339E+03  0.00000000000E+00 0.  1.
         22    1    1    2    0    0  0.51091933977E+03  0.25880147457E+03 -0.54870194934E+03  0.79315232093E+03  0.00000000000E+00 0.  1.
<mgrwt>
<rscale>  0 0.20596593E+04</rscale>
<asrwt>0</asrwt>
<pdfrwt beam="1">  1        2 0.22215502E+00 0.20596593E+04</pdfrwt>
<pdfrwt beam="2">  1       -2 0.11299206E+00 0.20596593E+04</pdfrwt>
<totfact> 0.77736621E+00</totfact>
</mgrwt>
</event>
<event>
 6    1  0.1528034E-005  0.2830205E+04  0.7818608E-02  0.8293952E-01
          2   -1    0    0  501    0  0.00000000000E+00  0.00000000000E+00  0.13531261238E+04  0.13531261238E+04  0.00000000000E+00 0.  1.
         -2   -1    0    0    0  501 -0.00000000000E+00 -0.00000000000E+00 -0.14799173414E+04  0.14799173414E+04  0.00000000000E+00 0. -1.
         23    2    1    2    0    0  0.13190582673E+04  0.14862762984E+03  0.42323409276E+03  0.13961952731E+04  0.90715260990E+02 0.  0.
         13    1    3    3    0    0  0.11279159908E+04  0.14624209629E+03  0.38869941012E+03  0.12019436195E+04  0.00000000000E+00 0. -1.
        -13    1    3    3    0    0  0.19114227651E+03  0.23855335507E+01  0.34534682638E+02  0.19425165365E+03  0.00000000000E+00 0.  1.
         22    1    1    2    0    0 -0.13190582673E+04 -0.14862762984E+03 -0.55002531041E+03  0.14368481920E+04  0.00000000000E+00 0. -1.
<mgrwt>
<rscale>  0 0.28302048E+04</rscale>
<asrwt>0</asrwt>
<pdfrwt beam="1">  1        2 0.20817325E+00 0.28302048E+04</pdfrwt>
<pdfrwt beam="2">  1       -2 0.22767959E+00 0.28302048E+04</pdfrwt>
<totfact> 0.11816776E+00</totfact>
</mgrwt>
</event>
<event>
 6    1  0.1528034E-005  0.2628981E+04  0.7818608E-02  0.8358423E-01
          2   -1    0    0  501    0  0.00000000000E+00  0.00000000000E+00  0.26398630350E+04  0.26398630350E+04  0.00000000000E+00 0. -1.
         -2   -1    0    0    0  501 -0.00000000000E+00 -0.00000000000E+00 -0.65453573332E+03  0.65453573332E+03  0.00000000000E+00 0.  1.
         23    2    1    2    0    0  0.80388981372E+03  0.59136363022E+03  0.20629277557E+04  0.22934134507E+04  0.90136311897E+02 0.  0.
         13    1    3    3    0    0  0.60570034236E+03  0.39558294861E+03  0.14950922728E+04  0.16609213341E+04  0.00000000000E+00 0. -1.
        -13    1    3    3    0    0  0.19818947135E+03  0.19578068161E+03  0.56783548292E+03  0.63249211656E+03  0.00000000000E+00 0.  1.
         22    1    1    2    0    0 -0.80388981372E+03 -0.59136363022E+03 -0.77600453993E+02  0.10009853177E+04  0.00000000000E+00 0.  1.
<mgrwt>
<rscale>  0 0.26289806E+04</rscale>
<asrwt>0</asrwt>
<pdfrwt beam="1">  1        2 0.40613277E+00 0.26289806E+04</pdfrwt>
<pdfrwt beam="2">  1       -2 0.10069781E+00 0.26289806E+04</pdfrwt>
<totfact> 0.20664608E+00</totfact>
</mgrwt>
</event>
<event>
 6    1  0.1528034E-005  0.7632259E+03  0.7818608E-02  0.9614826E-01
         -2   -1    0    0    0  501 -0.00000000000E+00  0.00000000000E+00  0.15853138211E+03  0.15853138211E+03  0.00000000000E+00 0.  1.
          2   -1    0    0  501    0  0.00000000000E+00 -0.00000000000E+00 -0.91860964399E+03  0.91860964399E+03  0.00000000000E+00 0. -1.
         23    2    1    2    0    0  0.23402761641E+03  0.27136665728E+03 -0.54669053135E+03  0.66007614930E+03  0.91767084903E+02 0.  0.
         11    1    3    3    0    0  0.71157247035E+02  0.14925509106E+03 -0.22114884308E+03  0.27612904014E+03  0.00000000000E+00 0. -1.
        -11    1    3    3    0    0  0.16287036937E+03  0.12211156622E+03 -0.32554168827E+03  0.38394710915E+03  0.00000000000E+00 0.  1.
         22    1    1    2    0    0 -0.23402761641E+03 -0.27136665728E+03 -0.21338773053E+03  0.41706487680E+03  0.00000000000E+00 0.  1.
<mgrwt>
<rscale>  0 0.76322593E+03</rscale>
<asrwt>0</asrwt>
<pdfrwt beam="1">  1        2 0.14132456E+00 0.76322593E+03</pdfrwt>
<pdfrwt beam="2">  1       -2 0.24389444E-01 0.76322593E+03</pdfrwt>
<totfact> 0.42927586E+02</totfact>
</mgrwt>
</event>
<event>
 6    1  0.1528034E-005  0.8480690E+03  0.7818608E-02  0.9492932E-01
          2   -1    0    0  501    0  0.00000000000E+00  0.00000000000E+00  0.17130215788E+03  0.17130215788E+03  0.00000000000E+00 0. -1.
         -2   -1    0    0    0  501 -0.00000000000E+00 -0.00000000000E+00 -0.10496380523E+04  0.10496380523E+04  0.00000000000E+00 0.  1.
         23    2    1    2    0    0  0.13210791842E+03 -0.19531558724E+03 -0.94317131451E+03  0.97639100768E+03  0.90369190817E+02 0.  0.
         13    1    3    3    0    0  0.14014526725E+02 -0.70641506180E+02 -0.40908624407E+03  0.41537715927E+03  0.00000000000E+00 0. -1.
        -13    1    3    3    0    0  0.11809339169E+03 -0.12467408106E+03 -0.53408507044E+03  0.56101384841E+03  0.00000000000E+00 0.  1.
         22    1    1    2    0    0 -0.13210791842E+03  0.19531558724E+03  0.64835420116E+02  0.24454920247E+03  0.00000000000E+00 0. -1.
<mgrwt>
<rscale>  0 0.84806901E+03</rscale>
<asrwt>0</asrwt>
<pdfrwt beam="1">  1        2 0.26354179E-01 0.84806901E+03</pdfrwt>
<pdfrwt beam="2">  1       -2 0.16148277E+00 0.84806901E+03</pdfrwt>
<totfact> 0.51000559E+01</totfact>
</mgrwt>
</event>
<event>
 6    1  0.1528034E-005  0.4775845E+04  0.7818608E-02  0.7864047E-01
          2   -1    0    0  501    0  0.00000000000E+00  0.00000000000E+00  0.25340780184E+04  0.25340780184E+04  0.00000000000E+00 0. -1.
         -2   -1    0    0    0  501 -0.00000000000E+00 -0.00000000000E+00 -0.22501966566E+04  0.22501966566E+04  0.00000000000E+00 0.  1.
         23    2    1    2    0    0 -0.46216787777E+03 -0.12032201971E+04 -0.18707060400E+04  0.22735805754E+04  0.91046992721E+02 0.  0.
         11    1    3    3    0    0 -0.26323018964E+03 -0.74769625780E+03 -0.10816355556E+04  0.13409978754E+04  0.00000000000E+00 0. -1.
        -11    1    3    3    0    0 -0.19893768814E+03 -0.45552393926E+03 -0.78907048447E+03  0.93258270007E+03  0.00000000000E+00 0.  1.
         22    1    1    2    0    0  0.46216787777E+03  0.12032201971E+04  0.21545874018E+04  0.25106940996E+04  0.00000000000E+00 0. -1.
<mgrwt>
<rscale>  0 0.47758450E+04</rscale>
<asrwt>0</asrwt>
<pdfrwt beam="1">  1        2 0.38985816E+00 0.47758450E+04</pdfrwt>
<pdfrwt beam="2">  1       -2 0.34618410E+00 0.47758450E+04</pdfrwt>
<totfact> 0.40530717E-02</totfact>
</mgrwt>
</event>
<event>
 6    1  0.1528034E-005  0.2611005E+04  0.7818608E-02  0.8364473E-01
         -2   -1    0    0    0  501 -0.00000000000E+00  0.00000000000E+00  0.67747045051E+03  0.67747045051E+03  0.00000000000E+00 0.  1.
          2   -1    0    0  501    0  0.00000000000E+00 -0.00000000000E+00 -0.25157355309E+04  0.25157355309E+04  0.00000000000E+00 0. -1.
         23    2    1    2    0    0 -0.31695263986E+03  0.12633562785E+04 -0.86968195935E+03  0.15700358348E+04  0.11017145629E+03 0.  0.
         13    1    3    3    0    0 -0.74644666818E+01  0.30746049853E+02 -0.45112902769E+02  0.55101831554E+02  0.00000000000E+00 0. -1.
        -13    1    3    3    0    0 -0.30948817318E+03  0.12326102287E+04 -0.82456905658E+03  0.15149340033E+04  0.00000000000E+00 0.  1.
         22    1    1    2    0    0  0.31695263986E+03 -0.12633562785E+04 -0.96858312105E+03  0.16231701466E+04  0.00000000000E+00 0. -1.
<mgrwt>
<rscale>  0 0.26110048E+04</rscale>
<asrwt>0</asrwt>
<pdfrwt beam="1">  1        2 0.38703624E+00 0.26110048E+04</pdfrwt>
<pdfrwt beam="2">  1       -2 0.10422622E+00 0.26110048E+04</pdfrwt>
<totfact> 0.22535432E+00</totfact>
</mgrwt>
</event>
<event>
 6    1  0.1528034E-005  0.4680669E+04  0.7818608E-02  0.7879748E-01
         -1   -1    0    0    0  501 -0.00000000000E+00  0.00000000000E+00  0.17221766842E+04  0.17221766842E+04  0.00000000000E+00 0.  1.
          1   -1    0    0  501    0  0.00000000000E+00 -0.00000000000E+00 -0.31803743115E+04  0.31803743115E+04  0.00000000000E+00 0. -1.
         23    2    1    2    0    0  0.60071303620E+03 -0.64260245478E+03 -0.29999413874E+04  0.31275107458E+04  0.88775395818E+02 0.  0.
         13    1    3    3    0    0  0.30408630654E+03 -0.38593045080E+03 -0.16142540281E+04  0.16873727691E+04  0.00000000000E+00 0. -1.
        -13    1    3    3    0    0  0.29662672966E+03 -0.25667200398E+03 -0.13856873593E+04  0.14401379768E+04  0.00000000000E+00 0.  1.
         22    1    1    2    0    0 -0.60071303620E+03  0.64260245478E+03  0.15417437601E+04  0.17750402499E+04  0.00000000000E+00 0.  1.
<mgrwt>
<rscale>  0 0.46806694E+04</rscale>
<asrwt>0</asrwt>
<pdfrwt beam="1">  1        1 0.48928835E+00 0.46806694E+04</pdfrwt>
<pdfrwt beam="2">  1       -1 0.26495026E+00 0.46806694E+04</pdfrwt>
<totfact> 0.18134742E-02</totfact>
</mgrwt>
</event>
<event>
 6    1  0.1528034E-005  0.1593977E+04  0.7818608E-02  0.8824256E-01
         -2   -1    0    0    0  501 -0.00000000000E+00  0.00000000000E+00  0.13645124573E+04  0.13645124573E+04  0.00000000000E+00 0.  1.
          2   -1    0    0  501    0  0.00000000000E+00 -0.00000000000E+00 -0.46550763012E+03  0.46550763012E+03  0.00000000000E+00 0. -1.
         23    2    1    2    0    0  0.12403182403E+03  0.59186183400E+03  0.10420492453E+04  0.12086135945E+04  0.95895085050E+02 0.  0.
         11    1    3    3    0    0  0.61667558506E+02  0.38764071145E+03  0.58956496904E+03  0.70827611965E+03  0.00000000000E+00 0.  1.
        -11    1    3    3    0    0  0.62364265519E+02  0.20422112255E+03  0.45248427624E+03  0.50033747486E+03  0.00000000000E+00 0. -1.
         22    1    1    2    0    0 -0.12403182403E+03 -0.59186183400E+03 -0.14304441807E+03  0.62140649293E+03  0.00000000000E+00 0. -1.
<mgrwt>
<rscale>  0 0.15939774E+04</rscale>
<asrwt>0</asrwt>
<pdfrwt beam="1">  1        2 0.71616559E-01 0.15939774E+04</pdfrwt>
<pdfrwt beam="2">  1       -2 0.20992499E+00 0.15939774E+04</pdfrwt>
<totfact> 0.73505241E+00</totfact>
</mgrwt>
</event>
<event>
 6    1  0.1528034E-005  0.2098389E+04  0.7818608E-02  0.8561953E-01
         -2   -1    0    0    0  501 -0.00000000000E+00  0.00000000000E+00  0.52998470439E+03  0.52998470439E+03  0.00000000000E+00 0.  1.
          2   -1    0    0  501    0  0.00000000000E+00 -0.00000000000E+00 -0.20770592009E+04  0.20770592009E+04  0.00000000000E+00 0. -1.
         23    2    1    2    0    0  0.65401540936E+03  0.23449183997E+03  0.19843915134E+03  0.72833677710E+03  0.91508389741E+02 0.  0.
         13    1    3    3    0    0  0.23469565414E+03  0.39461102615E+02  0.56769650311E+02  0.24466716553E+03  0.00000000000E+00 0. -1.
        -13    1    3    3    0    0  0.41931975522E+03  0.19503073736E+03  0.14166950103E+03  0.48366961157E+03  0.00000000000E+00 0.  1.
         22    1    1    2    0    0 -0.65401540936E+03 -0.23449183997E+03 -0.17455136478E+04  0.18787071282E+04  0.00000000000E+00 0. -1.
<mgrwt>
<rscale>  0 0.20983895E+04</rscale>
<asrwt>0</asrwt>
<pdfrwt beam="1">  1        2 0.31954757E+00 0.20983895E+04</pdfrwt>
<pdfrwt beam="2">  1       -2 0.81536108E-01 0.20983895E+04</pdfrwt>
<totfact> 0.73857754E+00</totfact>
</mgrwt>
</event>
<event>
 6    1  0.1528034E-005  0.2656250E+04  0.7818608E-02  0.8349341E-01
          1   -1    0    0  501    0  0.00000000000E+00  0.00000000000E+00  0.10975732515E+04  0.10975732515E+04  0.00000000000E+00 0. -1.
         -1   -1    0    0    0  501 -0.00000000000E+00 -0.00000000000E+00 -0.16071060292E+04  0.16071060292E+04  0.00000000000E+00 0.  1.
         23    2    1    2    0    0  0.12291693441E+04  0.49134021512E+03 -0.16581911770E+03  0.13370493733E+04  0.89064939677E+02 0.  0.
         13    1    3    3    0    0  0.10066499018E+04  0.40176410000E+03 -0.10091083742E+03  0.10885501430E+04  0.00000000000E+00 0. -1.
        -13    1    3    3    0    0  0.22251944233E+03  0.89576115128E+02 -0.64908280280E+02  0.24849923031E+03  0.00000000000E+00 0.  1.
         22    1    1    2    0    0 -0.12291693441E+04 -0.49134021512E+03 -0.34371366000E+03  0.13676299074E+04  0.00000000000E+00 0. -1.
<mgrwt>
<rscale>  0 0.26562504E+04</rscale>
<asrwt>0</asrwt>
<pdfrwt beam="1">  1        1 0.16885742E+00 0.26562504E+04</pdfrwt>
<pdfrwt beam="2">  1       -1 0.24724708E+00 0.26562504E+04</pdfrwt>
<totfact> 0.81092553E-01</totfact>
</mgrwt>
</event>
<event>
 6    1  0.1528034E-005  0.1699984E+03  0.7818608E-02  0.1177850E+00
         -1   -1    0    0    0  501 -0.00000000000E+00  0.00000000000E+00  0.84767099496E+01  0.84767099496E+01  0.00000000000E+00 0. -1.
          1   -1    0    0  501    0  0.00000000000E+00 -0.00000000000E+00 -0.85231911433E+03  0.85231911433E+03  0.00000000000E+00 0.  1.
         23    2    1    2    0    0  0.76897256598E+01 -0.66938941817E+02 -0.55210373436E+03  0.56137737896E+03  0.76066249424E+02 0.  0.
         11    1    3    3    0    0  0.23005677833E+02 -0.57287128201E+02 -0.52600055784E+03  0.52961086008E+03  0.00000000000E+00 0.  1.
        -11    1    3    3    0    0 -0.15315952173E+02 -0.96518136161E+01 -0.26103176515E+02  0.31766518871E+02  0.00000000000E+00 0. -1.
         22    1    1    2    0    0 -0.76897256598E+01  0.66938941817E+02 -0.29173867002E+03  0.29941844532E+03  0.00000000000E+00 0.  1.
<mgrwt>
<rscale>  0 0.16999838E+03</rscale>
<asrwt>0</asrwt>
<pdfrwt beam="1">  1        1 0.13112604E+00 0.16999838E+03</pdfrwt>
<pdfrwt beam="2">  1       -1 0.13041090E-02 0.16999838E+03</pdfrwt>
<totfact> 0.25751824E+04</totfact>
</mgrwt>
</event>
<event>
 6    1  0.1528034E-005  0.2696947E+04  0.7818608E-02  0.8335996E-01
         -2   -1    0    0    0  501 -0.00000000000E+00  0.00000000000E+00  0.74677444687E+03  0.74677444687E+03  0.00000000000E+00 0.  1.
          2   -1    0    0  501    0  0.00000000000E+00 -0.00000000000E+00 -0.24349804043E+04  0.24349804043E+04  0.00000000000E+00 0. -1.
         23    2    1    2    0    0 -0.76400174909E+03 -0.10937432366E+04 -0.10633442751E+04  0.17085185964E+04  0.91442914026E+02 0.  0.
         11    1    3    3    0    0 -0.23510754375E+03 -0.29118003731E+03 -0.33928129776E+03  0.50514668193E+03  0.00000000000E+00 0. -1.
        -11    1    3    3    0    0 -0.52889420534E+03 -0.80256319933E+03 -0.72406297732E+03  0.12033719144E+04  0.00000000000E+00 0.  1.
         22    1    1    2    0    0  0.76400174909E+03  0.10937432366E+04 -0.62486168233E+03  0.14732362548E+04  0.00000000000E+00 0.  1.
<mgrwt>
<rscale>  0 0.26969473E+04</rscale>
<asrwt>0</asrwt>
<pdfrwt beam="1">  1        2 0.37461237E+00 0.26969473E+04</pdfrwt>
<pdfrwt beam="2">  1       -2 0.11488838E+00 0.26969473E+04</pdfrwt>
<totfact> 0.19682496E+00</totfact>
</mgrwt>
</event>
<event>
 6    1  0.1528034E-005  0.2028888E+04  0.7818608E-02  0.8593233E-01
          2   -1    0    0  501    0  0.00000000000E+00  0.00000000000E+00  0.18085037489E+04  0.18085037489E+04  0.00000000000E+00 0. -1.
         -2   -1    0    0    0  501 -0.00000000000E+00 -0.00000000000E+00 -0.56903197620E+03  0.56903197620E+03  0.00000000000E+00 0.  1.
         23    2    1    2    0    0  0.84491944173E+03 -0.13652355616E+03  0.12546241956E+04  0.15215233768E+04  0.91782185717E+02 0.  0.
         13    1    3    3    0    0  0.52256263374E+03 -0.12259224831E+03  0.82475867870E+03  0.98403630198E+03  0.00000000000E+00 0. -1.
        -13    1    3    3    0    0  0.32235680799E+03 -0.13931307851E+02  0.42986551694E+03  0.53748707487E+03  0.00000000000E+00 0.  1.
         22    1    1    2    0    0 -0.84491944173E+03  0.13652355616E+03 -0.15152422972E+02  0.85601234823E+03  0.00000000000E+00 0.  1.
<mgrwt>
<rscale>  0 0.20288878E+04</rscale>
<asrwt>0</asrwt>
<pdfrwt beam="1">  1        2 0.27823134E+00 0.20288878E+04</pdfrwt>
<pdfrwt beam="2">  1       -2 0.87543382E-01 0.20288878E+04</pdfrwt>
<totfact> 0.89105592E+00</totfact>
</mgrwt>
</event>
<event>
 6    1  0.1528034E-005  0.1138979E+04  0.7818608E-02  0.9168011E-01
          2   -1    0    0  501    0  0.00000000000E+00  0.00000000000E+00  0.97354273288E+03  0.97354273288E+03  0.00000000000E+00 0.  1.
         -2   -1    0    0    0  501 -0.00000000000E+00 -0.00000000000E+00 -0.33313216798E+03  0.33313216798E+03  0.00000000000E+00 0. -1.
         23    2    1    2    0    0 -0.28698868048E+03 -0.12732713369E+01 -0.23734658957E+03  0.38319141634E+03  0.90211606973E+02 0.  0.
         11    1    3    3    0    0 -0.70522661690E+02 -0.21507230844E+02 -0.10621558042E+03  0.12929716282E+03  0.00000000000E+00 0.  1.
        -11    1    3    3    0    0 -0.21646601879E+03  0.20233959507E+02 -0.13113100916E+03  0.25389425352E+03  0.00000000000E+00 0. -1.
         22    1    1    2    0    0  0.28698868048E+03  0.12732713369E+01  0.87775715447E+03  0.92348348451E+03  0.00000000000E+00 0.  1.
<mgrwt>
<rscale>  0 0.11389792E+04</rscale>
<asrwt>0</asrwt>
<pdfrwt beam="1">  1        2 0.14977580E+00 0.11389792E+04</pdfrwt>
<pdfrwt beam="2">  1       -2 0.51251103E-01 0.11389792E+04</pdfrwt>
<totfact> 0.93358465E+01</totfact>
</mgrwt>
</event>
<event>
 6    1  0.1528034E-005  0.3175150E+04  0.7818608E-02  0.8195411E-01
         -2   -1    0    0    0  501 -0.00000000000E+00  0.00000000000E+00  0.16668468621E+04  0.16668468621E+04  0.00000000000E+00 0. -1.
          2   -1    0    0  501    0  0.00000000000E+00 -0.00000000000E+00 -0.15120735721E+04  0.15120735721E+04  0.00000000000E+00 0.  1.
         23    2    1    2    0    0 -0.15548600541E+04  0.27951256936E+03  0.22086144916E+03  0.15977548170E+04  0.91233826394E+02 0.  0.
         11    1    3    3    0    0 -0.69644901759E+03  0.12848377618E+03  0.53350519945E+02  0.71020813346E+03  0.00000000000E+00 0. -1.
        -11    1    3    3    0    0 -0.85841103651E+03  0.15102879318E+03  0.16751092921E+03  0.88754668349E+03  0.00000000000E+00 0.  1.
         22    1    1    2    0    0  0.15548600541E+04 -0.27951256936E+03 -0.66088159096E+02  0.15811656172E+04  0.00000000000E+00 0. -1.
<mgrwt>
<rscale>  0 0.31751504E+04</rscale>
<asrwt>0</asrwt>
<pdfrwt beam="1">  1        2 0.23262670E+00 0.31751504E+04</pdfrwt>
<pdfrwt beam="2">  1       -2 0.25643798E+00 0.31751504E+04</pdfrwt>
<totfact> 0.61860219E-01</totfact>
</mgrwt>
</event>
<event>
 6    1  0.1528034E-005  0.1592301E+04  0.7818608E-02  0.8825292E-01
         -2   -1    0    0    0  501 -0.00000000000E+00  0.00000000000E+00  0.19261369388E+03  0.19261369388E+03  0.00000000000E+00 0. -1.
          2   -1    0    0  501    0  0.00000000000E+00 -0.00000000000E+00 -0.32908122746E+04  0.32908122746E+04  0.00000000000E+00 0.  1.
         23    2    1    2    0    0 -0.48501658092E+03  0.59500414160E+03 -0.19940749471E+04  0.21386731991E+04  0.91198387511E+02 0.  0.
         11    1    3    3    0    0 -0.11417451239E+03  0.12450130883E+03 -0.34464888042E+03  0.38382189353E+03  0.00000000000E+00 0. -1.
        -11    1    3    3    0    0 -0.37084206852E+03  0.47050283277E+03 -0.16494260666E+04  0.17548513056E+04  0.00000000000E+00 0.  1.
         22    1    1    2    0    0  0.48501658092E+03 -0.59500414160E+03 -0.11041236337E+04  0.13447527693E+04  0.00000000000E+00 0.  1.
<mgrwt>
<rscale>  0 0.15923009E+04</rscale>
<asrwt>0</asrwt>
<pdfrwt beam="1">  1        2 0.50627878E+00 0.15923009E+04</pdfrwt>
<pdfrwt beam="2">  1       -2 0.29632878E-01 0.15923009E+04</pdfrwt>
<totfact> 0.11479406E+01</totfact>
</mgrwt>
</event>
<event>
 6    1  0.1528034E-005  0.2749922E+04  0.7818608E-02  0.8318986E-01
          2   -1    0    0  501    0  0.00000000000E+00  0.00000000000E+00  0.29955381838E+04  0.29955381838E+04  0.00000000000E+00 0. -1.
         -2   -1    0    0    0  501 -0.00000000000E+00 -0.00000000000E+00 -0.63111109449E+03  0.63111109449E+03  0.00000000000E+00 0.  1.
         23    2    1    2    0    0  0.33105613195E+03 -0.72273646619E+03  0.26605230402E+04  0.27783456922E+04  0.94211333909E+02 0.  0.
         11    1    3    3    0    0  0.21129365702E+03 -0.52499393976E+03  0.17677392299E+04  0.18561157375E+04  0.00000000000E+00 0.  1.
        -11    1    3    3    0    0  0.11976247493E+03 -0.19774252643E+03  0.89278381038E+03  0.92222995464E+03  0.00000000000E+00 0. -1.
         22    1    1    2    0    0 -0.33105613195E+03  0.72273646619E+03 -0.29609595094E+03  0.84830358612E+03  0.00000000000E+00 0.  1.
<mgrwt>
<rscale>  0 0.27499217E+04</rscale>
<asrwt>0</asrwt>
<pdfrwt beam="1">  1        2 0.46085202E+00 0.27499217E+04</pdfrwt>
<pdfrwt beam="2">  1       -2 0.97094016E-01 0.27499217E+04</pdfrwt>
<totfact> 0.13554093E+00</totfact>
</mgrwt>
</event>
<event>
 6    1  0.1778104E-005  0.3467780E+04  0.7818608E-02  0.8121468E-01
         -2   -1    0    0    0  501 -0.00000000000E+00  0.00000000000E+00  0.19373078197E+04  0.19373078197E+04  0.00000000000E+00 0.  1.
          2   -1    0    0  501    0  0.00000000000E+00 -0.00000000000E+00 -0.15518312867E+04  0.15518312867E+04  0.00000000000E+00 0. -1.
         23    2    1    2    0    0 -0.51085211293E+03  0.16559731108E+04  0.20974097810E+03  0.17472723461E+04  0.75845557785E+02 0.  0.
         13    1    3    3    0    0 -0.32889736335E+03  0.11629432749E+04  0.16631543659E+03  0.12199472778E+04  0.00000000000E+00 0.  1.
        -13    1    3    3    0    0 -0.18195474958E+03  0.49302983592E+03  0.43425541518E+02  0.52732506830E+03  0.00000000000E+00 0. -1.
         22    1    1    2    0    0  0.51085211293E+03 -0.16559731108E+04  0.17573555491E+03  0.17418667602E+04  0.00000000000E+00 0. -1.
<mgrwt>
<rscale>  0 0.34677802E+04</rscale>
<asrwt>0</asrwt>
<pdfrwt beam="1">  1        2 0.23874328E+00 0.34677802E+04</pdfrwt>
<pdfrwt beam="2">  1       -2 0.29804736E+00 0.34677802E+04</pdfrwt>
<totfact> 0.31941253E-01</totfact>
</mgrwt>
</event>
<event>
 6    1  0.1528034E-005  0.7265251E+03  0.7818608E-02  0.9672916E-01
          2   -1    0    0  501    0  0.00000000000E+00  0.00000000000E+00  0.10528599000E+04  0.10528599000E+04  0.00000000000E+00 0. -1.
         -2   -1    0    0    0  501 -0.00000000000E+00 -0.00000000000E+00 -0.12533451557E+03  0.12533451557E+03  0.00000000000E+00 0.  1.
         23    2    1    2    0    0 -0.84599943194E+02 -0.31324903274E+03  0.23027408954E+03  0.40914209282E+03  0.95336188835E+02 0.  0.
         11    1    3    3    0    0 -0.47863010515E+02 -0.13848345933E+03  0.48550369587E+02  0.15435567587E+03  0.00000000000E+00 0. -1.
        -11    1    3    3    0    0 -0.36736932679E+02 -0.17476557340E+03  0.18172371995E+03  0.25478641695E+03  0.00000000000E+00 0.  1.
         22    1    1    2    0    0  0.84599943194E+02  0.31324903274E+03  0.69725129485E+03  0.76905232271E+03  0.00000000000E+00 0. -1.
<mgrwt>
<rscale>  0 0.72652511E+03</rscale>
<asrwt>0</asrwt>
<pdfrwt beam="1">  1        2 0.16197844E+00 0.72652511E+03</pdfrwt>
<pdfrwt beam="2">  1       -2 0.19282234E-01 0.72652511E+03</pdfrwt>
<totfact> 0.53403904E+02</totfact>
</mgrwt>
</event>
<event>
 6    1  0.1528034E-005  0.2167790E+04  0.7818608E-02  0.8531955E-01
         -1   -1    0    0    0  501 -0.00000000000E+00  0.00000000000E+00  0.11705842751E+04  0.11705842751E+04  0.00000000000E+00 0.  1.
          1   -1    0    0  501    0  0.00000000000E+00 -0.00000000000E+00 -0.10036257578E+04  0.10036257578E+04  0.00000000000E+00 0. -1.
         23    2    1    2    0    0  0.49900898869E+03  0.92542388847E+03  0.33990274784E+03  0.11086918252E+04  0.90798353817E+02 0.  0.
         13    1    3    3    0    0  0.22856725053E+03  0.34671586369E+03  0.16030131210E+03  0.44514198725E+03  0.00000000000E+00 0. -1.
        -13    1    3    3    0    0  0.27044173817E+03  0.57870802478E+03  0.17960143574E+03  0.66354983792E+03  0.00000000000E+00 0.  1.
         22    1    1    2    0    0 -0.49900898869E+03 -0.92542388847E+03 -0.17294423045E+03  0.10655182077E+04  0.00000000000E+00 0.  1.
<mgrwt>
<rscale>  0 0.21677901E+04</rscale>
<asrwt>0</asrwt>
<pdfrwt beam="1">  1        1 0.15440396E+00 0.21677901E+04</pdfrwt>
<pdfrwt beam="2">  1       -1 0.18008989E+00 0.21677901E+04</pdfrwt>
<totfact> 0.28560424E+00</totfact>
</mgrwt>
</event>
<event>
 6    1  0.1528034E-005  0.1137133E+04  0.7818608E-02  0.9169736E-01
         -1   -1    0    0    0  501 -0.00000000000E+00  0.00000000000E+00  0.29219384959E+03  0.29219384959E+03  0.00000000000E+00 0.  1.
          1   -1    0    0  501    0  0.00000000000E+00 -0.00000000000E+00 -0.11063479272E+04  0.11063479272E+04  0.00000000000E+00 0. -1.
         23    2    1    2    0    0  0.11955567665E+03 -0.41613946434E+03 -0.85591555100E+03  0.96355943888E+03  0.91595568748E+02 0.  0.
         11    1    3    3    0    0  0.11002202518E+03 -0.21858574806E+03 -0.48113027208E+03  0.53978784165E+03  0.00000000000E+00 0.  1.
        -11    1    3    3    0    0  0.95336514648E+01 -0.19755371628E+03 -0.37478527892E+03  0.42377159723E+03  0.00000000000E+00 0. -1.
         22    1    1    2    0    0 -0.11955567665E+03  0.41613946434E+03  0.41761473431E+02  0.43498233787E+03  0.00000000000E+00 0.  1.
<mgrwt>
<rscale>  0 0.11371333E+04</rscale>
<asrwt>0</asrwt>
<pdfrwt beam="1">  1        1 0.17020737E+00 0.11371333E+04</pdfrwt>
<pdfrwt beam="2">  1       -1 0.44952900E-01 0.11371333E+04</pdfrwt>
<totfact> 0.61135342E+01</totfact>
</mgrwt>
</event>
<event>
 6    1  0.1528034E-005  0.3856037E+04  0.7818608E-02  0.8034235E-01
          1   -1    0    0  501    0  0.00000000000E+00  0.00000000000E+00  0.23269242872E+04  0.23269242872E+04  0.00000000000E+00 0. -1.
         -1   -1    0    0    0  501 -0.00000000000E+00 -0.00000000000E+00 -0.15974973721E+04  0.15974973721E+04  0.00000000000E+00 0.  1.
         23    2    1    2    0    0 -0.14162981755E+04 -0.91258400183E+03 -0.58678096696E+03  0.17864054593E+04  0.90677889569E+02 0.  0.
         11    1    3    3    0    0 -0.70334075595E+03 -0.46990706442E+03 -0.24890855109E+03  0.88173484391E+03  0.00000000000E+00 0. -1.
        -11    1    3    3    0    0 -0.71295741956E+03 -0.44267693741E+03 -0.33787241587E+03  0.90467061543E+03  0.00000000000E+00 0.  1.
         22    1    1    2    0    0  0.14162981755E+04  0.91258400183E+03  0.13162078821E+04  0.21380161999E+04  0.00000000000E+00 0. -1.
<mgrwt>
<rscale>  0 0.38560371E+04</rscale>
<asrwt>0</asrwt>
<pdfrwt beam="1">  1        1 0.35798835E+00 0.38560371E+04</pdfrwt>
<pdfrwt beam="2">  1       -1 0.24576883E+00 0.38560371E+04</pdfrwt>
<totfact> 0.10497434E-01</totfact>
</mgrwt>
</event>
<event>
 6    1  0.1528034E-005  0.3638791E+04  0.7818608E-02  0.8081663E-01
         -1   -1    0    0    0  501 -0.00000000000E+00  0.00000000000E+00  0.95993304606E+03  0.95993304606E+03  0.00000000000E+00 0.  1.
          1   -1    0    0  501    0  0.00000000000E+00 -0.00000000000E+00 -0.34483660028E+04  0.34483660028E+04  0.00000000000E+00 0. -1.
         23    2    1    2    0    0  0.26600815808E+03  0.16523580222E+04 -0.21056828970E+04  0.26914574773E+04  0.94844692437E+02 0.  0.
         11    1    3    3    0    0  0.39655670768E+02  0.19435189430E+03 -0.29941189007E+03  0.35915555259E+03  0.00000000000E+00 0. -1.
        -11    1    3    3    0    0  0.22635248731E+03  0.14580061279E+04 -0.18062710069E+04  0.23323019247E+04  0.00000000000E+00 0.  1.
         22    1    1    2    0    0 -0.26600815808E+03 -0.16523580222E+04 -0.38275005975E+03  0.17168415716E+04  0.00000000000E+00 0.  1.
<mgrwt>
<rscale>  0 0.36387913E+04</rscale>
<asrwt>0</asrwt>
<pdfrwt beam="1">  1        1 0.53051785E+00 0.36387913E+04</pdfrwt>
<pdfrwt beam="2">  1       -1 0.14768201E+00 0.36387913E+04</pdfrwt>
<totfact> 0.80377521E-02</totfact>
</mgrwt>
</event>
<event>
 6    1  0.1528034E-005  0.8142675E+03  0.7818608E-02  0.9539592E-01
          2   -1    0    0  501    0  0.00000000000E+00  0.00000000000E+00  0.19818273409E+03  0.19818273409E+03  0.00000000000E+00 0. -1.
         -2   -1    0    0    0  501 -0.00000000000E+00 -0.00000000000E+00 -0.83638925691E+03  0.83638925691E+03  0.00000000000E+00 0.  1.
         23    2    1    2    0    0 -0.21777244529E+03 -0.28204755348E+03 -0.86190176046E+02  0.37753492397E+03  0.90156597217E+02 0.  0.
         11    1    3    3    0    0 -0.11741943500E+03 -0.18576095478E+03 -0.12431427309E+02  0.22011132734E+03  0.00000000000E+00 0.  1.
        -11    1    3    3    0    0 -0.10035301029E+03 -0.96286598699E+02 -0.73758748737E+02  0.15742359664E+03  0.00000000000E+00 0. -1.
         22    1    1    2    0    0  0.21777244529E+03  0.28204755348E+03 -0.55201634677E+03  0.65703706703E+03  0.00000000000E+00 0.  1.
<mgrwt>
<rscale>  0 0.81426755E+03</rscale>
<asrwt>0</asrwt>
<pdfrwt beam="1">  1        2 0.30489652E-01 0.81426755E+03</pdfrwt>
<pdfrwt beam="2">  1       -2 0.12867527E+00 0.81426755E+03</pdfrwt>
<totfact> 0.78413419E+01</totfact>
</mgrwt>
</event>
<event>
 6    1  0.1528034E-005  0.5935159E+04  0.7818608E-02  0.7698494E-01
          1   -1    0    0  501    0  0.00000000000E+00  0.00000000000E+00  0.28738457867E+04  0.28738457867E+04  0.00000000000E+00 0. -1.
         -1   -1    0    0    0  501 -0.00000000000E+00 -0.00000000000E+00 -0.30643702507E+04  0.30643702507E+04  0.00000000000E+00 0.  1.
         23    2    1    2    0    0  0.88900817249E+03  0.27767124463E+04 -0.64506962224E+03  0.29874400646E+04  0.90640949811E+02 0.  0.
         11    1    3    3    0    0  0.21833971140E+03  0.56778170616E+03 -0.14682032592E+03  0.62578311221E+03  0.00000000000E+00 0.  1.
        -11    1    3    3    0    0  0.67066846110E+03  0.22089307402E+04 -0.49824929633E+03  0.23616569524E+04  0.00000000000E+00 0. -1.
         22    1    1    2    0    0 -0.88900817249E+03 -0.27767124463E+04  0.45454515822E+03  0.29507759727E+04  0.00000000000E+00 0.  1.
<mgrwt>
<rscale>  0 0.59351588E+04</rscale>
<asrwt>0</asrwt>
<pdfrwt beam="1">  1        1 0.44213012E+00 0.59351588E+04</pdfrwt>
<pdfrwt beam="2">  1       -1 0.47144157E+00 0.59351588E+04</pdfrwt>
<totfact> 0.11498539E-03</totfact>
</mgrwt>
</event>
<event>
 6    1  0.1528034E-005  0.2862576E+04  0.7818608E-02  0.8284100E-01
          1   -1    0    0  501    0  0.00000000000E+00  0.00000000000E+00  0.17601489672E+04  0.17601489672E+04  0.00000000000E+00 0. -1.
         -1   -1    0    0    0  501 -0.00000000000E+00 -0.00000000000E+00 -0.11638702031E+04  0.11638702031E+04  0.00000000000E+00 0.  1.
         23    2    1    2    0    0 -0.29294154460E+03  0.13579509566E+04  0.64389258083E+03  0.15340146291E+04  0.93582463857E+02 0.  0.
         13    1    3    3    0    0 -0.26377517380E+03  0.11972010175E+04  0.53431791411E+03  0.13372969947E+04  0.00000000000E+00 0.  1.
        -13    1    3    3    0    0 -0.29166370796E+02  0.16074993911E+03  0.10957466672E+03  0.19671763443E+03  0.00000000000E+00 0. -1.
         22    1    1    2    0    0  0.29294154460E+03 -0.13579509566E+04 -0.47613816773E+02  0.13900045412E+04  0.00000000000E+00 0.  1.
<mgrwt>
<rscale>  0 0.28625757E+04</rscale>
<asrwt>0</asrwt>
<pdfrwt beam="1">  1        1 0.27079215E+00 0.28625757E+04</pdfrwt>
<pdfrwt beam="2">  1       -1 0.17905696E+00 0.28625757E+04</pdfrwt>
<totfact> 0.78939954E-01</totfact>
</mgrwt>
</event>
<event>
 6    1  0.1528034E-005  0.9657557E+03  0.7818608E-02  0.9346922E-01
          1   -1    0    0  501    0  0.00000000000E+00  0.00000000000E+00  0.25591204572E+04  0.25591204572E+04  0.00000000000E+00 0. -1.
         -1   -1    0    0    0  501 -0.00000000000E+00 -0.00000000000E+00 -0.91113739359E+02  0.91113739359E+02  0.00000000000E+00 0.  1.
         23    2    1    2    0    0 -0.27481191546E+03  0.47191413883E+01  0.23202380570E+04  0.23381774128E+04  0.89582996381E+02 0.  0.
         13    1    3    3    0    0 -0.99646273018E+02  0.44952021940E+02  0.89644116379E+03  0.90308184797E+03  0.00000000000E+00 0.  1.
        -13    1    3    3    0    0 -0.17516564244E+03 -0.40232880551E+02  0.14237968932E+04  0.14350955648E+04  0.00000000000E+00 0. -1.
         22    1    1    2    0    0  0.27481191546E+03 -0.47191413883E+01  0.14776866080E+03  0.31205678376E+03  0.00000000000E+00 0.  1.
<mgrwt>
<rscale>  0 0.96575573E+03</rscale>
<asrwt>0</asrwt>
<pdfrwt beam="1">  1        1 0.39371078E+00 0.96575573E+03</pdfrwt>
<pdfrwt beam="2">  1       -1 0.14017500E-01 0.96575573E+03</pdfrwt>
<totfact> 0.46183096E+01</totfact>
</mgrwt>
</event>
<event>
 6    1  0.1528034E-005  0.3753813E+04  0.7818608E-02  0.8056140E-01
         -2   -1    0    0    0  501 -0.00000000000E+00  0.00000000000E+00  0.16884384195E+04  0.16884384195E+04  0.00000000000E+00 0. -1.
          2   -1    0    0  501    0  0.00000000000E+00 -0.00000000000E+00 -0.20864115640E+04  0.20864115640E+04  0.00000000000E+00 0.  1.
         23    2    1    2    0    0  0.10723740042E+04 -0.14933207120E+04 -0.57344048387E+03  0.19280198504E+04  0.91835729282E+02 0.  0.
         11    1    3    3    0    0  0.59604146371E+03 -0.78078832064E+03 -0.26881715478E+03  0.10184097853E+04  0.00000000000E+00 0.  1.
        -11    1    3    3    0    0  0.47633254050E+03 -0.71253239131E+03 -0.30462332909E+03  0.90961006504E+03  0.00000000000E+00 0. -1.
         22    1    1    2    0    0 -0.10723740042E+04  0.14933207120E+04  0.17546733933E+03  0.18468301332E+04  0.00000000000E+00 0.  1.
<mgrwt>
<rscale>  0 0.37538127E+04</rscale>
<asrwt>0</asrwt>
<pdfrwt beam="1">  1        2 0.32098640E+00 0.37538127E+04</pdfrwt>
<pdfrwt beam="2">  1       -2 0.25975975E+00 0.37538127E+04</pdfrwt>
<totfact> 0.26944017E-01</totfact>
</mgrwt>
</event>
<event>
 6    1  0.1528034E-005  0.3336242E+04  0.7818608E-02  0.8153734E-01
          2   -1    0    0  501    0  0.00000000000E+00  0.00000000000E+00  0.27451469189E+04  0.27451469189E+04  0.00000000000E+00 0. -1.
         -2   -1    0    0    0  501 -0.00000000000E+00 -0.00000000000E+00 -0.10136536719E+04  0.10136536719E+04  0.00000000000E+00 0.  1.
         23    2    1    2    0    0 -0.24255068668E+03 -0.88040562591E+03 -0.70492063108E+03  0.11568671775E+04  0.86508198569E+02 0.  0.
         11    1    3    3    0    0 -0.22179138050E+03 -0.66770128243E+03 -0.53904211860E+03  0.88633110328E+03  0.00000000000E+00 0.  1.
        -11    1    3    3    0    0 -0.20759306178E+02 -0.21270434348E+03 -0.16587851248E+03  0.27053607418E+03  0.00000000000E+00 0. -1.
         22    1    1    2    0    0  0.24255068668E+03  0.88040562591E+03  0.24364138781E+04  0.26019334133E+04  0.00000000000E+00 0. -1.
<mgrwt>
<rscale>  0 0.33362423E+04</rscale>
<asrwt>0</asrwt>
<pdfrwt beam="1">  1        2 0.42233029E+00 0.33362423E+04</pdfrwt>
<pdfrwt beam="2">  1       -2 0.15594672E+00 0.33362423E+04</pdfrwt>
<totfact> 0.56095663E-01</totfact>
</mgrwt>
</event>
<event>
 6    1  0.1528034E-005  0.3097800E+04  0.7818608E-02  0.8216342E-01
         -1   -1    0    0    0  501 -0.00000000000E+00  0.00000000000E+00  0.36364571779E+04  0.36364571779E+04  0.00000000000E+00 0.  1.
          1   -1    0    0  501    0  0.00000000000E+00 -0.00000000000E+00 -0.65973310224E+03  0.65973310224E+03  0.00000000000E+00 0. -1.
         23    2    1    2    0    0  0.11774319388E+04 -0.86993310225E+03  0.21854947107E+04  0.26321069046E+04  0.92032895109E+02 0.  0.
         11    1    3    3    0    0  0.10386595692E+04 -0.73583186229E+03  0.19289260322E+04  0.23110642284E+04  0.00000000000E+00 0.  1.
        -11    1    3    3    0    0  0.13877236957E+03 -0.13410123997E+03  0.25656867850E+03  0.32104267614E+03  0.00000000000E+00 0. -1.
         22    1    1    2    0    0 -0.11774319388E+04  0.86993310225E+03  0.79122936502E+03  0.16640833756E+04  0.00000000000E+00 0. -1.
<mgrwt>
<rscale>  0 0.30978000E+04</rscale>
<asrwt>0</asrwt>
<pdfrwt beam="1">  1        1 0.10149740E+00 0.30978000E+04</pdfrwt>
<pdfrwt beam="2">  1       -1 0.55945494E+00 0.30978000E+04</pdfrwt>
<totfact> 0.16745110E-02</totfact>
</mgrwt>
</event>
<event>
 6    1  0.1528034E-005  0.1204987E+04  0.7818608E-02  0.9108502E-01
         -1   -1    0    0    0  501 -0.00000000000E+00  0.00000000000E+00  0.18600295862E+03  0.18600295862E+03  0.00000000000E+00 0.  1.
          1   -1    0    0  501    0  0.00000000000E+00 -0.00000000000E+00 -0.19515746297E+04  0.19515746297E+04  0.00000000000E+00 0. -1.
         23    2    1    2    0    0  0.41165784387E+03 -0.39825012160E+03 -0.57644689659E+03  0.81769764337E+03  0.90956426984E+02 0.  0.
         13    1    3    3    0    0  0.14585734656E+03 -0.10634049237E+03 -0.13457904776E+03  0.22515369408E+03  0.00000000000E+00 0.  1.
        -13    1    3    3    0    0  0.26580049732E+03 -0.29190962923E+03 -0.44186784883E+03  0.59254394929E+03  0.00000000000E+00 0. -1.
         22    1    1    2    0    0 -0.41165784387E+03  0.39825012160E+03 -0.11891247745E+04  0.13198799449E+04  0.00000000000E+00 0. -1.
<mgrwt>
<rscale>  0 0.12049874E+04</rscale>
<asrwt>0</asrwt>
<pdfrwt beam="1">  1        1 0.30024223E+00 0.12049874E+04</pdfrwt>
<pdfrwt beam="2">  1       -1 0.28615842E-01 0.12049874E+04</pdfrwt>
<totfact> 0.35305275E+01</totfact>
</mgrwt>
</event>
<event>
 6    1  0.1528034E-005  0.2424906E+04  0.7818608E-02  0.8430237E-01
         -2   -1    0    0    0  501 -0.00000000000E+00  0.00000000000E+00  0.88319173796E+03  0.88319173796E+03  0.00000000000E+00 0.  1.
          2   -1    0    0  501    0  0.00000000000E+00 -0.00000000000E+00 -0.16644659319E+04  0.16644659319E+04  0.00000000000E+00 0. -1.
         23    2    1    2    0    0 -0.65259029516E+03 -0.53171551159E+03 -0.13056960554E+04  0.15558846276E+04  0.85669753613E+02 0.  0.
         13    1    3    3    0    0 -0.21431899751E+03 -0.17844994136E+03 -0.50881009195E+03  0.58022816541E+03  0.00000000000E+00 0.  1.
        -13    1    3    3    0    0 -0.43827129765E+03 -0.35326557023E+03 -0.79688596349E+03  0.97565646221E+03  0.00000000000E+00 0. -1.
         22    1    1    2    0    0  0.65259029516E+03  0.53171551159E+03  0.52442186146E+03  0.99177304227E+03  0.00000000000E+00 0.  1.
<mgrwt>
<rscale>  0 0.24249062E+04</rscale>
<asrwt>0</asrwt>
<pdfrwt beam="1">  1        2 0.25607168E+00 0.24249062E+04</pdfrwt>
<pdfrwt beam="2">  1       -2 0.13587565E+00 0.24249062E+04</pdfrwt>
<totfact> 0.35748395E+00</totfact>
</mgrwt>
</event>
<event>
 6    1  0.1528034E-005  0.4634785E+04  0.7818608E-02  0.7887456E-01
          2   -1    0    0  501    0  0.00000000000E+00  0.00000000000E+00  0.25429042315E+04  0.25429042315E+04  0.00000000000E+00 0. -1.
         -2   -1    0    0    0  501 -0.00000000000E+00 -0.00000000000E+00 -0.21118799151E+04  0.21118799151E+04  0.00000000000E+00 0.  1.
         23    2    1    2    0    0  0.27661607564E+03  0.16715768255E+04 -0.13708746802E+04  0.21814209443E+04  0.92813849506E+02 0.  0.
         13    1    3    3    0    0  0.19110081856E+02  0.26933421822E+03 -0.18954661712E+03  0.32990004000E+03  0.00000000000E+00 0. -1.
        -13    1    3    3    0    0  0.25750599379E+03  0.14022426073E+04 -0.11813280631E+04  0.18515209043E+04  0.00000000000E+00 0.  1.
         22    1    1    2    0    0 -0.27661607564E+03 -0.16715768255E+04  0.18018989965E+04  0.24733632023E+04  0.00000000000E+00 0. -1.
<mgrwt>
<rscale>  0 0.46347852E+04</rscale>
<asrwt>0</asrwt>
<pdfrwt beam="1">  1        2 0.39121603E+00 0.46347852E+04</pdfrwt>
<pdfrwt beam="2">  1       -2 0.32490460E+00 0.46347852E+04</pdfrwt>
<totfact> 0.55001226E-02</totfact>
</mgrwt>
</event>
<event>
 6    1  0.1528034E-005  0.3453192E+04  0.7818608E-02  0.8124973E-01
          2   -1    0    0  501    0  0.00000000000E+00  0.00000000000E+00  0.24301011931E+04  0.24301011931E+04  0.00000000000E+00 0.  1.
         -2   -1    0    0    0  501 -0.00000000000E+00 -0.00000000000E+00 -0.12267531912E+04  0.12267531912E+04  0.00000000000E+00 0. -1.
         23    2    1    2    0    0 -0.85373793595E+03 -0.73344470441E+03 -0.78279522597E+03  0.13739670635E+04  0.90595407943E+02 0.  0.
         11    1    3    3    0    0 -0.58671226006E+03 -0.45150644704E+03 -0.53310207763E+03  0.91229774361E+03  0.00000000000E+00 0. -1.
        -11    1    3    3    0    0 -0.26702567589E+03 -0.28193825738E+03 -0.24969314833E+03  0.46166931984E+03  0.00000000000E+00 0.  1.
         22    1    1    2    0    0  0.85373793595E+03  0.73344470441E+03  0.19861432279E+04  0.22828873208E+04  0.00000000000E+00 0.  1.
<mgrwt>
<rscale>  0 0.34531924E+04</rscale>
<asrwt>0</asrwt>
<pdfrwt beam="1">  1        2 0.37386172E+00 0.34531924E+04</pdfrwt>
<pdfrwt beam="2">  1       -2 0.18873126E+00 0.34531924E+04</pdfrwt>
<totfact> 0.49809538E-01</totfact>
</mgrwt>
</event>
<event>
 6    1  0.1528034E-005  0.4145950E+03  0.7818608E-02  0.1038840E+00
         -2   -1    0    0    0  501 -0.00000000000E+00  0.00000000000E+00  0.74001598918E+02  0.74001598918E+02  0.00000000000E+00 0.  1.
          2   -1    0    0  501    0  0.00000000000E+00 -0.00000000000E+00 -0.58069351747E+03  0.58069351747E+03  0.00000000000E+00 0. -1.
         23    2    1    2    0    0  0.82832668193E+02 -0.16482666905E+03 -0.37605809200E+03  0.42865468109E+03  0.91082738816E+02 0.  0.
         11    1    3    3    0    0 -0.34382267795E+01 -0.59617327416E+02 -0.60466818141E+02  0.84984017485E+02  0.00000000000E+00 0.  1.
        -11    1    3    3    0    0  0.86270894972E+02 -0.10520934163E+03 -0.31559127386E+03  0.34367066361E+03  0.00000000000E+00 0. -1.
         22    1    1    2    0    0 -0.82832668193E+02  0.16482666905E+03 -0.13063382655E+03  0.22604043530E+03  0.00000000000E+00 0. -1.
<mgrwt>
<rscale>  0 0.41459498E+03</rscale>
<asrwt>0</asrwt>
<pdfrwt beam="1">  1        2 0.89337470E-01 0.41459498E+03</pdfrwt>
<pdfrwt beam="2">  1       -2 0.11384861E-01 0.41459498E+03</pdfrwt>
<totfact> 0.28397516E+03</totfact>
</mgrwt>
</event>
<event>
 6    1  0.1528034E-005  0.7277178E+03  0.7818608E-02  0.9670971E-01
         -2   -1    0    0    0  501 -0.00000000000E+00  0.00000000000E+00  0.79964650078E+02  0.79964650078E+02  0.00000000000E+00 0.  1.
          2   -1    0    0  501    0  0.00000000000E+00 -0.00000000000E+00 -0.16556477572E+04  0.16556477572E+04  0.00000000000E+00 0. -1.
         23    2    1    2    0    0 -0.14709160974E+03  0.15196873290E+03 -0.14895383586E+04  0.15072456953E+04  0.91294177769E+02 0.  0.
         13    1    3    3    0    0 -0.55968570183E+02  0.10599206783E+02 -0.53274277994E+03  0.53577951959E+03  0.00000000000E+00 0. -1.
        -13    1    3    3    0    0 -0.91123039561E+02  0.14136952612E+03 -0.95679557868E+03  0.97146617576E+03  0.00000000000E+00 0.  1.
         22    1    1    2    0    0  0.14709160974E+03 -0.15196873290E+03 -0.86144748541E+02  0.22836671197E+03  0.00000000000E+00 0.  1.
<mgrwt>
<rscale>  0 0.72771778E+03</rscale>
<asrwt>0</asrwt>
<pdfrwt beam="1">  1        2 0.25471504E+00 0.72771778E+03</pdfrwt>
<pdfrwt beam="2">  1       -2 0.12302254E-01 0.72771778E+03</pdfrwt>
<totfact> 0.51553780E+02</totfact>
</mgrwt>
</event>
<event>
 6    1  0.1528034E-005  0.3781661E+04  0.7818608E-02  0.8050102E-01
          2   -1    0    0  501    0  0.00000000000E+00  0.00000000000E+00  0.36293469486E+04  0.36293469486E+04  0.00000000000E+00 0. -1.
         -2   -1    0    0    0  501 -0.00000000000E+00 -0.00000000000E+00 -0.98509195274E+03  0.98509195274E+03  0.00000000000E+00 0.  1.
         23    2    1    2    0    0  0.67039294134E+03 -0.51734963370E+03 -0.73858477436E+03  0.11272219235E+04  0.89690895237E+02 0.  0.
         13    1    3    3    0    0  0.35642071716E+03 -0.23381667487E+03 -0.41138549776E+03  0.59240526064E+03  0.00000000000E+00 0.  1.
        -13    1    3    3    0    0  0.31397222418E+03 -0.28353295883E+03 -0.32719927660E+03  0.53481666289E+03  0.00000000000E+00 0. -1.
         22    1    1    2    0    0 -0.67039294134E+03  0.51734963370E+03  0.33828397702E+04  0.34872169778E+04  0.00000000000E+00 0. -1.
<mgrwt>
<rscale>  0 0.37816613E+04</rscale>
<asrwt>0</asrwt>
<pdfrwt beam="1">  1        2 0.55836106E+00 0.37816613E+04</pdfrwt>
<pdfrwt beam="2">  1       -2 0.15155261E+00 0.37816613E+04</pdfrwt>
<totfact> 0.15359993E-01</totfact>
</mgrwt>
</event>
<event>
 6    1  0.1528034E-005  0.1589740E+04  0.7818608E-02  0.8826876E-01
         -2   -1    0    0    0  501 -0.00000000000E+00  0.00000000000E+00  0.90567754586E+03  0.90567754586E+03  0.00000000000E+00 0.  1.
          2   -1    0    0  501    0  0.00000000000E+00 -0.00000000000E+00 -0.69761909711E+03  0.69761909711E+03  0.00000000000E+00 0. -1.
         23    2    1    2    0    0  0.53591678122E+03  0.21073616241E+03 -0.44448774164E+03  0.73299034222E+03  0.89938661242E+02 0.  0.
         11    1    3    3    0    0  0.29073687054E+03  0.91442207853E+02 -0.28408920224E+03  0.41664886907E+03  0.00000000000E+00 0. -1.
        -11    1    3    3    0    0  0.24517991068E+03  0.11929395456E+03 -0.16039853939E+03  0.31634147315E+03  0.00000000000E+00 0.  1.
         22    1    1    2    0    0 -0.53591678122E+03 -0.21073616241E+03  0.65254619038E+03  0.87030630075E+03  0.00000000000E+00 0.  1.
<mgrwt>
<rscale>  0 0.15897395E+04</rscale>
<asrwt>0</asrwt>
<pdfrwt beam="1">  1        2 0.10732601E+00 0.15897395E+04</pdfrwt>
<pdfrwt beam="2">  1       -2 0.13933501E+00 0.15897395E+04</pdfrwt>
<totfact> 0.14354064E+01</totfact>
</mgrwt>
</event>
<event>
 6    1  0.1528034E-005  0.1318162E+04  0.7818608E-02  0.9015285E-01
         -2   -1    0    0    0  501 -0.00000000000E+00  0.00000000000E+00  0.30066028286E+03  0.30066028286E+03  0.00000000000E+00 0.  1.
          2   -1    0    0  501    0  0.00000000000E+00 -0.00000000000E+00 -0.14447791493E+04  0.14447791493E+04  0.00000000000E+00 0. -1.
         23    2    1    2    0    0 -0.64755818618E+03  0.94600855209E+02 -0.51343135963E+03  0.83656779240E+03  0.89179504036E+02 0.  0.
         11    1    3    3    0    0 -0.19834993722E+03 -0.41138634470E+01 -0.12435209816E+03  0.23414325911E+03  0.00000000000E+00 0. -1.
        -11    1    3    3    0    0 -0.44920824895E+03  0.98714718656E+02 -0.38907926147E+03  0.60242453329E+03  0.00000000000E+00 0.  1.
         22    1    1    2    0    0  0.64755818618E+03 -0.94600855209E+02 -0.63068750681E+03  0.90887163975E+03  0.00000000000E+00 0.  1.
<mgrwt>
<rscale>  0 0.13181619E+04</rscale>
<asrwt>0</asrwt>
<pdfrwt beam="1">  1        2 0.22227372E+00 0.13181619E+04</pdfrwt>
<pdfrwt beam="2">  1       -2 0.46255428E-01 0.13181619E+04</pdfrwt>
<totfact> 0.59165962E+01</totfact>
</mgrwt>
</event>
<event>
 6    1  0.1528034E-005  0.1705388E+04  0.7818608E-02  0.8758297E-01
          2   -1    0    0  501    0  0.00000000000E+00  0.00000000000E+00  0.20670504931E+04  0.20670504931E+04  0.00000000000E+00 0. -1.
         -2   -1    0    0    0  501 -0.00000000000E+00 -0.00000000000E+00 -0.35175101259E+03  0.35175101259E+03  0.00000000000E+00 0.  1.
         23    2    1    2    0    0 -0.28251755750E+03  0.65714994386E+03  0.15122194724E+04  0.16752265541E+04  0.88960979447E+02 0.  0.
         13    1    3    3    0    0 -0.37314015440E+02  0.13134758338E+03  0.22305867707E+03  0.26153335700E+03  0.00000000000E+00 0. -1.
        -13    1    3    3    0    0 -0.24520354206E+03  0.52580236048E+03  0.12891607953E+04  0.14136931971E+04  0.00000000000E+00 0.  1.
         22    1    1    2    0    0  0.28251755750E+03 -0.65714994386E+03  0.20308000818E+03  0.74357495166E+03  0.00000000000E+00 0. -1.
<mgrwt>
<rscale>  0 0.17053881E+04</rscale>
<asrwt>0</asrwt>
<pdfrwt beam="1">  1        2 0.31800776E+00 0.17053881E+04</pdfrwt>
<pdfrwt beam="2">  1       -2 0.54115542E-01 0.17053881E+04</pdfrwt>
<totfact> 0.18752990E+01</totfact>
</mgrwt>
</event>
<event>
 6    1  0.2662280E-005  0.4562194E+04  0.7818608E-02  0.7899838E-01
          2   -1    0    0  501    0  0.00000000000E+00  0.00000000000E+00  0.28412222101E+04  0.28412222101E+04  0.00000000000E+00 0. -1.
         -2   -1    0    0    0  501 -0.00000000000E+00 -0.00000000000E+00 -0.18313959727E+04  0.18313959727E+04  0.00000000000E+00 0.  1.
         23    2    1    2    0    0 -0.15864990387E+04 -0.13190884666E+04 -0.48914566354E+03  0.21223455812E+04  0.90076099964E+02 0.  0.
         11    1    3    3    0    0 -0.95650561620E+03 -0.79834427083E+03 -0.34048692512E+03  0.12915834912E+04  0.00000000000E+00 0.  1.
        -11    1    3    3    0    0 -0.62999342245E+03 -0.52074419573E+03 -0.14865873843E+03  0.83076209003E+03  0.00000000000E+00 0. -1.
         22    1    1    2    0    0  0.15864990387E+04  0.13190884666E+04  0.14989719009E+04  0.25502726015E+04  0.00000000000E+00 0. -1.
<mgrwt>
<rscale>  0 0.45621937E+04</rscale>
<asrwt>0</asrwt>
<pdfrwt beam="1">  1        2 0.43711111E+00 0.45621937E+04</pdfrwt>
<pdfrwt beam="2">  1       -2 0.28175323E+00 0.45621937E+04</pdfrwt>
<totfact> 0.67598645E-02</totfact>
</mgrwt>
</event>
<event>
 6    1  0.1528034E-005  0.1848144E+04  0.7818608E-02  0.8681108E-01
         -1   -1    0    0    0  501 -0.00000000000E+00  0.00000000000E+00  0.37631444982E+03  0.37631444982E+03  0.00000000000E+00 0.  1.
          1   -1    0    0  501    0  0.00000000000E+00 -0.00000000000E+00 -0.22691361946E+04  0.22691361946E+04  0.00000000000E+00 0. -1.
         23    2    1    2    0    0  0.22237711971E+02 -0.21615774691E+03 -0.22310895595E+04  0.22434011428E+04  0.88709512490E+02 0.  0.
         11    1    3    3    0    0 -0.20088418351E+02 -0.11916452944E+03 -0.89407402643E+03  0.90220402037E+03  0.00000000000E+00 0.  1.
        -11    1    3    3    0    0  0.42326130323E+02 -0.96993217465E+02 -0.13370155330E+04  0.13411971224E+04  0.00000000000E+00 0. -1.
         22    1    1    2    0    0 -0.22237711971E+02  0.21615774691E+03  0.33826781465E+03  0.40204950169E+03  0.00000000000E+00 0.  1.
<mgrwt>
<rscale>  0 0.18481437E+04</rscale>
<asrwt>0</asrwt>
<pdfrwt beam="1">  1        1 0.34909788E+00 0.18481437E+04</pdfrwt>
<pdfrwt beam="2">  1       -1 0.57894530E-01 0.18481437E+04</pdfrwt>
<totfact> 0.55520663E+00</totfact>
</mgrwt>
</event>
<event>
 6    1  0.1528034E-005  0.5583325E+03  0.7818608E-02  0.9995835E-01
         -1   -1    0    0    0  501 -0.00000000000E+00  0.00000000000E+00  0.12651762138E+03  0.12651762138E+03  0.00000000000E+00 0.  1.
          1   -1    0    0  501    0  0.00000000000E+00 -0.00000000000E+00 -0.61599170526E+03  0.61599170526E+03  0.00000000000E+00 0. -1.
         23    2    1    2    0    0 -0.11292036199E+03 -0.23276288750E+03 -0.13958919889E+03  0.30736681815E+03  0.89775534006E+02 0.  0.
         11    1    3    3    0    0 -0.12803516644E+03 -0.19805342499E+03 -0.11672542213E+03  0.26314062242E+03  0.00000000000E+00 0. -1.
        -11    1    3    3    0    0  0.15114804452E+02 -0.34709462514E+02 -0.22863776757E+02  0.44226195736E+02  0.00000000000E+00 0.  1.
         22    1    1    2    0    0  0.11292036199E+03  0.23276288750E+03 -0.34988488499E+03  0.43514250849E+03  0.00000000000E+00 0.  1.
<mgrwt>
<rscale>  0 0.55833254E+03</rscale>
<asrwt>0</asrwt>
<pdfrwt beam="1">  1        1 0.94767955E-01 0.55833254E+03</pdfrwt>
<pdfrwt beam="2">  1       -1 0.19464249E-01 0.55833254E+03</pdfrwt>
<totfact> 0.71134714E+02</totfact>
</mgrwt>
</event>
<event>
 6    1  0.1528034E-005  0.3383508E+04  0.7818608E-02  0.8141966E-01
         -1   -1    0    0    0  501 -0.00000000000E+00  0.00000000000E+00  0.13441662089E+04  0.13441662089E+04  0.00000000000E+00 0.  1.
          1   -1    0    0  501    0  0.00000000000E+00 -0.00000000000E+00 -0.21292248267E+04  0.21292248267E+04  0.00000000000E+00 0. -1.
         23    2    1    2    0    0 -0.15566299776E+04 -0.62725499225E+03 -0.60105237140E+03  0.17850770804E+04  0.93222944274E+02 0.  0.
         13    1    3    3    0    0 -0.21479548662E+02 -0.19159992401E+02 -0.18052139700E+02  0.33975815918E+02  0.00000000000E+00 0.  1.
        -13    1    3    3    0    0 -0.15351504290E+04 -0.60809499985E+03 -0.58300023170E+03  0.17511012645E+04  0.00000000000E+00 0. -1.
         22    1    1    2    0    0  0.15566299776E+04  0.62725499225E+03 -0.18400624634E+03  0.16883139552E+04  0.00000000000E+00 0.  1.
<mgrwt>
<rscale>  0 0.33835083E+04</rscale>
<asrwt>0</asrwt>
<pdfrwt beam="1">  1        1 0.32757305E+00 0.33835083E+04</pdfrwt>
<pdfrwt beam="2">  1       -1 0.20679480E+00 0.33835083E+04</pdfrwt>
<totfact> 0.27112294E-01</totfact>
</mgrwt>
</event>
<event>
 6    1  0.1528034E-005  0.5903682E+03  0.7818608E-02  0.9925593E-01
         -2   -1    0    0    0  501 -0.00000000000E+00  0.00000000000E+00  0.11165357667E+03  0.11165357667E+03  0.00000000000E+00 0.  1.
          2   -1    0    0  501    0  0.00000000000E+00 -0.00000000000E+00 -0.78039291699E+03  0.78039291699E+03  0.00000000000E+00 0. -1.
         23    2    1    2    0    0  0.63189409656E+02 -0.15996683235E+03  0.72198600750E+01  0.19454873054E+03  0.90635496537E+02 0.  0.
         11    1    3    3    0    0  0.30560820819E+02 -0.15065382157E+03 -0.14271968997E+02  0.15438337612E+03  0.00000000000E+00 0. -1.
        -11    1    3    3    0    0  0.32628588836E+02 -0.93130107776E+01  0.21491829072E+02  0.40165354425E+02  0.00000000000E+00 0.  1.
         22    1    1    2    0    0 -0.63189409656E+02  0.15996683235E+03 -0.67595920040E+03  0.69749776311E+03  0.00000000000E+00 0. -1.
<mgrwt>
<rscale>  0 0.59036823E+03</rscale>
<asrwt>0</asrwt>
<pdfrwt beam="1">  1        2 0.12006044E+00 0.59036823E+03</pdfrwt>
<pdfrwt beam="2">  1       -2 0.17177474E-01 0.59036823E+03</pdfrwt>
<totfact> 0.99464067E+02</totfact>
</mgrwt>
</event>
<event>
 6    1  0.1528034E-005  0.1420419E+04  0.7818608E-02  0.8939169E-01
         -1   -1    0    0    0  501 -0.00000000000E+00  0.00000000000E+00  0.63424939914E+03  0.63424939914E+03  0.00000000000E+00 0.  1.
          1   -1    0    0  501    0  0.00000000000E+00 -0.00000000000E+00 -0.79526690310E+03  0.79526690310E+03  0.00000000000E+00 0. -1.
         23    2    1    2    0    0  0.16451782235E+03 -0.68418394336E+03 -0.93113293773E+01  0.70966316054E+03  0.91440244652E+02 0.  0.
         11    1    3    3    0    0  0.15938887920E+03 -0.48937882602E+03 -0.30494383975E+01  0.51468995449E+03  0.00000000000E+00 0.  1.
        -11    1    3    3    0    0  0.51289431477E+01 -0.19480511734E+03 -0.62618909798E+01  0.19497320605E+03  0.00000000000E+00 0. -1.
         22    1    1    2    0    0 -0.16451782235E+03  0.68418394336E+03 -0.15170617458E+03  0.71985314171E+03  0.00000000000E+00 0. -1.
<mgrwt>
<rscale>  0 0.14204190E+04</rscale>
<asrwt>0</asrwt>
<pdfrwt beam="1">  1        1 0.12234875E+00 0.14204190E+04</pdfrwt>
<pdfrwt beam="2">  1       -1 0.97576831E-01 0.14204190E+04</pdfrwt>
<totfact> 0.21911083E+01</totfact>
</mgrwt>
</event>
<event>
 6    1  0.1528034E-005  0.4028099E+04  0.7818608E-02  0.7998902E-01
         -2   -1    0    0    0  501 -0.00000000000E+00  0.00000000000E+00  0.16733782226E+04  0.16733782226E+04  0.00000000000E+00 0.  1.
          2   -1    0    0  501    0  0.00000000000E+00 -0.00000000000E+00 -0.24240758302E+04  0.24240758302E+04  0.00000000000E+00 0. -1.
         23    2    1    2    0    0 -0.13793778163E+04  0.10539712303E+04  0.66108582215E+03  0.18598948989E+04  0.92930383073E+02 0.  0.
         13    1    3    3    0    0 -0.62113549073E+03  0.52487745970E+03  0.28418127899E+03  0.86143174127E+03  0.00000000000E+00 0. -1.
        -13    1    3    3    0    0 -0.75824232561E+03  0.52909377065E+03  0.37690454316E+03  0.99846315762E+03  0.00000000000E+00 0.  1.
         22    1    1    2    0    0  0.13793778163E+04 -0.10539712303E+04 -0.14117834298E+04  0.22375591539E+04  0.00000000000E+00 0. -1.
<mgrwt>
<rscale>  0 0.40280992E+04</rscale>
<asrwt>0</asrwt>
<pdfrwt beam="1">  1        2 0.37293474E+00 0.40280992E+04</pdfrwt>
<pdfrwt beam="2">  1       -2 0.25744281E+00 0.40280992E+04</pdfrwt>
<totfact> 0.17532814E-01</totfact>
</mgrwt>
</event>
<event>
 6    1  0.1528034E-005  0.3458120E+04  0.7818608E-02  0.8123787E-01
          2   -1    0    0  501    0  0.00000000000E+00  0.00000000000E+00  0.32961870977E+04  0.32961870977E+04  0.00000000000E+00 0. -1.
         -2   -1    0    0    0  501 -0.00000000000E+00 -0.00000000000E+00 -0.90700206962E+03  0.90700206962E+03  0.00000000000E+00 0.  1.
         23    2    1    2    0    0  0.32150056949E+03  0.14239925013E+04  0.71948667851E+02  0.14644482871E+04  0.91186155538E+02 0.  0.
         11    1    3    3    0    0  0.19276261435E+03  0.65056534371E+03  0.25317540650E+02  0.67899460219E+03  0.00000000000E+00 0.  1.
        -11    1    3    3    0    0  0.12873795514E+03  0.77342715755E+03  0.46631127201E+02  0.78545368492E+03  0.00000000000E+00 0. -1.
         22    1    1    2    0    0 -0.32150056949E+03 -0.14239925013E+04  0.23172363603E+04  0.27387408802E+04  0.00000000000E+00 0. -1.
<mgrwt>
<rscale>  0 0.34581200E+04</rscale>
<asrwt>0</asrwt>
<pdfrwt beam="1">  1        2 0.50710570E+00 0.34581200E+04</pdfrwt>
<pdfrwt beam="2">  1       -2 0.13953878E+00 0.34581200E+04</pdfrwt>
<totfact> 0.33424786E-01</totfact>
</mgrwt>
</event>
<event>
 6    1  0.1528034E-005  0.3076968E+04  0.7818608E-02  0.8222087E-01
          2   -1    0    0  501    0  0.00000000000E+00  0.00000000000E+00  0.15978994745E+04  0.15978994745E+04  0.00000000000E+00 0. -1.
         -2   -1    0    0    0  501 -0.00000000000E+00 -0.00000000000E+00 -0.14812778553E+04  0.14812778553E+04  0.00000000000E+00 0.  1.
         23    2    1    2    0    0 -0.22505079237E+02 -0.14818704197E+04 -0.34978737161E+03  0.15254773053E+04  0.91013098295E+02 0.  0.
         11    1    3    3    0    0  0.34261728045E+02 -0.70991066026E+03 -0.16104972583E+03  0.72875512057E+03  0.00000000000E+00 0.  1.
        -11    1    3    3    0    0 -0.56766807282E+02 -0.77195975946E+03 -0.18873764577E+03  0.79672218469E+03  0.00000000000E+00 0. -1.
         22    1    1    2    0    0  0.22505079237E+02  0.14818704197E+04  0.46640899086E+03  0.15537000245E+04  0.00000000000E+00 0. -1.
<mgrwt>
<rscale>  0 0.30769681E+04</rscale>
<asrwt>0</asrwt>
<pdfrwt beam="1">  1        2 0.24583069E+00 0.30769681E+04</pdfrwt>
<pdfrwt beam="2">  1       -2 0.22788890E+00 0.30769681E+04</pdfrwt>
<totfact> 0.83846611E-01</totfact>
</mgrwt>
</event>
<event>
 6    1  0.1528034E-005  0.3727338E+04  0.7818608E-02  0.8061930E-01
         -2   -1    0    0    0  501 -0.00000000000E+00  0.00000000000E+00  0.33124988377E+04  0.33124988377E+04  0.00000000000E+00 0.  1.
          2   -1    0    0  501    0  0.00000000000E+00 -0.00000000000E+00 -0.10485325854E+04  0.10485325854E+04  0.00000000000E+00 0. -1.
         23    2    1    2    0    0 -0.17318367873E+04  0.33129129144E+02  0.33170265065E+03  0.17660364668E+04  0.92206054703E+02 0.  0.
         13    1    3    3    0    0 -0.12482307909E+04  0.65245220083E+02  0.23897608138E+03  0.12725747968E+04  0.00000000000E+00 0. -1.
        -13    1    3    3    0    0 -0.48360599642E+03 -0.32116090939E+02  0.92726569277E+02  0.49346166996E+03  0.00000000000E+00 0.  1.
         22    1    1    2    0    0  0.17318367873E+04 -0.33129129144E+02  0.19322636016E+04  0.25949949563E+04  0.00000000000E+00 0.  1.
<mgrwt>
<rscale>  0 0.37273384E+04</rscale>
<asrwt>0</asrwt>
<pdfrwt beam="1">  1        2 0.16131271E+00 0.37273384E+04</pdfrwt>
<pdfrwt beam="2">  1       -2 0.50961520E+00 0.37273384E+04</pdfrwt>
<totfact> 0.27244276E-02</totfact>
</mgrwt>
</event>
<event>
 6    1  0.1528034E-005  0.1732564E+04  0.7818608E-02  0.8743007E-01
         -1   -1    0    0    0  501 -0.00000000000E+00  0.00000000000E+00  0.89564078528E+03  0.89564078528E+03  0.00000000000E+00 0.  1.
          1   -1    0    0  501    0  0.00000000000E+00 -0.00000000000E+00 -0.83788520854E+03  0.83788520854E+03  0.00000000000E+00 0. -1.
         23    2    1    2    0    0  0.35014582183E+01  0.86087115880E+03  0.10041002121E+03  0.87159164951E+03  0.92078330141E+02 0.  0.
         11    1    3    3    0    0  0.19146627473E+01  0.22300420433E+03 -0.14383029564E+02  0.22347575399E+03  0.00000000000E+00 0. -1.
        -11    1    3    3    0    0  0.15867954710E+01  0.63786695447E+03  0.11479305078E+03  0.64811589552E+03  0.00000000000E+00 0.  1.
         22    1    1    2    0    0 -0.35014582183E+01 -0.86087115880E+03 -0.42654444481E+02  0.86193434431E+03  0.00000000000E+00 0. -1.
<mgrwt>
<rscale>  0 0.17325636E+04</rscale>
<asrwt>0</asrwt>
<pdfrwt beam="1">  1        1 0.12890542E+00 0.17325636E+04</pdfrwt>
<pdfrwt beam="2">  1       -1 0.13779089E+00 0.17325636E+04</pdfrwt>
<totfact> 0.85046691E+00</totfact>
</mgrwt>
</event>
<event>
 6    1  0.1528034E-005  0.4062615E+04  0.7818608E-02  0.7992033E-01
         -1   -1    0    0    0  501 -0.00000000000E+00  0.00000000000E+00  0.46370292306E+04  0.46370292306E+04  0.00000000000E+00 0.  1.
          1   -1    0    0  501    0  0.00000000000E+00 -0.00000000000E+00 -0.88983930833E+03  0.88983930833E+03  0.00000000000E+00 0. -1.
         23    2    1    2    0    0  0.34569893850E+03  0.19318306149E+04  0.25833092929E+04  0.32451815753E+04  0.78989068898E+02 0.  0.
         13    1    3    3    0    0  0.88240438083E+02  0.44623375299E+03  0.54641451361E+03  0.71097099652E+03  0.00000000000E+00 0.  1.
        -13    1    3    3    0    0  0.25745850042E+03  0.14855968619E+04  0.20368947793E+04  0.25342105788E+04  0.00000000000E+00 0. -1.
         22    1    1    2    0    0 -0.34569893850E+03 -0.19318306149E+04  0.11638806293E+04  0.22816869636E+04  0.00000000000E+00 0. -1.
<mgrwt>
<rscale>  0 0.40626154E+04</rscale>
<asrwt>0</asrwt>
<pdfrwt beam="1">  1        1 0.13689836E+00 0.40626154E+04</pdfrwt>
<pdfrwt beam="2">  1       -1 0.71338910E+00 0.40626154E+04</pdfrwt>
<totfact> 0.25922823E-03</totfact>
</mgrwt>
</event>
<event>
 6    1  0.1528034E-005  0.2628975E+04  0.7818608E-02  0.8358425E-01
         -1   -1    0    0    0  501 -0.00000000000E+00  0.00000000000E+00  0.96233314952E+03  0.96233314952E+03  0.00000000000E+00 0.  1.
          1   -1    0    0  501    0  0.00000000000E+00 -0.00000000000E+00 -0.17955089665E+04  0.17955089665E+04  0.00000000000E+00 0. -1.
         23    2    1    2    0    0 -0.26085625666E+03  0.19976778475E+03 -0.17504834921E+04  0.17834671751E+04  0.92787682897E+02 0.  0.
         11    1    3    3    0    0 -0.12635791399E+03  0.11845826243E+03 -0.69027579739E+03  0.71167363224E+03  0.00000000000E+00 0. -1.
        -11    1    3    3    0    0 -0.13449834268E+03  0.81309522326E+02 -0.10602076947E+04  0.10717935429E+04  0.00000000000E+00 0.  1.
         22    1    1    2    0    0  0.26085625666E+03 -0.19976778475E+03  0.91730767517E+03  0.97437494087E+03  0.00000000000E+00 0.  1.
<mgrwt>
<rscale>  0 0.26289753E+04</rscale>
<asrwt>0</asrwt>
<pdfrwt beam="1">  1        1 0.27623215E+00 0.26289753E+04</pdfrwt>
<pdfrwt beam="2">  1       -1 0.14805125E+00 0.26289753E+04</pdfrwt>
<totfact> 0.13025935E+00</totfact>
</mgrwt>
</event>
<event>
 6    1  0.1528034E-005  0.1198160E+04  0.7818608E-02  0.9114469E-01
         -1   -1    0    0    0  501 -0.00000000000E+00  0.00000000000E+00  0.10352943926E+04  0.10352943926E+04  0.00000000000E+00 0.  1.
          1   -1    0    0  501    0  0.00000000000E+00 -0.00000000000E+00 -0.34666136735E+03  0.34666136735E+03  0.00000000000E+00 0. -1.
         23    2    1    2    0    0  0.70791683829E+01 -0.16616675350E+03  0.10059978251E+04  0.10236515305E+04  0.90384330048E+02 0.  0.
         13    1    3    3    0    0 -0.35727170111E+02 -0.11312304589E+03  0.71521467986E+03  0.72498640848E+03  0.00000000000E+00 0. -1.
        -13    1    3    3    0    0  0.42806338494E+02 -0.53043707614E+02  0.29078314526E+03  0.29866512200E+03  0.00000000000E+00 0.  1.
         22    1    1    2    0    0 -0.70791683829E+01  0.16616675350E+03 -0.31736479992E+03  0.35830422942E+03  0.00000000000E+00 0. -1.
<mgrwt>
<rscale>  0 0.11981595E+04</rscale>
<asrwt>0</asrwt>
<pdfrwt beam="1">  1        1 0.53332518E-01 0.11981595E+04</pdfrwt>
<pdfrwt beam="2">  1       -1 0.15927606E+00 0.11981595E+04</pdfrwt>
<totfact> 0.21248544E+01</totfact>
</mgrwt>
</event>
<event>
 6    1  0.1528034E-005  0.1785321E+04  0.7818608E-02  0.8714145E-01
          1   -1    0    0  501    0  0.00000000000E+00  0.00000000000E+00  0.58827052544E+03  0.58827052544E+03  0.00000000000E+00 0. -1.
         -1   -1    0    0    0  501 -0.00000000000E+00 -0.00000000000E+00 -0.13545516497E+04  0.13545516497E+04  0.00000000000E+00 0.  1.
         23    2    1    2    0    0  0.62639322897E+03 -0.49828407254E+03 -0.80856566030E+03  0.11412964574E+04  0.90131472420E+02 0.  0.
         11    1    3    3    0    0  0.76695454011E+02 -0.43261945012E+02 -0.12677782842E+03  0.15435804589E+03  0.00000000000E+00 0. -1.
        -11    1    3    3    0    0  0.54969777496E+03 -0.45502212752E+03 -0.68178783188E+03  0.98693841146E+03  0.00000000000E+00 0.  1.
         22    1    1    2    0    0 -0.62639322897E+03  0.49828407254E+03  0.42284536069E+02  0.80152571776E+03  0.00000000000E+00 0. -1.
<mgrwt>
<rscale>  0 0.17853210E+04</rscale>
<asrwt>0</asrwt>
<pdfrwt beam="1">  1        1 0.90503159E-01 0.17853210E+04</pdfrwt>
<pdfrwt beam="2">  1       -1 0.20839256E+00 0.17853210E+04</pdfrwt>
<totfact> 0.43884503E+00</totfact>
</mgrwt>
</event>
<event>
 6    1  0.1528034E-005  0.2675613E+04  0.7818608E-02  0.8342961E-01
         -1   -1    0    0    0  501 -0.00000000000E+00  0.00000000000E+00  0.96683737027E+03  0.96683737027E+03  0.00000000000E+00 0.  1.
          1   -1    0    0  501    0  0.00000000000E+00 -0.00000000000E+00 -0.18511135551E+04  0.18511135551E+04  0.00000000000E+00 0. -1.
         23    2    1    2    0    0 -0.11345630275E+04 -0.29650137545E+03  0.23184351794E+03  0.11990409464E+04  0.93816018554E+02 0.  0.
         11    1    3    3    0    0 -0.80146891799E+03 -0.17234244617E+03  0.18589902435E+03  0.84060263652E+03  0.00000000000E+00 0. -1.
        -11    1    3    3    0    0 -0.33309410953E+03 -0.12415892928E+03  0.45944493587E+02  0.35843830991E+03  0.00000000000E+00 0.  1.
         22    1    1    2    0    0  0.11345630275E+04  0.29650137545E+03 -0.11161197028E+04  0.16189099790E+04  0.00000000000E+00 0. -1.
<mgrwt>
<rscale>  0 0.26756126E+04</rscale>
<asrwt>0</asrwt>
<pdfrwt beam="1">  1        1 0.28478670E+00 0.26756126E+04</pdfrwt>
<pdfrwt beam="2">  1       -1 0.14874421E+00 0.26756126E+04</pdfrwt>
<totfact> 0.11743647E+00</totfact>
</mgrwt>
</event>
<event>
 6    1  0.1858582E-005  0.2181254E+04  0.7818608E-02  0.8526271E-01
          2   -1    0    0  501    0  0.00000000000E+00  0.00000000000E+00  0.19540430501E+04  0.19540430501E+04  0.00000000000E+00 0. -1.
         -2   -1    0    0    0  501 -0.00000000000E+00 -0.00000000000E+00 -0.60872135485E+03  0.60872135485E+03  0.00000000000E+00 0.  1.
         23    2    1    2    0    0 -0.57889329726E+03 -0.14210402581E+03  0.17441942302E+04  0.18455403794E+04  0.92167107634E+02 0.  0.
         11    1    3    3    0    0 -0.14908865680E+03 -0.41035962326E+02  0.58542430141E+03  0.60550226298E+03  0.00000000000E+00 0.  1.
        -11    1    3    3    0    0 -0.42980464046E+03 -0.10106806348E+03  0.11587699287E+04  0.12400381164E+04  0.00000000000E+00 0. -1.
         22    1    1    2    0    0  0.57889329726E+03  0.14210402581E+03 -0.39887253489E+03  0.71722402557E+03  0.00000000000E+00 0.  1.
<mgrwt>
<rscale>  0 0.21812544E+04</rscale>
<asrwt>0</asrwt>
<pdfrwt beam="1">  1        2 0.30062200E+00 0.21812544E+04</pdfrwt>
<pdfrwt beam="2">  1       -2 0.93649440E-01 0.21812544E+04</pdfrwt>
<totfact> 0.62511681E+00</totfact>
</mgrwt>
</event>
<event>
 6    1  0.1528034E-005  0.2816742E+04  0.7818608E-02  0.8298090E-01
          2   -1    0    0  501    0  0.00000000000E+00  0.00000000000E+00  0.23523508186E+04  0.23523508186E+04  0.00000000000E+00 0. -1.
         -2   -1    0    0    0  501 -0.00000000000E+00 -0.00000000000E+00 -0.84320261976E+03  0.84320261976E+03  0.00000000000E+00 0.  1.
         23    2    1    2    0    0  0.66532965986E+03 -0.73758319551E+03  0.18856722488E+04  0.21332621004E+04  0.91404771539E+02 0.  0.
         13    1    3    3    0    0  0.30613280842E+03 -0.27256094127E+03  0.78417618491E+03  0.88483843276E+03  0.00000000000E+00 0.  1.
        -13    1    3    3    0    0  0.35919685144E+03 -0.46502225424E+03  0.11014960639E+04  0.12484236676E+04  0.00000000000E+00 0. -1.
         22    1    1    2    0    0 -0.66532965986E+03  0.73758319551E+03 -0.37652404998E+03  0.10622913380E+04  0.00000000000E+00 0.  1.
<mgrwt>
<rscale>  0 0.28167416E+04</rscale>
<asrwt>0</asrwt>
<pdfrwt beam="1">  1        2 0.36190012E+00 0.28167416E+04</pdfrwt>
<pdfrwt beam="2">  1       -2 0.12972348E+00 0.28167416E+04</pdfrwt>
<totfact> 0.16059178E+00</totfact>
</mgrwt>
</event>
<event>
 6    1  0.1528034E-005  0.1703605E+04  0.7818608E-02  0.8759311E-01
          2   -1    0    0  501    0  0.00000000000E+00  0.00000000000E+00  0.11190869203E+04  0.11190869203E+04  0.00000000000E+00 0. -1.
         -2   -1    0    0    0  501 -0.00000000000E+00 -0.00000000000E+00 -0.64835678605E+03  0.64835678605E+03  0.00000000000E+00 0.  1.
         23    2    1    2    0    0 -0.78206687708E+03 -0.25334830204E+03  0.14529571526E+02  0.82726664016E+03  0.91351097992E+02 0.  0.
         11    1    3    3    0    0 -0.50287752562E+03 -0.11971317635E+03  0.25374512564E+02  0.51755281494E+03  0.00000000000E+00 0. -1.
        -11    1    3    3    0    0 -0.27918935146E+03 -0.13363512569E+03 -0.10844941038E+02  0.30971382522E+03  0.00000000000E+00 0.  1.
         22    1    1    2    0    0  0.78206687708E+03  0.25334830204E+03  0.45620056273E+03  0.94017706620E+03  0.00000000000E+00 0. -1.
<mgrwt>
<rscale>  0 0.17036051E+04</rscale>
<asrwt>0</asrwt>
<pdfrwt beam="1">  1        2 0.17216722E+00 0.17036051E+04</pdfrwt>
<pdfrwt beam="2">  1       -2 0.99747198E-01 0.17036051E+04</pdfrwt>
<totfact> 0.16765064E+01</totfact>
</mgrwt>
</event>
<event>
 6    1  0.1528034E-005  0.1181713E+04  0.7818608E-02  0.9129016E-01
         -2   -1    0    0    0  501 -0.00000000000E+00  0.00000000000E+00  0.36017595780E+03  0.36017595780E+03  0.00000000000E+00 0.  1.
          2   -1    0    0  501    0  0.00000000000E+00 -0.00000000000E+00 -0.96927989208E+03  0.96927989208E+03  0.00000000000E+00 0. -1.
         23    2    1    2    0    0 -0.27366364539E+03 -0.38616315344E+03 -0.69738812604E+03  0.84799155173E+03  0.93411463868E+02 0.  0.
         13    1    3    3    0    0 -0.52032380072E+02 -0.23061930382E+02 -0.76340372939E+02  0.95221183302E+02  0.00000000000E+00 0.  1.
        -13    1    3    3    0    0 -0.22163126532E+03 -0.36310122306E+03 -0.62104775310E+03  0.75277036843E+03  0.00000000000E+00 0. -1.
         22    1    1    2    0    0  0.27366364539E+03  0.38616315344E+03  0.88284191766E+02  0.48146429815E+03  0.00000000000E+00 0.  1.
<mgrwt>
<rscale>  0 0.11817128E+04</rscale>
<asrwt>0</asrwt>
<pdfrwt beam="1">  1        2 0.14911998E+00 0.11817128E+04</pdfrwt>
<pdfrwt beam="2">  1       -2 0.55411688E-01 0.11817128E+04</pdfrwt>
<totfact> 0.79747062E+01</totfact>
</mgrwt>
</event>
<event>
 6    1  0.1615230E-005  0.2489789E+04  0.7818608E-02  0.8406632E-01
          2   -1    0    0  501    0  0.00000000000E+00  0.00000000000E+00  0.15636213158E+04  0.15636213158E+04  0.00000000000E+00 0. -1.
         -2   -1    0    0    0  501 -0.00000000000E+00 -0.00000000000E+00 -0.99113670182E+03  0.99113670182E+03  0.00000000000E+00 0.  1.
         23    2    1    2    0    0 -0.44628443496E+03 -0.10639993944E+03 -0.89893992267E+03  0.10134660560E+04  0.92356472638E+02 0.  0.
         13    1    3    3    0    0 -0.21315500688E+03 -0.98275625403E+02 -0.45341853916E+03  0.51056980636E+03  0.00000000000E+00 0. -1.
        -13    1    3    3    0    0 -0.23312942808E+03 -0.81243140332E+01 -0.44552138351E+03  0.50289624962E+03  0.00000000000E+00 0.  1.
         22    1    1    2    0    0  0.44628443496E+03  0.10639993944E+03  0.14714245366E+04  0.15412919617E+04  0.00000000000E+00 0. -1.
<mgrwt>
<rscale>  0 0.24897891E+04</rscale>
<asrwt>0</asrwt>
<pdfrwt beam="1">  1        2 0.24055712E+00 0.24897891E+04</pdfrwt>
<pdfrwt beam="2">  1       -2 0.15248257E+00 0.24897891E+04</pdfrwt>
<totfact> 0.29929183E+00</totfact>
</mgrwt>
</event>
<event>
 6    1  0.1528034E-005  0.2753475E+04  0.7818608E-02  0.8317860E-01
         -2   -1    0    0    0  501 -0.00000000000E+00  0.00000000000E+00  0.11066402368E+04  0.11066402368E+04  0.00000000000E+00 0.  1.
          2   -1    0    0  501    0  0.00000000000E+00 -0.00000000000E+00 -0.17127567504E+04  0.17127567504E+04  0.00000000000E+00 0. -1.
         23    2    1    2    0    0  0.80917017187E+00 -0.13471938779E+04 -0.58688731197E+03  0.14720656391E+04  0.87226884484E+02 0.  0.
         13    1    3    3    0    0 -0.75601575981E+01 -0.57483243802E+03 -0.29684380703E+03  0.64699747569E+03  0.00000000000E+00 0. -1.
        -13    1    3    3    0    0  0.83693277700E+01 -0.77236143991E+03 -0.29004350495E+03  0.82506816340E+03  0.00000000000E+00 0.  1.
         22    1    1    2    0    0 -0.80917017187E+00  0.13471938779E+04 -0.19229201632E+02  0.13473313481E+04  0.00000000000E+00 0. -1.
<mgrwt>
<rscale>  0 0.27534746E+04</rscale>
<asrwt>0</asrwt>
<pdfrwt beam="1">  1        2 0.26350104E+00 0.27534746E+04</pdfrwt>
<pdfrwt beam="2">  1       -2 0.17025235E+00 0.27534746E+04</pdfrwt>
<totfact> 0.17889775E+00</totfact>
</mgrwt>
</event>
<event>
 6    1  0.1528034E-005  0.2805971E+04  0.7818608E-02  0.8301417E-01
          2   -1    0    0  501    0  0.00000000000E+00  0.00000000000E+00  0.11025273839E+04  0.11025273839E+04  0.00000000000E+00 0. -1.
         -2   -1    0    0    0  501 -0.00000000000E+00 -0.00000000000E+00 -0.17853231667E+04  0.17853231667E+04  0.00000000000E+00 0.  1.
         23    2    1    2    0    0  0.92087048786E+03  0.10548442136E+04 -0.28119513902E+03  0.14311481625E+04  0.91736504643E+02 0.  0.
         11    1    3    3    0    0  0.42861973184E+03  0.43562526525E+03 -0.15040601310E+03  0.62936969662E+03  0.00000000000E+00 0.  1.
        -11    1    3    3    0    0  0.49225075602E+03  0.61921894840E+03 -0.13078912592E+03  0.80177846586E+03  0.00000000000E+00 0. -1.
         22    1    1    2    0    0 -0.92087048786E+03 -0.10548442136E+04 -0.40160064384E+03  0.14567023881E+04  0.00000000000E+00 0.  1.
<mgrwt>
<rscale>  0 0.28059705E+04</rscale>
<asrwt>0</asrwt>
<pdfrwt beam="1">  1        2 0.16961960E+00 0.28059705E+04</pdfrwt>
<pdfrwt beam="2">  1       -2 0.27466510E+00 0.28059705E+04</pdfrwt>
<totfact> 0.85694535E-01</totfact>
</mgrwt>
</event>
<event>
 6    1  0.1528034E-005  0.1878954E+04  0.7818608E-02  0.8665404E-01
         -2   -1    0    0    0  501 -0.00000000000E+00  0.00000000000E+00  0.11769873555E+04  0.11769873555E+04  0.00000000000E+00 0.  1.
          2   -1    0    0  501    0  0.00000000000E+00 -0.00000000000E+00 -0.74989513055E+03  0.74989513055E+03  0.00000000000E+00 0. -1.
         23    2    1    2    0    0  0.65277614330E+03  0.66980141171E+03  0.14970542913E+03  0.95133440479E+03  0.88740125304E+02 0.  0.
         13    1    3    3    0    0  0.18404543633E+03  0.19348411777E+03  0.25331380865E+01  0.26704914014E+03  0.00000000000E+00 0. -1.
        -13    1    3    3    0    0  0.46873070697E+03  0.47631729394E+03  0.14717229104E+03  0.68428526465E+03  0.00000000000E+00 0.  1.
         22    1    1    2    0    0 -0.65277614330E+03 -0.66980141171E+03  0.27738679583E+03  0.97554808128E+03  0.00000000000E+00 0. -1.
<mgrwt>
<rscale>  0 0.18789541E+04</rscale>
<asrwt>0</asrwt>
<pdfrwt beam="1">  1        2 0.11536848E+00 0.18789541E+04</pdfrwt>
<pdfrwt beam="2">  1       -2 0.18107498E+00 0.18789541E+04</pdfrwt>
<totfact> 0.62683267E+00</totfact>
</mgrwt>
</event>
<event>
 6    1  0.1528034E-005  0.2723350E+04  0.7818608E-02  0.8327468E-01
          1   -1    0    0  501    0  0.00000000000E+00  0.00000000000E+00  0.54058798893E+03  0.54058798893E+03  0.00000000000E+00 0. -1.
         -1   -1    0    0    0  501 -0.00000000000E+00 -0.00000000000E+00 -0.34298929171E+04  0.34298929171E+04  0.00000000000E+00 0.  1.
         23    2    1    2    0    0  0.11922452082E+04 -0.50910623823E+03 -0.20463964862E+04  0.24241522088E+04  0.90208394460E+02 0.  0.
         13    1    3    3    0    0  0.70024384515E+03 -0.32300278085E+03 -0.12874996646E+04  0.15007756746E+04  0.00000000000E+00 0. -1.
        -13    1    3    3    0    0  0.49200136308E+03 -0.18610345738E+03 -0.75889682161E+03  0.92337653423E+03  0.00000000000E+00 0.  1.
         22    1    1    2    0    0 -0.11922452082E+04  0.50910623823E+03 -0.84290844205E+03  0.15463286973E+04  0.00000000000E+00 0. -1.
<mgrwt>
<rscale>  0 0.27233501E+04</rscale>
<asrwt>0</asrwt>
<pdfrwt beam="1">  1        1 0.83167385E-01 0.27233501E+04</pdfrwt>
<pdfrwt beam="2">  1       -1 0.52767582E+00 0.27233501E+04</pdfrwt>
<totfact> 0.34529853E-02</totfact>
</mgrwt>
</event>
<event>
 6    1  0.1528034E-005  0.2468257E+04  0.7818608E-02  0.8414382E-01
         -2   -1    0    0    0  501 -0.00000000000E+00  0.00000000000E+00  0.12301896118E+04  0.12301896118E+04  0.00000000000E+00 0.  1.
          2   -1    0    0  501    0  0.00000000000E+00 -0.00000000000E+00 -0.12380803621E+04  0.12380803621E+04  0.00000000000E+00 0. -1.
         23    2    1    2    0    0 -0.61973244087E+03  0.10523656013E+04  0.15206114210E+03  0.12365531782E+04  0.11999797705E+03 0.  0.
         13    1    3    3    0    0 -0.28865119632E+03  0.38082104003E+03  0.40548103909E+02  0.47957098161E+03  0.00000000000E+00 0.  1.
        -13    1    3    3    0    0 -0.33108124455E+03  0.67154456126E+03  0.11151303819E+03  0.75698219658E+03  0.00000000000E+00 0. -1.
         22    1    1    2    0    0  0.61973244087E+03 -0.10523656013E+04 -0.15995189234E+03  0.12317167957E+04  0.00000000000E+00 0.  1.
<mgrwt>
<rscale>  0 0.24682574E+04</rscale>
<asrwt>0</asrwt>
<pdfrwt beam="1">  1        2 0.19047390E+00 0.24682574E+04</pdfrwt>
<pdfrwt beam="2">  1       -2 0.18925994E+00 0.24682574E+04</pdfrwt>
<totfact> 0.25204409E+00</totfact>
</mgrwt>
</event>
<event>
 6    1  0.1528034E-005  0.7122257E+04  0.7818608E-02  0.7564957E-01
         -2   -1    0    0    0  501 -0.00000000000E+00  0.00000000000E+00  0.28840798615E+04  0.28840798615E+04  0.00000000000E+00 0.  1.
          2   -1    0    0  501    0  0.00000000000E+00 -0.00000000000E+00 -0.43971165598E+04  0.43971165598E+04  0.00000000000E+00 0. -1.
         23    2    1    2    0    0  0.19039945166E+04  0.10218142089E+04 -0.36496555899E+04  0.42423743329E+04  0.91949219268E+02 0.  0.
         13    1    3    3    0    0  0.41840083277E+03  0.26715351100E+03 -0.85586120443E+03  0.98940823554E+03  0.00000000000E+00 0. -1.
        -13    1    3    3    0    0  0.14855936839E+04  0.75466069791E+03 -0.27937943855E+04  0.32529660974E+04  0.00000000000E+00 0.  1.
         22    1    1    2    0    0 -0.19039945166E+04 -0.10218142089E+04  0.21366188916E+04  0.30388220884E+04  0.00000000000E+00 0.  1.
<mgrwt>
<rscale>  0 0.71222568E+04</rscale>
<asrwt>0</asrwt>
<pdfrwt beam="1">  1        2 0.67647947E+00 0.71222568E+04</pdfrwt>
<pdfrwt beam="2">  1       -2 0.44370460E+00 0.71222568E+04</pdfrwt>
<totfact> 0.36242377E-04</totfact>
</mgrwt>
</event>
<event>
 6    1  0.1528034E-005  0.2163464E+04  0.7818608E-02  0.8533791E-01
          2   -1    0    0  501    0  0.00000000000E+00  0.00000000000E+00  0.17384865999E+04  0.17384865999E+04  0.00000000000E+00 0. -1.
         -2   -1    0    0    0  501 -0.00000000000E+00 -0.00000000000E+00 -0.67308208675E+03  0.67308208675E+03  0.00000000000E+00 0.  1.
         23    2    1    2    0    0  0.33305128195E+03 -0.87061737532E+03  0.11412285742E+04  0.14763430139E+04  0.91039911852E+02 0.  0.
         11    1    3    3    0    0  0.20301687856E+03 -0.63105560873E+03  0.77569183495E+03  0.10203650607E+04  0.00000000000E+00 0. -1.
        -11    1    3    3    0    0  0.13003440339E+03 -0.23956176658E+03  0.36553673926E+03  0.45597795322E+03  0.00000000000E+00 0.  1.
         22    1    1    2    0    0 -0.33305128195E+03  0.87061737532E+03 -0.75824061092E+02  0.93522567269E+03  0.00000000000E+00 0.  1.
<mgrwt>
<rscale>  0 0.21634641E+04</rscale>
<asrwt>0</asrwt>
<pdfrwt beam="1">  1        2 0.26745948E+00 0.21634641E+04</pdfrwt>
<pdfrwt beam="2">  1       -2 0.10355109E+00 0.21634641E+04</pdfrwt>
<totfact> 0.65046302E+00</totfact>
</mgrwt>
</event>
<event>
 6    1  0.1528034E-005  0.2170606E+04  0.7818608E-02  0.8530763E-01
          2   -1    0    0  501    0  0.00000000000E+00  0.00000000000E+00  0.71046268809E+03  0.71046268809E+03  0.00000000000E+00 0. -1.
         -2   -1    0    0    0  501 -0.00000000000E+00 -0.00000000000E+00 -0.16579092490E+04  0.16579092490E+04  0.00000000000E+00 0.  1.
         23    2    1    2    0    0 -0.10123906525E+04 -0.37718134936E+03 -0.56410068120E+03  0.12220060849E+04  0.88818294311E+02 0.  0.
         11    1    3    3    0    0 -0.24089442207E+03 -0.50103538093E+02 -0.12800843626E+03  0.27735653384E+03  0.00000000000E+00 0.  1.
        -11    1    3    3    0    0 -0.77149623046E+03 -0.32707781126E+03 -0.43609224493E+03  0.94464955107E+03  0.00000000000E+00 0. -1.
         22    1    1    2    0    0  0.10123906525E+04  0.37718134936E+03 -0.38334587974E+03  0.11463658522E+04  0.00000000000E+00 0. -1.
<mgrwt>
<rscale>  0 0.21706061E+04</rscale>
<asrwt>0</asrwt>
<pdfrwt beam="1">  1        2 0.10930195E+00 0.21706061E+04</pdfrwt>
<pdfrwt beam="2">  1       -2 0.25506296E+00 0.21706061E+04</pdfrwt>
<totfact> 0.22033769E+00</totfact>
</mgrwt>
</event>
<event>
 6    1  0.1528034E-005  0.1150296E+04  0.7818608E-02  0.9157511E-01
          2   -1    0    0  501    0  0.00000000000E+00  0.00000000000E+00  0.15038951970E+04  0.15038951970E+04  0.00000000000E+00 0. -1.
         -2   -1    0    0    0  501 -0.00000000000E+00 -0.00000000000E+00 -0.21995883981E+03  0.21995883981E+03  0.00000000000E+00 0.  1.
         23    2    1    2    0    0  0.22881866174E+03 -0.92483222601E+02  0.14183868669E+04  0.14428058808E+04  0.94638148627E+02 0.  0.
         11    1    3    3    0    0  0.69691475111E+02 -0.71592905197E+02  0.42858113714E+03  0.44007299041E+03  0.00000000000E+00 0. -1.
        -11    1    3    3    0    0  0.15912718663E+03 -0.20890317404E+02  0.98980572974E+03  0.10027328904E+04  0.00000000000E+00 0.  1.
         22    1    1    2    0    0 -0.22881866174E+03  0.92483222601E+02 -0.13445050969E+03  0.28104815598E+03  0.00000000000E+00 0.  1.
<mgrwt>
<rscale>  0 0.11502957E+04</rscale>
<asrwt>0</asrwt>
<pdfrwt beam="1">  1        2 0.23136849E+00 0.11502957E+04</pdfrwt>
<pdfrwt beam="2">  1       -2 0.33839822E-01 0.11502957E+04</pdfrwt>
<totfact> 0.10207402E+02</totfact>
</mgrwt>
</event>
<event>
 6    1  0.1528034E-005  0.2710095E+04  0.7818608E-02  0.8331737E-01
          1   -1    0    0  501    0  0.00000000000E+00  0.00000000000E+00  0.18446244774E+04  0.18446244774E+04  0.00000000000E+00 0. -1.
         -1   -1    0    0    0  501 -0.00000000000E+00 -0.00000000000E+00 -0.99540795457E+03  0.99540795457E+03  0.00000000000E+00 0.  1.
         23    2    1    2    0    0 -0.21824782985E+03  0.11746029813E+04 -0.24143765203E+03  0.12223641075E+04  0.92507257148E+02 0.  0.
         11    1    3    3    0    0  0.27816713725E+01  0.13302595883E+03 -0.16275993058E+02  0.13404682528E+03  0.00000000000E+00 0. -1.
        -11    1    3    3    0    0 -0.22102950123E+03  0.10415770224E+04 -0.22516165897E+03  0.10883172822E+04  0.00000000000E+00 0.  1.
         22    1    1    2    0    0  0.21824782985E+03 -0.11746029813E+04  0.10906541749E+04  0.16176683245E+04  0.00000000000E+00 0. -1.
<mgrwt>
<rscale>  0 0.27100951E+04</rscale>
<asrwt>0</asrwt>
<pdfrwt beam="1">  1        1 0.28378838E+00 0.27100951E+04</pdfrwt>
<pdfrwt beam="2">  1       -1 0.15313969E+00 0.27100951E+04</pdfrwt>
<totfact> 0.10931750E+00</totfact>
</mgrwt>
</event>
<event>
 6    1  0.1528034E-005  0.1972875E+04  0.7818608E-02  0.8619409E-01
         -1   -1    0    0    0  501 -0.00000000000E+00  0.00000000000E+00  0.40610111580E+03  0.40610111580E+03  0.00000000000E+00 0.  1.
          1   -1    0    0  501    0  0.00000000000E+00 -0.00000000000E+00 -0.23960996553E+04  0.23960996553E+04  0.00000000000E+00 0. -1.
         23    2    1    2    0    0 -0.87920798769E+03 -0.18033985973E+03 -0.15711805843E+04  0.18117778159E+04  0.91658468892E+02 0.  0.
         13    1    3    3    0    0 -0.39843939460E+03 -0.57845595816E+02 -0.78303620608E+03  0.88048041668E+03  0.00000000000E+00 0.  1.
        -13    1    3    3    0    0 -0.48076859309E+03 -0.12249426391E+03 -0.78814437826E+03  0.93129739921E+03  0.00000000000E+00 0. -1.
         22    1    1    2    0    0  0.87920798769E+03  0.18033985973E+03 -0.41881795515E+03  0.99042295520E+03  0.00000000000E+00 0.  1.
<mgrwt>
<rscale>  0 0.19728748E+04</rscale>
<asrwt>0</asrwt>
<pdfrwt beam="1">  1        1 0.36863072E+00 0.19728748E+04</pdfrwt>
<pdfrwt beam="2">  1       -1 0.62477094E-01 0.19728748E+04</pdfrwt>
<totfact> 0.38636875E+00</totfact>
</mgrwt>
</event>
<event>
 6    1  0.1528034E-005  0.3593485E+04  0.7818608E-02  0.8091986E-01
          1   -1    0    0  501    0  0.00000000000E+00  0.00000000000E+00  0.23513566752E+04  0.23513566752E+04  0.00000000000E+00 0. -1.
         -1   -1    0    0    0  501 -0.00000000000E+00 -0.00000000000E+00 -0.13729451026E+04  0.13729451026E+04  0.00000000000E+00 0.  1.
         23    2    1    2    0    0 -0.10527148441E+04  0.47808895645E+02 -0.10171273217E+04  0.14676073564E+04  0.93963452574E+02 0.  0.
         13    1    3    3    0    0 -0.35021966208E+03  0.49059381702E+02 -0.38206213669E+03  0.52060744418E+03  0.00000000000E+00 0.  1.
        -13    1    3    3    0    0 -0.70249518199E+03 -0.12504860572E+01 -0.63506518503E+03  0.94699991218E+03  0.00000000000E+00 0. -1.
         22    1    1    2    0    0  0.10527148441E+04 -0.47808895645E+02  0.19955388943E+04  0.22566944215E+04  0.00000000000E+00 0. -1.
<mgrwt>
<rscale>  0 0.35934850E+04</rscale>
<asrwt>0</asrwt>
<pdfrwt beam="1">  1        1 0.36174718E+00 0.35934850E+04</pdfrwt>
<pdfrwt beam="2">  1       -1 0.21122232E+00 0.35934850E+04</pdfrwt>
<totfact> 0.17520347E-01</totfact>
</mgrwt>
</event>
<event>
 6    1  0.1528034E-005  0.1806690E+04  0.7818608E-02  0.8702750E-01
          2   -1    0    0  501    0  0.00000000000E+00  0.00000000000E+00  0.14939192617E+04  0.14939192617E+04  0.00000000000E+00 0. -1.
         -2   -1    0    0    0  501 -0.00000000000E+00 -0.00000000000E+00 -0.54623605143E+03  0.54623605143E+03  0.00000000000E+00 0.  1.
         23    2    1    2    0    0  0.36612957451E+02  0.29706528754E+03  0.14346860832E+04  0.14685259822E+04  0.93038214979E+02 0.  0.
         13    1    3    3    0    0 -0.20325394094E+02  0.44324990246E+02  0.34709692398E+03  0.35050549360E+03  0.00000000000E+00 0. -1.
        -13    1    3    3    0    0  0.56938351545E+02  0.25274029730E+03  0.10875891592E+04  0.11180204886E+04  0.00000000000E+00 0.  1.
         22    1    1    2    0    0 -0.36612957451E+02 -0.29706528754E+03 -0.48700287293E+03  0.57162933091E+03  0.00000000000E+00 0.  1.
<mgrwt>
<rscale>  0 0.18066904E+04</rscale>
<asrwt>0</asrwt>
<pdfrwt beam="1">  1        2 0.22983373E+00 0.18066904E+04</pdfrwt>
<pdfrwt beam="2">  1       -2 0.84036316E-01 0.18066904E+04</pdfrwt>
<totfact> 0.14929219E+01</totfact>
</mgrwt>
</event>
<event>
 6    1  0.1528034E-005  0.3231890E+04  0.7818608E-02  0.8180446E-01
          2   -1    0    0  501    0  0.00000000000E+00  0.00000000000E+00  0.12703251651E+04  0.12703251651E+04  0.00000000000E+00 0. -1.
         -2   -1    0    0    0  501 -0.00000000000E+00 -0.00000000000E+00 -0.20555980338E+04  0.20555980338E+04  0.00000000000E+00 0.  1.
         23    2    1    2    0    0 -0.80176363889E+03 -0.33685204838E+03 -0.17929751246E+04  0.19948491694E+04  0.91483201108E+02 0.  0.
         11    1    3    3    0    0 -0.72719445094E+03 -0.29989234304E+03 -0.16746146558E+04  0.18501571372E+04  0.00000000000E+00 0. -1.
        -11    1    3    3    0    0 -0.74569187949E+02 -0.36959705335E+02 -0.11836046882E+03  0.14469203222E+03  0.00000000000E+00 0.  1.
         22    1    1    2    0    0  0.80176363889E+03  0.33685204838E+03  0.10077022559E+04  0.13310740294E+04  0.00000000000E+00 0. -1.
<mgrwt>
<rscale>  0 0.32318898E+04</rscale>
<asrwt>0</asrwt>
<pdfrwt beam="1">  1        2 0.19543464E+00 0.32318898E+04</pdfrwt>
<pdfrwt beam="2">  1       -2 0.31624585E+00 0.32318898E+04</pdfrwt>
<totfact> 0.36491174E-01</totfact>
</mgrwt>
</event>
<event>
 6    1  0.1528034E-005  0.3427094E+04  0.7818608E-02  0.8131288E-01
          2   -1    0    0  501    0  0.00000000000E+00  0.00000000000E+00  0.23710697261E+04  0.23710697261E+04  0.00000000000E+00 0. -1.
         -2   -1    0    0    0  501 -0.00000000000E+00 -0.00000000000E+00 -0.12383621039E+04  0.12383621039E+04  0.00000000000E+00 0.  1.
         23    2    1    2    0    0 -0.13655627406E+04 -0.94751853490E+03  0.10002638871E+04  0.19420703469E+04  0.92500896480E+02 0.  0.
         11    1    3    3    0    0 -0.90491565404E+03 -0.60687494813E+03  0.70232409606E+03  0.12963134958E+04  0.00000000000E+00 0.  1.
        -11    1    3    3    0    0 -0.46064708655E+03 -0.34064358677E+03  0.29793979108E+03  0.64575685104E+03  0.00000000000E+00 0. -1.
         22    1    1    2    0    0  0.13655627406E+04  0.94751853490E+03  0.13244373513E+03  0.16673614831E+04  0.00000000000E+00 0.  1.
<mgrwt>
<rscale>  0 0.34270938E+04</rscale>
<asrwt>0</asrwt>
<pdfrwt beam="1">  1        2 0.36477996E+00 0.34270938E+04</pdfrwt>
<pdfrwt beam="2">  1       -2 0.19051725E+00 0.34270938E+04</pdfrwt>
<totfact> 0.52492572E-01</totfact>
</mgrwt>
</event>
<event>
 6    1  0.1528034E-005  0.2087285E+04  0.7818608E-02  0.8566865E-01
         -1   -1    0    0    0  501 -0.00000000000E+00  0.00000000000E+00  0.90818805901E+03  0.90818805901E+03  0.00000000000E+00 0.  1.
          1   -1    0    0  501    0  0.00000000000E+00 -0.00000000000E+00 -0.11992999676E+04  0.11992999676E+04  0.00000000000E+00 0. -1.
         23    2    1    2    0    0 -0.98693767930E+03  0.22018611458E+03 -0.39802299091E+03  0.10906508286E+04  0.92569005316E+02 0.  0.
         11    1    3    3    0    0 -0.58386497921E+03  0.16124224312E+03 -0.20143992322E+03  0.63833801201E+03  0.00000000000E+00 0.  1.
        -11    1    3    3    0    0 -0.40307270009E+03  0.58943871456E+02 -0.19658306769E+03  0.45231281658E+03  0.00000000000E+00 0. -1.
         22    1    1    2    0    0  0.98693767930E+03 -0.22018611458E+03  0.10691108227E+03  0.10168371981E+04  0.00000000000E+00 0.  1.
<mgrwt>
<rscale>  0 0.20872852E+04</rscale>
<asrwt>0</asrwt>
<pdfrwt beam="1">  1        1 0.18450769E+00 0.20872852E+04</pdfrwt>
<pdfrwt beam="2">  1       -1 0.13972124E+00 0.20872852E+04</pdfrwt>
<totfact> 0.41506198E+00</totfact>
</mgrwt>
</event>
<event>
 6    1  0.1528034E-005  0.2018179E+04  0.7818608E-02  0.8598168E-01
          2   -1    0    0  501    0  0.00000000000E+00  0.00000000000E+00  0.17682289042E+04  0.17682289042E+04  0.00000000000E+00 0. -1.
         -2   -1    0    0    0  501 -0.00000000000E+00 -0.00000000000E+00 -0.57586535151E+03  0.57586535151E+03  0.00000000000E+00 0.  1.
         23    2    1    2    0    0  0.33607736169E+01  0.43462692364E+03  0.16525013574E+04  0.17111340225E+04  0.91143015860E+02 0.  0.
         13    1    3    3    0    0 -0.43745859004E+02  0.22338026794E+03  0.83637196540E+03  0.86679323301E+03  0.00000000000E+00 0. -1.
        -13    1    3    3    0    0  0.47106632621E+02  0.21124665570E+03  0.81612939200E+03  0.84434078954E+03  0.00000000000E+00 0.  1.
         22    1    1    2    0    0 -0.33607736169E+01 -0.43462692364E+03 -0.46013780466E+03  0.63296023322E+03  0.00000000000E+00 0.  1.
<mgrwt>
<rscale>  0 0.20181791E+04</rscale>
<asrwt>0</asrwt>
<pdfrwt beam="1">  1        2 0.27203521E+00 0.20181791E+04</pdfrwt>
<pdfrwt beam="2">  1       -2 0.88594671E-01 0.20181791E+04</pdfrwt>
<totfact> 0.91356499E+00</totfact>
</mgrwt>
</event>
<event>
 6    1  0.1528034E-005  0.1958230E+04  0.7818608E-02  0.8626402E-01
         -1   -1    0    0    0  501 -0.00000000000E+00  0.00000000000E+00  0.65295359157E+03  0.65295359157E+03  0.00000000000E+00 0.  1.
          1   -1    0    0  501    0  0.00000000000E+00 -0.00000000000E+00 -0.14681994913E+04  0.14681994913E+04  0.00000000000E+00 0. -1.
         23    2    1    2    0    0  0.52263988055E+03 -0.20984809992E+03  0.45595054642E+03  0.73078296148E+03  0.94679280825E+02 0.  0.
         11    1    3    3    0    0  0.21067641886E+03 -0.12469051691E+03  0.16028500362E+03  0.29261503867E+03  0.00000000000E+00 0.  1.
        -11    1    3    3    0    0  0.31196346170E+03 -0.85157583010E+02  0.29566554280E+03  0.43816792280E+03  0.00000000000E+00 0. -1.
         22    1    1    2    0    0 -0.52263988055E+03  0.20984809992E+03 -0.12711964462E+04  0.13903701214E+04  0.00000000000E+00 0. -1.
<mgrwt>
<rscale>  0 0.19582299E+04</rscale>
<asrwt>0</asrwt>
<pdfrwt beam="1">  1        1 0.22587684E+00 0.19582299E+04</pdfrwt>
<pdfrwt beam="2">  1       -1 0.10045440E+00 0.19582299E+04</pdfrwt>
<totfact> 0.60444443E+00</totfact>
</mgrwt>
</event>
<event>
 6    1  0.1528034E-005  0.1267676E+04  0.7818608E-02  0.9055598E-01
          2   -1    0    0  501    0  0.00000000000E+00  0.00000000000E+00  0.88330935412E+03  0.88330935412E+03  0.00000000000E+00 0. -1.
         -2   -1    0    0    0  501 -0.00000000000E+00 -0.00000000000E+00 -0.45482450042E+03  0.45482450042E+03  0.00000000000E+00 0.  1.
         23    2    1    2    0    0 -0.95624383770E+02 -0.61960579096E+02  0.86876928905E+03  0.88334432063E+03  0.11204452272E+03 0.  0.
         11    1    3    3    0    0 -0.48407277926E+02 -0.61167689903E+02  0.76918682437E+03  0.77313202082E+03  0.00000000000E+00 0. -1.
        -11    1    3    3    0    0 -0.47217105844E+02 -0.79288919275E+00  0.99582464680E+02  0.11021229981E+03  0.00000000000E+00 0.  1.
         22    1    1    2    0    0  0.95624383770E+02  0.61960579096E+02 -0.44028443535E+03  0.45478953390E+03  0.00000000000E+00 0.  1.
<mgrwt>
<rscale>  0 0.12676762E+04</rscale>
<asrwt>0</asrwt>
<pdfrwt beam="1">  1        2 0.13589375E+00 0.12676762E+04</pdfrwt>
<pdfrwt beam="2">  1       -2 0.69973000E-01 0.12676762E+04</pdfrwt>
<totfact> 0.55029068E+01</totfact>
</mgrwt>
</event>
<event>
 6    1  0.1528034E-005  0.9581590E+03  0.7818608E-02  0.9355664E-01
         -2   -1    0    0    0  501 -0.00000000000E+00  0.00000000000E+00  0.31033529872E+03  0.31033529872E+03  0.00000000000E+00 0.  1.
          2   -1    0    0  501    0  0.00000000000E+00 -0.00000000000E+00 -0.73957809057E+03  0.73957809057E+03  0.00000000000E+00 0. -1.
         23    2    1    2    0    0  0.11050519488E+03 -0.44266596039E+03 -0.74613663936E+02  0.47204976441E+03  0.95389887570E+02 0.  0.
         13    1    3    3    0    0  0.66180640535E+02 -0.38712598413E+03 -0.79926819916E+02  0.40079259139E+03  0.00000000000E+00 0.  1.
        -13    1    3    3    0    0  0.44324554342E+02 -0.55539976265E+02  0.53131559803E+01  0.71257173025E+02  0.00000000000E+00 0. -1.
         22    1    1    2    0    0 -0.11050519488E+03  0.44266596039E+03 -0.35462912792E+03  0.57786362488E+03  0.00000000000E+00 0. -1.
<mgrwt>
<rscale>  0 0.95815904E+03</rscale>
<asrwt>0</asrwt>
<pdfrwt beam="1">  1        2 0.11378124E+00 0.95815904E+03</pdfrwt>
<pdfrwt beam="2">  1       -2 0.47743892E-01 0.95815904E+03</pdfrwt>
<totfact> 0.15879937E+02</totfact>
</mgrwt>
</event>
<event>
 6    1  0.1528034E-005  0.5194056E+03  0.7818608E-02  0.1008834E+00
          1   -1    0    0  501    0  0.00000000000E+00  0.00000000000E+00  0.30158521801E+03  0.30158521801E+03  0.00000000000E+00 0. -1.
         -1   -1    0    0    0  501 -0.00000000000E+00 -0.00000000000E+00 -0.22363677766E+03  0.22363677766E+03  0.00000000000E+00 0.  1.
         23    2    1    2    0    0  0.17312249581E+03 -0.12085610604E+03  0.17870930676E+03  0.29127681165E+03  0.91255508118E+02 0.  0.
         11    1    3    3    0    0  0.81588810212E+02 -0.45917858406E+01  0.71017546427E+02  0.10826500057E+03  0.00000000000E+00 0. -1.
        -11    1    3    3    0    0  0.91533685600E+02 -0.11626432020E+03  0.10769176033E+03  0.18301181108E+03  0.00000000000E+00 0.  1.
         22    1    1    2    0    0 -0.17312249581E+03  0.12085610604E+03 -0.10076086641E+03  0.23394518401E+03  0.00000000000E+00 0.  1.
<mgrwt>
<rscale>  0 0.51940561E+03</rscale>
<asrwt>0</asrwt>
<pdfrwt beam="1">  1        1 0.46397726E-01 0.51940561E+03</pdfrwt>
<pdfrwt beam="2">  1       -1 0.34405658E-01 0.51940561E+03</pdfrwt>
<totfact> 0.70186061E+02</totfact>
</mgrwt>
</event>
<event>
 6    1  0.1528034E-005  0.4366046E+04  0.7818608E-02  0.7934517E-01
         -2   -1    0    0    0  501 -0.00000000000E+00  0.00000000000E+00  0.16422505475E+04  0.16422505475E+04  0.00000000000E+00 0.  1.
          2   -1    0    0  501    0  0.00000000000E+00 -0.00000000000E+00 -0.29018645921E+04  0.29018645921E+04  0.00000000000E+00 0. -1.
         23    2    1    2    0    0  0.17401786215E+04  0.13160341253E+04 -0.66711518342E+03  0.22833138759E+04  0.91170907911E+02 0.  0.
         11    1    3    3    0    0  0.63657263726E+02  0.33919626923E+02 -0.34563362323E+02  0.79983837934E+02  0.00000000000E+00 0.  1.
        -11    1    3    3    0    0  0.16765213577E+04  0.12821144984E+04 -0.63255182110E+03  0.22033300380E+04  0.00000000000E+00 0. -1.
         22    1    1    2    0    0 -0.17401786215E+04 -0.13160341253E+04 -0.59249886111E+03  0.22608012637E+04  0.00000000000E+00 0. -1.
<mgrwt>
<rscale>  0 0.43660457E+04</rscale>
<asrwt>0</asrwt>
<pdfrwt beam="1">  1        2 0.44644070E+00 0.43660457E+04</pdfrwt>
<pdfrwt beam="2">  1       -2 0.25265393E+00 0.43660457E+04</pdfrwt>
<totfact> 0.94952268E-02</totfact>
</mgrwt>
</event>
<event>
 6    1  0.1528034E-005  0.4734644E+03  0.7818608E-02  0.1020947E+00
          1   -1    0    0  501    0  0.00000000000E+00  0.00000000000E+00  0.95603891108E+02  0.95603891108E+02  0.00000000000E+00 0.  1.
         -1   -1    0    0    0  501 -0.00000000000E+00 -0.00000000000E+00 -0.58619097162E+03  0.58619097162E+03  0.00000000000E+00 0. -1.
         23    2    1    2    0    0 -0.17501015932E+03  0.12972349467E+03 -0.15156318901E+03  0.27881354809E+03  0.85491832361E+02 0.  0.
         13    1    3    3    0    0 -0.65417330089E+02  0.99776245329E+02 -0.64119828311E+02  0.13544769688E+03  0.00000000000E+00 0. -1.
        -13    1    3    3    0    0 -0.10959282923E+03  0.29947249341E+02 -0.87443360698E+02  0.14336585121E+03  0.00000000000E+00 0.  1.
         22    1    1    2    0    0  0.17501015932E+03 -0.12972349467E+03 -0.33902389150E+03  0.40298131464E+03  0.00000000000E+00 0.  1.
<mgrwt>
<rscale>  0 0.47346441E+03</rscale>
<asrwt>0</asrwt>
<pdfrwt beam="1">  1        1 0.14708291E-01 0.47346441E+03</pdfrwt>
<pdfrwt beam="2">  1       -1 0.90183227E-01 0.47346441E+03</pdfrwt>
<totfact> 0.48313628E+02</totfact>
</mgrwt>
</event>
<event>
 6    1  0.1528034E-005  0.3029958E+04  0.7818608E-02  0.8235228E-01
         -2   -1    0    0    0  501 -0.00000000000E+00  0.00000000000E+00  0.10880496246E+04  0.10880496246E+04  0.00000000000E+00 0.  1.
          2   -1    0    0  501    0  0.00000000000E+00 -0.00000000000E+00 -0.21094273050E+04  0.21094273050E+04  0.00000000000E+00 0. -1.
         23    2    1    2    0    0  0.83253934177E+03 -0.12494493448E+04 -0.71327481425E+03  0.16647757855E+04  0.92043656696E+02 0.  0.
         13    1    3    3    0    0  0.57524695324E+03 -0.93527521946E+03 -0.53032003408E+03  0.12193802245E+04  0.00000000000E+00 0. -1.
        -13    1    3    3    0    0  0.25729238853E+03 -0.31417412530E+03 -0.18295478017E+03  0.44539556104E+03  0.00000000000E+00 0.  1.
         22    1    1    2    0    0 -0.83253934177E+03  0.12494493448E+04 -0.30810286616E+03  0.15327011440E+04  0.00000000000E+00 0. -1.
<mgrwt>
<rscale>  0 0.30299581E+04</rscale>
<asrwt>0</asrwt>
<pdfrwt beam="1">  1        2 0.32452728E+00 0.30299581E+04</pdfrwt>
<pdfrwt beam="2">  1       -2 0.16739225E+00 0.30299581E+04</pdfrwt>
<totfact> 0.11029031E+00</totfact>
</mgrwt>
</event>
<event>
 6    1  0.1528034E-005  0.2084771E+04  0.7818608E-02  0.8567981E-01
         -2   -1    0    0    0  501 -0.00000000000E+00  0.00000000000E+00  0.14671063310E+04  0.14671063310E+04  0.00000000000E+00 0.  1.
          2   -1    0    0  501    0  0.00000000000E+00 -0.00000000000E+00 -0.74061979751E+03  0.74061979751E+03  0.00000000000E+00 0. -1.
         23    2    1    2    0    0  0.81938234020E+03 -0.64038979840E+03  0.33171695096E+03  0.10953729757E+04  0.91210234740E+02 0.  0.
         13    1    3    3    0    0  0.13953389123E+03 -0.11267781327E+03  0.94162893532E+02  0.20256516711E+03  0.00000000000E+00 0. -1.
        -13    1    3    3    0    0  0.67984844897E+03 -0.52771198513E+03  0.23755405742E+03  0.89280780855E+03  0.00000000000E+00 0.  1.
         22    1    1    2    0    0 -0.81938234020E+03  0.64038979840E+03  0.39476958250E+03  0.11123531528E+04  0.00000000000E+00 0. -1.
<mgrwt>
<rscale>  0 0.20847714E+04</rscale>
<asrwt>0</asrwt>
<pdfrwt beam="1">  1        2 0.11394151E+00 0.20847714E+04</pdfrwt>
<pdfrwt beam="2">  1       -2 0.22570867E+00 0.20847714E+04</pdfrwt>
<totfact> 0.31978819E+00</totfact>
</mgrwt>
</event>
<event>
 6    1  0.1528034E-005  0.1595095E+04  0.7818608E-02  0.8823567E-01
         -2   -1    0    0    0  501 -0.00000000000E+00  0.00000000000E+00  0.55862885274E+03  0.55862885274E+03  0.00000000000E+00 0.  1.
          2   -1    0    0  501    0  0.00000000000E+00 -0.00000000000E+00 -0.11386485117E+04  0.11386485117E+04  0.00000000000E+00 0. -1.
         23    2    1    2    0    0 -0.17552584534E+03  0.19521022387E+03 -0.10894191545E+04  0.11242117486E+04  0.90008930106E+02 0.  0.
         13    1    3    3    0    0 -0.71408824283E+01  0.63016774871E+02 -0.25535169121E+03  0.26310946832E+03  0.00000000000E+00 0.  1.
        -13    1    3    3    0    0 -0.16838496291E+03  0.13219344900E+03 -0.83406746333E+03  0.86110228027E+03  0.00000000000E+00 0. -1.
         22    1    1    2    0    0  0.17552584534E+03 -0.19521022387E+03  0.50939949562E+03  0.57306561581E+03  0.00000000000E+00 0.  1.
<mgrwt>
<rscale>  0 0.15950949E+04</rscale>
<asrwt>0</asrwt>
<pdfrwt beam="1">  1        2 0.17517669E+00 0.15950949E+04</pdfrwt>
<pdfrwt beam="2">  1       -2 0.85942901E-01 0.15950949E+04</pdfrwt>
<totfact> 0.23254304E+01</totfact>
</mgrwt>
</event>
<event>
 6    1  0.1528034E-005  0.1635322E+04  0.7818608E-02  0.8799137E-01
          2   -1    0    0  501    0  0.00000000000E+00  0.00000000000E+00  0.55147742335E+03  0.55147742335E+03  0.00000000000E+00 0. -1.
         -2   -1    0    0    0  501 -0.00000000000E+00 -0.00000000000E+00 -0.12123245385E+04  0.12123245385E+04  0.00000000000E+00 0.  1.
         23    2    1    2    0    0  0.37576428236E+03 -0.12216011881E+03 -0.11011081149E+04  0.11722348579E+04  0.74656485962E+02 0.  0.
         11    1    3    3    0    0  0.21978754829E+03 -0.55978474542E+02 -0.72673823817E+03  0.76130718032E+03  0.00000000000E+00 0.  1.
        -11    1    3    3    0    0  0.15597673408E+03 -0.66181644269E+02 -0.37436987671E+03  0.41092767757E+03  0.00000000000E+00 0. -1.
         22    1    1    2    0    0 -0.37576428236E+03  0.12216011881E+03  0.44026099976E+03  0.59156710392E+03  0.00000000000E+00 0. -1.
<mgrwt>
<rscale>  0 0.16353221E+04</rscale>
<asrwt>0</asrwt>
<pdfrwt beam="1">  1        2 0.84842680E-01 0.16353221E+04</pdfrwt>
<pdfrwt beam="2">  1       -2 0.18651147E+00 0.16353221E+04</pdfrwt>
<totfact> 0.85791313E+00</totfact>
</mgrwt>
</event>
<event>
 6    1  0.1528034E-005  0.1666748E+04  0.7818608E-02  0.8780560E-01
         -2   -1    0    0    0  501 -0.00000000000E+00  0.00000000000E+00  0.20320838504E+03  0.20320838504E+03  0.00000000000E+00 0.  1.
          2   -1    0    0  501    0  0.00000000000E+00 -0.00000000000E+00 -0.34177345061E+04  0.34177345061E+04  0.00000000000E+00 0. -1.
         23    2    1    2    0    0 -0.10368276712E+03 -0.81927757184E+03 -0.14130126292E+04  0.16391717849E+04  0.91178914189E+02 0.  0.
         13    1    3    3    0    0 -0.60216936704E+00 -0.33350332545E+03 -0.60176814625E+03  0.68800416607E+03  0.00000000000E+00 0.  1.
        -13    1    3    3    0    0 -0.10308059775E+03 -0.48577424639E+03 -0.81124448294E+03  0.95116761887E+03  0.00000000000E+00 0. -1.
         22    1    1    2    0    0  0.10368276712E+03  0.81927757184E+03 -0.18015134919E+04  0.19817711062E+04  0.00000000000E+00 0. -1.
<mgrwt>
<rscale>  0 0.16667481E+04</rscale>
<asrwt>0</asrwt>
<pdfrwt beam="1">  1        2 0.52580530E+00 0.16667481E+04</pdfrwt>
<pdfrwt beam="2">  1       -2 0.31262829E-01 0.16667481E+04</pdfrwt>
<totfact> 0.84757117E+00</totfact>
</mgrwt>
</event>
<event>
 6    1  0.1528034E-005  0.1433986E+04  0.7818608E-02  0.8929579E-01
         -2   -1    0    0    0  501 -0.00000000000E+00  0.00000000000E+00  0.24116465234E+03  0.24116465234E+03  0.00000000000E+00 0.  1.
          2   -1    0    0  501    0  0.00000000000E+00 -0.00000000000E+00 -0.21316517517E+04  0.21316517517E+04  0.00000000000E+00 0. -1.
         23    2    1    2    0    0 -0.13661913665E+03 -0.35094183341E+03  0.53651920166E+02  0.39253827050E+03  0.96864887007E+02 0.  0.
         11    1    3    3    0    0 -0.74346070859E+02 -0.25556356867E+03 -0.10880556048E+01  0.26616021443E+03  0.00000000000E+00 0. -1.
        -11    1    3    3    0    0 -0.62273065790E+02 -0.95378264745E+02  0.54739975771E+02  0.12637805607E+03  0.00000000000E+00 0.  1.
         22    1    1    2    0    0  0.13661913665E+03  0.35094183341E+03 -0.19441390195E+04  0.19802781335E+04  0.00000000000E+00 0. -1.
<mgrwt>
<rscale>  0 0.14339861E+04</rscale>
<asrwt>0</asrwt>
<pdfrwt beam="1">  1        2 0.32794643E+00 0.14339861E+04</pdfrwt>
<pdfrwt beam="2">  1       -2 0.37102254E-01 0.14339861E+04</pdfrwt>
<totfact> 0.37540150E+01</totfact>
</mgrwt>
</event>
<event>
 6    1  0.1528034E-005  0.3051297E+04  0.7818608E-02  0.8229233E-01
         -1   -1    0    0    0  501 -0.00000000000E+00  0.00000000000E+00  0.19749738011E+04  0.19749738011E+04  0.00000000000E+00 0.  1.
          1   -1    0    0  501    0  0.00000000000E+00 -0.00000000000E+00 -0.11785487189E+04  0.11785487189E+04  0.00000000000E+00 0. -1.
         23    2    1    2    0    0 -0.62206332732E+03 -0.12997765495E+03 -0.10334116863E+04  0.12164733278E+04  0.89502345802E+02 0.  0.
         13    1    3    3    0    0 -0.22894416873E+03 -0.12899608372E+02 -0.32245726421E+03  0.39567729216E+03  0.00000000000E+00 0. -1.
        -13    1    3    3    0    0 -0.39311915859E+03 -0.11707804658E+03 -0.71095442207E+03  0.82079603563E+03  0.00000000000E+00 0.  1.
         22    1    1    2    0    0  0.62206332732E+03  0.12997765495E+03  0.18298367684E+04  0.19370491922E+04  0.00000000000E+00 0.  1.
<mgrwt>
<rscale>  0 0.30512967E+04</rscale>
<asrwt>0</asrwt>
<pdfrwt beam="1">  1        1 0.18131519E+00 0.30512967E+04</pdfrwt>
<pdfrwt beam="2">  1       -1 0.30384212E+00 0.30512967E+04</pdfrwt>
<totfact> 0.29272518E-01</totfact>
</mgrwt>
</event>
<event>
 6    1  0.1528034E-005  0.3396682E+04  0.7818608E-02  0.8138721E-01
          2   -1    0    0  501    0  0.00000000000E+00  0.00000000000E+00  0.31398432997E+04  0.31398432997E+04  0.00000000000E+00 0.  1.
         -2   -1    0    0    0  501 -0.00000000000E+00 -0.00000000000E+00 -0.91863262088E+03  0.91863262088E+03  0.00000000000E+00 0. -1.
         23    2    1    2    0    0  0.32246916031E+03 -0.16641041916E+04  0.10095071491E+04  0.19748601778E+04  0.87971119693E+02 0.  0.
         11    1    3    3    0    0  0.41016332502E+02 -0.40964266983E+03  0.24645586615E+03  0.47982283234E+03  0.00000000000E+00 0. -1.
        -11    1    3    3    0    0  0.28145282781E+03 -0.12544615217E+04  0.76305128298E+03  0.14950373454E+04  0.00000000000E+00 0.  1.
         22    1    1    2    0    0 -0.32246916031E+03  0.16641041916E+04  0.12117035297E+04  0.20836157428E+04  0.00000000000E+00 0. -1.
<mgrwt>
<rscale>  0 0.33966822E+04</rscale>
<asrwt>0</asrwt>
<pdfrwt beam="1">  1        2 0.48305281E+00 0.33966822E+04</pdfrwt>
<pdfrwt beam="2">  1       -2 0.14132810E+00 0.33966822E+04</pdfrwt>
<totfact> 0.41160703E-01</totfact>
</mgrwt>
</event>
<event>
 6    1  0.1528034E-005  0.1286588E+04  0.7818608E-02  0.9040269E-01
         -2   -1    0    0    0  501 -0.00000000000E+00  0.00000000000E+00  0.15859076089E+03  0.15859076089E+03  0.00000000000E+00 0. -1.
          2   -1    0    0  501    0  0.00000000000E+00 -0.00000000000E+00 -0.26094017662E+04  0.26094017662E+04  0.00000000000E+00 0.  1.
         23    2    1    2    0    0  0.38712022292E+02  0.62573678786E+03 -0.95058166860E+03  0.11420364357E+04  0.87158266754E+02 0.  0.
         11    1    3    3    0    0  0.23530550363E+02  0.19462546801E+03 -0.23013623356E+03  0.30231679674E+03  0.00000000000E+00 0. -1.
        -11    1    3    3    0    0  0.15181471928E+02  0.43111131986E+03 -0.72044543505E+03  0.83971963897E+03  0.00000000000E+00 0.  1.
         22    1    1    2    0    0 -0.38712022292E+02 -0.62573678786E+03 -0.15002293367E+04  0.16259560914E+04  0.00000000000E+00 0. -1.
<mgrwt>
<rscale>  0 0.12865878E+04</rscale>
<asrwt>0</asrwt>
<pdfrwt beam="1">  1        2 0.40144638E+00 0.12865878E+04</pdfrwt>
<pdfrwt beam="2">  1       -2 0.24398581E-01 0.12865878E+04</pdfrwt>
<totfact> 0.44474161E+01</totfact>
</mgrwt>
</event>
<event>
 6    1  0.1528034E-005  0.3935668E+04  0.7818608E-02  0.8017652E-01
         -2   -1    0    0    0  501 -0.00000000000E+00  0.00000000000E+00  0.21942061034E+04  0.21942061034E+04  0.00000000000E+00 0.  1.
          2   -1    0    0  501    0  0.00000000000E+00 -0.00000000000E+00 -0.17648161516E+04  0.17648161516E+04  0.00000000000E+00 0. -1.
         23    2    1    2    0    0  0.38560228290E+03 -0.16511655039E+04 -0.78774546209E+03  0.18718099377E+04  0.89960480332E+02 0.  0.
         13    1    3    3    0    0  0.22468286859E+03 -0.87082659004E+03 -0.37375562066E+03  0.97391714500E+03  0.00000000000E+00 0.  1.
        -13    1    3    3    0    0  0.16091941431E+03 -0.78033891383E+03 -0.41398984143E+03  0.89789279268E+03  0.00000000000E+00 0. -1.
         22    1    1    2    0    0 -0.38560228290E+03  0.16511655039E+04  0.12171354139E+04  0.20872123173E+04  0.00000000000E+00 0.  1.
<mgrwt>
<rscale>  0 0.39356679E+04</rscale>
<asrwt>0</asrwt>
<pdfrwt beam="1">  1        2 0.27151018E+00 0.39356679E+04</pdfrwt>
<pdfrwt beam="2">  1       -2 0.33757017E+00 0.39356679E+04</pdfrwt>
<totfact> 0.13325404E-01</totfact>
</mgrwt>
</event>
<event>
 6    1  0.1528034E-005  0.1726981E+04  0.7818608E-02  0.8746124E-01
         -2   -1    0    0    0  501 -0.00000000000E+00  0.00000000000E+00  0.10476088265E+04  0.10476088265E+04  0.00000000000E+00 0.  1.
          2   -1    0    0  501    0  0.00000000000E+00 -0.00000000000E+00 -0.71173094520E+03  0.71173094520E+03  0.00000000000E+00 0. -1.
         23    2    1    2    0    0 -0.12614095952E+02  0.85551808863E+03  0.70816669867E+02  0.86361226781E+03  0.93492422050E+02 0.  0.
         11    1    3    3    0    0  0.39536100569E+02  0.29776904660E+03  0.17302609611E+02  0.30088018988E+03  0.00000000000E+00 0.  1.
        -11    1    3    3    0    0 -0.52150196521E+02  0.55774904203E+03  0.53514060256E+02  0.56273207793E+03  0.00000000000E+00 0. -1.
         22    1    1    2    0    0  0.12614095952E+02 -0.85551808863E+03  0.26506121141E+03  0.89572750387E+03  0.00000000000E+00 0.  1.
<mgrwt>
<rscale>  0 0.17269807E+04</rscale>
<asrwt>0</asrwt>
<pdfrwt beam="1">  1        2 0.10949707E+00 0.17269807E+04</pdfrwt>
<pdfrwt beam="2">  1       -2 0.16117059E+00 0.17269807E+04</pdfrwt>
<totfact> 0.94000340E+00</totfact>
</mgrwt>
</event>
<event>
 6    1  0.1528034E-005  0.1266021E+04  0.7818608E-02  0.9056954E-01
         -1   -1    0    0    0  501 -0.00000000000E+00  0.00000000000E+00  0.16885599244E+03  0.16885599244E+03  0.00000000000E+00 0.  1.
          1   -1    0    0  501    0  0.00000000000E+00 -0.00000000000E+00 -0.23730399272E+04  0.23730399272E+04  0.00000000000E+00 0. -1.
         23    2    1    2    0    0  0.26174345913E+03  0.45237162275E+03 -0.18129907873E+04  0.18890699075E+04  0.92194345406E+02 0.  0.
         11    1    3    3    0    0  0.93053908796E+02  0.24247022255E+03 -0.96590241530E+03  0.10002091355E+04  0.00000000000E+00 0.  1.
        -11    1    3    3    0    0  0.16868955034E+03  0.20990140020E+03 -0.84708837196E+03  0.88886077206E+03  0.00000000000E+00 0. -1.
         22    1    1    2    0    0 -0.26174345913E+03 -0.45237162275E+03 -0.39119314751E+03  0.65282601214E+03  0.00000000000E+00 0. -1.
<mgrwt>
<rscale>  0 0.12660206E+04</rscale>
<asrwt>0</asrwt>
<pdfrwt beam="1">  1        1 0.36508304E+00 0.12660206E+04</pdfrwt>
<pdfrwt beam="2">  1       -1 0.25977847E-01 0.12660206E+04</pdfrwt>
<totfact> 0.21500140E+01</totfact>
</mgrwt>
</event>
<event>
 6    1  0.1528034E-005  0.4194246E+04  0.7818608E-02  0.7966468E-01
          2   -1    0    0  501    0  0.00000000000E+00  0.00000000000E+00  0.16205505054E+04  0.16205505054E+04  0.00000000000E+00 0. -1.
         -2   -1    0    0    0  501 -0.00000000000E+00 -0.00000000000E+00 -0.27138457097E+04  0.27138457097E+04  0.00000000000E+00 0.  1.
         23    2    1    2    0    0 -0.14829452177E+04 -0.54460770757E+03  0.87679840695E+03  0.18091253561E+04  0.91842440544E+02 0.  0.
         13    1    3    3    0    0 -0.14322750000E+04 -0.52165760161E+03  0.82566568597E+03  0.17335691950E+04  0.00000000000E+00 0. -1.
        -13    1    3    3    0    0 -0.50670217711E+02 -0.22950105967E+02  0.51132720980E+02  0.75556161109E+02  0.00000000000E+00 0.  1.
         22    1    1    2    0    0  0.14829452177E+04  0.54460770757E+03 -0.19700936113E+04  0.25252708590E+04  0.00000000000E+00 0.  1.
<mgrwt>
<rscale>  0 0.41942456E+04</rscale>
<asrwt>0</asrwt>
<pdfrwt beam="1">  1        2 0.24931546E+00 0.41942456E+04</pdfrwt>
<pdfrwt beam="2">  1       -2 0.41751472E+00 0.41942456E+04</pdfrwt>
<totfact> 0.48021122E-02</totfact>
</mgrwt>
</event>
<event>
 6    1  0.1528034E-005  0.1490862E+04  0.7818608E-02  0.8890552E-01
          1   -1    0    0  501    0  0.00000000000E+00  0.00000000000E+00  0.18643187637E+04  0.18643187637E+04  0.00000000000E+00 0. -1.
         -1   -1    0    0    0  501 -0.00000000000E+00 -0.00000000000E+00 -0.29805393018E+03  0.29805393018E+03  0.00000000000E+00 0.  1.
         23    2    1    2    0    0 -0.56720211803E+03 -0.12585566134E+03  0.14565487667E+04  0.15711066747E+04  0.96353428272E+02 0.  0.
         13    1    3    3    0    0 -0.13997537706E+03  0.70084370868E+01  0.30348024972E+03  0.33427905460E+03  0.00000000000E+00 0.  1.
        -13    1    3    3    0    0 -0.42722674097E+03 -0.13286409842E+03  0.11530685170E+04  0.12368276201E+04  0.00000000000E+00 0. -1.
         22    1    1    2    0    0  0.56720211803E+03  0.12585566134E+03  0.10971606682E+03  0.59126601924E+03  0.00000000000E+00 0.  1.
<mgrwt>
<rscale>  0 0.14908622E+04</rscale>
<asrwt>0</asrwt>
<pdfrwt beam="1">  1        1 0.28681826E+00 0.14908622E+04</pdfrwt>
<pdfrwt beam="2">  1       -1 0.45854452E-01 0.14908622E+04</pdfrwt>
<totfact> 0.16866653E+01</totfact>
</mgrwt>
</event>
<event>
 6    1  0.1528034E-005  0.2634274E+04  0.7818608E-02  0.8356651E-01
          1   -1    0    0  501    0  0.00000000000E+00  0.00000000000E+00  0.19351679985E+04  0.19351679985E+04  0.00000000000E+00 0. -1.
         -1   -1    0    0    0  501 -0.00000000000E+00 -0.00000000000E+00 -0.89648532106E+03  0.89648532106E+03  0.00000000000E+00 0.  1.
         23    2    1    2    0    0  0.10165385261E+04 -0.14141764790E+03 -0.36458128729E+03  0.10931196613E+04  0.92959952003E+02 0.  0.
         11    1    3    3    0    0  0.27369316865E+03 -0.23970748157E+02 -0.57060078415E+02  0.28060363483E+03  0.00000000000E+00 0.  1.
        -11    1    3    3    0    0  0.74284535747E+03 -0.11744689974E+03 -0.30752120887E+03  0.81251602647E+03  0.00000000000E+00 0. -1.
         22    1    1    2    0    0 -0.10165385261E+04  0.14141764790E+03  0.14032639647E+04  0.17385336582E+04  0.00000000000E+00 0. -1.
<mgrwt>
<rscale>  0 0.26342739E+04</rscale>
<asrwt>0</asrwt>
<pdfrwt beam="1">  1        1 0.29771815E+00 0.26342739E+04</pdfrwt>
<pdfrwt beam="2">  1       -1 0.13792082E+00 0.26342739E+04</pdfrwt>
<totfact> 0.12620506E+00</totfact>
</mgrwt>
</event>
<event>
 6    1  0.1528034E-005  0.8070888E+03  0.7818608E-02  0.9549813E-01
         -3   -1    0    0    0  501 -0.00000000000E+00  0.00000000000E+00  0.17505963087E+03  0.17505963087E+03  0.00000000000E+00 0.  1.
          3   -1    0    0  501    0  0.00000000000E+00 -0.00000000000E+00 -0.93024356988E+03  0.93024356988E+03  0.00000000000E+00 0. -1.
         23    2    1    2    0    0 -0.36137129696E+03 -0.16568118691E+03 -0.32546514314E+03  0.51989931156E+03  0.79550391574E+02 0.  0.
         11    1    3    3    0    0 -0.12053077736E+02 -0.20432597061E+02 -0.53352081789E+01  0.24315265819E+02  0.00000000000E+00 0.  1.
        -11    1    3    3    0    0 -0.34931821922E+03 -0.14524858985E+03 -0.32012993496E+03  0.49558404574E+03  0.00000000000E+00 0. -1.
         22    1    1    2    0    0  0.36137129696E+03  0.16568118691E+03 -0.42971879586E+03  0.58540388919E+03  0.00000000000E+00 0.  1.
<mgrwt>
<rscale>  0 0.80708883E+03</rscale>
<asrwt>0</asrwt>
<pdfrwt beam="1">  1        3 0.14311440E+00 0.80708883E+03</pdfrwt>
<pdfrwt beam="2">  1       -3 0.26932251E-01 0.80708883E+03</pdfrwt>
<totfact> 0.12802869E+01</totfact>
</mgrwt>
</event>
<event>
 6    1  0.1528034E-005  0.5998609E+04  0.7818608E-02  0.7690574E-01
          2   -1    0    0  501    0  0.00000000000E+00  0.00000000000E+00  0.27941333380E+04  0.27941333380E+04  0.00000000000E+00 0.  1.
         -2   -1    0    0    0  501 -0.00000000000E+00 -0.00000000000E+00 -0.32195413458E+04  0.32195413458E+04  0.00000000000E+00 0. -1.
         23    2    1    2    0    0 -0.12274530993E+04 -0.12982232088E+04 -0.26269222011E+04  0.31784164320E+04  0.97908903083E+02 0.  0.
         13    1    3    3    0    0 -0.12233969949E+03 -0.16675668202E+03 -0.27299734589E+03  0.34249429767E+03  0.00000000000E+00 0.  1.
        -13    1    3    3    0    0 -0.11051133999E+04 -0.11314665268E+04 -0.23539248552E+04  0.28359221343E+04  0.00000000000E+00 0. -1.
         22    1    1    2    0    0  0.12274530993E+04  0.12982232088E+04  0.22015141933E+04  0.28352582518E+04  0.00000000000E+00 0.  1.
<mgrwt>
<rscale>  0 0.59986091E+04</rscale>
<asrwt>0</asrwt>
<pdfrwt beam="1">  1        2 0.42986667E+00 0.59986091E+04</pdfrwt>
<pdfrwt beam="2">  1       -2 0.49531405E+00 0.59986091E+04</pdfrwt>
<totfact> 0.27986008E-03</totfact>
</mgrwt>
</event>
<event>
 6    1  0.1528034E-005  0.8879846E+03  0.7818608E-02  0.9440727E-01
         -1   -1    0    0    0  501 -0.00000000000E+00  0.00000000000E+00  0.18109862467E+03  0.18109862467E+03  0.00000000000E+00 0.  1.
          1   -1    0    0  501    0  0.00000000000E+00 -0.00000000000E+00 -0.10885183382E+04  0.10885183382E+04  0.00000000000E+00 0. -1.
         23    2    1    2    0    0 -0.96497111234E+02  0.10321706658E+03 -0.10532526113E+04  0.10665586231E+04  0.90778730746E+02 0.  0.
         13    1    3    3    0    0 -0.76482340975E+02  0.44228851263E+02 -0.36700154785E+03  0.37748625920E+03  0.00000000000E+00 0. -1.
        -13    1    3    3    0    0 -0.20014770259E+02  0.58988215318E+02 -0.68625106345E+03  0.68907236388E+03  0.00000000000E+00 0.  1.
         22    1    1    2    0    0  0.96497111234E+02 -0.10321706658E+03  0.14583289773E+03  0.20305833982E+03  0.00000000000E+00 0.  1.
<mgrwt>
<rscale>  0 0.88798463E+03</rscale>
<asrwt>0</asrwt>
<pdfrwt beam="1">  1        1 0.16746436E+00 0.88798463E+03</pdfrwt>
<pdfrwt beam="2">  1       -1 0.27861327E-01 0.88798463E+03</pdfrwt>
<totfact> 0.15123727E+02</totfact>
</mgrwt>
</event>
<event>
 6    1  0.1528034E-005  0.2808515E+04  0.7818608E-02  0.8300630E-01
         -2   -1    0    0    0  501 -0.00000000000E+00  0.00000000000E+00  0.18814727931E+04  0.18814727931E+04  0.00000000000E+00 0.  1.
          2   -1    0    0  501    0  0.00000000000E+00 -0.00000000000E+00 -0.10480830406E+04  0.10480830406E+04  0.00000000000E+00 0. -1.
         23    2    1    2    0    0  0.10328601863E+04 -0.40351489093E+03  0.13132561864E+04  0.17212941791E+04  0.92668269322E+02 0.  0.
         11    1    3    3    0    0  0.66799494745E+03 -0.23193390381E+03  0.89037169726E+03  0.11370014709E+04  0.00000000000E+00 0.  1.
        -11    1    3    3    0    0  0.36486523883E+03 -0.17158098712E+03  0.42288448913E+03  0.58429270815E+03  0.00000000000E+00 0. -1.
         22    1    1    2    0    0 -0.10328601863E+04  0.40351489093E+03 -0.47986643395E+03  0.12082616546E+04  0.00000000000E+00 0. -1.
<mgrwt>
<rscale>  0 0.28085154E+04</rscale>
<asrwt>0</asrwt>
<pdfrwt beam="1">  1        2 0.16124354E+00 0.28085154E+04</pdfrwt>
<pdfrwt beam="2">  1       -2 0.28945735E+00 0.28085154E+04</pdfrwt>
<totfact> 0.75255708E-01</totfact>
</mgrwt>
</event>
<event>
 6    1  0.1528034E-005  0.3676621E+04  0.7818608E-02  0.8073163E-01
         -1   -1    0    0    0  501 -0.00000000000E+00  0.00000000000E+00  0.88664946679E+03  0.88664946679E+03  0.00000000000E+00 0.  1.
          1   -1    0    0  501    0  0.00000000000E+00 -0.00000000000E+00 -0.38114115499E+04  0.38114115499E+04  0.00000000000E+00 0. -1.
         23    2    1    2    0    0 -0.16971629610E+04  0.30777868178E+03 -0.65473113366E+03  0.18470734081E+04  0.88980246872E+02 0.  0.
         13    1    3    3    0    0 -0.66376208757E+03  0.12701711531E+03 -0.30262985414E+03  0.74047166394E+03  0.00000000000E+00 0.  1.
        -13    1    3    3    0    0 -0.10334008734E+04  0.18076156647E+03 -0.35210127952E+03  0.11066017441E+04  0.00000000000E+00 0. -1.
         22    1    1    2    0    0  0.16971629610E+04 -0.30777868178E+03 -0.22700309494E+04  0.28509876086E+04  0.00000000000E+00 0. -1.
<mgrwt>
<rscale>  0 0.36766213E+04</rscale>
<asrwt>0</asrwt>
<pdfrwt beam="1">  1        1 0.58637102E+00 0.36766213E+04</pdfrwt>
<pdfrwt beam="2">  1       -1 0.13640761E+00 0.36766213E+04</pdfrwt>
<totfact> 0.50149586E-02</totfact>
</mgrwt>
</event>
<event>
 6    1  0.1528034E-005  0.1501706E+04  0.7818608E-02  0.8883319E-01
          3   -1    0    0  501    0  0.00000000000E+00  0.00000000000E+00  0.41366819256E+03  0.41366819256E+03  0.00000000000E+00 0. -1.
         -3   -1    0    0    0  501 -0.00000000000E+00 -0.00000000000E+00 -0.13628802595E+04  0.13628802595E+04  0.00000000000E+00 0.  1.
         23    2    1    2    0    0  0.69348444570E+03 -0.10464076362E+03 -0.78387564886E+03  0.10559886024E+04  0.93704480629E+02 0.  0.
         13    1    3    3    0    0  0.13222863692E+03  0.15871863568E+02 -0.13503025035E+03  0.18965626008E+03  0.00000000000E+00 0. -1.
        -13    1    3    3    0    0  0.56125580878E+03 -0.12051262718E+03 -0.64884539851E+03  0.86633234233E+03  0.00000000000E+00 0.  1.
         22    1    1    2    0    0 -0.69348444570E+03  0.10464076362E+03 -0.16533641812E+03  0.72055984970E+03  0.00000000000E+00 0. -1.
<mgrwt>
<rscale>  0 0.15017060E+04</rscale>
<asrwt>0</asrwt>
<pdfrwt beam="1">  1        3 0.63641261E-01 0.15017060E+04</pdfrwt>
<pdfrwt beam="2">  1       -3 0.20967388E+00 0.15017060E+04</pdfrwt>
<totfact> 0.77260640E-01</totfact>
</mgrwt>
</event>
<event>
 6    1  0.1528034E-005  0.4012727E+04  0.7818608E-02  0.8001984E-01
          2   -1    0    0  501    0  0.00000000000E+00  0.00000000000E+00  0.12422357858E+04  0.12422357858E+04  0.00000000000E+00 0. -1.
         -2   -1    0    0    0  501 -0.00000000000E+00 -0.00000000000E+00 -0.32405234330E+04  0.32405234330E+04  0.00000000000E+00 0.  1.
         23    2    1    2    0    0 -0.53874290040E+03  0.17833655924E+04 -0.18286820496E+04  0.26120901387E+04  0.91104912691E+02 0.  0.
         11    1    3    3    0    0 -0.35500231351E+03  0.11279900584E+04 -0.12185059111E+04  0.16979825882E+04  0.00000000000E+00 0. -1.
        -11    1    3    3    0    0 -0.18374058689E+03  0.65537553397E+03 -0.61017613856E+03  0.91410755049E+03  0.00000000000E+00 0.  1.
         22    1    1    2    0    0  0.53874290040E+03 -0.17833655924E+04 -0.16960559759E+03  0.18706690802E+04  0.00000000000E+00 0. -1.
<mgrwt>
<rscale>  0 0.40127268E+04</rscale>
<asrwt>0</asrwt>
<pdfrwt beam="1">  1        2 0.19111320E+00 0.40127268E+04</pdfrwt>
<pdfrwt beam="2">  1       -2 0.49854206E+00 0.40127268E+04</pdfrwt>
<totfact> 0.23756761E-02</totfact>
</mgrwt>
</event>
<event>
 6    1  0.1528034E-005  0.2766597E+04  0.7818608E-02  0.8313714E-01
         -2   -1    0    0    0  501 -0.00000000000E+00  0.00000000000E+00  0.91745472817E+03  0.91745472817E+03  0.00000000000E+00 0.  1.
          2   -1    0    0  501    0  0.00000000000E+00 -0.00000000000E+00 -0.20856777390E+04  0.20856777390E+04  0.00000000000E+00 0. -1.
         23    2    1    2    0    0  0.84400068006E+03 -0.87095117798E+03  0.13394897847E+03  0.12236536131E+04  0.92156028811E+02 0.  0.
         11    1    3    3    0    0  0.66240679435E+03 -0.68767976817E+03  0.14311961810E+03  0.96548922823E+03  0.00000000000E+00 0.  1.
        -11    1    3    3    0    0  0.18159388571E+03 -0.18327140981E+03 -0.91706396238E+01  0.25816438486E+03  0.00000000000E+00 0. -1.
         22    1    1    2    0    0 -0.84400068006E+03  0.87095117798E+03 -0.13021719893E+04  0.17794788541E+04  0.00000000000E+00 0. -1.
<mgrwt>
<rscale>  0 0.27665971E+04</rscale>
<asrwt>0</asrwt>
<pdfrwt beam="1">  1        2 0.32087350E+00 0.27665971E+04</pdfrwt>
<pdfrwt beam="2">  1       -2 0.14114688E+00 0.27665971E+04</pdfrwt>
<totfact> 0.18362444E+00</totfact>
</mgrwt>
</event>
<event>
 6    1  0.1528034E-005  0.2945995E+04  0.7818608E-02  0.8259323E-01
         -1   -1    0    0    0  501 -0.00000000000E+00  0.00000000000E+00  0.10518649316E+04  0.10518649316E+04  0.00000000000E+00 0.  1.
          1   -1    0    0  501    0  0.00000000000E+00 -0.00000000000E+00 -0.20627378172E+04  0.20627378172E+04  0.00000000000E+00 0. -1.
         23    2    1    2    0    0 -0.13130851293E+03 -0.10704373047E+04 -0.15644652833E+04  0.19023558715E+04  0.91259465979E+02 0.  0.
         13    1    3    3    0    0 -0.57480004107E+01 -0.17431289518E+03 -0.30824765851E+03  0.35416753650E+03  0.00000000000E+00 0. -1.
        -13    1    3    3    0    0 -0.12556051252E+03 -0.89612440950E+03 -0.12562176248E+04  0.15481883350E+04  0.00000000000E+00 0.  1.
         22    1    1    2    0    0  0.13130851293E+03  0.10704373047E+04  0.55359239766E+03  0.12122468773E+04  0.00000000000E+00 0.  1.
<mgrwt>
<rscale>  0 0.29459950E+04</rscale>
<asrwt>0</asrwt>
<pdfrwt beam="1">  1        1 0.31734428E+00 0.29459950E+04</pdfrwt>
<pdfrwt beam="2">  1       -1 0.16182537E+00 0.29459950E+04</pdfrwt>
<totfact> 0.65383961E-01</totfact>
</mgrwt>
</event>
<event>
 6    1  0.1528034E-005  0.3746714E+04  0.7818608E-02  0.8057688E-01
          2   -1    0    0  501    0  0.00000000000E+00  0.00000000000E+00  0.27425875082E+04  0.27425875082E+04  0.00000000000E+00 0. -1.
         -2   -1    0    0    0  501 -0.00000000000E+00 -0.00000000000E+00 -0.12796187202E+04  0.12796187202E+04  0.00000000000E+00 0.  1.
         23    2    1    2    0    0  0.97464175512E+03  0.35081933484E+03 -0.94251965796E+03  0.14031652932E+04  0.86768530902E+02 0.  0.
         13    1    3    3    0    0  0.29890461951E+03  0.14410097012E+03 -0.33032317140E+03  0.46821198054E+03  0.00000000000E+00 0.  1.
        -13    1    3    3    0    0  0.67573713561E+03  0.20671836472E+03 -0.61219648657E+03  0.93495331269E+03  0.00000000000E+00 0. -1.
         22    1    1    2    0    0 -0.97464175512E+03 -0.35081933484E+03  0.24054884459E+04  0.26190409352E+04  0.00000000000E+00 0. -1.
<mgrwt>
<rscale>  0 0.37467139E+04</rscale>
<asrwt>0</asrwt>
<pdfrwt beam="1">  1        2 0.42193654E+00 0.37467139E+04</pdfrwt>
<pdfrwt beam="2">  1       -2 0.19686442E+00 0.37467139E+04</pdfrwt>
<totfact> 0.28122689E-01</totfact>
</mgrwt>
</event>
<event>
 6    1  0.1866802E-005  0.4047609E+04  0.7818608E-02  0.7995011E-01
         -1   -1    0    0    0  501 -0.00000000000E+00  0.00000000000E+00  0.16819084469E+04  0.16819084469E+04  0.00000000000E+00 0.  1.
          1   -1    0    0  501    0  0.00000000000E+00 -0.00000000000E+00 -0.24352007988E+04  0.24352007988E+04  0.00000000000E+00 0. -1.
         23    2    1    2    0    0  0.55200264871E+03 -0.30122598541E+03  0.15787835574E+04  0.17017372111E+04  0.88926914415E+02 0.  0.
         13    1    3    3    0    0  0.38977991137E+03 -0.16790925937E+03  0.10175678178E+04  0.11025271708E+04  0.00000000000E+00 0.  1.
        -13    1    3    3    0    0  0.16222273734E+03 -0.13331672604E+03  0.56121573966E+03  0.59921004030E+03  0.00000000000E+00 0. -1.
         22    1    1    2    0    0 -0.55200264871E+03  0.30122598541E+03 -0.23320759094E+04  0.24153720346E+04  0.00000000000E+00 0. -1.
<mgrwt>
<rscale>  0 0.40476091E+04</rscale>
<asrwt>0</asrwt>
<pdfrwt beam="1">  1        1 0.37464628E+00 0.40476091E+04</pdfrwt>
<pdfrwt beam="2">  1       -1 0.25875515E+00 0.40476091E+04</pdfrwt>
<totfact> 0.71597537E-02</totfact>
</mgrwt>
</event>
<event>
 6    1  0.1528034E-005  0.2840095E+04  0.7818608E-02  0.8290927E-01
         -1   -1    0    0    0  501 -0.00000000000E+00  0.00000000000E+00  0.99757845767E+03  0.99757845767E+03  0.00000000000E+00 0.  1.
          1   -1    0    0  501    0  0.00000000000E+00 -0.00000000000E+00 -0.20214305128E+04  0.20214305128E+04  0.00000000000E+00 0. -1.
         23    2    1    2    0    0 -0.47681578770E+03  0.13200803779E+04 -0.29340458003E+03  0.14367577220E+04  0.90669754924E+02 0.  0.
         11    1    3    3    0    0 -0.16036467959E+03  0.52514127370E+03 -0.15011531190E+03  0.56923175831E+03  0.00000000000E+00 0. -1.
        -11    1    3    3    0    0 -0.31645110811E+03  0.79493910421E+03 -0.14328926813E+03  0.86752596364E+03  0.00000000000E+00 0.  1.
         22    1    1    2    0    0  0.47681578770E+03 -0.13200803779E+04 -0.73044747509E+03  0.15822512485E+04  0.00000000000E+00 0. -1.
<mgrwt>
<rscale>  0 0.28400954E+04</rscale>
<asrwt>0</asrwt>
<pdfrwt beam="1">  1        1 0.31098931E+00 0.28400954E+04</pdfrwt>
<pdfrwt beam="2">  1       -1 0.15347361E+00 0.28400954E+04</pdfrwt>
<totfact> 0.81514536E-01</totfact>
</mgrwt>
</event>
<event>
 6    1  0.1528034E-005  0.3262320E+04  0.7818608E-02  0.8172550E-01
         -1   -1    0    0    0  501 -0.00000000000E+00  0.00000000000E+00  0.11859269777E+04  0.11859269777E+04  0.00000000000E+00 0.  1.
          1   -1    0    0  501    0  0.00000000000E+00 -0.00000000000E+00 -0.22435476184E+04  0.22435476184E+04  0.00000000000E+00 0. -1.
         23    2    1    2    0    0  0.10293775528E+04  0.89074208881E+03 -0.14716264093E+04  0.20066462891E+04  0.88912461083E+02 0.  0.
         11    1    3    3    0    0  0.54551022520E+03  0.50201281587E+03 -0.85675989181E+03  0.11329765158E+04  0.00000000000E+00 0.  1.
        -11    1    3    3    0    0  0.48386732760E+03  0.38872927294E+03 -0.61486651754E+03  0.87366977328E+03  0.00000000000E+00 0. -1.
         22    1    1    2    0    0 -0.10293775528E+04 -0.89074208881E+03  0.41400576865E+03  0.14228283071E+04  0.00000000000E+00 0.  1.
<mgrwt>
<rscale>  0 0.32623204E+04</rscale>
<asrwt>0</asrwt>
<pdfrwt beam="1">  1        1 0.34516117E+00 0.32623204E+04</pdfrwt>
<pdfrwt beam="2">  1       -1 0.18245031E+00 0.32623204E+04</pdfrwt>
<totfact> 0.33835508E-01</totfact>
</mgrwt>
</event>
<event>
 6    1  0.1528034E-005  0.2910717E+04  0.7818608E-02  0.8269696E-01
         -2   -1    0    0    0  501 -0.00000000000E+00  0.00000000000E+00  0.94511146667E+03  0.94511146667E+03  0.00000000000E+00 0. -1.
          2   -1    0    0  501    0  0.00000000000E+00 -0.00000000000E+00 -0.22410784318E+04  0.22410784318E+04  0.00000000000E+00 0.  1.
         23    2    1    2    0    0 -0.11517855430E+04  0.32528745820E+03  0.25501308839E+03  0.12271184363E+04  0.91466462238E+02 0.  0.
         13    1    3    3    0    0 -0.70553227386E+03  0.23749452341E+03  0.13288900880E+03  0.75620032185E+03  0.00000000000E+00 0.  1.
        -13    1    3    3    0    0 -0.44625326919E+03  0.87792934794E+02  0.12212407959E+03  0.47091811440E+03  0.00000000000E+00 0. -1.
         22    1    1    2    0    0  0.11517855430E+04 -0.32528745820E+03 -0.15509800535E+04  0.19590714622E+04  0.00000000000E+00 0.  1.
<mgrwt>
<rscale>  0 0.29107174E+04</rscale>
<asrwt>0</asrwt>
<pdfrwt beam="1">  1        2 0.34478129E+00 0.29107174E+04</pdfrwt>
<pdfrwt beam="2">  1       -2 0.14540177E+00 0.29107174E+04</pdfrwt>
<totfact> 0.13731963E+00</totfact>
</mgrwt>
</event>
<event>
 6    1  0.1528034E-005  0.2278572E+04  0.7818608E-02  0.8486418E-01
          1   -1    0    0  501    0  0.00000000000E+00  0.00000000000E+00  0.10581399861E+04  0.10581399861E+04  0.00000000000E+00 0. -1.
         -1   -1    0    0    0  501 -0.00000000000E+00 -0.00000000000E+00 -0.12266548842E+04  0.12266548842E+04  0.00000000000E+00 0.  1.
         23    2    1    2    0    0 -0.10030811010E+04 -0.19414900406E+03  0.41739225715E+03  0.11070203903E+04  0.86094815199E+02 0.  0.
         11    1    3    3    0    0 -0.93427526644E+03 -0.20261263208E+03  0.38960151674E+03  0.10323330344E+04  0.00000000000E+00 0.  1.
        -11    1    3    3    0    0 -0.68805834592E+02  0.84636280233E+01  0.27790740408E+02  0.74687355862E+02  0.00000000000E+00 0. -1.
         22    1    1    2    0    0  0.10030811010E+04  0.19414900406E+03 -0.58590715523E+03  0.11777744799E+04  0.00000000000E+00 0.  1.
<mgrwt>
<rscale>  0 0.22785720E+04</rscale>
<asrwt>0</asrwt>
<pdfrwt beam="1">  1        1 0.16279077E+00 0.22785720E+04</pdfrwt>
<pdfrwt beam="2">  1       -1 0.18871614E+00 0.22785720E+04</pdfrwt>
<totfact> 0.22287432E+00</totfact>
</mgrwt>
</event>
<event>
 6    1  0.1528034E-005  0.2199346E+04  0.7818608E-02  0.8518700E-01
         -2   -1    0    0    0  501 -0.00000000000E+00  0.00000000000E+00  0.62943956269E+03  0.62943956269E+03  0.00000000000E+00 0.  1.
          2   -1    0    0  501    0  0.00000000000E+00 -0.00000000000E+00 -0.19212026501E+04  0.19212026501E+04  0.00000000000E+00 0. -1.
         23    2    1    2    0    0  0.76296248196E+03 -0.78925460381E+03 -0.63754577561E+03  0.12727396854E+04  0.91471920566E+02 0.  0.
         13    1    3    3    0    0  0.39067081370E+03 -0.43205560653E+03 -0.29023384723E+03  0.65079291475E+03  0.00000000000E+00 0.  1.
        -13    1    3    3    0    0  0.37229166826E+03 -0.35719899728E+03 -0.34731192837E+03  0.62194677063E+03  0.00000000000E+00 0. -1.
         22    1    1    2    0    0 -0.76296248196E+03  0.78925460381E+03 -0.65421731181E+03  0.12779025274E+04  0.00000000000E+00 0.  1.
<mgrwt>
<rscale>  0 0.21993462E+04</rscale>
<asrwt>0</asrwt>
<pdfrwt beam="1">  1        2 0.29556964E+00 0.21993462E+04</pdfrwt>
<pdfrwt beam="2">  1       -2 0.96836856E-01 0.21993462E+04</pdfrwt>
<totfact> 0.60193809E+00</totfact>
</mgrwt>
</event>
<event>
 6    1  0.1528034E-005  0.3860568E+04  0.7818608E-02  0.8033281E-01
         -3   -1    0    0    0  501 -0.00000000000E+00  0.00000000000E+00  0.11687701874E+04  0.11687701874E+04  0.00000000000E+00 0.  1.
          3   -1    0    0  501    0  0.00000000000E+00 -0.00000000000E+00 -0.31879629701E+04  0.31879629701E+04  0.00000000000E+00 0. -1.
         23    2    1    2    0    0 -0.12629900520E+04  0.59980231632E+03 -0.25102543319E+04  0.28748262322E+04  0.91336545683E+02 0.  0.
         11    1    3    3    0    0 -0.93133521216E+03  0.48290982886E+03 -0.18491786767E+04  0.21260406766E+04  0.00000000000E+00 0.  1.
        -11    1    3    3    0    0 -0.33165483985E+03  0.11689248746E+03 -0.66107565515E+03  0.74878555558E+03  0.00000000000E+00 0. -1.
         22    1    1    2    0    0  0.12629900520E+04 -0.59980231632E+03  0.49106154925E+03  0.14819069253E+04  0.00000000000E+00 0.  1.
<mgrwt>
<rscale>  0 0.38605679E+04</rscale>
<asrwt>0</asrwt>
<pdfrwt beam="1">  1        3 0.49045584E+00 0.38605679E+04</pdfrwt>
<pdfrwt beam="2">  1       -3 0.17981080E+00 0.38605679E+04</pdfrwt>
<totfact> 0.15597446E-03</totfact>
</mgrwt>
</event>
<event>
 6    1  0.1528034E-005  0.1662911E+04  0.7818608E-02  0.8782805E-01
         -1   -1    0    0    0  501 -0.00000000000E+00  0.00000000000E+00  0.43886572069E+03  0.43886572069E+03  0.00000000000E+00 0.  1.
          1   -1    0    0  501    0  0.00000000000E+00 -0.00000000000E+00 -0.15752386208E+04  0.15752386208E+04  0.00000000000E+00 0. -1.
         23    2    1    2    0    0 -0.34006964682E+03  0.12345811944E+02 -0.14853263769E+04  0.15266945420E+04  0.93818948351E+02 0.  0.
         11    1    3    3    0    0 -0.66913682502E+02  0.25717483760E+02 -0.19639379122E+03  0.20906781462E+03  0.00000000000E+00 0. -1.
        -11    1    3    3    0    0 -0.27315596432E+03 -0.13371671815E+02 -0.12889325856E+04  0.13176267274E+04  0.00000000000E+00 0.  1.
         22    1    1    2    0    0  0.34006964682E+03 -0.12345811944E+02  0.34895347671E+03  0.48740979952E+03  0.00000000000E+00 0.  1.
<mgrwt>
<rscale>  0 0.16629110E+04</rscale>
<asrwt>0</asrwt>
<pdfrwt beam="1">  1        1 0.24234440E+00 0.16629110E+04</pdfrwt>
<pdfrwt beam="2">  1       -1 0.67517803E-01 0.16629110E+04</pdfrwt>
<totfact> 0.12306238E+01</totfact>
</mgrwt>
</event>
<event>
 6    1  0.1655815E-005  0.3709232E+04  0.7818608E-02  0.8065919E-01
          2   -1    0    0  501    0  0.00000000000E+00  0.00000000000E+00  0.29937645117E+04  0.29937645117E+04  0.00000000000E+00 0. -1.
         -2   -1    0    0    0  501 -0.00000000000E+00 -0.00000000000E+00 -0.11489212782E+04  0.11489212782E+04  0.00000000000E+00 0.  1.
         23    2    1    2    0    0 -0.59475973532E+03  0.71201376810E+03  0.27150768446E+04  0.28706758503E+04  0.91841257578E+02 0.  0.
         11    1    3    3    0    0 -0.24058437438E+03  0.35618927467E+03  0.12104551692E+04  0.12845051020E+04  0.00000000000E+00 0. -1.
        -11    1    3    3    0    0 -0.35417536093E+03  0.35582449342E+03  0.15046216754E+04  0.15861707482E+04  0.00000000000E+00 0.  1.
         22    1    1    2    0    0  0.59475973532E+03 -0.71201376810E+03 -0.87023361104E+03  0.12720099396E+04  0.00000000000E+00 0.  1.
<mgrwt>
<rscale>  0 0.37092316E+04</rscale>
<asrwt>0</asrwt>
<pdfrwt beam="1">  1        2 0.46057916E+00 0.37092316E+04</pdfrwt>
<pdfrwt beam="2">  1       -2 0.17675712E+00 0.37092316E+04</pdfrwt>
<totfact> 0.27087188E-01</totfact>
</mgrwt>
</event>
<event>
 6    1  0.1528034E-005  0.1466149E+04  0.7818608E-02  0.8907281E-01
         -1   -1    0    0    0  501 -0.00000000000E+00  0.00000000000E+00  0.99131062665E+03  0.99131062665E+03  0.00000000000E+00 0.  1.
          1   -1    0    0  501    0  0.00000000000E+00 -0.00000000000E+00 -0.54210843892E+03  0.54210843892E+03  0.00000000000E+00 0. -1.
         23    2    1    2    0    0  0.26903904251E+03 -0.49131135081E+03  0.71545615790E+03  0.91320940226E+03  0.91132039735E+02 0.  0.
         13    1    3    3    0    0  0.22378732875E+03 -0.37783726354E+03  0.49944778489E+03  0.66504876217E+03  0.00000000000E+00 0. -1.
        -13    1    3    3    0    0  0.45251713763E+02 -0.11347408727E+03  0.21600837301E+03  0.24816064009E+03  0.00000000000E+00 0.  1.
         22    1    1    2    0    0 -0.26903904251E+03  0.49131135081E+03 -0.26625397018E+03  0.62020966331E+03  0.00000000000E+00 0. -1.
<mgrwt>
<rscale>  0 0.14661485E+04</rscale>
<asrwt>0</asrwt>
<pdfrwt beam="1">  1        1 0.83401298E-01 0.14661485E+04</pdfrwt>
<pdfrwt beam="2">  1       -1 0.15250933E+00 0.14661485E+04</pdfrwt>
<totfact> 0.12810234E+01</totfact>
</mgrwt>
</event>
<event>
 6    1  0.1528034E-005  0.4430569E+04  0.7818608E-02  0.7922906E-01
          1   -1    0    0  501    0  0.00000000000E+00  0.00000000000E+00  0.46024088749E+04  0.46024088749E+04  0.00000000000E+00 0. -1.
         -1   -1    0    0    0  501 -0.00000000000E+00 -0.00000000000E+00 -0.10662862860E+04  0.10662862860E+04  0.00000000000E+00 0.  1.
         23    2    1    2    0    0  0.71741727638E+03  0.32652076184E+03 -0.87875185740E+03  0.11840079105E+04  0.91468841541E+02 0.  0.
         11    1    3    3    0    0  0.42227827470E+03  0.23643704618E+03 -0.56494161609E+03  0.74389545480E+03  0.00000000000E+00 0. -1.
        -11    1    3    3    0    0  0.29513900169E+03  0.90083715657E+02 -0.31381024131E+03  0.44011245574E+03  0.00000000000E+00 0.  1.
         22    1    1    2    0    0 -0.71741727638E+03 -0.32652076184E+03  0.44148744463E+04  0.44846872503E+04  0.00000000000E+00 0. -1.
<mgrwt>
<rscale>  0 0.44305690E+04</rscale>
<asrwt>0</asrwt>
<pdfrwt beam="1">  1        1 0.70806289E+00 0.44305690E+04</pdfrwt>
<pdfrwt beam="2">  1       -1 0.16404405E+00 0.44305690E+04</pdfrwt>
<totfact> 0.51401042E-03</totfact>
</mgrwt>
</event>
<event>
 6    1  0.1528034E-005  0.1133408E+04  0.7818608E-02  0.9173228E-01
          2   -1    0    0  501    0  0.00000000000E+00  0.00000000000E+00  0.20537274394E+04  0.20537274394E+04  0.00000000000E+00 0. -1.
         -2   -1    0    0    0  501 -0.00000000000E+00 -0.00000000000E+00 -0.15637595395E+03  0.15637595395E+03  0.00000000000E+00 0.  1.
         23    2    1    2    0    0 -0.50252805925E+03  0.23047180830E+03  0.11620554399E+04  0.12901512319E+04  0.92008972543E+02 0.  0.
         13    1    3    3    0    0 -0.18710063323E+03  0.10110894506E+03  0.35171369230E+03  0.41101360936E+03  0.00000000000E+00 0.  1.
        -13    1    3    3    0    0 -0.31542742602E+03  0.12936286323E+03  0.81034174762E+03  0.87913762257E+03  0.00000000000E+00 0. -1.
         22    1    1    2    0    0  0.50252805925E+03 -0.23047180830E+03  0.73529604553E+03  0.91995216143E+03  0.00000000000E+00 0.  1.
<mgrwt>
<rscale>  0 0.11334083E+04</rscale>
<asrwt>0</asrwt>
<pdfrwt beam="1">  1        2 0.31595805E+00 0.11334083E+04</pdfrwt>
<pdfrwt beam="2">  1       -2 0.24057841E-01 0.11334083E+04</pdfrwt>
<totfact> 0.95256636E+01</totfact>
</mgrwt>
</event>
<event>
 6    1  0.1528034E-005  0.3352408E+04  0.7818608E-02  0.8149687E-01
          2   -1    0    0  501    0  0.00000000000E+00  0.00000000000E+00  0.20717326260E+04  0.20717326260E+04  0.00000000000E+00 0. -1.
         -2   -1    0    0    0  501 -0.00000000000E+00 -0.00000000000E+00 -0.13561884008E+04  0.13561884008E+04  0.00000000000E+00 0.  1.
         23    2    1    2    0    0 -0.89772465480E+03  0.13647571582E+04 -0.19488124719E+02  0.16366242306E+04  0.98424735041E+02 0.  0.
         11    1    3    3    0    0 -0.30129529191E+03  0.42854482101E+03  0.36734644846E+02  0.52514659922E+03  0.00000000000E+00 0.  1.
        -11    1    3    3    0    0 -0.59642936289E+03  0.93621233721E+03 -0.56222769564E+02  0.11114776314E+04  0.00000000000E+00 0. -1.
         22    1    1    2    0    0  0.89772465480E+03 -0.13647571582E+04  0.73503234990E+03  0.17912967962E+04  0.00000000000E+00 0. -1.
<mgrwt>
<rscale>  0 0.33524079E+04</rscale>
<asrwt>0</asrwt>
<pdfrwt beam="1">  1        2 0.31872810E+00 0.33524079E+04</pdfrwt>
<pdfrwt beam="2">  1       -2 0.20864437E+00 0.33524079E+04</pdfrwt>
<totfact> 0.59212233E-01</totfact>
</mgrwt>
</event>
<event>
 6    1  0.1528034E-005  0.9513708E+03  0.7818608E-02  0.9363550E-01
          1   -1    0    0  501    0  0.00000000000E+00  0.00000000000E+00  0.21071144765E+04  0.21071144765E+04  0.00000000000E+00 0. -1.
         -1   -1    0    0    0  501 -0.00000000000E+00 -0.00000000000E+00 -0.10738694120E+03  0.10738694120E+03  0.00000000000E+00 0.  1.
         23    2    1    2    0    0  0.94170631192E+02  0.45204232419E+03  0.78343869096E+03  0.91351374539E+03  0.86722603078E+02 0.  0.
         13    1    3    3    0    0  0.11894975591E+02  0.26682829797E+03  0.45272260713E+03  0.52563922042E+03  0.00000000000E+00 0. -1.
        -13    1    3    3    0    0  0.82275655601E+02  0.18521402622E+03  0.33071608383E+03  0.38787452497E+03  0.00000000000E+00 0.  1.
         22    1    1    2    0    0 -0.94170631192E+02 -0.45204232419E+03  0.12162888443E+04  0.13009876723E+04  0.00000000000E+00 0.  1.
<mgrwt>
<rscale>  0 0.95137076E+03</rscale>
<asrwt>0</asrwt>
<pdfrwt beam="1">  1        1 0.32417143E+00 0.95137076E+03</pdfrwt>
<pdfrwt beam="2">  1       -1 0.16521069E-01 0.95137076E+03</pdfrwt>
<totfact> 0.71730751E+01</totfact>
</mgrwt>
</event>
<event>
 6    1  0.1528034E-005  0.1757112E+04  0.7818608E-02  0.8729445E-01
         -1   -1    0    0    0  501 -0.00000000000E+00  0.00000000000E+00  0.97374655583E+03  0.97374655583E+03  0.00000000000E+00 0.  1.
          1   -1    0    0  501    0  0.00000000000E+00 -0.00000000000E+00 -0.79267074382E+03  0.79267074382E+03  0.00000000000E+00 0. -1.
         23    2    1    2    0    0 -0.14098412758E+03 -0.81989634293E+03  0.36723738952E+03  0.91391353408E+03  0.90929148962E+02 0.  0.
         13    1    3    3    0    0 -0.79724236181E+02 -0.44937411695E+03  0.15190414895E+03  0.48100719463E+03  0.00000000000E+00 0.  1.
        -13    1    3    3    0    0 -0.61259891402E+02 -0.37052222598E+03  0.21533324057E+03  0.43290633945E+03  0.00000000000E+00 0. -1.
         22    1    1    2    0    0  0.14098412758E+03  0.81989634293E+03 -0.18616157751E+03  0.85250376558E+03  0.00000000000E+00 0. -1.
<mgrwt>
<rscale>  0 0.17571117E+04</rscale>
<asrwt>0</asrwt>
<pdfrwt beam="1">  1        1 0.12194935E+00 0.17571117E+04</pdfrwt>
<pdfrwt beam="2">  1       -1 0.14980716E+00 0.17571117E+04</pdfrwt>
<totfact> 0.74407104E+00</totfact>
</mgrwt>
</event>
<event>
 6    1  0.1528034E-005  0.2247984E+04  0.7818608E-02  0.8498717E-01
          2   -1    0    0  501    0  0.00000000000E+00  0.00000000000E+00  0.14154406921E+04  0.14154406921E+04  0.00000000000E+00 0. -1.
         -2   -1    0    0    0  501 -0.00000000000E+00 -0.00000000000E+00 -0.89255479359E+03  0.89255479359E+03  0.00000000000E+00 0.  1.
         23    2    1    2    0    0 -0.21762284225E+03 -0.10967290195E+04  0.16541706113E+03  0.11341308371E+04  0.93357955776E+02 0.  0.
         13    1    3    3    0    0 -0.18399189080E+03 -0.69950080737E+03  0.11221389311E+03  0.73194696065E+03  0.00000000000E+00 0. -1.
        -13    1    3    3    0    0 -0.33630951450E+02 -0.39722821209E+03  0.53203168023E+02  0.40218387644E+03  0.00000000000E+00 0.  1.
         22    1    1    2    0    0  0.21762284225E+03  0.10967290195E+04  0.35746883741E+03  0.11738646486E+04  0.00000000000E+00 0. -1.
<mgrwt>
<rscale>  0 0.22479843E+04</rscale>
<asrwt>0</asrwt>
<pdfrwt beam="1">  1        2 0.21776011E+00 0.22479843E+04</pdfrwt>
<pdfrwt beam="2">  1       -2 0.13731612E+00 0.22479843E+04</pdfrwt>
<totfact> 0.48762191E+00</totfact>
</mgrwt>
</event>
<event>
 6    1  0.1528034E-005  0.8629243E+03  0.7818608E-02  0.9473153E-01
          1   -1    0    0  501    0  0.00000000000E+00  0.00000000000E+00  0.69775667788E+03  0.69775667788E+03  0.00000000000E+00 0. -1.
         -1   -1    0    0    0  501 -0.00000000000E+00 -0.00000000000E+00 -0.26679725837E+03  0.26679725837E+03  0.00000000000E+00 0.  1.
         23    2    1    2    0    0 -0.13455669598E+03  0.23605507717E+03 -0.14967741580E+03  0.32348713909E+03  0.91722933136E+02 0.  0.
         13    1    3    3    0    0  0.99978446357E+01  0.50188383566E+02 -0.30634520024E+02  0.59643143440E+02  0.00000000000E+00 0. -1.
        -13    1    3    3    0    0 -0.14455454062E+03  0.18586669361E+03 -0.11904289578E+03  0.26384399565E+03  0.00000000000E+00 0.  1.
         22    1    1    2    0    0  0.13455669598E+03 -0.23605507717E+03  0.58063683532E+03  0.64106679716E+03  0.00000000000E+00 0. -1.
<mgrwt>
<rscale>  0 0.86292426E+03</rscale>
<asrwt>0</asrwt>
<pdfrwt beam="1">  1        1 0.10734718E+00 0.86292426E+03</pdfrwt>
<pdfrwt beam="2">  1       -1 0.41045732E-01 0.86292426E+03</pdfrwt>
<totfact> 0.16037623E+02</totfact>
</mgrwt>
</event>
<event>
 6    1  0.1528034E-005  0.2066378E+04  0.7818608E-02  0.8576200E-01
         -1   -1    0    0    0  501 -0.00000000000E+00  0.00000000000E+00  0.54803796767E+03  0.54803796767E+03  0.00000000000E+00 0.  1.
          1   -1    0    0  501    0  0.00000000000E+00 -0.00000000000E+00 -0.19478205752E+04  0.19478205752E+04  0.00000000000E+00 0. -1.
         23    2    1    2    0    0  0.23999084447E+03 -0.68249627073E+03  0.18631484542E+03  0.75255653367E+03  0.90726786340E+02 0.  0.
         11    1    3    3    0    0  0.76783624742E+02 -0.11525084219E+03  0.25878198983E+02  0.14088350804E+03  0.00000000000E+00 0. -1.
        -11    1    3    3    0    0  0.16320721973E+03 -0.56724542854E+03  0.16043664644E+03  0.61167302564E+03  0.00000000000E+00 0.  1.
         22    1    1    2    0    0 -0.23999084447E+03  0.68249627073E+03 -0.15860974530E+04  0.17433020092E+04  0.00000000000E+00 0. -1.
<mgrwt>
<rscale>  0 0.20663781E+04</rscale>
<asrwt>0</asrwt>
<pdfrwt beam="1">  1        1 0.29966470E+00 0.20663781E+04</pdfrwt>
<pdfrwt beam="2">  1       -1 0.84313534E-01 0.20663781E+04</pdfrwt>
<totfact> 0.41548115E+00</totfact>
</mgrwt>
</event>
<event>
 6    1  0.1528034E-005  0.2490618E+04  0.7818608E-02  0.8406336E-01
         -2   -1    0    0    0  501 -0.00000000000E+00  0.00000000000E+00  0.19212083585E+04  0.19212083585E+04  0.00000000000E+00 0. -1.
          2   -1    0    0  501    0  0.00000000000E+00 -0.00000000000E+00 -0.80719723934E+03  0.80719723934E+03  0.00000000000E+00 0.  1.
         23    2    1    2    0    0 -0.93392277034E+03 -0.20213249704E+03  0.14296001913E+04  0.17220926496E+04  0.93686175306E+02 0.  0.
         11    1    3    3    0    0 -0.67761128180E+03 -0.10852794097E+03  0.98655339452E+03  0.12017582800E+04  0.00000000000E+00 0. -1.
        -11    1    3    3    0    0 -0.25631148853E+03 -0.93604556077E+02  0.44304679681E+03  0.52033436964E+03  0.00000000000E+00 0.  1.
         22    1    1    2    0    0  0.93392277034E+03  0.20213249704E+03 -0.31558907217E+03  0.10063129482E+04  0.00000000000E+00 0.  1.
<mgrwt>
<rscale>  0 0.24906177E+04</rscale>
<asrwt>0</asrwt>
<pdfrwt beam="1">  1        2 0.12418419E+00 0.24906177E+04</pdfrwt>
<pdfrwt beam="2">  1       -2 0.29557052E+00 0.24906177E+04</pdfrwt>
<totfact> 0.10279217E+00</totfact>
</mgrwt>
</event>
<event>
 6    1  0.1528034E-005  0.1526890E+04  0.7818608E-02  0.8866766E-01
         -2   -1    0    0    0  501 -0.00000000000E+00  0.00000000000E+00  0.28881459902E+03  0.28881459902E+03  0.00000000000E+00 0.  1.
          2   -1    0    0  501    0  0.00000000000E+00 -0.00000000000E+00 -0.20180714495E+04  0.20180714495E+04  0.00000000000E+00 0. -1.
         23    2    1    2    0    0  0.58078370288E+03  0.13927821379E+03 -0.15589592202E+03  0.62398000791E+03  0.91320213539E+02 0.  0.
         11    1    3    3    0    0  0.12092034408E+03 -0.26040619205E+01 -0.51926103503E+02  0.13162382374E+03  0.00000000000E+00 0. -1.
        -11    1    3    3    0    0  0.45986335880E+03  0.14188227571E+03 -0.10396981852E+03  0.49235618417E+03  0.00000000000E+00 0.  1.
         22    1    1    2    0    0 -0.58078370288E+03 -0.13927821379E+03 -0.15733609285E+04  0.16829060406E+04  0.00000000000E+00 0. -1.
<mgrwt>
<rscale>  0 0.15268903E+04</rscale>
<asrwt>0</asrwt>
<pdfrwt beam="1">  1        2 0.31047251E+00 0.15268903E+04</pdfrwt>
<pdfrwt beam="2">  1       -2 0.44433018E-01 0.15268903E+04</pdfrwt>
<totfact> 0.30248127E+01</totfact>
</mgrwt>
</event>
<event>
 6    1  0.1528034E-005  0.2315987E+04  0.7818608E-02  0.8471644E-01
          2   -1    0    0  501    0  0.00000000000E+00  0.00000000000E+00  0.27781877174E+04  0.27781877174E+04  0.00000000000E+00 0. -1.
         -2   -1    0    0    0  501 -0.00000000000E+00 -0.00000000000E+00 -0.48267049815E+03  0.48267049815E+03  0.00000000000E+00 0.  1.
         23    2    1    2    0    0 -0.15796510137E+03  0.76814435635E+03 -0.46689610638E+02  0.79085182701E+03  0.90928362495E+02 0.  0.
         11    1    3    3    0    0 -0.10192230546E+03  0.50446002379E+03 -0.73800420303E+02  0.51991785312E+03  0.00000000000E+00 0.  1.
        -11    1    3    3    0    0 -0.56042795903E+02  0.26368433255E+03  0.27110809665E+02  0.27093397389E+03  0.00000000000E+00 0. -1.
         22    1    1    2    0    0  0.15796510137E+03 -0.76814435635E+03  0.23422068299E+04  0.24700063885E+04  0.00000000000E+00 0. -1.
<mgrwt>
<rscale>  0 0.23159873E+04</rscale>
<asrwt>0</asrwt>
<pdfrwt beam="1">  1        2 0.42741348E+00 0.23159873E+04</pdfrwt>
<pdfrwt beam="2">  1       -2 0.74257002E-01 0.23159873E+04</pdfrwt>
<totfact> 0.35242922E+00</totfact>
</mgrwt>
</event>
<event>
 6    1  0.1528034E-005  0.2716660E+04  0.7818608E-02  0.8329619E-01
         -4   -1    0    0    0  501 -0.00000000000E+00  0.00000000000E+00  0.18883849441E+04  0.18883849441E+04  0.00000000000E+00 0. -1.
          4   -1    0    0  501    0  0.00000000000E+00 -0.00000000000E+00 -0.97705749204E+03  0.97705749204E+03  0.00000000000E+00 0.  1.
         23    2    1    2    0    0  0.12042864276E+04  0.28947631593E+03 -0.12765233248E+03  0.12487849802E+04  0.95218022250E+02 0.  0.
         13    1    3    3    0    0  0.26126120524E+03  0.30530548136E+02 -0.40196062794E+01  0.26306974164E+03  0.00000000000E+00 0. -1.
        -13    1    3    3    0    0  0.94302522234E+03  0.25894576779E+03 -0.12363272620E+03  0.98571523860E+03  0.00000000000E+00 0.  1.
         22    1    1    2    0    0 -0.12042864276E+04 -0.28947631593E+03  0.10389797846E+04  0.16166574559E+04  0.00000000000E+00 0. -1.
<mgrwt>
<rscale>  0 0.27166602E+04</rscale>
<asrwt>0</asrwt>
<pdfrwt beam="1">  1        4 0.15031654E+00 0.27166602E+04</pdfrwt>
<pdfrwt beam="2">  1       -4 0.29052076E+00 0.27166602E+04</pdfrwt>
<totfact> 0.18286231E-02</totfact>
</mgrwt>
</event>
<event>
 6    1  0.1528034E-005  0.2899087E+04  0.7818608E-02  0.8273149E-01
         -1   -1    0    0    0  501 -0.00000000000E+00  0.00000000000E+00  0.78994739324E+03  0.78994739324E+03  0.00000000000E+00 0.  1.
          1   -1    0    0  501    0  0.00000000000E+00 -0.00000000000E+00 -0.26598949313E+04  0.26598949313E+04  0.00000000000E+00 0. -1.
         23    2    1    2    0    0 -0.18445798779E+03 -0.82478405752E+03  0.46341711554E+03  0.96813241050E+03  0.90727341435E+02 0.  0.
         11    1    3    3    0    0 -0.13522858348E+03 -0.41052882352E+03  0.25424671672E+03  0.50145994625E+03  0.00000000000E+00 0.  1.
        -11    1    3    3    0    0 -0.49229404312E+02 -0.41425523400E+03  0.20917039881E+03  0.46667246425E+03  0.00000000000E+00 0. -1.
         22    1    1    2    0    0  0.18445798779E+03  0.82478405752E+03 -0.23333646536E+04  0.24817099141E+04  0.00000000000E+00 0. -1.
<mgrwt>
<rscale>  0 0.28990875E+04</rscale>
<asrwt>0</asrwt>
<pdfrwt beam="1">  1        1 0.40921460E+00 0.28990875E+04</pdfrwt>
<pdfrwt beam="2">  1       -1 0.12153037E+00 0.28990875E+04</pdfrwt>
<totfact> 0.53925809E-01</totfact>
</mgrwt>
</event>
<event>
 6    1  0.1528034E-005  0.3183173E+04  0.7818608E-02  0.8193275E-01
          2   -1    0    0  501    0  0.00000000000E+00  0.00000000000E+00  0.27493209782E+04  0.27493209782E+04  0.00000000000E+00 0. -1.
         -2   -1    0    0    0  501 -0.00000000000E+00 -0.00000000000E+00 -0.92137215464E+03  0.92137215464E+03  0.00000000000E+00 0.  1.
         23    2    1    2    0    0 -0.14432144066E+02 -0.14733957485E+04  0.22484485571E+03  0.14932988989E+04  0.91011393951E+02 0.  0.
         13    1    3    3    0    0 -0.46395261327E+02 -0.49302899372E+03  0.86441854358E+02  0.50269503987E+03  0.00000000000E+00 0. -1.
        -13    1    3    3    0    0  0.31963117261E+02 -0.98036675475E+03  0.13840300135E+03  0.99060385900E+03  0.00000000000E+00 0.  1.
         22    1    1    2    0    0  0.14432144066E+02  0.14733957485E+04  0.16031039679E+04  0.21773942340E+04  0.00000000000E+00 0.  1.
<mgrwt>
<rscale>  0 0.31831731E+04</rscale>
<asrwt>0</asrwt>
<pdfrwt beam="1">  1        2 0.42297245E+00 0.31831731E+04</pdfrwt>
<pdfrwt beam="2">  1       -2 0.14174956E+00 0.31831731E+04</pdfrwt>
<totfact> 0.72715262E-01</totfact>
</mgrwt>
</event>
<event>
 6    1  0.1528034E-005  0.3417519E+04  0.7818608E-02  0.8133620E-01
         -2   -1    0    0    0  501 -0.00000000000E+00  0.00000000000E+00  0.12097089912E+04  0.12097089912E+04  0.00000000000E+00 0.  1.
          2   -1    0    0  501    0  0.00000000000E+00 -0.00000000000E+00 -0.24136874984E+04  0.24136874984E+04  0.00000000000E+00 0. -1.
         23    2    1    2    0    0  0.10270531596E+04  0.13517110010E+04 -0.79703658077E+03  0.18776695482E+04  0.91732209417E+02 0.  0.
         13    1    3    3    0    0  0.16081067351E+03  0.16501229961E+03 -0.93060484972E+02  0.24849423656E+03  0.00000000000E+00 0. -1.
        -13    1    3    3    0    0  0.86624248607E+03  0.11866987014E+04 -0.70397609580E+03  0.16291753116E+04  0.00000000000E+00 0.  1.
         22    1    1    2    0    0 -0.10270531596E+04 -0.13517110010E+04 -0.40694192641E+03  0.17457269415E+04  0.00000000000E+00 0. -1.
<mgrwt>
<rscale>  0 0.34175193E+04</rscale>
<asrwt>0</asrwt>
<pdfrwt beam="1">  1        2 0.37133654E+00 0.34175193E+04</pdfrwt>
<pdfrwt beam="2">  1       -2 0.18610908E+00 0.34175193E+04</pdfrwt>
<totfact> 0.53180074E-01</totfact>
</mgrwt>
</event>
<event>
 6    1  0.1528034E-005  0.2143596E+04  0.7818608E-02  0.8542278E-01
         -2   -1    0    0    0  501 -0.00000000000E+00  0.00000000000E+00  0.40153299198E+03  0.40153299198E+03  0.00000000000E+00 0.  1.
          2   -1    0    0  501    0  0.00000000000E+00 -0.00000000000E+00 -0.28609136847E+04  0.28609136847E+04  0.00000000000E+00 0. -1.
         23    2    1    2    0    0  0.38710596817E+03  0.87994144305E+03 -0.19464545064E+04  0.21728406716E+04  0.91670413365E+02 0.  0.
         11    1    3    3    0    0  0.14371094230E+03  0.34670301563E+03 -0.86064862431E+03  0.93892058797E+03  0.00000000000E+00 0. -1.
        -11    1    3    3    0    0  0.24339502586E+03  0.53323842742E+03 -0.10858058821E+04  0.12339200836E+04  0.00000000000E+00 0.  1.
         22    1    1    2    0    0 -0.38710596817E+03 -0.87994144305E+03 -0.51292618630E+03  0.10896060051E+04  0.00000000000E+00 0. -1.
<mgrwt>
<rscale>  0 0.21435963E+04</rscale>
<asrwt>0</asrwt>
<pdfrwt beam="1">  1        2 0.44014058E+00 0.21435963E+04</pdfrwt>
<pdfrwt beam="2">  1       -2 0.61774305E-01 0.21435963E+04</pdfrwt>
<totfact> 0.47515379E+00</totfact>
</mgrwt>
</event>
<event>
 6    1  0.1528034E-005  0.2139255E+04  0.7818608E-02  0.8544146E-01
          2   -1    0    0  501    0  0.00000000000E+00  0.00000000000E+00  0.38406072895E+04  0.38406072895E+04  0.00000000000E+00 0. -1.
         -2   -1    0    0    0  501 -0.00000000000E+00 -0.00000000000E+00 -0.29789643231E+03  0.29789643231E+03  0.00000000000E+00 0.  1.
         23    2    1    2    0    0  0.73507542934E+03 -0.68395735144E+03  0.10786518134E+04  0.14777293013E+04  0.10982079967E+03 0.  0.
         11    1    3    3    0    0  0.57576401312E+03 -0.53071190812E+03  0.90417508262E+03  0.11961153407E+04  0.00000000000E+00 0. -1.
        -11    1    3    3    0    0  0.15931141623E+03 -0.15324544332E+03  0.17447673078E+03  0.28161396064E+03  0.00000000000E+00 0.  1.
         22    1    1    2    0    0 -0.73507542934E+03  0.68395735144E+03  0.24640590437E+04  0.26607744204E+04  0.00000000000E+00 0.  1.
<mgrwt>
<rscale>  0 0.21392552E+04</rscale>
<asrwt>0</asrwt>
<pdfrwt beam="1">  1        2 0.59086262E+00 0.21392552E+04</pdfrwt>
<pdfrwt beam="2">  1       -2 0.45830223E-01 0.21392552E+04</pdfrwt>
<totfact> 0.19087417E+00</totfact>
</mgrwt>
</event>
<event>
 6    1  0.1528034E-005  0.3949366E+04  0.7818608E-02  0.8014840E-01
          2   -1    0    0  501    0  0.00000000000E+00  0.00000000000E+00  0.26517537866E+04  0.26517537866E+04  0.00000000000E+00 0. -1.
         -2   -1    0    0    0  501 -0.00000000000E+00 -0.00000000000E+00 -0.14704880813E+04  0.14704880813E+04  0.00000000000E+00 0.  1.
         23    2    1    2    0    0  0.17941336785E+04 -0.34009745589E+03 -0.19045752980E+03  0.18383402567E+04  0.92945644980E+02 0.  0.
         11    1    3    3    0    0  0.15094890813E+04 -0.25262517457E+03 -0.16903902900E+03  0.15397892579E+04  0.00000000000E+00 0.  1.
        -11    1    3    3    0    0  0.28464459720E+03 -0.87472281317E+02 -0.21418500794E+02  0.29855099881E+03  0.00000000000E+00 0. -1.
         22    1    1    2    0    0 -0.17941336785E+04  0.34009745589E+03  0.13717232352E+04  0.22839016112E+04  0.00000000000E+00 0. -1.
<mgrwt>
<rscale>  0 0.39493657E+04</rscale>
<asrwt>0</asrwt>
<pdfrwt beam="1">  1        2 0.40796212E+00 0.39493657E+04</pdfrwt>
<pdfrwt beam="2">  1       -2 0.22622894E+00 0.39493657E+04</pdfrwt>
<totfact> 0.20283803E-01</totfact>
</mgrwt>
</event>
<event>
 6    1  0.1528034E-005  0.2504533E+04  0.7818608E-02  0.8401372E-01
         -1   -1    0    0    0  501 -0.00000000000E+00  0.00000000000E+00  0.16285874117E+04  0.16285874117E+04  0.00000000000E+00 0.  1.
          1   -1    0    0  501    0  0.00000000000E+00 -0.00000000000E+00 -0.96290316945E+03  0.96290316945E+03  0.00000000000E+00 0. -1.
         23    2    1    2    0    0 -0.85750623020E+03  0.61849757382E+03  0.10245974889E+04  0.14749446115E+04  0.88348227373E+02 0.  0.
         11    1    3    3    0    0 -0.68926870458E+03  0.51656222168E+03  0.78980093873E+03  0.11686374112E+04  0.00000000000E+00 0. -1.
        -11    1    3    3    0    0 -0.16823752562E+03  0.10193535215E+03  0.23479655013E+03  0.30630720036E+03  0.00000000000E+00 0.  1.
         22    1    1    2    0    0  0.85750623020E+03 -0.61849757382E+03 -0.35891324661E+03  0.11165459696E+04  0.00000000000E+00 0.  1.
<mgrwt>
<rscale>  0 0.25045335E+04</rscale>
<asrwt>0</asrwt>
<pdfrwt beam="1">  1        1 0.14813895E+00 0.25045335E+04</pdfrwt>
<pdfrwt beam="2">  1       -1 0.25055191E+00 0.25045335E+04</pdfrwt>
<totfact> 0.99382339E-01</totfact>
</mgrwt>
</event>
<event>
 6    1  0.1528034E-005  0.5515907E+04  0.7818608E-02  0.7753504E-01
         -2   -1    0    0    0  501 -0.00000000000E+00  0.00000000000E+00  0.26353189859E+04  0.26353189859E+04  0.00000000000E+00 0. -1.
          2   -1    0    0  501    0  0.00000000000E+00 -0.00000000000E+00 -0.28862951449E+04  0.28862951449E+04  0.00000000000E+00 0.  1.
         23    2    1    2    0    0  0.44242240709E+03 -0.25264001253E+04  0.88743409437E+03  0.27154756659E+04  0.88507857216E+02 0.  0.
         13    1    3    3    0    0  0.19568845916E+03 -0.11537536877E+04  0.35876645984E+03  0.12239913879E+04  0.00000000000E+00 0.  1.
        -13    1    3    3    0    0  0.24673394793E+03 -0.13726464376E+04  0.52866763453E+03  0.14914842780E+04  0.00000000000E+00 0. -1.
         22    1    1    2    0    0 -0.44242240709E+03  0.25264001253E+04 -0.11384102534E+04  0.28061384649E+04  0.00000000000E+00 0.  1.
<mgrwt>
<rscale>  0 0.55159073E+04</rscale>
<asrwt>0</asrwt>
<pdfrwt beam="1">  1        2 0.44404541E+00 0.55159073E+04</pdfrwt>
<pdfrwt beam="2">  1       -2 0.40543369E+00 0.55159073E+04</pdfrwt>
<totfact> 0.97999666E-03</totfact>
</mgrwt>
</event>
<event>
 6    1  0.1528034E-005  0.8314632E+03  0.7818608E-02  0.9515560E-01
          2   -1    0    0  501    0  0.00000000000E+00  0.00000000000E+00  0.94481695012E+03  0.94481695012E+03  0.00000000000E+00 0.  1.
         -2   -1    0    0    0  501 -0.00000000000E+00 -0.00000000000E+00 -0.18292726761E+03  0.18292726761E+03  0.00000000000E+00 0. -1.
         23    2    1    2    0    0  0.60203885771E+02 -0.36693110830E+03  0.14895097530E+03  0.41083640992E+03  0.91308359812E+02 0.  0.
         13    1    3    3    0    0  0.24344993598E+01 -0.97312160212E+01 -0.11288948894E+02  0.15101778687E+02  0.00000000000E+00 0. -1.
        -13    1    3    3    0    0  0.57769386412E+02 -0.35719989228E+03  0.16023992419E+03  0.39573463123E+03  0.00000000000E+00 0.  1.
         22    1    1    2    0    0 -0.60203885771E+02  0.36693110830E+03  0.61293870722E+03  0.71690780781E+03  0.00000000000E+00 0.  1.
<mgrwt>
<rscale>  0 0.83146325E+03</rscale>
<asrwt>0</asrwt>
<pdfrwt beam="1">  1        2 0.14535645E+00 0.83146325E+03</pdfrwt>
<pdfrwt beam="2">  1       -2 0.28142657E-01 0.83146325E+03</pdfrwt>
<totfact> 0.31702341E+02</totfact>
</mgrwt>
</event>
<event>
 6    1  0.1528034E-005  0.9859009E+03  0.7818608E-02  0.9324145E-01
         -1   -1    0    0    0  501 -0.00000000000E+00  0.00000000000E+00  0.13096877348E+04  0.13096877348E+04  0.00000000000E+00 0.  1.
          1   -1    0    0  501    0  0.00000000000E+00 -0.00000000000E+00 -0.18554051071E+03  0.18554051071E+03  0.00000000000E+00 0. -1.
         23    2    1    2    0    0 -0.30623008142E+02 -0.38083060365E+03  0.10288669747E+04  0.11014668415E+04  0.93232151594E+02 0.  0.
         11    1    3    3    0    0  0.22534808448E+02 -0.10894495768E+03  0.37959832795E+03  0.39556505404E+03  0.00000000000E+00 0.  1.
        -11    1    3    3    0    0 -0.53157816590E+02 -0.27188564597E+03  0.64926864674E+03  0.70590178750E+03  0.00000000000E+00 0. -1.
         22    1    1    2    0    0  0.30623008142E+02  0.38083060365E+03  0.95280249353E+02  0.39376140393E+03  0.00000000000E+00 0. -1.
<mgrwt>
<rscale>  0 0.98590087E+03</rscale>
<asrwt>0</asrwt>
<pdfrwt beam="1">  1        1 0.28544695E-01 0.98590087E+03</pdfrwt>
<pdfrwt beam="2">  1       -1 0.20149042E+00 0.98590087E+03</pdfrwt>
<totfact> 0.24259988E+01</totfact>
</mgrwt>
</event>
<event>
 6    1  0.1528034E-005  0.1928316E+04  0.7818608E-02  0.8640889E-01
         -1   -1    0    0    0  501 -0.00000000000E+00  0.00000000000E+00  0.36340343408E+03  0.36340343408E+03  0.00000000000E+00 0.  1.
          1   -1    0    0  501    0  0.00000000000E+00 -0.00000000000E+00 -0.25580390522E+04  0.25580390522E+04  0.00000000000E+00 0. -1.
         23    2    1    2    0    0  0.17973904617E+03  0.75115295315E+03 -0.19687174469E+04  0.21167214764E+04  0.90136223763E+02 0.  0.
         13    1    3    3    0    0  0.11370021261E+03  0.49581033450E+03 -0.11766600897E+04  0.12819066241E+04  0.00000000000E+00 0.  1.
        -13    1    3    3    0    0  0.66038833561E+02  0.25534261865E+03 -0.79205735723E+03  0.83481485228E+03  0.00000000000E+00 0. -1.
         22    1    1    2    0    0 -0.17973904617E+03 -0.75115295315E+03 -0.22591817118E+03  0.80472100992E+03  0.00000000000E+00 0. -1.
<mgrwt>
<rscale>  0 0.19283155E+04</rscale>
<asrwt>0</asrwt>
<pdfrwt beam="1">  1        1 0.39354446E+00 0.19283155E+04</pdfrwt>
<pdfrwt beam="2">  1       -1 0.55908222E-01 0.19283155E+04</pdfrwt>
<totfact> 0.37317142E+00</totfact>
</mgrwt>
</event>
<event>
 6    1  0.1528034E-005  0.2987272E+04  0.7818608E-02  0.8247375E-01
         -2   -1    0    0    0  501 -0.00000000000E+00  0.00000000000E+00  0.10849846491E+04  0.10849846491E+04  0.00000000000E+00 0.  1.
          2   -1    0    0  501    0  0.00000000000E+00 -0.00000000000E+00 -0.20562031918E+04  0.20562031918E+04  0.00000000000E+00 0. -1.
         23    2    1    2    0    0  0.77862273660E+02  0.12435636941E+04 -0.13496204375E+04  0.18389969221E+04  0.89000893977E+02 0.  0.
         11    1    3    3    0    0  0.87265336028E+02  0.70250035530E+03 -0.77796466460E+03  0.10518322145E+04  0.00000000000E+00 0. -1.
        -11    1    3    3    0    0 -0.94030623679E+01  0.54106333884E+03 -0.57165577295E+03  0.78716470764E+03  0.00000000000E+00 0.  1.
         22    1    1    2    0    0 -0.77862273660E+02 -0.12435636941E+04  0.37840189483E+03  0.13021909188E+04  0.00000000000E+00 0.  1.
<mgrwt>
<rscale>  0 0.29872723E+04</rscale>
<asrwt>0</asrwt>
<pdfrwt beam="1">  1        2 0.31633895E+00 0.29872723E+04</pdfrwt>
<pdfrwt beam="2">  1       -2 0.16692072E+00 0.29872723E+04</pdfrwt>
<totfact> 0.11945349E+00</totfact>
</mgrwt>
</event>
<event>
 6    1  0.1528034E-005  0.3532496E+04  0.7818608E-02  0.8106132E-01
          2   -1    0    0  501    0  0.00000000000E+00  0.00000000000E+00  0.23486826351E+04  0.23486826351E+04  0.00000000000E+00 0. -1.
         -2   -1    0    0    0  501 -0.00000000000E+00 -0.00000000000E+00 -0.13282478654E+04  0.13282478654E+04  0.00000000000E+00 0.  1.
         23    2    1    2    0    0 -0.16324856962E+04 -0.21038100297E+03  0.11738939655E+04  0.20238063553E+04  0.92170529937E+02 0.  0.
         11    1    3    3    0    0 -0.14714430431E+04 -0.16330666488E+03  0.10424468359E+04  0.18106653753E+04  0.00000000000E+00 0.  1.
        -11    1    3    3    0    0 -0.16104265317E+03 -0.47074338096E+02  0.13144712961E+03  0.21314097994E+03  0.00000000000E+00 0. -1.
         22    1    1    2    0    0  0.16324856962E+04  0.21038100297E+03 -0.15345919571E+03  0.16531241452E+04  0.00000000000E+00 0.  1.
<mgrwt>
<rscale>  0 0.35324964E+04</rscale>
<asrwt>0</asrwt>
<pdfrwt beam="1">  1        2 0.36133579E+00 0.35324964E+04</pdfrwt>
<pdfrwt beam="2">  1       -2 0.20434583E+00 0.35324964E+04</pdfrwt>
<totfact> 0.43424004E-01</totfact>
</mgrwt>
</event>
<event>
 6    1  0.1528034E-005  0.1828320E+04  0.7818608E-02  0.8691382E-01
         -2   -1    0    0    0  501 -0.00000000000E+00  0.00000000000E+00  0.86620295076E+03  0.86620295076E+03  0.00000000000E+00 0.  1.
          2   -1    0    0  501    0  0.00000000000E+00 -0.00000000000E+00 -0.96477265011E+03  0.96477265011E+03  0.00000000000E+00 0. -1.
         23    2    1    2    0    0  0.32267309369E+03  0.32432658864E+03  0.74046132267E+03  0.87531942974E+03  0.92711769631E+02 0.  0.
         13    1    3    3    0    0  0.14114164789E+03  0.10087456475E+03  0.21607827971E+03  0.27710370901E+03  0.00000000000E+00 0. -1.
        -13    1    3    3    0    0  0.18153144580E+03  0.22345202389E+03  0.52438304296E+03  0.59821572073E+03  0.00000000000E+00 0.  1.
         22    1    1    2    0    0 -0.32267309369E+03 -0.32432658864E+03 -0.83903102203E+03  0.95565617113E+03  0.00000000000E+00 0. -1.
<mgrwt>
<rscale>  0 0.18283204E+04</rscale>
<asrwt>0</asrwt>
<pdfrwt beam="1">  1        2 0.14842656E+00 0.18283204E+04</pdfrwt>
<pdfrwt beam="2">  1       -2 0.13326199E+00 0.18283204E+04</pdfrwt>
<totfact> 0.10197584E+01</totfact>
</mgrwt>
</event>
<event>
 6    1  0.1528034E-005  0.1948758E+04  0.7818608E-02  0.8630960E-01
          2   -1    0    0  501    0  0.00000000000E+00  0.00000000000E+00  0.73824365453E+03  0.73824365453E+03  0.00000000000E+00 0. -1.
         -2   -1    0    0    0  501 -0.00000000000E+00 -0.00000000000E+00 -0.12860441891E+04  0.12860441891E+04  0.00000000000E+00 0.  1.
         23    2    1    2    0    0  0.74161087086E+03  0.62759618083E+03 -0.23286076946E+03  0.10029893047E+04  0.88880579699E+02 0.  0.
         13    1    3    3    0    0  0.11293072026E+03  0.12908537296E+03 -0.18505087980E+02  0.17250744730E+03  0.00000000000E+00 0. -1.
        -13    1    3    3    0    0  0.62868015059E+03  0.49851080787E+03 -0.21435568148E+03  0.83048185741E+03  0.00000000000E+00 0.  1.
         22    1    1    2    0    0 -0.74161087086E+03 -0.62759618083E+03 -0.31493976512E+03  0.10212985389E+04  0.00000000000E+00 0. -1.
<mgrwt>
<rscale>  0 0.19487575E+04</rscale>
<asrwt>0</asrwt>
<pdfrwt beam="1">  1        2 0.11357595E+00 0.19487575E+04</pdfrwt>
<pdfrwt beam="2">  1       -2 0.19785295E+00 0.19487575E+04</pdfrwt>
<totfact> 0.49033199E+00</totfact>
</mgrwt>
</event>
<event>
 6    1  0.1528034E-005  0.1266071E+04  0.7818608E-02  0.9056912E-01
         -1   -1    0    0    0  501 -0.00000000000E+00  0.00000000000E+00  0.15273261261E+04  0.15273261261E+04  0.00000000000E+00 0.  1.
          1   -1    0    0  501    0  0.00000000000E+00 -0.00000000000E+00 -0.26237625795E+03  0.26237625795E+03  0.00000000000E+00 0. -1.
         23    2    1    2    0    0 -0.51673105859E+03  0.35931222158E+03  0.60877728429E+03  0.88048364290E+03  0.92333114680E+02 0.  0.
         11    1    3    3    0    0 -0.10741608889E+03  0.36068376217E+02  0.13052252335E+03  0.17284464995E+03  0.00000000000E+00 0.  1.
        -11    1    3    3    0    0 -0.40931496970E+03  0.32324384536E+03  0.47825476094E+03  0.70763899295E+03  0.00000000000E+00 0. -1.
         22    1    1    2    0    0  0.51673105859E+03 -0.35931222158E+03  0.65617258390E+03  0.90921874119E+03  0.00000000000E+00 0. -1.
<mgrwt>
<rscale>  0 0.12660713E+04</rscale>
<asrwt>0</asrwt>
<pdfrwt beam="1">  1        1 0.40365579E-01 0.12660713E+04</pdfrwt>
<pdfrwt beam="2">  1       -1 0.23497325E+00 0.12660713E+04</pdfrwt>
<totfact> 0.90099420E+00</totfact>
</mgrwt>
</event>
<event>
 6    1  0.1528034E-005  0.1107688E+04  0.7818608E-02  0.9197730E-01
         -2   -1    0    0    0  501 -0.00000000000E+00  0.00000000000E+00  0.27844647865E+03  0.27844647865E+03  0.00000000000E+00 0.  1.
          2   -1    0    0  501    0  0.00000000000E+00 -0.00000000000E+00 -0.11016242416E+04  0.11016242416E+04  0.00000000000E+00 0. -1.
         23    2    1    2    0    0 -0.25469783816E+03  0.19994392795E+03 -0.96852772789E+03  0.10251409026E+04  0.89550809509E+02 0.  0.
         13    1    3    3    0    0 -0.52531656970E+02  0.63010152674E+02 -0.36467568312E+03  0.37378898884E+03  0.00000000000E+00 0. -1.
        -13    1    3    3    0    0 -0.20216618119E+03  0.13693377527E+03 -0.60385204478E+03  0.65135191380E+03  0.00000000000E+00 0.  1.
         22    1    1    2    0    0  0.25469783816E+03 -0.19994392795E+03  0.14534996497E+03  0.35492981757E+03  0.00000000000E+00 0.  1.
<mgrwt>
<rscale>  0 0.11076884E+04</rscale>
<asrwt>0</asrwt>
<pdfrwt beam="1">  1        2 0.16948065E+00 0.11076884E+04</pdfrwt>
<pdfrwt beam="2">  1       -2 0.42837920E-01 0.11076884E+04</pdfrwt>
<totfact> 0.11137283E+02</totfact>
</mgrwt>
</event>
<event>
 6    1  0.1528034E-005  0.1932816E+04  0.7818608E-02  0.8638692E-01
         -2   -1    0    0    0  501 -0.00000000000E+00  0.00000000000E+00  0.46272463666E+03  0.46272463666E+03  0.00000000000E+00 0.  1.
          2   -1    0    0  501    0  0.00000000000E+00 -0.00000000000E+00 -0.20183588489E+04  0.20183588489E+04  0.00000000000E+00 0. -1.
         23    2    1    2    0    0  0.23050727689E+03 -0.70166953892E+03 -0.15752630849E+04  0.17422607469E+04  0.92439044984E+02 0.  0.
         11    1    3    3    0    0  0.18315093018E+03 -0.41551437927E+03 -0.98029530890E+03  0.10803589011E+04  0.00000000000E+00 0.  1.
        -11    1    3    3    0    0  0.47356346707E+02 -0.28615515965E+03 -0.59496777595E+03  0.66190184573E+03  0.00000000000E+00 0. -1.
         22    1    1    2    0    0 -0.23050727689E+03  0.70166953892E+03  0.19628872633E+02  0.73882273868E+03  0.00000000000E+00 0.  1.
<mgrwt>
<rscale>  0 0.19328159E+04</rscale>
<asrwt>0</asrwt>
<pdfrwt beam="1">  1        2 0.31051674E+00 0.19328159E+04</pdfrwt>
<pdfrwt beam="2">  1       -2 0.71188407E-01 0.19328159E+04</pdfrwt>
<totfact> 0.10920593E+01</totfact>
</mgrwt>
</event>
<event>
 6    1  0.1528034E-005  0.4303449E+04  0.7818608E-02  0.7945981E-01
         -1   -1    0    0    0  501 -0.00000000000E+00  0.00000000000E+00  0.24214459927E+04  0.24214459927E+04  0.00000000000E+00 0.  1.
          1   -1    0    0  501    0  0.00000000000E+00 -0.00000000000E+00 -0.19120471342E+04  0.19120471342E+04  0.00000000000E+00 0. -1.
         23    2    1    2    0    0  0.14230490615E+04  0.16036739843E+04  0.42604518854E+03  0.21878494674E+04  0.91279296367E+02 0.  0.
         13    1    3    3    0    0  0.74108467918E+03  0.90256933018E+03  0.22368923551E+03  0.11890646625E+04  0.00000000000E+00 0. -1.
        -13    1    3    3    0    0  0.68196438236E+03  0.70110465412E+03  0.20235595303E+03  0.99878480493E+03  0.00000000000E+00 0.  1.
         22    1    1    2    0    0 -0.14230490615E+04 -0.16036739843E+04  0.83353669994E+02  0.21456436595E+04  0.00000000000E+00 0. -1.
<mgrwt>
<rscale>  0 0.43034493E+04</rscale>
<asrwt>0</asrwt>
<pdfrwt beam="1">  1        1 0.29416110E+00 0.43034493E+04</pdfrwt>
<pdfrwt beam="2">  1       -1 0.37253015E+00 0.43034493E+04</pdfrwt>
<totfact> 0.28674135E-02</totfact>
</mgrwt>
</event>
<event>
 6    1  0.1528034E-005  0.1204809E+04  0.7818608E-02  0.9108658E-01
         -2   -1    0    0    0  501 -0.00000000000E+00  0.00000000000E+00  0.28381830776E+03  0.28381830776E+03  0.00000000000E+00 0. -1.
          2   -1    0    0  501    0  0.00000000000E+00 -0.00000000000E+00 -0.12786034780E+04  0.12786034780E+04  0.00000000000E+00 0.  1.
         23    2    1    2    0    0 -0.23436665151E+03 -0.54396080667E+03 -0.61947785707E+03  0.86122519002E+03  0.84468491069E+02 0.  0.
         13    1    3    3    0    0 -0.20081748603E+03 -0.37494907936E+03 -0.42248604905E+03  0.59950724470E+03  0.00000000000E+00 0.  1.
        -13    1    3    3    0    0 -0.33549165488E+02 -0.16901172731E+03 -0.19699180802E+03  0.26171794532E+03  0.00000000000E+00 0. -1.
         22    1    1    2    0    0  0.23436665151E+03  0.54396080667E+03 -0.37530731313E+03  0.70119659570E+03  0.00000000000E+00 0.  1.
<mgrwt>
<rscale>  0 0.12048088E+04</rscale>
<asrwt>0</asrwt>
<pdfrwt beam="1">  1        2 0.19670823E+00 0.12048088E+04</pdfrwt>
<pdfrwt beam="2">  1       -2 0.43664355E-01 0.12048088E+04</pdfrwt>
<totfact> 0.83436326E+01</totfact>
</mgrwt>
</event>
<event>
 6    1  0.1528034E-005  0.8640407E+03  0.7818608E-02  0.9471683E-01
          2   -1    0    0  501    0  0.00000000000E+00  0.00000000000E+00  0.81512438940E+03  0.81512438940E+03  0.00000000000E+00 0.  1.
         -2   -1    0    0    0  501 -0.00000000000E+00 -0.00000000000E+00 -0.22897311145E+03  0.22897311145E+03  0.00000000000E+00 0. -1.
         23    2    1    2    0    0 -0.24582028875E+03  0.27281770824E+03  0.56025198701E+03  0.67595637362E+03  0.90430159744E+02 0.  0.
         13    1    3    3    0    0 -0.13420543081E+03  0.18614588354E+03  0.40886501722E+03  0.46886244243E+03  0.00000000000E+00 0. -1.
        -13    1    3    3    0    0 -0.11161485795E+03  0.86671824692E+02  0.15138696979E+03  0.20709393118E+03  0.00000000000E+00 0.  1.
         22    1    1    2    0    0  0.24582028875E+03 -0.27281770824E+03  0.25899290930E+02  0.36814112723E+03  0.00000000000E+00 0. -1.
<mgrwt>
<rscale>  0 0.86404066E+03</rscale>
<asrwt>0</asrwt>
<pdfrwt beam="1">  1        2 0.12540375E+00 0.86404066E+03</pdfrwt>
<pdfrwt beam="2">  1       -2 0.35226633E-01 0.86404066E+03</pdfrwt>
<totfact> 0.25496892E+02</totfact>
</mgrwt>
</event>
<event>
 6    1  0.1528034E-005  0.4439367E+04  0.7818608E-02  0.7921339E-01
         -1   -1    0    0    0  501 -0.00000000000E+00  0.00000000000E+00  0.15998092241E+04  0.15998092241E+04  0.00000000000E+00 0.  1.
          1   -1    0    0  501    0  0.00000000000E+00 -0.00000000000E+00 -0.30797383497E+04  0.30797383497E+04  0.00000000000E+00 0. -1.
         23    2    1    2    0    0  0.10444268402E+04 -0.19460910447E+04 -0.96302087344E+03  0.24112239814E+04  0.92163479873E+02 0.  0.
         13    1    3    3    0    0  0.18066155765E+03 -0.41502792826E+03 -0.20016625083E+03  0.49492757816E+03  0.00000000000E+00 0.  1.
        -13    1    3    3    0    0  0.86376528254E+03 -0.15310631164E+04 -0.76285462261E+03  0.19162964032E+04  0.00000000000E+00 0. -1.
         22    1    1    2    0    0 -0.10444268402E+04  0.19460910447E+04 -0.51690825208E+03  0.22683235924E+04  0.00000000000E+00 0.  1.
<mgrwt>
<rscale>  0 0.44393665E+04</rscale>
<asrwt>0</asrwt>
<pdfrwt beam="1">  1        1 0.47380590E+00 0.44393665E+04</pdfrwt>
<pdfrwt beam="2">  1       -1 0.24612450E+00 0.44393665E+04</pdfrwt>
<totfact> 0.29142904E-02</totfact>
</mgrwt>
</event>
<event>
 6    1  0.1571950E-005  0.4257524E+04  0.7818608E-02  0.7954519E-01
         -2   -1    0    0    0  501 -0.00000000000E+00  0.00000000000E+00  0.27542756919E+04  0.27542756919E+04  0.00000000000E+00 0.  1.
          2   -1    0    0  501    0  0.00000000000E+00 -0.00000000000E+00 -0.16453065486E+04  0.16453065486E+04  0.00000000000E+00 0. -1.
         23    2    1    2    0    0  0.47731680580E+03  0.48302227630E+03  0.26385447588E+04  0.27260400642E+04  0.90742132552E+02 0.  0.
         13    1    3    3    0    0  0.19438195873E+03  0.22327056677E+03  0.13138265917E+04  0.13467644207E+04  0.00000000000E+00 0.  1.
        -13    1    3    3    0    0  0.28293484707E+03  0.25975170953E+03  0.13247181672E+04  0.13792756435E+04  0.00000000000E+00 0. -1.
         22    1    1    2    0    0 -0.47731680580E+03 -0.48302227630E+03 -0.15295756155E+04  0.16735421763E+04  0.00000000000E+00 0. -1.
<mgrwt>
<rscale>  0 0.42575241E+04</rscale>
<asrwt>0</asrwt>
<pdfrwt beam="1">  1        2 0.25312408E+00 0.42575241E+04</pdfrwt>
<pdfrwt beam="2">  1       -2 0.42373472E+00 0.42575241E+04</pdfrwt>
<totfact> 0.42109068E-02</totfact>
</mgrwt>
</event>
<event>
 6    1  0.1528034E-005  0.6877421E+03  0.7818608E-02  0.9738427E-01
         -1   -1    0    0    0  501 -0.00000000000E+00  0.00000000000E+00  0.16045786615E+03  0.16045786615E+03  0.00000000000E+00 0.  1.
          1   -1    0    0  501    0  0.00000000000E+00 -0.00000000000E+00 -0.73693677186E+03  0.73693677186E+03  0.00000000000E+00 0. -1.
         23    2    1    2    0    0 -0.90705775354E+02 -0.22496620251E+03 -0.60034076256E+03  0.65365970379E+03  0.89580395237E+02 0.  0.
         11    1    3    3    0    0 -0.62548332597E+02 -0.85983046173E+02 -0.16957068243E+03  0.20014893075E+03  0.00000000000E+00 0. -1.
        -11    1    3    3    0    0 -0.28157442757E+02 -0.13898315633E+03 -0.43077008013E+03  0.45351077304E+03  0.00000000000E+00 0.  1.
         22    1    1    2    0    0  0.90705775354E+02  0.22496620251E+03  0.23861856850E+02  0.24373493423E+03  0.00000000000E+00 0.  1.
<mgrwt>
<rscale>  0 0.68774211E+03</rscale>
<asrwt>0</asrwt>
<pdfrwt beam="1">  1        1 0.11337489E+00 0.68774211E+03</pdfrwt>
<pdfrwt beam="2">  1       -1 0.24685826E-01 0.68774211E+03</pdfrwt>
<totfact> 0.36431877E+02</totfact>
</mgrwt>
</event>
<event>
 6    1  0.1528034E-005  0.2692649E+04  0.7818608E-02  0.8337394E-01
         -2   -1    0    0    0  501 -0.00000000000E+00  0.00000000000E+00  0.13623986467E+04  0.13623986467E+04  0.00000000000E+00 0.  1.
          2   -1    0    0  501    0  0.00000000000E+00 -0.00000000000E+00 -0.13304399404E+04  0.13304399404E+04  0.00000000000E+00 0. -1.
         23    2    1    2    0    0 -0.49698185957E+03 -0.29487192989E+03  0.12304034420E+04  0.13623461188E+04  0.90298912949E+02 0.  0.
         11    1    3    3    0    0 -0.21054825318E+03 -0.16157177309E+03  0.63711423601E+03  0.69018153735E+03  0.00000000000E+00 0. -1.
        -11    1    3    3    0    0 -0.28643360639E+03 -0.13330015680E+03  0.59328920594E+03  0.67216458145E+03  0.00000000000E+00 0.  1.
         22    1    1    2    0    0  0.49698185957E+03  0.29487192989E+03 -0.11984447357E+04  0.13304924683E+04  0.00000000000E+00 0. -1.
<mgrwt>
<rscale>  0 0.26926489E+04</rscale>
<asrwt>0</asrwt>
<pdfrwt beam="1">  1        2 0.20468307E+00 0.26926489E+04</pdfrwt>
<pdfrwt beam="2">  1       -2 0.20959979E+00 0.26926489E+04</pdfrwt>
<totfact> 0.16048606E+00</totfact>
</mgrwt>
</event>
<event>
 6    1  0.1528034E-005  0.1977986E+04  0.7818608E-02  0.8616983E-01
         -1   -1    0    0    0  501 -0.00000000000E+00  0.00000000000E+00  0.86156618490E+03  0.86156618490E+03  0.00000000000E+00 0.  1.
          1   -1    0    0  501    0  0.00000000000E+00 -0.00000000000E+00 -0.11352661167E+04  0.11352661167E+04  0.00000000000E+00 0. -1.
         23    2    1    2    0    0  0.34110586621E+03  0.40614397450E+03  0.70300552446E+03  0.88540992991E+03  0.91803249287E+02 0.  0.
         13    1    3    3    0    0  0.11535958004E+03  0.20533726357E+03  0.32900552749E+03  0.40461816770E+03  0.00000000000E+00 0.  1.
        -13    1    3    3    0    0  0.22574628617E+03  0.20080671093E+03  0.37399999697E+03  0.48079176221E+03  0.00000000000E+00 0. -1.
         22    1    1    2    0    0 -0.34110586621E+03 -0.40614397450E+03 -0.97670545626E+03  0.11114223717E+04  0.00000000000E+00 0. -1.
<mgrwt>
<rscale>  0 0.19779857E+04</rscale>
<asrwt>0</asrwt>
<pdfrwt beam="1">  1        1 0.17465632E+00 0.19779857E+04</pdfrwt>
<pdfrwt beam="2">  1       -1 0.13254864E+00 0.19779857E+04</pdfrwt>
<totfact> 0.53530602E+00</totfact>
</mgrwt>
</event>
<event>
 6    1  0.1528034E-005  0.2486062E+04  0.7818608E-02  0.8407968E-01
          2   -1    0    0  501    0  0.00000000000E+00  0.00000000000E+00  0.68065459524E+03  0.68065459524E+03  0.00000000000E+00 0. -1.
         -2   -1    0    0    0  501 -0.00000000000E+00 -0.00000000000E+00 -0.22700581104E+04  0.22700581104E+04  0.00000000000E+00 0.  1.
         23    2    1    2    0    0 -0.11158381176E+04 -0.47524736503E+03 -0.48137963496E+03  0.13079492772E+04  0.89722886322E+02 0.  0.
         11    1    3    3    0    0 -0.10421394471E+04 -0.43597961935E+03 -0.47054406216E+03  0.12237420358E+04  0.00000000000E+00 0.  1.
        -11    1    3    3    0    0 -0.73698670422E+02 -0.39267745688E+02 -0.10835572799E+02  0.84207241442E+02  0.00000000000E+00 0. -1.
         22    1    1    2    0    0  0.11158381176E+04  0.47524736503E+03 -0.11080238802E+04  0.16427634284E+04  0.00000000000E+00 0.  1.
<mgrwt>
<rscale>  0 0.24860615E+04</rscale>
<asrwt>0</asrwt>
<pdfrwt beam="1">  1        2 0.10471609E+00 0.24860615E+04</pdfrwt>
<pdfrwt beam="2">  1       -2 0.34923971E+00 0.24860615E+04</pdfrwt>
<totfact> 0.59656127E-01</totfact>
</mgrwt>
</event>
<event>
 6    1  0.1528034E-005  0.1193327E+04  0.7818608E-02  0.9118718E-01
         -2   -1    0    0    0  501 -0.00000000000E+00  0.00000000000E+00  0.25232230309E+03  0.25232230309E+03  0.00000000000E+00 0. -1.
          2   -1    0    0  501    0  0.00000000000E+00 -0.00000000000E+00 -0.14109218695E+04  0.14109218695E+04  0.00000000000E+00 0.  1.
         23    2    1    2    0    0 -0.16151632080E+02  0.58953149034E+03 -0.54100126885E+03  0.80929106471E+03  0.12025556617E+03 0.  0.
         13    1    3    3    0    0 -0.64092434438E+02  0.41496844312E+03 -0.35656501021E+03  0.55085865287E+03  0.00000000000E+00 0. -1.
        -13    1    3    3    0    0  0.47940802358E+02  0.17456304722E+03 -0.18443625864E+03  0.25843241184E+03  0.00000000000E+00 0.  1.
         22    1    1    2    0    0  0.16151632080E+02 -0.58953149034E+03 -0.61759829759E+03  0.85395310791E+03  0.00000000000E+00 0. -1.
<mgrwt>
<rscale>  0 0.11933265E+04</rscale>
<asrwt>0</asrwt>
<pdfrwt beam="1">  1        2 0.21706490E+00 0.11933265E+04</pdfrwt>
<pdfrwt beam="2">  1       -2 0.38818816E-01 0.11933265E+04</pdfrwt>
<totfact> 0.88248067E+01</totfact>
</mgrwt>
</event>
<event>
 6    1  0.1528034E-005  0.3136586E+04  0.7818608E-02  0.8205768E-01
         -2   -1    0    0    0  501 -0.00000000000E+00  0.00000000000E+00  0.83812281490E+03  0.83812281490E+03  0.00000000000E+00 0. -1.
          2   -1    0    0  501    0  0.00000000000E+00 -0.00000000000E+00 -0.29345845575E+04  0.29345845575E+04  0.00000000000E+00 0.  1.
         23    2    1    2    0    0  0.36998407187E+03  0.97805981761E+03  0.35433688244E+03  0.11081430326E+04  0.94536417586E+02 0.  0.
         13    1    3    3    0    0  0.30815017712E+03  0.75251468834E+03  0.24012287200E+03  0.84787610032E+03  0.00000000000E+00 0. -1.
        -13    1    3    3    0    0  0.61833894759E+02  0.22554512927E+03  0.11421401044E+03  0.26026693232E+03  0.00000000000E+00 0.  1.
         22    1    1    2    0    0 -0.36998407187E+03 -0.97805981761E+03 -0.24507986250E+04  0.26645643398E+04  0.00000000000E+00 0.  1.
<mgrwt>
<rscale>  0 0.31365856E+04</rscale>
<asrwt>0</asrwt>
<pdfrwt beam="1">  1        2 0.45147455E+00 0.31365856E+04</pdfrwt>
<pdfrwt beam="2">  1       -2 0.12894197E+00 0.31365856E+04</pdfrwt>
<totfact> 0.71737224E-01</totfact>
</mgrwt>
</event>
<event>
 6    1  0.1528034E-005  0.2104113E+04  0.7818608E-02  0.8559434E-01
         -2   -1    0    0    0  501 -0.00000000000E+00  0.00000000000E+00  0.10809454164E+04  0.10809454164E+04  0.00000000000E+00 0.  1.
          2   -1    0    0  501    0  0.00000000000E+00 -0.00000000000E+00 -0.10239394431E+04  0.10239394431E+04  0.00000000000E+00 0. -1.
         23    2    1    2    0    0 -0.22371233334E+03  0.96469751179E+03 -0.32074381175E+03  0.10449870355E+04  0.91830355293E+02 0.  0.
         11    1    3    3    0    0 -0.16307477005E+03  0.62655497536E+03 -0.25137414684E+03  0.69451672368E+03  0.00000000000E+00 0. -1.
        -11    1    3    3    0    0 -0.60637563293E+02  0.33814253644E+03 -0.69369664913E+02  0.35047031178E+03  0.00000000000E+00 0.  1.
         22    1    1    2    0    0  0.22371233334E+03 -0.96469751179E+03  0.37774978502E+03  0.10598978241E+04  0.00000000000E+00 0.  1.
<mgrwt>
<rscale>  0 0.21041128E+04</rscale>
<asrwt>0</asrwt>
<pdfrwt beam="1">  1        2 0.15752914E+00 0.21041128E+04</pdfrwt>
<pdfrwt beam="2">  1       -2 0.16629930E+00 0.21041128E+04</pdfrwt>
<totfact> 0.50742192E+00</totfact>
</mgrwt>
</event>
<event>
 6    1  0.1528034E-005  0.2097551E+04  0.7818608E-02  0.8562323E-01
          1   -1    0    0  501    0  0.00000000000E+00  0.00000000000E+00  0.21838673695E+04  0.21838673695E+04  0.00000000000E+00 0. -1.
         -1   -1    0    0    0  501 -0.00000000000E+00 -0.00000000000E+00 -0.50366133075E+03  0.50366133075E+03  0.00000000000E+00 0.  1.
         23    2    1    2    0    0  0.25247149482E+02 -0.34323417454E+03  0.21084181378E+04  0.21381538566E+04  0.88474592712E+02 0.  0.
         13    1    3    3    0    0  0.50177378390E+02 -0.27779086386E+03  0.17903335765E+04  0.18124513368E+04  0.00000000000E+00 0.  1.
        -13    1    3    3    0    0 -0.24930228908E+02 -0.65443310680E+02  0.31808456130E+03  0.32570251973E+03  0.00000000000E+00 0. -1.
         22    1    1    2    0    0 -0.25247149482E+02  0.34323417454E+03 -0.42821209901E+03  0.54937484368E+03  0.00000000000E+00 0.  1.
<mgrwt>
<rscale>  0 0.20975505E+04</rscale>
<asrwt>0</asrwt>
<pdfrwt beam="1">  1        1 0.33597959E+00 0.20975505E+04</pdfrwt>
<pdfrwt beam="2">  1       -1 0.77486360E-01 0.20975505E+04</pdfrwt>
<totfact> 0.34308967E+00</totfact>
</mgrwt>
</event>
<event>
 6    1  0.1528034E-005  0.3266617E+04  0.7818608E-02  0.8171442E-01
          2   -1    0    0  501    0  0.00000000000E+00  0.00000000000E+00  0.30023632352E+04  0.30023632352E+04  0.00000000000E+00 0. -1.
         -2   -1    0    0    0  501 -0.00000000000E+00 -0.00000000000E+00 -0.88853239413E+03  0.88853239413E+03  0.00000000000E+00 0.  1.
         23    2    1    2    0    0 -0.32750683391E+03 -0.43100221631E+03 -0.77641043083E+03  0.95039937077E+03  0.86152017615E+02 0.  0.
         11    1    3    3    0    0 -0.98224348598E+02 -0.17765207259E+03 -0.23920659807E+03  0.31373249451E+03  0.00000000000E+00 0.  1.
        -11    1    3    3    0    0 -0.22928248531E+03 -0.25335014373E+03 -0.53720383276E+03  0.63666687626E+03  0.00000000000E+00 0. -1.
         22    1    1    2    0    0  0.32750683391E+03  0.43100221631E+03  0.28902412719E+04  0.29404962586E+04  0.00000000000E+00 0. -1.
<mgrwt>
<rscale>  0 0.32666172E+04</rscale>
<asrwt>0</asrwt>
<pdfrwt beam="1">  1        2 0.46190203E+00 0.32666172E+04</pdfrwt>
<pdfrwt beam="2">  1       -2 0.13669729E+00 0.32666172E+04</pdfrwt>
<totfact> 0.55484692E-01</totfact>
</mgrwt>
</event>
<event>
 6    1  0.1528034E-005  0.9180305E+03  0.7818608E-02  0.9403319E-01
          1   -1    0    0  501    0  0.00000000000E+00  0.00000000000E+00  0.89300685315E+03  0.89300685315E+03  0.00000000000E+00 0. -1.
         -1   -1    0    0    0  501 -0.00000000000E+00 -0.00000000000E+00 -0.23593883426E+03  0.23593883426E+03  0.00000000000E+00 0.  1.
         23    2    1    2    0    0 -0.14692421289E+03  0.32414869258E+03  0.67787936943E+03  0.77244574134E+03  0.10243478208E+03 0.  0.
         11    1    3    3    0    0 -0.15507714977E+02  0.48541111376E+02  0.19153476975E+03  0.19819762042E+03  0.00000000000E+00 0.  1.
        -11    1    3    3    0    0 -0.13141649792E+03  0.27560758120E+03  0.48634459968E+03  0.57424812092E+03  0.00000000000E+00 0. -1.
         22    1    1    2    0    0  0.14692421289E+03 -0.32414869258E+03 -0.20811350536E+02  0.35649994607E+03  0.00000000000E+00 0.  1.
<mgrwt>
<rscale>  0 0.91803049E+03</rscale>
<asrwt>0</asrwt>
<pdfrwt beam="1">  1        1 0.13738567E+00 0.91803049E+03</pdfrwt>
<pdfrwt beam="2">  1       -1 0.36298283E-01 0.91803049E+03</pdfrwt>
<totfact> 0.13476171E+02</totfact>
</mgrwt>
</event>
<event>
 6    1  0.1528034E-005  0.4353448E+04  0.7818608E-02  0.7936808E-01
         -1   -1    0    0    0  501 -0.00000000000E+00  0.00000000000E+00  0.12442635954E+04  0.12442635954E+04  0.00000000000E+00 0.  1.
          1   -1    0    0  501    0  0.00000000000E+00 -0.00000000000E+00 -0.38079768305E+04  0.38079768305E+04  0.00000000000E+00 0. -1.
         23    2    1    2    0    0 -0.19641278926E+04  0.51298288791E+03 -0.21910923851E+04  0.29883130726E+04  0.90439801906E+02 0.  0.
         13    1    3    3    0    0 -0.92461699882E+02  0.51479850088E+01 -0.10558412151E+03  0.14044099975E+03  0.00000000000E+00 0. -1.
        -13    1    3    3    0    0 -0.18716661928E+04  0.50783490290E+03 -0.20855082636E+04  0.28478720728E+04  0.00000000000E+00 0.  1.
         22    1    1    2    0    0  0.19641278926E+04 -0.51298288791E+03 -0.37262084994E+03  0.20639273533E+04  0.00000000000E+00 0.  1.
<mgrwt>
<rscale>  0 0.43534478E+04</rscale>
<asrwt>0</asrwt>
<pdfrwt beam="1">  1        1 0.58584258E+00 0.43534478E+04</pdfrwt>
<pdfrwt beam="2">  1       -1 0.19142517E+00 0.43534478E+04</pdfrwt>
<totfact> 0.18381677E-02</totfact>
</mgrwt>
</event>
<event>
 6    1  0.1528034E-005  0.2344905E+04  0.7818608E-02  0.8460423E-01
          1   -1    0    0  501    0  0.00000000000E+00  0.00000000000E+00  0.14811267051E+04  0.14811267051E+04  0.00000000000E+00 0. -1.
         -1   -1    0    0    0  501 -0.00000000000E+00 -0.00000000000E+00 -0.92810770503E+03  0.92810770503E+03  0.00000000000E+00 0.  1.
         23    2    1    2    0    0  0.47901967369E+03 -0.34851034067E+03  0.13137757695E+04  0.14450403594E+04  0.10590355188E+03 0.  0.
         11    1    3    3    0    0  0.10209638199E+03 -0.46642673339E+02  0.17249966118E+03  0.20580413820E+03  0.00000000000E+00 0.  1.
        -11    1    3    3    0    0  0.37692329170E+03 -0.30186766733E+03  0.11412761083E+04  0.12392362212E+04  0.00000000000E+00 0. -1.
         22    1    1    2    0    0 -0.47901967369E+03  0.34851034067E+03 -0.76075676943E+03  0.96419405078E+03  0.00000000000E+00 0.  1.
<mgrwt>
<rscale>  0 0.23449052E+04</rscale>
<asrwt>0</asrwt>
<pdfrwt beam="1">  1        1 0.22786565E+00 0.23449052E+04</pdfrwt>
<pdfrwt beam="2">  1       -1 0.14278580E+00 0.23449052E+04</pdfrwt>
<totfact> 0.24161138E+00</totfact>
</mgrwt>
</event>
<event>
 6    1  0.1528034E-005  0.2205809E+04  0.7818608E-02  0.8516014E-01
          1   -1    0    0  501    0  0.00000000000E+00  0.00000000000E+00  0.11094760735E+04  0.11094760735E+04  0.00000000000E+00 0. -1.
         -1   -1    0    0    0  501 -0.00000000000E+00 -0.00000000000E+00 -0.10963722495E+04  0.10963722495E+04  0.00000000000E+00 0.  1.
         23    2    1    2    0    0  0.44116271455E+03  0.80819955037E+03  0.61155435694E+03  0.11076889109E+04  0.71867503130E+02 0.  0.
         11    1    3    3    0    0  0.60286531960E+02  0.12821364841E+03  0.12465828210E+03  0.18871378559E+03  0.00000000000E+00 0. -1.
        -11    1    3    3    0    0  0.38087618259E+03  0.67998590196E+03  0.48689607484E+03  0.91897512536E+03  0.00000000000E+00 0.  1.
         22    1    1    2    0    0 -0.44116271455E+03 -0.80819955037E+03 -0.59845053298E+03  0.10981594121E+04  0.00000000000E+00 0.  1.
<mgrwt>
<rscale>  0 0.22058094E+04</rscale>
<asrwt>0</asrwt>
<pdfrwt beam="1">  1        1 0.17068863E+00 0.22058094E+04</pdfrwt>
<pdfrwt beam="2">  1       -1 0.16867265E+00 0.22058094E+04</pdfrwt>
<totfact> 0.28605045E+00</totfact>
</mgrwt>
</event>
<event>
 6    1  0.1572431E-005  0.1867310E+04  0.7818608E-02  0.8671302E-01
          1   -1    0    0  501    0  0.00000000000E+00  0.00000000000E+00  0.23875433685E+04  0.23875433685E+04  0.00000000000E+00 0. -1.
         -1   -1    0    0    0  501 -0.00000000000E+00 -0.00000000000E+00 -0.36510818637E+03  0.36510818637E+03  0.00000000000E+00 0.  1.
         23    2    1    2    0    0  0.11726669412E+03 -0.46981500745E+03  0.21868469199E+04  0.22412722062E+04  0.80771482666E+02 0.  0.
         13    1    3    3    0    0  0.81919698082E+02 -0.23144172790E+03  0.95326668315E+03  0.98437466421E+03  0.00000000000E+00 0.  1.
        -13    1    3    3    0    0  0.35346996037E+02 -0.23837327955E+03  0.12335802368E+04  0.12568975420E+04  0.00000000000E+00 0. -1.
         22    1    1    2    0    0 -0.11726669412E+03  0.46981500745E+03 -0.16441173773E+03  0.51137934870E+03  0.00000000000E+00 0.  1.
<mgrwt>
<rscale>  0 0.18673100E+04</rscale>
<asrwt>0</asrwt>
<pdfrwt beam="1">  1        1 0.36731436E+00 0.18673100E+04</pdfrwt>
<pdfrwt beam="2">  1       -1 0.56170492E-01 0.18673100E+04</pdfrwt>
<totfact> 0.48781957E+00</totfact>
</mgrwt>
</event>
<event>
 6    1  0.1528034E-005  0.8216580E+03  0.7818608E-02  0.9529186E-01
         -2   -1    0    0    0  501 -0.00000000000E+00  0.00000000000E+00  0.23896965134E+03  0.23896965134E+03  0.00000000000E+00 0. -1.
          2   -1    0    0  501    0  0.00000000000E+00 -0.00000000000E+00 -0.70628417990E+03  0.70628417990E+03  0.00000000000E+00 0.  1.
         23    2    1    2    0    0  0.39503351949E+02 -0.23470444108E+03  0.14167458732E+03  0.29140795281E+03  0.90555048421E+02 0.  0.
         11    1    3    3    0    0 -0.23022131947E+01 -0.16301724844E+03  0.56644553974E+02  0.17259353687E+03  0.00000000000E+00 0.  1.
        -11    1    3    3    0    0  0.41805565144E+02 -0.71687192635E+02  0.85030033342E+02  0.11881441594E+03  0.00000000000E+00 0. -1.
         22    1    1    2    0    0 -0.39503351949E+02  0.23470444108E+03 -0.60898911587E+03  0.65384587842E+03  0.00000000000E+00 0.  1.
<mgrwt>
<rscale>  0 0.82165804E+03</rscale>
<asrwt>0</asrwt>
<pdfrwt beam="1">  1        2 0.10865910E+00 0.82165804E+03</pdfrwt>
<pdfrwt beam="2">  1       -2 0.36764562E-01 0.82165804E+03</pdfrwt>
<totfact> 0.28366975E+02</totfact>
</mgrwt>
</event>
<event>
 6    1  0.1528034E-005  0.8695929E+03  0.7818608E-02  0.9464411E-01
         -1   -1    0    0    0  501 -0.00000000000E+00  0.00000000000E+00  0.17364520605E+03  0.17364520605E+03  0.00000000000E+00 0.  1.
          1   -1    0    0  501    0  0.00000000000E+00 -0.00000000000E+00 -0.10887024805E+04  0.10887024805E+04  0.00000000000E+00 0. -1.
         23    2    1    2    0    0  0.65875002020E+02 -0.38986191287E+03 -0.21737066931E+03  0.46041350846E+03  0.91644770193E+02 0.  0.
         11    1    3    3    0    0  0.76269089828E+02 -0.31065513946E+03 -0.20406092640E+03  0.37942647697E+03  0.00000000000E+00 0.  1.
        -11    1    3    3    0    0 -0.10394087809E+02 -0.79206773407E+02 -0.13309742905E+02  0.80987031499E+02  0.00000000000E+00 0. -1.
         22    1    1    2    0    0 -0.65875002020E+02  0.38986191287E+03 -0.69768660516E+03  0.80193417811E+03  0.00000000000E+00 0. -1.
<mgrwt>
<rscale>  0 0.86959293E+03</rscale>
<asrwt>0</asrwt>
<pdfrwt beam="1">  1        1 0.16749269E+00 0.86959293E+03</pdfrwt>
<pdfrwt beam="2">  1       -1 0.26714647E-01 0.86959293E+03</pdfrwt>
<totfact> 0.16275896E+02</totfact>
</mgrwt>
</event>
<event>
 6    1  0.1528034E-005  0.3108325E+04  0.7818608E-02  0.8213457E-01
         -1   -1    0    0    0  501 -0.00000000000E+00  0.00000000000E+00  0.60957928963E+03  0.60957928963E+03  0.00000000000E+00 0.  1.
          1   -1    0    0  501    0  0.00000000000E+00 -0.00000000000E+00 -0.39624402233E+04  0.39624402233E+04  0.00000000000E+00 0. -1.
         23    2    1    2    0    0 -0.45529478572E+03 -0.14306404206E+04 -0.22608082031E+04  0.27155162080E+04  0.93537101650E+02 0.  0.
         13    1    3    3    0    0 -0.51932507028E+02 -0.86963676761E+02 -0.15773289126E+03  0.18745487816E+03  0.00000000000E+00 0. -1.
        -13    1    3    3    0    0 -0.40336227869E+03 -0.13436767439E+04 -0.21030753118E+04  0.25280613298E+04  0.00000000000E+00 0.  1.
         22    1    1    2    0    0  0.45529478572E+03  0.14306404206E+04 -0.10920527306E+04  0.18565033050E+04  0.00000000000E+00 0.  1.
<mgrwt>
<rscale>  0 0.31083253E+04</rscale>
<asrwt>0</asrwt>
<pdfrwt beam="1">  1        1 0.60960617E+00 0.31083253E+04</pdfrwt>
<pdfrwt beam="2">  1       -1 0.93781431E-01 0.31083253E+04</pdfrwt>
<totfact> 0.96084799E-02</totfact>
</mgrwt>
</event>
<event>
 6    1  0.1528034E-005  0.1672401E+04  0.7818608E-02  0.8777263E-01
         -2   -1    0    0    0  501 -0.00000000000E+00  0.00000000000E+00  0.32595858419E+03  0.32595858419E+03  0.00000000000E+00 0.  1.
          2   -1    0    0  501    0  0.00000000000E+00 -0.00000000000E+00 -0.21451539060E+04  0.21451539060E+04  0.00000000000E+00 0. -1.
         23    2    1    2    0    0 -0.21351046060E+03 -0.12747818085E+02 -0.21029108399E+04  0.21158045689E+04  0.92982523652E+02 0.  0.
         13    1    3    3    0    0 -0.14200666937E+03 -0.11430857379E+02 -0.17457889135E+04  0.17515922725E+04  0.00000000000E+00 0.  1.
        -13    1    3    3    0    0 -0.71503791232E+02 -0.13169607064E+01 -0.35712192644E+03  0.36421229646E+03  0.00000000000E+00 0. -1.
         22    1    1    2    0    0  0.21351046060E+03  0.12747818085E+02  0.28371551813E+03  0.35530792122E+03  0.00000000000E+00 0.  1.
<mgrwt>
<rscale>  0 0.16724011E+04</rscale>
<asrwt>0</asrwt>
<pdfrwt beam="1">  1        2 0.33002367E+00 0.16724011E+04</pdfrwt>
<pdfrwt beam="2">  1       -2 0.50147475E-01 0.16724011E+04</pdfrwt>
<totfact> 0.19893312E+01</totfact>
</mgrwt>
</event>
<event>
 6    1  0.1528034E-005  0.2552429E+04  0.7818608E-02  0.8384542E-01
         -2   -1    0    0    0  501 -0.00000000000E+00  0.00000000000E+00  0.79815879974E+03  0.79815879974E+03  0.00000000000E+00 0.  1.
          2   -1    0    0  501    0  0.00000000000E+00 -0.00000000000E+00 -0.20406004450E+04  0.20406004450E+04  0.00000000000E+00 0. -1.
         23    2    1    2    0    0  0.19512053807E+03 -0.45609966965E+03 -0.19279071764E+04  0.19926139099E+04  0.87092939480E+02 0.  0.
         13    1    3    3    0    0  0.53265185570E+02 -0.19806246666E+03 -0.66929791834E+03  0.70001830275E+03  0.00000000000E+00 0.  1.
        -13    1    3    3    0    0  0.14185535250E+03 -0.25803720299E+03 -0.12586092581E+04  0.12925956072E+04  0.00000000000E+00 0. -1.
         22    1    1    2    0    0 -0.19512053807E+03  0.45609966965E+03  0.68546553122E+03  0.84614533475E+03  0.00000000000E+00 0.  1.
<mgrwt>
<rscale>  0 0.25524288E+04</rscale>
<asrwt>0</asrwt>
<pdfrwt beam="1">  1        2 0.31393853E+00 0.25524288E+04</pdfrwt>
<pdfrwt beam="2">  1       -2 0.12279366E+00 0.25524288E+04</pdfrwt>
<totfact> 0.28237532E+00</totfact>
</mgrwt>
</event>
<event>
 6    1  0.1528034E-005  0.1700050E+04  0.7818608E-02  0.8761336E-01
         -2   -1    0    0    0  501 -0.00000000000E+00  0.00000000000E+00  0.53715230245E+03  0.53715230245E+03  0.00000000000E+00 0.  1.
          2   -1    0    0  501    0  0.00000000000E+00 -0.00000000000E+00 -0.13451354765E+04  0.13451354765E+04  0.00000000000E+00 0. -1.
         23    2    1    2    0    0  0.16444265731E+03 -0.69033328772E+03 -0.91871813719E+03  0.11640512805E+04  0.85854134594E+02 0.  0.
         11    1    3    3    0    0  0.11075386575E+03 -0.32767078136E+03 -0.49297405450E+03  0.60221090836E+03  0.00000000000E+00 0. -1.
        -11    1    3    3    0    0  0.53688791567E+02 -0.36266250635E+03 -0.42574408269E+03  0.56184037217E+03  0.00000000000E+00 0.  1.
         22    1    1    2    0    0 -0.16444265731E+03  0.69033328772E+03  0.11073496309E+03  0.71823649846E+03  0.00000000000E+00 0.  1.
<mgrwt>
<rscale>  0 0.17000501E+04</rscale>
<asrwt>0</asrwt>
<pdfrwt beam="1">  1        2 0.20694392E+00 0.17000501E+04</pdfrwt>
<pdfrwt beam="2">  1       -2 0.82638817E-01 0.17000501E+04</pdfrwt>
<totfact> 0.19023776E+01</totfact>
</mgrwt>
</event>
<event>
 6    1  0.1528034E-005  0.4063037E+04  0.7818608E-02  0.7991949E-01
         -2   -1    0    0    0  501 -0.00000000000E+00  0.00000000000E+00  0.91792188625E+03  0.91792188625E+03  0.00000000000E+00 0.  1.
          2   -1    0    0  501    0  0.00000000000E+00 -0.00000000000E+00 -0.44960977026E+04  0.44960977026E+04  0.00000000000E+00 0. -1.
         23    2    1    2    0    0  0.11605106374E+04  0.67675532917E+03  0.23899147232E+03  0.13673482624E+04  0.87986542326E+02 0.  0.
         13    1    3    3    0    0  0.98879840741E+03  0.55657992439E+03  0.17421603950E+03  0.11479785412E+04  0.00000000000E+00 0. -1.
        -13    1    3    3    0    0  0.17171222999E+03  0.12017540479E+03  0.64775432816E+02  0.21936972111E+03  0.00000000000E+00 0.  1.
         22    1    1    2    0    0 -0.11605106374E+04 -0.67675532917E+03 -0.38171672886E+04  0.40466713265E+04  0.00000000000E+00 0. -1.
<mgrwt>
<rscale>  0 0.40630365E+04</rscale>
<asrwt>0</asrwt>
<pdfrwt beam="1">  1        2 0.69170733E+00 0.40630365E+04</pdfrwt>
<pdfrwt beam="2">  1       -2 0.14121875E+00 0.40630365E+04</pdfrwt>
<totfact> 0.33970772E-02</totfact>
</mgrwt>
</event>
<event>
 6    1  0.1528034E-005  0.2197971E+04  0.7818608E-02  0.8519273E-01
         -1   -1    0    0    0  501 -0.00000000000E+00  0.00000000000E+00  0.14650091863E+04  0.14650091863E+04  0.00000000000E+00 0. -1.
          1   -1    0    0  501    0  0.00000000000E+00 -0.00000000000E+00 -0.82441054399E+03  0.82441054399E+03  0.00000000000E+00 0.  1.
         23    2    1    2    0    0  0.35583100465E+03  0.10323036145E+04  0.21047114160E+03  0.11158456494E+04  0.92449746170E+02 0.  0.
         11    1    3    3    0    0  0.43211554801E+02  0.94392890662E+02  0.46291270631E+02  0.11366678500E+03  0.00000000000E+00 0. -1.
        -11    1    3    3    0    0  0.31261944985E+03  0.93791072382E+03  0.16417987097E+03  0.10021788644E+04  0.00000000000E+00 0.  1.
         22    1    1    2    0    0 -0.35583100465E+03 -0.10323036145E+04  0.43012750067E+03  0.11735740808E+04  0.00000000000E+00 0.  1.
<mgrwt>
<rscale>  0 0.21979709E+04</rscale>
<asrwt>0</asrwt>
<pdfrwt beam="1">  1        1 0.12683239E+00 0.21979709E+04</pdfrwt>
<pdfrwt beam="2">  1       -1 0.22538603E+00 0.21979709E+04</pdfrwt>
<totfact> 0.19450762E+00</totfact>
</mgrwt>
</event>
<event>
 6    1  0.1528034E-005  0.1421378E+04  0.7818608E-02  0.8938488E-01
          1   -1    0    0  501    0  0.00000000000E+00  0.00000000000E+00  0.29963549024E+04  0.29963549024E+04  0.00000000000E+00 0. -1.
         -1   -1    0    0    0  501 -0.00000000000E+00 -0.00000000000E+00 -0.16856442319E+03  0.16856442319E+03  0.00000000000E+00 0.  1.
         23    2    1    2    0    0 -0.45103615750E+03 -0.29597133256E+03  0.24399062527E+04  0.25004745813E+04  0.90542612223E+02 0.  0.
         13    1    3    3    0    0 -0.38977877672E+03 -0.22503948123E+03  0.19072491148E+04  0.19596350295E+04  0.00000000000E+00 0.  1.
        -13    1    3    3    0    0 -0.61257380775E+02 -0.70931851332E+02  0.53265713791E+03  0.54083955181E+03  0.00000000000E+00 0. -1.
         22    1    1    2    0    0  0.45103615750E+03  0.29597133256E+03  0.38788422652E+03  0.66444474432E+03  0.00000000000E+00 0.  1.
<mgrwt>
<rscale>  0 0.14213780E+04</rscale>
<asrwt>0</asrwt>
<pdfrwt beam="1">  1        1 0.46097764E+00 0.14213780E+04</pdfrwt>
<pdfrwt beam="2">  1       -1 0.25932990E-01 0.14213780E+04</pdfrwt>
<totfact> 0.77569349E+00</totfact>
</mgrwt>
</event>
<event>
 6    1  0.1528034E-005  0.2744422E+04  0.7818608E-02  0.8320734E-01
          2   -1    0    0  501    0  0.00000000000E+00  0.00000000000E+00  0.11227442960E+04  0.11227442960E+04  0.00000000000E+00 0. -1.
         -2   -1    0    0    0  501 -0.00000000000E+00 -0.00000000000E+00 -0.16771076968E+04  0.16771076968E+04  0.00000000000E+00 0.  1.
         23    2    1    2    0    0  0.41880243645E+03  0.11003749646E+04 -0.99354672413E+03  0.15432285270E+04  0.90546397967E+02 0.  0.
         11    1    3    3    0    0  0.19394657356E+03  0.40579975669E+03 -0.34773054060E+03  0.56851142890E+03  0.00000000000E+00 0.  1.
        -11    1    3    3    0    0  0.22485586289E+03  0.69457520787E+03 -0.64581618352E+03  0.97471709812E+03  0.00000000000E+00 0. -1.
         22    1    1    2    0    0 -0.41880243645E+03 -0.11003749646E+04  0.43918332331E+03  0.12566234658E+04  0.00000000000E+00 0. -1.
<mgrwt>
<rscale>  0 0.27444221E+04</rscale>
<asrwt>0</asrwt>
<pdfrwt beam="1">  1        2 0.17272989E+00 0.27444221E+04</pdfrwt>
<pdfrwt beam="2">  1       -2 0.25801657E+00 0.27444221E+04</pdfrwt>
<totfact> 0.10579381E+00</totfact>
</mgrwt>
</event>
<event>
 6    1  0.1528034E-005  0.8846264E+03  0.7818608E-02  0.9445006E-01
         -1   -1    0    0    0  501 -0.00000000000E+00  0.00000000000E+00  0.12474605375E+03  0.12474605375E+03  0.00000000000E+00 0.  1.
          1   -1    0    0  501    0  0.00000000000E+00 -0.00000000000E+00 -0.15683138275E+04  0.15683138275E+04  0.00000000000E+00 0. -1.
         23    2    1    2    0    0  0.40537333756E+03 -0.12686590153E+03 -0.92824024573E+03  0.10252388267E+04  0.95195578531E+02 0.  0.
         13    1    3    3    0    0  0.28928125513E+03 -0.11500706064E+03 -0.58452182101E+03  0.66225072880E+03  0.00000000000E+00 0.  1.
        -13    1    3    3    0    0  0.11609208244E+03 -0.11858840893E+02 -0.34371842472E+03  0.36298809788E+03  0.00000000000E+00 0. -1.
         22    1    1    2    0    0 -0.40537333756E+03  0.12686590153E+03 -0.51532752798E+03  0.66782105453E+03  0.00000000000E+00 0.  1.
<mgrwt>
<rscale>  0 0.88462639E+03</rscale>
<asrwt>0</asrwt>
<pdfrwt beam="1">  1        1 0.24127904E+00 0.88462639E+03</pdfrwt>
<pdfrwt beam="2">  1       -1 0.19191702E-01 0.88462639E+03</pdfrwt>
<totfact> 0.12994111E+02</totfact>
</mgrwt>
</event>
<event>
 6    1  0.1528034E-005  0.1065851E+04  0.7818608E-02  0.9239131E-01
         -2   -1    0    0    0  501 -0.00000000000E+00  0.00000000000E+00  0.26477071087E+03  0.26477071087E+03  0.00000000000E+00 0.  1.
          2   -1    0    0  501    0  0.00000000000E+00 -0.00000000000E+00 -0.10726616081E+04  0.10726616081E+04  0.00000000000E+00 0. -1.
         23    2    1    2    0    0 -0.19853277735E+03 -0.35316638225E+03  0.20338408494E+02  0.41542063787E+03  0.89548301333E+02 0.  0.
         11    1    3    3    0    0 -0.33008176810E+02 -0.13692102748E+03  0.25059631685E+02  0.14305555789E+03  0.00000000000E+00 0. -1.
        -11    1    3    3    0    0 -0.16552460054E+03 -0.21624535478E+03 -0.47212231912E+01  0.27236507998E+03  0.00000000000E+00 0.  1.
         22    1    1    2    0    0  0.19853277735E+03  0.35316638225E+03 -0.82822930573E+03  0.92201168112E+03  0.00000000000E+00 0. -1.
<mgrwt>
<rscale>  0 0.10658506E+04</rscale>
<asrwt>0</asrwt>
<pdfrwt beam="1">  1        2 0.16502486E+00 0.10658506E+04</pdfrwt>
<pdfrwt beam="2">  1       -2 0.40733955E-01 0.10658506E+04</pdfrwt>
<totfact> 0.12851789E+02</totfact>
</mgrwt>
</event>
<event>
 6    1  0.1528034E-005  0.3095715E+04  0.7818608E-02  0.8216915E-01
         -2   -1    0    0    0  501 -0.00000000000E+00  0.00000000000E+00  0.81170878423E+03  0.81170878423E+03  0.00000000000E+00 0. -1.
          2   -1    0    0  501    0  0.00000000000E+00 -0.00000000000E+00 -0.29516294584E+04  0.29516294584E+04  0.00000000000E+00 0.  1.
         23    2    1    2    0    0 -0.82688388105E+03  0.76600477480E+03 -0.23580808039E+04  0.26152554451E+04  0.92280536933E+02 0.  0.
         13    1    3    3    0    0 -0.44941942886E+03  0.40791718128E+03 -0.13744966778E+04  0.15025363115E+04  0.00000000000E+00 0.  1.
        -13    1    3    3    0    0 -0.37746445219E+03  0.35808759352E+03 -0.98358412610E+03  0.11127191337E+04  0.00000000000E+00 0. -1.
         22    1    1    2    0    0  0.82688388105E+03 -0.76600477480E+03  0.21816012975E+03  0.11480827975E+04  0.00000000000E+00 0. -1.
<mgrwt>
<rscale>  0 0.30957155E+04</rscale>
<asrwt>0</asrwt>
<pdfrwt beam="1">  1        2 0.45409684E+00 0.30957155E+04</pdfrwt>
<pdfrwt beam="2">  1       -2 0.12487827E+00 0.30957155E+04</pdfrwt>
<totfact> 0.76151784E-01</totfact>
</mgrwt>
</event>
<event>
 6    1  0.1528034E-005  0.2298252E+04  0.7818608E-02  0.8478611E-01
         -2   -1    0    0    0  501 -0.00000000000E+00  0.00000000000E+00  0.31402684298E+03  0.31402684298E+03  0.00000000000E+00 0.  1.
          2   -1    0    0  501    0  0.00000000000E+00 -0.00000000000E+00 -0.42050243797E+04  0.42050243797E+04  0.00000000000E+00 0. -1.
         23    2    1    2    0    0  0.48708703559E+03 -0.58111734252E+03 -0.25643672644E+03  0.80623781104E+03  0.96480398378E+02 0.  0.
         13    1    3    3    0    0  0.30587985324E+03 -0.35926605331E+03 -0.10985557540E+03  0.48446138043E+03  0.00000000000E+00 0.  1.
        -13    1    3    3    0    0  0.18120718235E+03 -0.22185128921E+03 -0.14658115104E+03  0.32177643062E+03  0.00000000000E+00 0. -1.
         22    1    1    2    0    0 -0.48708703559E+03  0.58111734252E+03 -0.36345608103E+04  0.37128134116E+04  0.00000000000E+00 0. -1.
<mgrwt>
<rscale>  0 0.22982520E+04</rscale>
<asrwt>0</asrwt>
<pdfrwt beam="1">  1        2 0.64692674E+00 0.22982520E+04</pdfrwt>
<pdfrwt beam="2">  1       -2 0.48311828E-01 0.22982520E+04</pdfrwt>
<totfact> 0.85335671E-01</totfact>
</mgrwt>
</event>
<event>
 6    1  0.1528034E-005  0.8805755E+03  0.7818608E-02  0.9450194E-01
         -2   -1    0    0    0  501 -0.00000000000E+00  0.00000000000E+00  0.33197359111E+03  0.33197359111E+03  0.00000000000E+00 0.  1.
          2   -1    0    0  501    0  0.00000000000E+00 -0.00000000000E+00 -0.58394188179E+03  0.58394188179E+03  0.00000000000E+00 0. -1.
         23    2    1    2    0    0  0.36791537140E+02  0.16925556818E+03 -0.54295076210E+03  0.57728313062E+03  0.91974008664E+02 0.  0.
         13    1    3    3    0    0  0.23877164859E+02  0.32506973686E+02 -0.25592594135E+03  0.25908475408E+03  0.00000000000E+00 0. -1.
        -13    1    3    3    0    0  0.12914372281E+02  0.13674859450E+03 -0.28702482074E+03  0.31819837654E+03  0.00000000000E+00 0.  1.
         22    1    1    2    0    0 -0.36791537140E+02 -0.16925556818E+03  0.29098247141E+03  0.33863234228E+03  0.00000000000E+00 0.  1.
<mgrwt>
<rscale>  0 0.88057546E+03</rscale>
<asrwt>0</asrwt>
<pdfrwt beam="1">  1        2 0.89837212E-01 0.88057546E+03</pdfrwt>
<pdfrwt beam="2">  1       -2 0.51072861E-01 0.88057546E+03</pdfrwt>
<totfact> 0.18647560E+02</totfact>
</mgrwt>
</event>
<event>
 6    1  0.1528034E-005  0.2401345E+04  0.7818608E-02  0.8439000E-01
          3   -1    0    0  501    0  0.00000000000E+00  0.00000000000E+00  0.18584143034E+04  0.18584143034E+04  0.00000000000E+00 0. -1.
         -3   -1    0    0    0  501 -0.00000000000E+00 -0.00000000000E+00 -0.77572259353E+03  0.77572259353E+03  0.00000000000E+00 0.  1.
         23    2    1    2    0    0 -0.85179347919E+03  0.41867953427E+03  0.13454981119E+04  0.16492958495E+04  0.94693961923E+02 0.  0.
         13    1    3    3    0    0 -0.39269265594E+03  0.19694062881E+03  0.70466165900E+03  0.83038616738E+03  0.00000000000E+00 0. -1.
        -13    1    3    3    0    0 -0.45910082325E+03  0.22173890546E+03  0.64083645294E+03  0.81890968215E+03  0.00000000000E+00 0.  1.
         22    1    1    2    0    0  0.85179347919E+03 -0.41867953427E+03 -0.26280640210E+03  0.98484104737E+03  0.00000000000E+00 0.  1.
<mgrwt>
<rscale>  0 0.24013446E+04</rscale>
<asrwt>0</asrwt>
<pdfrwt beam="1">  1        3 0.28590989E+00 0.24013446E+04</pdfrwt>
<pdfrwt beam="2">  1       -3 0.11934194E+00 0.24013446E+04</pdfrwt>
<totfact> 0.62196606E-02</totfact>
</mgrwt>
</event>
<event>
 6    1  0.1528034E-005  0.1720495E+04  0.7818608E-02  0.8749761E-01
         -2   -1    0    0    0  501 -0.00000000000E+00  0.00000000000E+00  0.67340990378E+03  0.67340990378E+03  0.00000000000E+00 0.  1.
          2   -1    0    0  501    0  0.00000000000E+00 -0.00000000000E+00 -0.10989233130E+04  0.10989233130E+04  0.00000000000E+00 0. -1.
         23    2    1    2    0    0 -0.11813352983E+03 -0.75182890732E+03  0.19439712779E+03  0.79075728457E+03  0.91129594876E+02 0.  0.
         11    1    3    3    0    0 -0.88237585394E+02 -0.28163612121E+03  0.83946220738E+02  0.30684156209E+03  0.00000000000E+00 0.  1.
        -11    1    3    3    0    0 -0.29895944431E+02 -0.47019278611E+03  0.11045090705E+03  0.48391572249E+03  0.00000000000E+00 0. -1.
         22    1    1    2    0    0  0.11813352983E+03  0.75182890732E+03 -0.61991053698E+03  0.98157593217E+03  0.00000000000E+00 0.  1.
<mgrwt>
<rscale>  0 0.17204951E+04</rscale>
<asrwt>0</asrwt>
<pdfrwt beam="1">  1        2 0.16906512E+00 0.17204951E+04</pdfrwt>
<pdfrwt beam="2">  1       -2 0.10360153E+00 0.17204951E+04</pdfrwt>
<totfact> 0.15738598E+01</totfact>
</mgrwt>
</event>
<event>
 6    1  0.1528034E-005  0.3091647E+04  0.7818608E-02  0.8218034E-01
         -1   -1    0    0    0  501 -0.00000000000E+00  0.00000000000E+00  0.16637278414E+04  0.16637278414E+04  0.00000000000E+00 0.  1.
          1   -1    0    0  501    0  0.00000000000E+00 -0.00000000000E+00 -0.14362744549E+04  0.14362744549E+04  0.00000000000E+00 0. -1.
         23    2    1    2    0    0 -0.64807996018E+03  0.51878889624E+03 -0.11919946324E+04  0.14556233157E+04  0.94013190496E+02 0.  0.
         13    1    3    3    0    0 -0.78092174873E+02  0.10599181036E+03 -0.18291754339E+03  0.22536965040E+03  0.00000000000E+00 0. -1.
        -13    1    3    3    0    0 -0.56998778531E+03  0.41279708588E+03 -0.10090770890E+04  0.12302536653E+04  0.00000000000E+00 0.  1.
         22    1    1    2    0    0  0.64807996018E+03 -0.51878889624E+03  0.14194480189E+04  0.16443789806E+04  0.00000000000E+00 0.  1.
<mgrwt>
<rscale>  0 0.30916467E+04</rscale>
<asrwt>0</asrwt>
<pdfrwt beam="1">  1        1 0.22096530E+00 0.30916467E+04</pdfrwt>
<pdfrwt beam="2">  1       -1 0.25595813E+00 0.30916467E+04</pdfrwt>
<totfact> 0.39003466E-01</totfact>
</mgrwt>
</event>
<event>
 6    1  0.1528034E-005  0.2566407E+04  0.7818608E-02  0.8379702E-01
          2   -1    0    0  501    0  0.00000000000E+00  0.00000000000E+00  0.28417444208E+04  0.28417444208E+04  0.00000000000E+00 0. -1.
         -2   -1    0    0    0  501 -0.00000000000E+00 -0.00000000000E+00 -0.57943696459E+03  0.57943696459E+03  0.00000000000E+00 0.  1.
         23    2    1    2    0    0  0.64256539655E+03  0.74081786998E+03  0.32638509656E+02  0.98538069227E+03  0.90600392200E+02 0.  0.
         13    1    3    3    0    0  0.25719648147E+03  0.29671207178E+03 -0.31328177254E+02  0.39391564873E+03  0.00000000000E+00 0.  1.
        -13    1    3    3    0    0  0.38536891507E+03  0.44410579820E+03  0.63966686910E+02  0.59146504354E+03  0.00000000000E+00 0. -1.
         22    1    1    2    0    0 -0.64256539655E+03 -0.74081786998E+03  0.22296689465E+04  0.24358006931E+04  0.00000000000E+00 0. -1.
<mgrwt>
<rscale>  0 0.25664074E+04</rscale>
<asrwt>0</asrwt>
<pdfrwt beam="1">  1        2 0.43719144E+00 0.25664074E+04</pdfrwt>
<pdfrwt beam="2">  1       -2 0.89144150E-01 0.25664074E+04</pdfrwt>
<totfact> 0.20899809E+00</totfact>
</mgrwt>
</event>
<event>
 6    1  0.1528034E-005  0.3341961E+04  0.7818608E-02  0.8152300E-01
          2   -1    0    0  501    0  0.00000000000E+00  0.00000000000E+00  0.17384076465E+04  0.17384076465E+04  0.00000000000E+00 0. -1.
         -2   -1    0    0    0  501 -0.00000000000E+00 -0.00000000000E+00 -0.16061684242E+04  0.16061684242E+04  0.00000000000E+00 0.  1.
         23    2    1    2    0    0 -0.10773185788E+03 -0.48955724419E+03 -0.15277836361E+04  0.16105206104E+04  0.91549710134E+02 0.  0.
         11    1    3    3    0    0 -0.28308575103E+02 -0.13842014936E+03 -0.31082394359E+03  0.34142793834E+03  0.00000000000E+00 0. -1.
        -11    1    3    3    0    0 -0.79423282774E+02 -0.35113709483E+03 -0.12169596925E+04  0.12690926721E+04  0.00000000000E+00 0.  1.
         22    1    1    2    0    0  0.10773185788E+03  0.48955724419E+03  0.16600228585E+04  0.17340554603E+04  0.00000000000E+00 0. -1.
<mgrwt>
<rscale>  0 0.33419608E+04</rscale>
<asrwt>0</asrwt>
<pdfrwt beam="1">  1        2 0.26744733E+00 0.33419608E+04</pdfrwt>
<pdfrwt beam="2">  1       -2 0.24710284E+00 0.33419608E+04</pdfrwt>
<totfact> 0.52035920E-01</totfact>
</mgrwt>
</event>
<event>
 6    1  0.1528034E-005  0.5354834E+04  0.7818608E-02  0.7775986E-01
         -2   -1    0    0    0  501 -0.00000000000E+00  0.00000000000E+00  0.19593434665E+04  0.19593434665E+04  0.00000000000E+00 0.  1.
          2   -1    0    0  501    0  0.00000000000E+00 -0.00000000000E+00 -0.36586544925E+04  0.36586544925E+04  0.00000000000E+00 0. -1.
         23    2    1    2    0    0 -0.91792825136E+03  0.17518122828E+04 -0.27420715073E+04  0.33822010160E+04  0.94281560754E+02 0.  0.
         11    1    3    3    0    0 -0.11686659251E+03  0.22435164966E+03 -0.29918697197E+03  0.39179625744E+03  0.00000000000E+00 0.  1.
        -11    1    3    3    0    0 -0.80106165885E+03  0.15274606332E+04 -0.24428845353E+04  0.29904047585E+04  0.00000000000E+00 0. -1.
         22    1    1    2    0    0  0.91792825136E+03 -0.17518122828E+04  0.10427604813E+04  0.22357969430E+04  0.00000000000E+00 0.  1.
<mgrwt>
<rscale>  0 0.53548336E+04</rscale>
<asrwt>0</asrwt>
<pdfrwt beam="1">  1        2 0.56286991E+00 0.53548336E+04</pdfrwt>
<pdfrwt beam="2">  1       -2 0.30143746E+00 0.53548336E+04</pdfrwt>
<totfact> 0.13762999E-02</totfact>
</mgrwt>
</event>
<event>
 6    1  0.1528034E-005  0.3170344E+04  0.7818608E-02  0.8196693E-01
          4   -1    0    0  501    0  0.00000000000E+00  0.00000000000E+00  0.14727877358E+04  0.14727877358E+04  0.00000000000E+00 0. -1.
         -4   -1    0    0    0  501 -0.00000000000E+00 -0.00000000000E+00 -0.17061320732E+04  0.17061320732E+04  0.00000000000E+00 0.  1.
         23    2    1    2    0    0 -0.12668785940E+04  0.57229891310E+03 -0.87775606334E+03  0.16466750862E+04  0.92605156409E+02 0.  0.
         13    1    3    3    0    0 -0.10930416882E+04  0.50221300490E+03 -0.79443416309E+03  0.14415559906E+04  0.00000000000E+00 0.  1.
        -13    1    3    3    0    0 -0.17383690578E+03  0.70085908197E+02 -0.83321900253E+02  0.20511909565E+03  0.00000000000E+00 0. -1.
         22    1    1    2    0    0  0.12668785940E+04 -0.57229891310E+03  0.64441172598E+03  0.15322447228E+04  0.00000000000E+00 0. -1.
<mgrwt>
<rscale>  0 0.31703441E+04</rscale>
<asrwt>0</asrwt>
<pdfrwt beam="1">  1        4 0.22658273E+00 0.31703441E+04</pdfrwt>
<pdfrwt beam="2">  1       -4 0.26248186E+00 0.31703441E+04</pdfrwt>
<totfact> 0.78219748E-03</totfact>
</mgrwt>
</event>
<event>
 6    1  0.1528034E-005  0.5071347E+04  0.7818608E-02  0.7817595E-01
          2   -1    0    0  501    0  0.00000000000E+00  0.00000000000E+00  0.29280270208E+04  0.29280270208E+04  0.00000000000E+00 0. -1.
         -2   -1    0    0    0  501 -0.00000000000E+00 -0.00000000000E+00 -0.21958951092E+04  0.21958951092E+04  0.00000000000E+00 0.  1.
         23    2    1    2    0    0  0.26244459777E+03  0.12966824018E+04  0.25508292219E+04  0.28749396213E+04  0.91025759088E+02 0.  0.
         13    1    3    3    0    0  0.21377746582E+03  0.11808666144E+04  0.22873587544E+04  0.25830518456E+04  0.00000000000E+00 0. -1.
        -13    1    3    3    0    0  0.48667131956E+02  0.11581578743E+03  0.26347046748E+03  0.29188777567E+03  0.00000000000E+00 0.  1.
         22    1    1    2    0    0 -0.26244459777E+03 -0.12966824018E+04 -0.18186973102E+04  0.22489825087E+04  0.00000000000E+00 0.  1.
<mgrwt>
<rscale>  0 0.50713470E+04</rscale>
<asrwt>0</asrwt>
<pdfrwt beam="1">  1        2 0.45046569E+00 0.50713470E+04</pdfrwt>
<pdfrwt beam="2">  1       -2 0.33783002E+00 0.50713470E+04</pdfrwt>
<totfact> 0.25919657E-02</totfact>
</mgrwt>
</event>
<event>
 6    1  0.1528034E-005  0.3178479E+04  0.7818608E-02  0.8194524E-01
         -2   -1    0    0    0  501 -0.00000000000E+00  0.00000000000E+00  0.89733832609E+03  0.89733832609E+03  0.00000000000E+00 0. -1.
          2   -1    0    0  501    0  0.00000000000E+00 -0.00000000000E+00 -0.28146373608E+04  0.28146373608E+04  0.00000000000E+00 0.  1.
         23    2    1    2    0    0 -0.97042517554E+03 -0.75363805270E+03  0.21526754536E+03  0.12507695691E+04  0.91591828827E+02 0.  0.
         13    1    3    3    0    0 -0.23573151415E+03 -0.14769548491E+03  0.75423529876E+02  0.28822215717E+03  0.00000000000E+00 0.  1.
        -13    1    3    3    0    0 -0.73469366140E+03 -0.60594256779E+03  0.13984401548E+03  0.96254741194E+03  0.00000000000E+00 0. -1.
         22    1    1    2    0    0  0.97042517554E+03  0.75363805270E+03 -0.21325665801E+04  0.24612061178E+04  0.00000000000E+00 0.  1.
<mgrwt>
<rscale>  0 0.31784789E+04</rscale>
<asrwt>0</asrwt>
<pdfrwt beam="1">  1        2 0.43302113E+00 0.31784789E+04</pdfrwt>
<pdfrwt beam="2">  1       -2 0.13805205E+00 0.31784789E+04</pdfrwt>
<totfact> 0.71149669E-01</totfact>
</mgrwt>
</event>
<event>
 6    1  0.1528034E-005  0.2846690E+04  0.7818608E-02  0.8288918E-01
         -1   -1    0    0    0  501 -0.00000000000E+00  0.00000000000E+00  0.52619559550E+03  0.52619559550E+03  0.00000000000E+00 0.  1.
          1   -1    0    0  501    0  0.00000000000E+00 -0.00000000000E+00 -0.38501093751E+04  0.38501093751E+04  0.00000000000E+00 0. -1.
         23    2    1    2    0    0 -0.99007878146E+03  0.98071953552E+02 -0.32253122903E+04  0.33765068134E+04  0.91020818043E+02 0.  0.
         11    1    3    3    0    0 -0.72188828223E+03  0.48604167524E+02 -0.24518104961E+04  0.25563371776E+04  0.00000000000E+00 0.  1.
        -11    1    3    3    0    0 -0.26819049923E+03  0.49467786027E+02 -0.77350179422E+03  0.82016963574E+03  0.00000000000E+00 0. -1.
         22    1    1    2    0    0  0.99007878146E+03 -0.98071953552E+02 -0.98601489345E+02  0.99979815726E+03  0.00000000000E+00 0.  1.
<mgrwt>
<rscale>  0 0.28466897E+04</rscale>
<asrwt>0</asrwt>
<pdfrwt beam="1">  1        1 0.59232452E+00 0.28466897E+04</pdfrwt>
<pdfrwt beam="2">  1       -1 0.80953168E-01 0.28466897E+04</pdfrwt>
<totfact> 0.16955588E-01</totfact>
</mgrwt>
</event>
<event>
 6    1  0.1528034E-005  0.7261754E+04  0.7818608E-02  0.7551027E-01
          2   -1    0    0  501    0  0.00000000000E+00  0.00000000000E+00  0.33306373310E+04  0.33306373310E+04  0.00000000000E+00 0. -1.
         -2   -1    0    0    0  501 -0.00000000000E+00 -0.00000000000E+00 -0.39581816894E+04  0.39581816894E+04  0.00000000000E+00 0.  1.
         23    2    1    2    0    0 -0.17377935460E+04 -0.30518463250E+04 -0.12366628960E+04  0.37244512234E+04  0.92246393431E+02 0.  0.
         11    1    3    3    0    0 -0.14756557399E+04 -0.26487360955E+04 -0.10824105781E+04  0.32194681899E+04  0.00000000000E+00 0.  1.
        -11    1    3    3    0    0 -0.26213780609E+03 -0.40311022947E+03 -0.15425231791E+03  0.50498303345E+03  0.00000000000E+00 0. -1.
         22    1    1    2    0    0  0.17377935460E+04  0.30518463250E+04  0.60911853756E+03  0.35643677970E+04  0.00000000000E+00 0. -1.
<mgrwt>
<rscale>  0 0.72617540E+04</rscale>
<asrwt>0</asrwt>
<pdfrwt beam="1">  1        2 0.51240575E+00 0.72617540E+04</pdfrwt>
<pdfrwt beam="2">  1       -2 0.60895103E+00 0.72617540E+04</pdfrwt>
<totfact> 0.31393985E-04</totfact>
</mgrwt>
</event>
<event>
 6    1  0.1528034E-005  0.1283776E+04  0.7818608E-02  0.9042531E-01
          2   -1    0    0  501    0  0.00000000000E+00  0.00000000000E+00  0.29912909451E+04  0.29912909451E+04  0.00000000000E+00 0. -1.
         -2   -1    0    0    0  501 -0.00000000000E+00 -0.00000000000E+00 -0.13773987724E+03  0.13773987724E+03  0.00000000000E+00 0.  1.
         23    2    1    2    0    0 -0.40830575811E+03 -0.35417627697E+03  0.22631630315E+04  0.23285856583E+04  0.90828592674E+02 0.  0.
         11    1    3    3    0    0 -0.35360844529E+03 -0.26756855770E+03  0.19148049203E+04  0.19654795212E+04  0.00000000000E+00 0. -1.
        -11    1    3    3    0    0 -0.54697312824E+02 -0.86607719270E+02  0.34835811126E+03  0.36310613702E+03  0.00000000000E+00 0.  1.
         22    1    1    2    0    0  0.40830575811E+03  0.35417627697E+03  0.59038803630E+03  0.80044516407E+03  0.00000000000E+00 0.  1.
<mgrwt>
<rscale>  0 0.12837758E+04</rscale>
<asrwt>0</asrwt>
<pdfrwt beam="1">  1        2 0.46019856E+00 0.12837758E+04</pdfrwt>
<pdfrwt beam="2">  1       -2 0.21190753E-01 0.12837758E+04</pdfrwt>
<totfact> 0.33784012E+01</totfact>
</mgrwt>
</event>
<event>
 6    1  0.1528034E-005  0.1398566E+04  0.7818608E-02  0.8954857E-01
         -1   -1    0    0    0  501 -0.00000000000E+00  0.00000000000E+00  0.32815614675E+03  0.32815614675E+03  0.00000000000E+00 0.  1.
          1   -1    0    0  501    0  0.00000000000E+00 -0.00000000000E+00 -0.14901347420E+04  0.14901347420E+04  0.00000000000E+00 0. -1.
         23    2    1    2    0    0 -0.48513149034E+03  0.49493273057E+03 -0.67061195120E+03  0.96873091465E+03  0.91696375062E+02 0.  0.
         13    1    3    3    0    0 -0.15296129869E+03  0.18716782586E+03 -0.28720087033E+03  0.37538419500E+03  0.00000000000E+00 0. -1.
        -13    1    3    3    0    0 -0.33217019165E+03  0.30776490471E+03 -0.38341108086E+03  0.59334671965E+03  0.00000000000E+00 0.  1.
         22    1    1    2    0    0  0.48513149034E+03 -0.49493273057E+03 -0.49136664407E+03  0.84955997411E+03  0.00000000000E+00 0. -1.
<mgrwt>
<rscale>  0 0.13985662E+04</rscale>
<asrwt>0</asrwt>
<pdfrwt beam="1">  1        1 0.22925150E+00 0.13985662E+04</pdfrwt>
<pdfrwt beam="2">  1       -1 0.50485560E-01 0.13985662E+04</pdfrwt>
<totfact> 0.25534926E+01</totfact>
</mgrwt>
</event>
<event>
 6    1  0.1528034E-005  0.7527058E+03  0.7818608E-02  0.9631115E-01
          1   -1    0    0  501    0  0.00000000000E+00  0.00000000000E+00  0.43139402518E+03  0.43139402518E+03  0.00000000000E+00 0. -1.
         -1   -1    0    0    0  501 -0.00000000000E+00 -0.00000000000E+00 -0.32833440088E+03  0.32833440088E+03  0.00000000000E+00 0.  1.
         23    2    1    2    0    0 -0.12785453102E+03  0.34652407393E+03  0.86301986526E+02  0.38998995993E+03  0.90655507555E+02 0.  0.
         11    1    3    3    0    0 -0.24775895031E+02  0.19726038914E+03  0.49893457748E+02  0.20497527467E+03  0.00000000000E+00 0. -1.
        -11    1    3    3    0    0 -0.10307863599E+03  0.14926368479E+03  0.36408528777E+02  0.18501468526E+03  0.00000000000E+00 0.  1.
         22    1    1    2    0    0  0.12785453102E+03 -0.34652407393E+03  0.16757637774E+02  0.36973846613E+03  0.00000000000E+00 0. -1.
<mgrwt>
<rscale>  0 0.75270578E+03</rscale>
<asrwt>0</asrwt>
<pdfrwt beam="1">  1        1 0.66368312E-01 0.75270578E+03</pdfrwt>
<pdfrwt beam="2">  1       -1 0.50512985E-01 0.75270578E+03</pdfrwt>
<totfact> 0.21615179E+02</totfact>
</mgrwt>
</event>
<event>
 6    1  0.1528034E-005  0.2828419E+04  0.7818608E-02  0.8294499E-01
          2   -1    0    0  501    0  0.00000000000E+00  0.00000000000E+00  0.25446917555E+04  0.25446917555E+04  0.00000000000E+00 0.  1.
         -2   -1    0    0    0  501 -0.00000000000E+00 -0.00000000000E+00 -0.78594508829E+03  0.78594508829E+03  0.00000000000E+00 0. -1.
         23    2    1    2    0    0 -0.11557713521E+04  0.21394988133E+03 -0.43098130657E+02  0.11793054779E+04  0.85568634699E+02 0.  0.
         11    1    3    3    0    0 -0.10431748215E+04  0.21790344425E+03 -0.44716241030E+02  0.10666279396E+04  0.00000000000E+00 0.  1.
        -11    1    3    3    0    0 -0.11259653064E+03 -0.39535629115E+01  0.16181103735E+01  0.11267753836E+03  0.00000000000E+00 0. -1.
         22    1    1    2    0    0  0.11557713521E+04 -0.21394988133E+03  0.18018447979E+04  0.21513313659E+04  0.00000000000E+00 0.  1.
<mgrwt>
<rscale>  0 0.28284186E+04</rscale>
<asrwt>0</asrwt>
<pdfrwt beam="1">  1        2 0.39149104E+00 0.28284186E+04</pdfrwt>
<pdfrwt beam="2">  1       -2 0.12091463E+00 0.28284186E+04</pdfrwt>
<totfact> 0.14827969E+00</totfact>
</mgrwt>
</event>
<event>
 6    1  0.1528034E-005  0.3571687E+04  0.7818608E-02  0.8097008E-01
          2   -1    0    0  501    0  0.00000000000E+00  0.00000000000E+00  0.26155016514E+04  0.26155016514E+04  0.00000000000E+00 0. -1.
         -2   -1    0    0    0  501 -0.00000000000E+00 -0.00000000000E+00 -0.12193594312E+04  0.12193594312E+04  0.00000000000E+00 0.  1.
         23    2    1    2    0    0  0.11013552616E+04 -0.49566558209E+02  0.22053557796E+04  0.24672840864E+04  0.91958644348E+02 0.  0.
         11    1    3    3    0    0  0.84788634833E+03  0.20068963747E+00  0.16759735507E+04  0.18782434993E+04  0.00000000000E+00 0.  1.
        -11    1    3    3    0    0  0.25346891324E+03 -0.49767247846E+02  0.52938222887E+03  0.58904058704E+03  0.00000000000E+00 0. -1.
         22    1    1    2    0    0 -0.11013552616E+04  0.49566558209E+02 -0.80921355943E+03  0.13675769962E+04  0.00000000000E+00 0.  1.
<mgrwt>
<rscale>  0 0.35716868E+04</rscale>
<asrwt>0</asrwt>
<pdfrwt beam="1">  1        2 0.40238487E+00 0.35716868E+04</pdfrwt>
<pdfrwt beam="2">  1       -2 0.18759376E+00 0.35716868E+04</pdfrwt>
<totfact> 0.39161382E-01</totfact>
</mgrwt>
</event>
<event>
 6    1  0.1528034E-005  0.2106417E+04  0.7818608E-02  0.8558422E-01
          2   -1    0    0  501    0  0.00000000000E+00  0.00000000000E+00  0.41469811838E+03  0.41469811838E+03  0.00000000000E+00 0. -1.
         -2   -1    0    0    0  501 -0.00000000000E+00 -0.00000000000E+00 -0.26748316003E+04  0.26748316003E+04  0.00000000000E+00 0.  1.
         23    2    1    2    0    0 -0.10206320880E+04  0.45762038900E+02 -0.76864073554E+03  0.12816761196E+04  0.90005954636E+02 0.  0.
         13    1    3    3    0    0 -0.32918927276E+03  0.41197048100E+02 -0.20882016286E+03  0.39200591129E+03  0.00000000000E+00 0. -1.
        -13    1    3    3    0    0 -0.69144281525E+03  0.45649908003E+01 -0.55982057268E+03  0.88967020828E+03  0.00000000000E+00 0.  1.
         22    1    1    2    0    0  0.10206320880E+04 -0.45762038900E+02 -0.14914927464E+04  0.18078535991E+04  0.00000000000E+00 0.  1.
<mgrwt>
<rscale>  0 0.21064165E+04</rscale>
<asrwt>0</asrwt>
<pdfrwt beam="1">  1        2 0.63799713E-01 0.21064165E+04</pdfrwt>
<pdfrwt beam="2">  1       -2 0.41151254E+00 0.21064165E+04</pdfrwt>
<totfact> 0.43944631E-01</totfact>
</mgrwt>
</event>
<event>
 6    1  0.1528034E-005  0.1627799E+04  0.7818608E-02  0.8803650E-01
         -1   -1    0    0    0  501 -0.00000000000E+00  0.00000000000E+00  0.37185632763E+03  0.37185632763E+03  0.00000000000E+00 0.  1.
          1   -1    0    0  501    0  0.00000000000E+00 -0.00000000000E+00 -0.17814200517E+04  0.17814200517E+04  0.00000000000E+00 0. -1.
         23    2    1    2    0    0 -0.80606242933E+03  0.76990536368E+02 -0.77388244804E+03  0.11238324191E+04  0.91875350753E+02 0.  0.
         11    1    3    3    0    0 -0.12088256551E+03  0.42405554389E+02 -0.10447274469E+03  0.16530390216E+03  0.00000000000E+00 0.  1.
        -11    1    3    3    0    0 -0.68517986382E+03  0.34584981979E+02 -0.66940970336E+03  0.95852851690E+03  0.00000000000E+00 0. -1.
         22    1    1    2    0    0  0.80606242933E+03 -0.76990536368E+02 -0.63568127603E+03  0.10294439603E+04  0.00000000000E+00 0. -1.
<mgrwt>
<rscale>  0 0.16277989E+04</rscale>
<asrwt>0</asrwt>
<pdfrwt beam="1">  1        1 0.27406462E+00 0.16277989E+04</pdfrwt>
<pdfrwt beam="2">  1       -1 0.57208667E-01 0.16277989E+04</pdfrwt>
<totfact> 0.12424425E+01</totfact>
</mgrwt>
</event>
<event>
 6    1  0.1528034E-005  0.2085957E+04  0.7818608E-02  0.8567455E-01
         -1   -1    0    0    0  501 -0.00000000000E+00  0.00000000000E+00  0.55679120098E+03  0.55679120098E+03  0.00000000000E+00 0.  1.
          1   -1    0    0  501    0  0.00000000000E+00 -0.00000000000E+00 -0.19537024406E+04  0.19537024406E+04  0.00000000000E+00 0. -1.
         23    2    1    2    0    0  0.10369626000E+04 -0.37852046050E+01 -0.81241054128E+03  0.13201378847E+04  0.86298234499E+02 0.  0.
         13    1    3    3    0    0  0.98462692431E+03  0.71018762370E+01 -0.78904936246E+03  0.12618001082E+04  0.00000000000E+00 0. -1.
        -13    1    3    3    0    0  0.52335675728E+02 -0.10887080842E+02 -0.23361178818E+02  0.58337776431E+02  0.00000000000E+00 0.  1.
         22    1    1    2    0    0 -0.10369626000E+04  0.37852046050E+01 -0.58450069835E+03  0.11903557569E+04  0.00000000000E+00 0.  1.
<mgrwt>
<rscale>  0 0.20859572E+04</rscale>
<asrwt>0</asrwt>
<pdfrwt beam="1">  1        1 0.30056960E+00 0.20859572E+04</pdfrwt>
<pdfrwt beam="2">  1       -1 0.85660185E-01 0.20859572E+04</pdfrwt>
<totfact> 0.39707781E+00</totfact>
</mgrwt>
</event>
<event>
 6    1  0.1528034E-005  0.1024990E+04  0.7818608E-02  0.9281553E-01
         -1   -1    0    0    0  501 -0.00000000000E+00  0.00000000000E+00  0.37456784276E+03  0.37456784276E+03  0.00000000000E+00 0.  1.
          1   -1    0    0  501    0  0.00000000000E+00 -0.00000000000E+00 -0.70121078591E+03  0.70121078591E+03  0.00000000000E+00 0. -1.
         23    2    1    2    0    0 -0.37834799681E+03 -0.25342813480E+03  0.74767373518E+02  0.46873392806E+03  0.82148091753E+02 0.  0.
         11    1    3    3    0    0 -0.21849502610E+03 -0.10562176172E+03  0.15921824002E+02  0.24320677922E+03  0.00000000000E+00 0. -1.
        -11    1    3    3    0    0 -0.15985297071E+03 -0.14780637308E+03  0.58845549516E+02  0.22552714884E+03  0.00000000000E+00 0.  1.
         22    1    1    2    0    0  0.37834799681E+03  0.25342813480E+03 -0.40141031667E+03  0.60704470060E+03  0.00000000000E+00 0. -1.
<mgrwt>
<rscale>  0 0.10249898E+04</rscale>
<asrwt>0</asrwt>
<pdfrwt beam="1">  1        1 0.10787858E+00 0.10249898E+04</pdfrwt>
<pdfrwt beam="2">  1       -1 0.57625823E-01 0.10249898E+04</pdfrwt>
<totfact> 0.82978659E+01</totfact>
</mgrwt>
</event>
<event>
 6    1  0.1528034E-005  0.1951745E+04  0.7818608E-02  0.8629520E-01
         -2   -1    0    0    0  501 -0.00000000000E+00  0.00000000000E+00  0.31497179929E+03  0.31497179929E+03  0.00000000000E+00 0.  1.
          2   -1    0    0  501    0  0.00000000000E+00 -0.00000000000E+00 -0.30235304638E+04  0.30235304638E+04  0.00000000000E+00 0. -1.
         23    2    1    2    0    0 -0.94410973375E+02 -0.60826002110E+03 -0.67080101580E+02  0.62625177990E+03  0.93796943696E+02 0.  0.
         13    1    3    3    0    0 -0.78513399742E+02 -0.22409806659E+03 -0.40096451069E+02  0.24081532920E+03  0.00000000000E+00 0.  1.
        -13    1    3    3    0    0 -0.15897573633E+02 -0.38416195451E+03 -0.26983650511E+02  0.38543645071E+03  0.00000000000E+00 0. -1.
         22    1    1    2    0    0  0.94410973375E+02  0.60826002110E+03 -0.26414785629E+04  0.27122504832E+04  0.00000000000E+00 0. -1.
<mgrwt>
<rscale>  0 0.19517447E+04</rscale>
<asrwt>0</asrwt>
<pdfrwt beam="1">  1        2 0.46515852E+00 0.19517447E+04</pdfrwt>
<pdfrwt beam="2">  1       -2 0.48457201E-01 0.19517447E+04</pdfrwt>
<totfact> 0.63491868E+00</totfact>
</mgrwt>
</event>
<event>
 6    1  0.1626250E-005  0.3910738E+04  0.7818608E-02  0.8022800E-01
         -1   -1    0    0    0  501 -0.00000000000E+00  0.00000000000E+00  0.15866487742E+04  0.15866487742E+04  0.00000000000E+00 0.  1.
          1   -1    0    0  501    0  0.00000000000E+00 -0.00000000000E+00 -0.24097753712E+04  0.24097753712E+04  0.00000000000E+00 0. -1.
         23    2    1    2    0    0  0.52115393567E+03  0.16145672767E+04 -0.14029306203E+04  0.22034931313E+04  0.93481220845E+02 0.  0.
         11    1    3    3    0    0  0.28534576427E+03  0.98476162219E+03 -0.80333225810E+03  0.13025054221E+04  0.00000000000E+00 0. -1.
        -11    1    3    3    0    0  0.23580817140E+03  0.62980565452E+03 -0.59959836225E+03  0.90098770923E+03  0.00000000000E+00 0.  1.
         22    1    1    2    0    0 -0.52115393567E+03 -0.16145672767E+04  0.57980402335E+03  0.17929310141E+04  0.00000000000E+00 0.  1.
<mgrwt>
<rscale>  0 0.39107376E+04</rscale>
<asrwt>0</asrwt>
<pdfrwt beam="1">  1        1 0.37073467E+00 0.39107376E+04</pdfrwt>
<pdfrwt beam="2">  1       -1 0.24409981E+00 0.39107376E+04</pdfrwt>
<totfact> 0.93975802E-02</totfact>
</mgrwt>
</event>
<event>
 6    1  0.1528034E-005  0.1934851E+04  0.7818608E-02  0.8637701E-01
         -1   -1    0    0    0  501 -0.00000000000E+00  0.00000000000E+00  0.78538163867E+03  0.78538163867E+03  0.00000000000E+00 0.  1.
          1   -1    0    0  501    0  0.00000000000E+00 -0.00000000000E+00 -0.11916650688E+04  0.11916650688E+04  0.00000000000E+00 0. -1.
         23    2    1    2    0    0 -0.75653645544E+03  0.29205064101E+03  0.33196619436E+03  0.88039111277E+03  0.85123274919E+02 0.  0.
         11    1    3    3    0    0 -0.39231644459E+03  0.14378422445E+03  0.12568329907E+03  0.43632830250E+03  0.00000000000E+00 0. -1.
        -11    1    3    3    0    0 -0.36422001085E+03  0.14826641656E+03  0.20628289528E+03  0.44406281028E+03  0.00000000000E+00 0.  1.
         22    1    1    2    0    0  0.75653645544E+03 -0.29205064101E+03 -0.73824962446E+03  0.10966555947E+04  0.00000000000E+00 0. -1.
<mgrwt>
<rscale>  0 0.19348508E+04</rscale>
<asrwt>0</asrwt>
<pdfrwt beam="1">  1        1 0.18333309E+00 0.19348508E+04</pdfrwt>
<pdfrwt beam="2">  1       -1 0.12082795E+00 0.19348508E+04</pdfrwt>
<totfact> 0.61542329E+00</totfact>
</mgrwt>
</event>
<event>
 6    1  0.1528034E-005  0.4606325E+04  0.7818608E-02  0.7892282E-01
         -1   -1    0    0    0  501 -0.00000000000E+00  0.00000000000E+00  0.12416358392E+04  0.12416358392E+04  0.00000000000E+00 0.  1.
          1   -1    0    0  501    0  0.00000000000E+00 -0.00000000000E+00 -0.42722334879E+04  0.42722334879E+04  0.00000000000E+00 0. -1.
         23    2    1    2    0    0  0.14472489530E+04 -0.10143244834E+04  0.25066713309E+03  0.17869292609E+04  0.83057102168E+02 0.  0.
         11    1    3    3    0    0  0.10434365658E+04 -0.70851144563E+03  0.21166866551E+03  0.12788870003E+04  0.00000000000E+00 0.  1.
        -11    1    3    3    0    0  0.40381238718E+03 -0.30581303773E+03  0.38998467584E+02  0.50804226061E+03  0.00000000000E+00 0. -1.
         22    1    1    2    0    0 -0.14472489530E+04  0.10143244834E+04 -0.32812647817E+04  0.37269400662E+04  0.00000000000E+00 0. -1.
<mgrwt>
<rscale>  0 0.46063253E+04</rscale>
<asrwt>0</asrwt>
<pdfrwt beam="1">  1        1 0.65726668E+00 0.46063253E+04</pdfrwt>
<pdfrwt beam="2">  1       -1 0.19102090E+00 0.46063253E+04</pdfrwt>
<totfact> 0.69662302E-03</totfact>
</mgrwt>
</event>
<event>
 6    1  0.1528034E-005  0.2266721E+04  0.7818608E-02  0.8491160E-01
         -1   -1    0    0    0  501 -0.00000000000E+00  0.00000000000E+00  0.13806922837E+04  0.13806922837E+04  0.00000000000E+00 0.  1.
          1   -1    0    0  501    0  0.00000000000E+00 -0.00000000000E+00 -0.93033437315E+03  0.93033437315E+03  0.00000000000E+00 0. -1.
         23    2    1    2    0    0  0.22885457075E+03  0.87535115913E+03 -0.46710213226E+03  0.10224821305E+04  0.93119486832E+02 0.  0.
         11    1    3    3    0    0  0.39177679513E+02  0.10753984391E+03 -0.27833650579E+02  0.11778973090E+03  0.00000000000E+00 0. -1.
        -11    1    3    3    0    0  0.18967689124E+03  0.76781131522E+03 -0.43926848168E+03  0.90469239957E+03  0.00000000000E+00 0.  1.
         22    1    1    2    0    0 -0.22885457075E+03 -0.87535115913E+03  0.91746004279E+03  0.12885445264E+04  0.00000000000E+00 0.  1.
<mgrwt>
<rscale>  0 0.22667205E+04</rscale>
<asrwt>0</asrwt>
<pdfrwt beam="1">  1        1 0.14312837E+00 0.22667205E+04</pdfrwt>
<pdfrwt beam="2">  1       -1 0.21241420E+00 0.22667205E+04</pdfrwt>
<totfact> 0.19289589E+00</totfact>
</mgrwt>
</event>
<event>
 6    1  0.1528034E-005  0.3731017E+04  0.7818608E-02  0.8061123E-01
         -2   -1    0    0    0  501 -0.00000000000E+00  0.00000000000E+00  0.14855235831E+04  0.14855235831E+04  0.00000000000E+00 0.  1.
          2   -1    0    0  501    0  0.00000000000E+00 -0.00000000000E+00 -0.23426900358E+04  0.23426900358E+04  0.00000000000E+00 0. -1.
         23    2    1    2    0    0 -0.16102555685E+04 -0.40235004975E+03 -0.13003494450E+04  0.21103021767E+04  0.87510224172E+02 0.  0.
         13    1    3    3    0    0 -0.60948990041E+03 -0.14578222295E+03 -0.54466226348E+03  0.83029354839E+03  0.00000000000E+00 0. -1.
        -13    1    3    3    0    0 -0.10007656681E+04 -0.25656782680E+03 -0.75568718154E+03  0.12800086283E+04  0.00000000000E+00 0.  1.
         22    1    1    2    0    0  0.16102555685E+04  0.40235004975E+03  0.44318299238E+03  0.17179114422E+04  0.00000000000E+00 0.  1.
<mgrwt>
<rscale>  0 0.37310166E+04</rscale>
<asrwt>0</asrwt>
<pdfrwt beam="1">  1        2 0.36041385E+00 0.37310166E+04</pdfrwt>
<pdfrwt beam="2">  1       -2 0.22854209E+00 0.37310166E+04</pdfrwt>
<totfact> 0.30185142E-01</totfact>
</mgrwt>
</event>
<event>
 6    1  0.1528034E-005  0.4884560E+04  0.7818608E-02  0.7846566E-01
         -2   -1    0    0    0  501 -0.00000000000E+00  0.00000000000E+00  0.36949006995E+04  0.36949006995E+04  0.00000000000E+00 0.  1.
          2   -1    0    0  501    0  0.00000000000E+00 -0.00000000000E+00 -0.16143142143E+04  0.16143142143E+04  0.00000000000E+00 0. -1.
         23    2    1    2    0    0 -0.87038462631E+03  0.10512793730E+04 -0.11588972081E+04  0.17939606815E+04  0.11177866537E+03 0.  0.
         13    1    3    3    0    0 -0.41191421368E+03  0.42687773595E+03 -0.54498631766E+03  0.80554826504E+03  0.00000000000E+00 0. -1.
        -13    1    3    3    0    0 -0.45847041263E+03  0.62440163708E+03 -0.61391089045E+03  0.98841241648E+03  0.00000000000E+00 0.  1.
         22    1    1    2    0    0  0.87038462631E+03 -0.10512793730E+04  0.32394836933E+04  0.35152542322E+04  0.00000000000E+00 0.  1.
<mgrwt>
<rscale>  0 0.48845596E+04</rscale>
<asrwt>0</asrwt>
<pdfrwt beam="1">  1        2 0.24835603E+00 0.48845596E+04</pdfrwt>
<pdfrwt beam="2">  1       -2 0.56844626E+00 0.48845596E+04</pdfrwt>
<totfact> 0.56273191E-03</totfact>
</mgrwt>
</event>
<event>
 6    1  0.1528034E-005  0.4430176E+04  0.7818608E-02  0.7922976E-01
         -1   -1    0    0    0  501 -0.00000000000E+00  0.00000000000E+00  0.24211022895E+04  0.24211022895E+04  0.00000000000E+00 0.  1.
          1   -1    0    0  501    0  0.00000000000E+00 -0.00000000000E+00 -0.20266035879E+04  0.20266035879E+04  0.00000000000E+00 0. -1.
         23    2    1    2    0    0  0.30378199937E+03  0.14728213638E+04 -0.14342168717E+04  0.20800726877E+04  0.90763859490E+02 0.  0.
         11    1    3    3    0    0  0.12887562614E+03  0.55380042968E+03 -0.60019319823E+03  0.82676218959E+03  0.00000000000E+00 0. -1.
        -11    1    3    3    0    0  0.17490637323E+03  0.91902093414E+03 -0.83402367352E+03  0.12533104981E+04  0.00000000000E+00 0.  1.
         22    1    1    2    0    0 -0.30378199937E+03 -0.14728213638E+04  0.18287155734E+04  0.23676331897E+04  0.00000000000E+00 0.  1.
<mgrwt>
<rscale>  0 0.44301759E+04</rscale>
<asrwt>0</asrwt>
<pdfrwt beam="1">  1        1 0.31178517E+00 0.44301759E+04</pdfrwt>
<pdfrwt beam="2">  1       -1 0.37247728E+00 0.44301759E+04</pdfrwt>
<totfact> 0.23749678E-02</totfact>
</mgrwt>
</event>
<event>
 6    1  0.1528034E-005  0.3873045E+04  0.7818608E-02  0.8030659E-01
         -2   -1    0    0    0  501 -0.00000000000E+00  0.00000000000E+00  0.11582986002E+04  0.11582986002E+04  0.00000000000E+00 0.  1.
          2   -1    0    0  501    0  0.00000000000E+00 -0.00000000000E+00 -0.32376104919E+04  0.32376104919E+04  0.00000000000E+00 0. -1.
         23    2    1    2    0    0  0.51480074673E+03  0.87821468831E+03 -0.29086144052E+04  0.30828883359E+04  0.88779986549E+02 0.  0.
         11    1    3    3    0    0  0.14795042524E+03  0.20868834482E+03 -0.63852639675E+03  0.68786344061E+03  0.00000000000E+00 0.  1.
        -11    1    3    3    0    0  0.36685032150E+03  0.66952634349E+03 -0.22700880084E+04  0.23950248953E+04  0.00000000000E+00 0. -1.
         22    1    1    2    0    0 -0.51480074673E+03 -0.87821468831E+03  0.82930251342E+03  0.13130207563E+04  0.00000000000E+00 0.  1.
<mgrwt>
<rscale>  0 0.38730452E+04</rscale>
<asrwt>0</asrwt>
<pdfrwt beam="1">  1        2 0.49809393E+00 0.38730452E+04</pdfrwt>
<pdfrwt beam="2">  1       -2 0.17819978E+00 0.38730452E+04</pdfrwt>
<totfact> 0.18202665E-01</totfact>
</mgrwt>
</event>
<event>
 6    1  0.1528034E-005  0.1892239E+04  0.7818608E-02  0.8658729E-01
          1   -1    0    0  501    0  0.00000000000E+00  0.00000000000E+00  0.10856273383E+04  0.10856273383E+04  0.00000000000E+00 0. -1.
         -1   -1    0    0    0  501 -0.00000000000E+00 -0.00000000000E+00 -0.82453937773E+03  0.82453937773E+03  0.00000000000E+00 0.  1.
         23    2    1    2    0    0 -0.75080481289E+03 -0.38069232964E+02 -0.44537314525E+03  0.87854448498E+03  0.91247137121E+02 0.  0.
         11    1    3    3    0    0 -0.45766810544E+03  0.18912382935E+02 -0.28668651076E+03  0.54037665421E+03  0.00000000000E+00 0. -1.
        -11    1    3    3    0    0 -0.29313670745E+03 -0.56981615899E+02 -0.15868663449E+03  0.33816783077E+03  0.00000000000E+00 0.  1.
         22    1    1    2    0    0  0.75080481289E+03  0.38069232964E+02  0.70646110582E+03  0.10316222310E+04  0.00000000000E+00 0. -1.
<mgrwt>
<rscale>  0 0.18922394E+04</rscale>
<asrwt>0</asrwt>
<pdfrwt beam="1">  1        1 0.16701959E+00 0.18922394E+04</pdfrwt>
<pdfrwt beam="2">  1       -1 0.12685221E+00 0.18922394E+04</pdfrwt>
<totfact> 0.65662387E+00</totfact>
</mgrwt>
</event>
<event>
 6    1  0.1528034E-005  0.5903107E+04  0.7818608E-02  0.7702533E-01
         -1   -1    0    0    0  501 -0.00000000000E+00  0.00000000000E+00  0.20436399981E+04  0.20436399981E+04  0.00000000000E+00 0.  1.
          1   -1    0    0  501    0  0.00000000000E+00 -0.00000000000E+00 -0.42628186224E+04  0.42628186224E+04  0.00000000000E+00 0. -1.
         23    2    1    2    0    0  0.16817517208E+04 -0.23962851644E+04 -0.71495231088E+03  0.30150807567E+04  0.95308569512E+02 0.  0.
         11    1    3    3    0    0  0.53158335335E+03 -0.69633561545E+03 -0.18723792980E+03  0.89583603034E+03  0.00000000000E+00 0.  1.
        -11    1    3    3    0    0  0.11501683675E+04 -0.16999495489E+04 -0.52771438108E+03  0.21192447264E+04  0.00000000000E+00 0. -1.
         22    1    1    2    0    0 -0.16817517208E+04  0.23962851644E+04 -0.15042263134E+04  0.32913778637E+04  0.00000000000E+00 0.  1.
<mgrwt>
<rscale>  0 0.59031065E+04</rscale>
<asrwt>0</asrwt>
<pdfrwt beam="1">  1        1 0.65581825E+00 0.59031065E+04</pdfrwt>
<pdfrwt beam="2">  1       -1 0.31440615E+00 0.59031065E+04</pdfrwt>
<totfact> 0.98310494E-04</totfact>
</mgrwt>
</event>
<event>
 6    1  0.1528034E-005  0.2485343E+04  0.7818608E-02  0.8408226E-01
          2   -1    0    0  501    0  0.00000000000E+00  0.00000000000E+00  0.96521837197E+03  0.96521837197E+03  0.00000000000E+00 0. -1.
         -2   -1    0    0    0  501 -0.00000000000E+00 -0.00000000000E+00 -0.15998782251E+04  0.15998782251E+04  0.00000000000E+00 0.  1.
         23    2    1    2    0    0  0.10288683093E+04  0.66371046939E+03 -0.10816572451E+03  0.12323259294E+04  0.88576448476E+02 0.  0.
         13    1    3    3    0    0  0.56639452836E+03  0.40962148631E+03 -0.38284208267E+02  0.70004157335E+03  0.00000000000E+00 0. -1.
        -13    1    3    3    0    0  0.46247378096E+03  0.25408898308E+03 -0.69881516242E+02  0.53228435606E+03  0.00000000000E+00 0.  1.
         22    1    1    2    0    0 -0.10288683093E+04 -0.66371046939E+03 -0.52649412862E+03  0.13327706677E+04  0.00000000000E+00 0.  1.
<mgrwt>
<rscale>  0 0.24853425E+04</rscale>
<asrwt>0</asrwt>
<pdfrwt beam="1">  1        2 0.14849514E+00 0.24853425E+04</pdfrwt>
<pdfrwt beam="2">  1       -2 0.24613511E+00 0.24853425E+04</pdfrwt>
<totfact> 0.16080846E+00</totfact>
</mgrwt>
</event>
<event>
 6    1  0.1528034E-005  0.2116765E+04  0.7818608E-02  0.8553894E-01
         -2   -1    0    0    0  501 -0.00000000000E+00  0.00000000000E+00  0.13034831168E+04  0.13034831168E+04  0.00000000000E+00 0.  1.
          2   -1    0    0  501    0  0.00000000000E+00 -0.00000000000E+00 -0.85936966058E+03  0.85936966058E+03  0.00000000000E+00 0. -1.
         23    2    1    2    0    0 -0.11823811809E+03 -0.63338877173E+03  0.10779660069E+04  0.12590106204E+04  0.89081095267E+02 0.  0.
         11    1    3    3    0    0 -0.24103212761E+02 -0.32134513240E+03  0.48330447301E+03  0.58088456049E+03  0.00000000000E+00 0.  1.
        -11    1    3    3    0    0 -0.94134905331E+02 -0.31204363933E+03  0.59466153387E+03  0.67812605990E+03  0.00000000000E+00 0. -1.
         22    1    1    2    0    0  0.11823811809E+03  0.63338877173E+03 -0.63385255068E+03  0.90384215697E+03  0.00000000000E+00 0. -1.
<mgrwt>
<rscale>  0 0.21167653E+04</rscale>
<asrwt>0</asrwt>
<pdfrwt beam="1">  1        2 0.13221072E+00 0.21167653E+04</pdfrwt>
<pdfrwt beam="2">  1       -2 0.20053586E+00 0.21167653E+04</pdfrwt>
<totfact> 0.37943506E+00</totfact>
</mgrwt>
</event>
<event>
 6    1  0.1528034E-005  0.2035445E+04  0.7818608E-02  0.8590226E-01
          2   -1    0    0  501    0  0.00000000000E+00  0.00000000000E+00  0.22859840217E+04  0.22859840217E+04  0.00000000000E+00 0.  1.
         -2   -1    0    0    0  501 -0.00000000000E+00 -0.00000000000E+00 -0.45309112168E+03  0.45309112168E+03  0.00000000000E+00 0. -1.
         23    2    1    2    0    0  0.75222226429E+03 -0.19218232110E+03  0.37486866553E+02  0.78299354886E+03  0.94346451751E+02 0.  0.
         13    1    3    3    0    0  0.55133893769E+03 -0.14634831477E+03 -0.14032893292E+02  0.57060439496E+03  0.00000000000E+00 0. -1.
        -13    1    3    3    0    0  0.20088332659E+03 -0.45834006324E+02  0.51519759844E+02  0.21238915390E+03  0.00000000000E+00 0.  1.
         22    1    1    2    0    0 -0.75222226429E+03  0.19218232110E+03  0.17954060335E+04  0.19560815946E+04  0.00000000000E+00 0.  1.
<mgrwt>
<rscale>  0 0.20354450E+04</rscale>
<asrwt>0</asrwt>
<pdfrwt beam="1">  1        2 0.35168984E+00 0.20354450E+04</pdfrwt>
<pdfrwt beam="2">  1       -2 0.69706327E-01 0.20354450E+04</pdfrwt>
<totfact> 0.80256856E+00</totfact>
</mgrwt>
</event>
<event>
 6    1  0.1528034E-005  0.1660658E+04  0.7818608E-02  0.8784126E-01
         -1   -1    0    0    0  501 -0.00000000000E+00  0.00000000000E+00  0.64865151314E+03  0.64865151314E+03  0.00000000000E+00 0.  1.
          1   -1    0    0  501    0  0.00000000000E+00 -0.00000000000E+00 -0.10628910250E+04  0.10628910250E+04  0.00000000000E+00 0. -1.
         23    2    1    2    0    0 -0.96948423815E+02 -0.56051996403E+03  0.41215712082E+03  0.70829131265E+03  0.90672291128E+02 0.  0.
         13    1    3    3    0    0 -0.46768961573E+02 -0.37433842174E+03  0.31947304854E+03  0.49434766966E+03  0.00000000000E+00 0.  1.
        -13    1    3    3    0    0 -0.50179462243E+02 -0.18618154230E+03  0.92684072277E+02  0.21394364299E+03  0.00000000000E+00 0. -1.
         22    1    1    2    0    0  0.96948423815E+02  0.56051996403E+03 -0.82639663268E+03  0.10032512255E+04  0.00000000000E+00 0. -1.
<mgrwt>
<rscale>  0 0.16606575E+04</rscale>
<asrwt>0</asrwt>
<pdfrwt beam="1">  1        1 0.16352169E+00 0.16606575E+04</pdfrwt>
<pdfrwt beam="2">  1       -1 0.99792541E-01 0.16606575E+04</pdfrwt>
<totfact> 0.12371534E+01</totfact>
</mgrwt>
</event>
<event>
 6    1  0.2862674E-005  0.3958308E+04  0.7818608E-02  0.8013010E-01
          1   -1    0    0  501    0  0.00000000000E+00  0.00000000000E+00  0.18992536346E+04  0.18992536346E+04  0.00000000000E+00 0. -1.
         -1   -1    0    0    0  501 -0.00000000000E+00 -0.00000000000E+00 -0.20624153391E+04  0.20624153391E+04  0.00000000000E+00 0.  1.
         23    2    1    2    0    0 -0.19336778868E+04 -0.40455869968E+03  0.30865649290E+02  0.19766187160E+04  0.57366791130E+02 0.  0.
         11    1    3    3    0    0 -0.11454084982E+04 -0.26774859094E+03  0.24362555368E+02  0.11765387668E+04  0.00000000000E+00 0. -1.
        -11    1    3    3    0    0 -0.78826938863E+03 -0.13681010874E+03  0.65030939217E+01  0.80007994922E+03  0.00000000000E+00 0.  1.
         22    1    1    2    0    0  0.19336778868E+04  0.40455869968E+03 -0.19402735372E+03  0.19850502577E+04  0.00000000000E+00 0. -1.
<mgrwt>
<rscale>  0 0.39583076E+04</rscale>
<asrwt>0</asrwt>
<pdfrwt beam="1">  1        1 0.29219287E+00 0.39583076E+04</pdfrwt>
<pdfrwt beam="2">  1       -1 0.31729467E+00 0.39583076E+04</pdfrwt>
<totfact> 0.69817196E-02</totfact>
</mgrwt>
</event>
<event>
 6    1  0.1528034E-005  0.2031855E+04  0.7818608E-02  0.8591871E-01
         -2   -1    0    0    0  501 -0.00000000000E+00  0.00000000000E+00  0.68719494627E+03  0.68719494627E+03  0.00000000000E+00 0. -1.
          2   -1    0    0  501    0  0.00000000000E+00 -0.00000000000E+00 -0.15019155630E+04  0.15019155630E+04  0.00000000000E+00 0.  1.
         23    2    1    2    0    0 -0.26668539397E+03 -0.13315424521E+03 -0.14522488510E+04  0.14853396645E+04  0.91411385321E+02 0.  0.
         11    1    3    3    0    0 -0.68603060791E+02 -0.81078990245E+01 -0.20622330875E+03  0.21748602495E+03  0.00000000000E+00 0.  1.
        -11    1    3    3    0    0 -0.19808233318E+03 -0.12504634619E+03 -0.12460255423E+04  0.12678536396E+04  0.00000000000E+00 0. -1.
         22    1    1    2    0    0  0.26668539397E+03  0.13315424521E+03  0.63752823430E+03  0.70377084474E+03  0.00000000000E+00 0. -1.
<mgrwt>
<rscale>  0 0.20318551E+04</rscale>
<asrwt>0</asrwt>
<pdfrwt beam="1">  1        2 0.23106393E+00 0.20318551E+04</pdfrwt>
<pdfrwt beam="2">  1       -2 0.10572230E+00 0.20318551E+04</pdfrwt>
<totfact> 0.84853220E+00</totfact>
</mgrwt>
</event>
<event>
 6    1  0.1528034E-005  0.7530338E+03  0.7818608E-02  0.9630603E-01
         -1   -1    0    0    0  501 -0.00000000000E+00  0.00000000000E+00  0.52983179930E+02  0.52983179930E+02  0.00000000000E+00 0.  1.
          1   -1    0    0  501    0  0.00000000000E+00 -0.00000000000E+00 -0.26756598200E+04  0.26756598200E+04  0.00000000000E+00 0. -1.
         23    2    1    2    0    0 -0.20980171879E+03  0.13759903460E+03 -0.23208858116E+04  0.23361790402E+04  0.90946698061E+02 0.  0.
         11    1    3    3    0    0 -0.15402908201E+03  0.78490682389E+02 -0.12049570943E+04  0.12172950934E+04  0.00000000000E+00 0. -1.
        -11    1    3    3    0    0 -0.55772636782E+02  0.59108352209E+02 -0.11159287174E+04  0.11188839469E+04  0.00000000000E+00 0.  1.
         22    1    1    2    0    0  0.20980171879E+03 -0.13759903460E+03 -0.30179082844E+03  0.39246395970E+03  0.00000000000E+00 0.  1.
<mgrwt>
<rscale>  0 0.75303377E+03</rscale>
<asrwt>0</asrwt>
<pdfrwt beam="1">  1        1 0.41163998E+00 0.75303377E+03</pdfrwt>
<pdfrwt beam="2">  1       -1 0.81512582E-02 0.75303377E+03</pdfrwt>
<totfact> 0.93103322E+01</totfact>
</mgrwt>
</event>
<event>
 6    1  0.1528034E-005  0.1248223E+04  0.7818608E-02  0.9071664E-01
         -2   -1    0    0    0  501 -0.00000000000E+00  0.00000000000E+00  0.12909341141E+03  0.12909341141E+03  0.00000000000E+00 0.  1.
          2   -1    0    0  501    0  0.00000000000E+00 -0.00000000000E+00 -0.30173122837E+04  0.30173122837E+04  0.00000000000E+00 0. -1.
         23    2    1    2    0    0 -0.32875651762E+03 -0.44512052581E+03 -0.74213428621E+03  0.93012679095E+03  0.90329497431E+02 0.  0.
         11    1    3    3    0    0 -0.12771432661E+03 -0.21733585549E+03 -0.39753031810E+03  0.47071878772E+03  0.00000000000E+00 0. -1.
        -11    1    3    3    0    0 -0.20104219101E+03 -0.22778467032E+03 -0.34460396810E+03  0.45940800323E+03  0.00000000000E+00 0.  1.
         22    1    1    2    0    0  0.32875651762E+03  0.44512052581E+03 -0.21460845861E+04  0.22162789042E+04  0.00000000000E+00 0. -1.
<mgrwt>
<rscale>  0 0.12482230E+04</rscale>
<asrwt>0</asrwt>
<pdfrwt beam="1">  1        2 0.46420190E+00 0.12482230E+04</pdfrwt>
<pdfrwt beam="2">  1       -2 0.19860525E-01 0.12482230E+04</pdfrwt>
<totfact> 0.36624042E+01</totfact>
</mgrwt>
</event>
<event>
 6    1  0.1528034E-005  0.1037641E+04  0.7818608E-02  0.9268197E-01
         -2   -1    0    0    0  501 -0.00000000000E+00  0.00000000000E+00  0.12212261821E+03  0.12212261821E+03  0.00000000000E+00 0.  1.
          2   -1    0    0  501    0  0.00000000000E+00 -0.00000000000E+00 -0.22041360699E+04  0.22041360699E+04  0.00000000000E+00 0. -1.
         23    2    1    2    0    0  0.38191613341E+02 -0.45212917459E+03 -0.15940571601E+04  0.16599398963E+04  0.92210843959E+02 0.  0.
         11    1    3    3    0    0 -0.10074770199E+02 -0.33906352326E+03 -0.11238133223E+04  0.11738917996E+04  0.00000000000E+00 0.  1.
        -11    1    3    3    0    0  0.48266383540E+02 -0.11306565133E+03 -0.47024383782E+03  0.48604809669E+03  0.00000000000E+00 0. -1.
         22    1    1    2    0    0 -0.38191613341E+02  0.45212917459E+03 -0.48795629154E+03  0.66631879179E+03  0.00000000000E+00 0.  1.
<mgrwt>
<rscale>  0 0.10376413E+04</rscale>
<asrwt>0</asrwt>
<pdfrwt beam="1">  1        2 0.33909782E+00 0.10376413E+04</pdfrwt>
<pdfrwt beam="2">  1       -2 0.18788097E-01 0.10376413E+04</pdfrwt>
<totfact> 0.12274947E+02</totfact>
</mgrwt>
</event>
<event>
 6    1  0.1528034E-005  0.2682276E+04  0.7818608E-02  0.8340779E-01
          1   -1    0    0  501    0  0.00000000000E+00  0.00000000000E+00  0.39377080991E+03  0.39377080991E+03  0.00000000000E+00 0. -1.
         -1   -1    0    0    0  501 -0.00000000000E+00 -0.00000000000E+00 -0.45677612740E+04  0.45677612740E+04  0.00000000000E+00 0.  1.
         23    2    1    2    0    0  0.52943474424E+03 -0.37812713553E+03 -0.42553621380E+04  0.43058624809E+04  0.95202416305E+02 0.  0.
         11    1    3    3    0    0  0.30178920067E+03 -0.22728726092E+03 -0.21618166244E+04  0.21945813583E+04  0.00000000000E+00 0. -1.
        -11    1    3    3    0    0  0.22764554356E+03 -0.15083987461E+03 -0.20935455136E+04  0.21112811226E+04  0.00000000000E+00 0.  1.
         22    1    1    2    0    0 -0.52943474424E+03  0.37812713553E+03  0.81371673875E+02  0.65566960303E+03  0.00000000000E+00 0. -1.
<mgrwt>
<rscale>  0 0.26822759E+04</rscale>
<asrwt>0</asrwt>
<pdfrwt beam="1">  1        1 0.60580127E-01 0.26822759E+04</pdfrwt>
<pdfrwt beam="2">  1       -1 0.70273248E+00 0.26822759E+04</pdfrwt>
<totfact> 0.10394878E-02</totfact>
</mgrwt>
</event>
<event>
 6    1  0.1528034E-005  0.1545944E+04  0.7818608E-02  0.8854462E-01
         -2   -1    0    0    0  501 -0.00000000000E+00  0.00000000000E+00  0.68012485421E+03  0.68012485421E+03  0.00000000000E+00 0.  1.
          2   -1    0    0  501    0  0.00000000000E+00 -0.00000000000E+00 -0.87849467481E+03  0.87849467481E+03  0.00000000000E+00 0. -1.
         23    2    1    2    0    0 -0.41742109350E+01 -0.47953928789E+03 -0.70738826926E+03  0.85928045979E+03  0.89383401294E+02 0.  0.
         13    1    3    3    0    0  0.38495030213E+02 -0.21143503159E+03 -0.28018145510E+03  0.35311228769E+03  0.00000000000E+00 0. -1.
        -13    1    3    3    0    0 -0.42669241148E+02 -0.26810425630E+03 -0.42720681416E+03  0.50616817210E+03  0.00000000000E+00 0.  1.
         22    1    1    2    0    0  0.41742109350E+01  0.47953928789E+03  0.50901844866E+03  0.69933906922E+03  0.00000000000E+00 0.  1.
<mgrwt>
<rscale>  0 0.15459445E+04</rscale>
<asrwt>0</asrwt>
<pdfrwt beam="1">  1        2 0.13515303E+00 0.15459445E+04</pdfrwt>
<pdfrwt beam="2">  1       -2 0.10463459E+00 0.15459445E+04</pdfrwt>
<totfact> 0.21650454E+01</totfact>
</mgrwt>
</event>
<event>
 6    1  0.1528034E-005  0.1980840E+04  0.7818608E-02  0.8615632E-01
         -2   -1    0    0    0  501 -0.00000000000E+00  0.00000000000E+00  0.76494530086E+03  0.76494530086E+03  0.00000000000E+00 0.  1.
          2   -1    0    0  501    0  0.00000000000E+00 -0.00000000000E+00 -0.12823549260E+04  0.12823549260E+04  0.00000000000E+00 0. -1.
         23    2    1    2    0    0 -0.84250440725E+03 -0.17249966975E+02  0.27458761632E+03  0.89085270617E+03  0.90049694477E+02 0.  0.
         11    1    3    3    0    0 -0.49067698214E+03 -0.54454712432E+02  0.16027863953E+03  0.51905535234E+03  0.00000000000E+00 0. -1.
        -11    1    3    3    0    0 -0.35182742511E+03  0.37204745457E+02  0.11430897679E+03  0.37179735383E+03  0.00000000000E+00 0.  1.
         22    1    1    2    0    0  0.84250440725E+03  0.17249966975E+02 -0.79199724142E+03  0.11564475206E+04  0.00000000000E+00 0. -1.
<mgrwt>
<rscale>  0 0.19808396E+04</rscale>
<asrwt>0</asrwt>
<pdfrwt beam="1">  1        2 0.19728537E+00 0.19808396E+04</pdfrwt>
<pdfrwt beam="2">  1       -2 0.11768389E+00 0.19808396E+04</pdfrwt>
<totfact> 0.87796623E+00</totfact>
</mgrwt>
</event>
<event>
 6    1  0.1528034E-005  0.2085063E+04  0.7818608E-02  0.8567852E-01
         -2   -1    0    0    0  501 -0.00000000000E+00  0.00000000000E+00  0.46551498739E+03  0.46551498739E+03  0.00000000000E+00 0.  1.
          2   -1    0    0  501    0  0.00000000000E+00 -0.00000000000E+00 -0.23347734051E+04  0.23347734051E+04  0.00000000000E+00 0. -1.
         23    2    1    2    0    0  0.86197379415E+03 -0.21111837410E+03 -0.16660744531E+04  0.18898744684E+04  0.90838501437E+02 0.  0.
         13    1    3    3    0    0  0.32123239836E+03 -0.80517522658E+02 -0.53088119250E+03  0.62570613371E+03  0.00000000000E+00 0.  1.
        -13    1    3    3    0    0  0.54074139579E+03 -0.13060085144E+03 -0.11351932606E+04  0.12641683347E+04  0.00000000000E+00 0. -1.
         22    1    1    2    0    0 -0.86197379415E+03  0.21111837410E+03 -0.20318396461E+03  0.91041392408E+03  0.00000000000E+00 0.  1.
<mgrwt>
<rscale>  0 0.20850631E+04</rscale>
<asrwt>0</asrwt>
<pdfrwt beam="1">  1        2 0.35919591E+00 0.20850631E+04</pdfrwt>
<pdfrwt beam="2">  1       -2 0.71617691E-01 0.20850631E+04</pdfrwt>
<totfact> 0.70674219E+00</totfact>
</mgrwt>
</event>
<event>
 6    1  0.1528034E-005  0.2974086E+04  0.7818608E-02  0.8251170E-01
         -2   -1    0    0    0  501 -0.00000000000E+00  0.00000000000E+00  0.17161409250E+04  0.17161409250E+04  0.00000000000E+00 0.  1.
          2   -1    0    0  501    0  0.00000000000E+00 -0.00000000000E+00 -0.12885288032E+04  0.12885288032E+04  0.00000000000E+00 0. -1.
         23    2    1    2    0    0 -0.61470488846E+03  0.31220850861E+03  0.15434977101E+04  0.16929773485E+04  0.91928605399E+02 0.  0.
         11    1    3    3    0    0 -0.34394988648E+02  0.29624149547E+02  0.16011255850E+03  0.16642306591E+03  0.00000000000E+00 0. -1.
        -11    1    3    3    0    0 -0.58030989981E+03  0.28258435906E+03  0.13833851516E+04  0.15265542825E+04  0.00000000000E+00 0.  1.
         22    1    1    2    0    0  0.61470488846E+03 -0.31220850861E+03 -0.11158855883E+04  0.13116923797E+04  0.00000000000E+00 0. -1.
<mgrwt>
<rscale>  0 0.29740861E+04</rscale>
<asrwt>0</asrwt>
<pdfrwt beam="1">  1        2 0.19823520E+00 0.29740861E+04</pdfrwt>
<pdfrwt beam="2">  1       -2 0.26402168E+00 0.29740861E+04</pdfrwt>
<totfact> 0.75927634E-01</totfact>
</mgrwt>
</event>
<event>
 6    1  0.1528034E-005  0.4008678E+04  0.7818608E-02  0.8002798E-01
         -1   -1    0    0    0  501 -0.00000000000E+00  0.00000000000E+00  0.24066910298E+04  0.24066910298E+04  0.00000000000E+00 0.  1.
          1   -1    0    0  501    0  0.00000000000E+00 -0.00000000000E+00 -0.16692525708E+04  0.16692525708E+04  0.00000000000E+00 0. -1.
         23    2    1    2    0    0 -0.49995618713E+03  0.43502138517E+03  0.22911634824E+04  0.23867836783E+04  0.90035711321E+02 0.  0.
         13    1    3    3    0    0 -0.21050698553E+03  0.13479175355E+03  0.77522836414E+03  0.81453116843E+03  0.00000000000E+00 0.  1.
        -13    1    3    3    0    0 -0.28944920160E+03  0.30022963162E+03  0.15159351182E+04  0.15722525098E+04  0.00000000000E+00 0. -1.
         22    1    1    2    0    0  0.49995618713E+03 -0.43502138517E+03 -0.15537250234E+04  0.16891599223E+04  0.00000000000E+00 0. -1.
<mgrwt>
<rscale>  0 0.40086782E+04</rscale>
<asrwt>0</asrwt>
<pdfrwt beam="1">  1        1 0.25680809E+00 0.40086782E+04</pdfrwt>
<pdfrwt beam="2">  1       -1 0.37026016E+00 0.40086782E+04</pdfrwt>
<totfact> 0.44498885E-02</totfact>
</mgrwt>
</event>
<event>
 6    1  0.1528034E-005  0.3287714E+04  0.7818608E-02  0.8166029E-01
          2   -1    0    0  501    0  0.00000000000E+00  0.00000000000E+00  0.24853096673E+04  0.24853096673E+04  0.00000000000E+00 0. -1.
         -2   -1    0    0    0  501 -0.00000000000E+00 -0.00000000000E+00 -0.10872952320E+04  0.10872952320E+04  0.00000000000E+00 0.  1.
         23    2    1    2    0    0 -0.68945965834E+03 -0.76415726351E+03  0.20907901700E+04  0.23319481529E+04  0.85368079141E+02 0.  0.
         13    1    3    3    0    0 -0.38765204746E+03 -0.46396923579E+03  0.13055427186E+04  0.14387436714E+04  0.00000000000E+00 0.  1.
        -13    1    3    3    0    0 -0.30180761088E+03 -0.30018802772E+03  0.78524745139E+03  0.89320448156E+03  0.00000000000E+00 0. -1.
         22    1    1    2    0    0  0.68945965834E+03  0.76415726351E+03 -0.69277573465E+03  0.12406567464E+04  0.00000000000E+00 0.  1.
<mgrwt>
<rscale>  0 0.32877137E+04</rscale>
<asrwt>0</asrwt>
<pdfrwt beam="1">  1        2 0.38235533E+00 0.32877137E+04</pdfrwt>
<pdfrwt beam="2">  1       -2 0.16727619E+00 0.32877137E+04</pdfrwt>
<totfact> 0.66150868E-01</totfact>
</mgrwt>
</event>
<event>
 6    1  0.1528034E-005  0.1071517E+04  0.7818608E-02  0.9233407E-01
          2   -1    0    0  501    0  0.00000000000E+00  0.00000000000E+00  0.70836275521E+03  0.70836275521E+03  0.00000000000E+00 0. -1.
         -2   -1    0    0    0  501 -0.00000000000E+00 -0.00000000000E+00 -0.40521224517E+03  0.40521224517E+03  0.00000000000E+00 0.  1.
         23    2    1    2    0    0  0.38168902224E+03  0.34232889642E+03  0.54889344815E+01  0.52071920293E+03  0.90789739948E+02 0.  0.
         13    1    3    3    0    0  0.10716917820E+03  0.10029500577E+03 -0.39453501622E+02  0.15198980140E+03  0.00000000000E+00 0.  1.
        -13    1    3    3    0    0  0.27451984404E+03  0.24203389064E+03  0.44942436103E+02  0.36872940153E+03  0.00000000000E+00 0. -1.
         22    1    1    2    0    0 -0.38168902224E+03 -0.34232889642E+03  0.29766157556E+03  0.59285579746E+03  0.00000000000E+00 0. -1.
<mgrwt>
<rscale>  0 0.10715172E+04</rscale>
<asrwt>0</asrwt>
<pdfrwt beam="1">  1        2 0.10897889E+00 0.10715172E+04</pdfrwt>
<pdfrwt beam="2">  1       -2 0.62340346E-01 0.10715172E+04</pdfrwt>
<totfact> 0.95882800E+01</totfact>
</mgrwt>
</event>
<event>
 6    1  0.1528034E-005  0.2270756E+04  0.7818608E-02  0.8489542E-01
          2   -1    0    0  501    0  0.00000000000E+00  0.00000000000E+00  0.21596752863E+04  0.21596752863E+04  0.00000000000E+00 0. -1.
         -2   -1    0    0    0  501 -0.00000000000E+00 -0.00000000000E+00 -0.59688730303E+03  0.59688730303E+03  0.00000000000E+00 0.  1.
         23    2    1    2    0    0  0.24832974476E+03  0.97421897552E+03  0.14712680931E+03  0.10202254004E+04  0.91887404541E+02 0.  0.
         13    1    3    3    0    0  0.61200737276E+02  0.16434823599E+03  0.55685896997E+02  0.18400215227E+03  0.00000000000E+00 0. -1.
        -13    1    3    3    0    0  0.18712900748E+03  0.80987073953E+03  0.91440912310E+02  0.83622324808E+03  0.00000000000E+00 0.  1.
         22    1    1    2    0    0 -0.24832974476E+03 -0.97421897552E+03  0.14156611740E+04  0.17363371890E+04  0.00000000000E+00 0. -1.
<mgrwt>
<rscale>  0 0.22707556E+04</rscale>
<asrwt>0</asrwt>
<pdfrwt beam="1">  1        2 0.33225773E+00 0.22707556E+04</pdfrwt>
<pdfrwt beam="2">  1       -2 0.91828817E-01 0.22707556E+04</pdfrwt>
<totfact> 0.49867067E+00</totfact>
</mgrwt>
</event>
<event>
 6    1  0.1528034E-005  0.2704732E+04  0.7818608E-02  0.8333471E-01
          2   -1    0    0  501    0  0.00000000000E+00  0.00000000000E+00  0.28878782797E+04  0.28878782797E+04  0.00000000000E+00 0. -1.
         -2   -1    0    0    0  501 -0.00000000000E+00 -0.00000000000E+00 -0.63330014819E+03  0.63330014819E+03  0.00000000000E+00 0.  1.
         23    2    1    2    0    0 -0.10004957381E+03 -0.28952804144E+03  0.28412820153E+04  0.28593190385E+04  0.94791717038E+02 0.  0.
         11    1    3    3    0    0 -0.43170675118E+02 -0.18294022789E+03  0.20841005381E+04  0.20925596495E+04  0.00000000000E+00 0. -1.
        -11    1    3    3    0    0 -0.56878898695E+02 -0.10658781355E+03  0.75718147721E+03  0.76675938895E+03  0.00000000000E+00 0.  1.
         22    1    1    2    0    0  0.10004957381E+03  0.28952804144E+03 -0.58670388380E+03  0.66185938935E+03  0.00000000000E+00 0.  1.
<mgrwt>
<rscale>  0 0.27047320E+04</rscale>
<asrwt>0</asrwt>
<pdfrwt beam="1">  1        2 0.44428896E+00 0.27047320E+04</pdfrwt>
<pdfrwt beam="2">  1       -2 0.97430793E-01 0.27047320E+04</pdfrwt>
<totfact> 0.15738753E+00</totfact>
</mgrwt>
</event>
<event>
 6    1  0.1528034E-005  0.8436240E+03  0.7818608E-02  0.9498935E-01
         -2   -1    0    0    0  501 -0.00000000000E+00  0.00000000000E+00  0.83050458074E+03  0.83050458074E+03  0.00000000000E+00 0. -1.
          2   -1    0    0  501    0  0.00000000000E+00 -0.00000000000E+00 -0.21423767600E+03  0.21423767600E+03  0.00000000000E+00 0.  1.
         23    2    1    2    0    0  0.37638925954E+03 -0.15177333427E+03  0.41931505203E+03  0.59363910669E+03  0.10898741416E+03 0.  0.
         11    1    3    3    0    0  0.21009256767E+03 -0.12191433365E+03  0.30380240304E+03  0.38897029685E+03  0.00000000000E+00 0. -1.
        -11    1    3    3    0    0  0.16629669188E+03 -0.29859000629E+02  0.11551264898E+03  0.20466880984E+03  0.00000000000E+00 0.  1.
         22    1    1    2    0    0 -0.37638925954E+03  0.15177333427E+03  0.19695185271E+03  0.45110315005E+03  0.00000000000E+00 0.  1.
<mgrwt>
<rscale>  0 0.84362402E+03</rscale>
<asrwt>0</asrwt>
<pdfrwt beam="1">  1        2 0.32959643E-01 0.84362402E+03</pdfrwt>
<pdfrwt beam="2">  1       -2 0.12776993E+00 0.84362402E+03</pdfrwt>
<totfact> 0.73007331E+01</totfact>
</mgrwt>
</event>
<event>
 6    1  0.1528034E-005  0.1420351E+04  0.7818608E-02  0.8939218E-01
          2   -1    0    0  501    0  0.00000000000E+00  0.00000000000E+00  0.85810189326E+03  0.85810189326E+03  0.00000000000E+00 0. -1.
         -2   -1    0    0    0  501 -0.00000000000E+00 -0.00000000000E+00 -0.58774991697E+03  0.58774991697E+03  0.00000000000E+00 0.  1.
         23    2    1    2    0    0 -0.60063133431E+03  0.21806531494E+03  0.44409492999E+03  0.78366067823E+03  0.92699894417E+02 0.  0.
         11    1    3    3    0    0 -0.43520350607E+03  0.20015595552E+03  0.31975305885E+03  0.57593968162E+03  0.00000000000E+00 0. -1.
        -11    1    3    3    0    0 -0.16542782825E+03  0.17909359413E+02  0.12434187114E+03  0.20772099661E+03  0.00000000000E+00 0.  1.
         22    1    1    2    0    0  0.60063133431E+03 -0.21806531494E+03 -0.17374295369E+03  0.66219113200E+03  0.00000000000E+00 0.  1.
<mgrwt>
<rscale>  0 0.14203511E+04</rscale>
<asrwt>0</asrwt>
<pdfrwt beam="1">  1        2 0.13201568E+00 0.14203511E+04</pdfrwt>
<pdfrwt beam="2">  1       -2 0.90423064E-01 0.14203511E+04</pdfrwt>
<totfact> 0.31840153E+01</totfact>
</mgrwt>
</event>
<event>
 6    1  0.1528034E-005  0.2279564E+04  0.7818608E-02  0.8486023E-01
         -2   -1    0    0    0  501 -0.00000000000E+00  0.00000000000E+00  0.43997480995E+03  0.43997480995E+03  0.00000000000E+00 0.  1.
          2   -1    0    0  501    0  0.00000000000E+00 -0.00000000000E+00 -0.29526746646E+04  0.29526746646E+04  0.00000000000E+00 0. -1.
         23    2    1    2    0    0  0.56540067835E+03  0.13522806999E+03  0.19754476713E+03  0.62075653508E+03  0.91379334867E+02 0.  0.
         13    1    3    3    0    0  0.19970690940E+03  0.91331551382E+02  0.60668987208E+02  0.22782674985E+03  0.00000000000E+00 0. -1.
        -13    1    3    3    0    0  0.36569376895E+03  0.43896518612E+02  0.13687577992E+03  0.39292978523E+03  0.00000000000E+00 0.  1.
         22    1    1    2    0    0 -0.56540067835E+03 -0.13522806999E+03 -0.27102446218E+04  0.27718929395E+04  0.00000000000E+00 0. -1.
<mgrwt>
<rscale>  0 0.22795635E+04</rscale>
<asrwt>0</asrwt>
<pdfrwt beam="1">  1        2 0.45425766E+00 0.22795635E+04</pdfrwt>
<pdfrwt beam="2">  1       -2 0.67688429E-01 0.22795635E+04</pdfrwt>
<totfact> 0.33877088E+00</totfact>
</mgrwt>
</event>
<event>
 6    1  0.1528034E-005  0.2078577E+04  0.7818608E-02  0.8570740E-01
         -2   -1    0    0    0  501 -0.00000000000E+00  0.00000000000E+00  0.61811216412E+03  0.61811216412E+03  0.00000000000E+00 0. -1.
          2   -1    0    0  501    0  0.00000000000E+00 -0.00000000000E+00 -0.17474505418E+04  0.17474505418E+04  0.00000000000E+00 0.  1.
         23    2    1    2    0    0  0.32255634706E+03 -0.97448310775E+03 -0.73695937860E+03  0.12666445091E+04  0.87288386797E+02 0.  0.
         11    1    3    3    0    0  0.48384796374E+02 -0.17597353806E+03 -0.93088759236E+02  0.20487384341E+03  0.00000000000E+00 0.  1.
        -11    1    3    3    0    0  0.27417155068E+03 -0.79850956969E+03 -0.64387061936E+03  0.10617706657E+04  0.00000000000E+00 0. -1.
         22    1    1    2    0    0 -0.32255634706E+03  0.97448310775E+03 -0.39237899906E+03  0.10989181968E+04  0.00000000000E+00 0.  1.
<mgrwt>
<rscale>  0 0.20785769E+04</rscale>
<asrwt>0</asrwt>
<pdfrwt beam="1">  1        2 0.26883854E+00 0.20785769E+04</pdfrwt>
<pdfrwt beam="2">  1       -2 0.95094180E-01 0.20785769E+04</pdfrwt>
<totfact> 0.79219176E+00</totfact>
</mgrwt>
</event>
<event>
 6    1  0.1783841E-005  0.4106799E+04  0.7818608E-02  0.7983342E-01
          2   -1    0    0  501    0  0.00000000000E+00  0.00000000000E+00  0.17583637204E+04  0.17583637204E+04  0.00000000000E+00 0. -1.
         -2   -1    0    0    0  501 -0.00000000000E+00 -0.00000000000E+00 -0.23979398772E+04  0.23979398772E+04  0.00000000000E+00 0.  1.
         23    2    1    2    0    0 -0.13482172149E+04 -0.15200807899E+04 -0.61351554898E+03  0.21243059545E+04  0.89102149017E+02 0.  0.
         11    1    3    3    0    0 -0.80638249951E+03 -0.95102430124E+03 -0.41109444934E+03  0.13128970269E+04  0.00000000000E+00 0. -1.
        -11    1    3    3    0    0 -0.54183471542E+03 -0.56905648861E+03 -0.20242109964E+03  0.81140892751E+03  0.00000000000E+00 0.  1.
         22    1    1    2    0    0  0.13482172149E+04  0.15200807899E+04 -0.26060607832E+02  0.20319976431E+04  0.00000000000E+00 0.  1.
<mgrwt>
<rscale>  0 0.41067995E+04</rscale>
<asrwt>0</asrwt>
<pdfrwt beam="1">  1        2 0.27051750E+00 0.41067995E+04</pdfrwt>
<pdfrwt beam="2">  1       -2 0.36891383E+00 0.41067995E+04</pdfrwt>
<totfact> 0.83946190E-02</totfact>
</mgrwt>
</event>
<event>
 6    1  0.1610201E-005  0.4418626E+04  0.7818608E-02  0.7925040E-01
          2   -1    0    0  501    0  0.00000000000E+00  0.00000000000E+00  0.18846358847E+04  0.18846358847E+04  0.00000000000E+00 0. -1.
         -2   -1    0    0    0  501 -0.00000000000E+00 -0.00000000000E+00 -0.25899243207E+04  0.25899243207E+04  0.00000000000E+00 0.  1.
         23    2    1    2    0    0 -0.19983776393E+04 -0.53334171559E+03  0.43134347507E+03  0.21144969275E+04  0.84104031618E+02 0.  0.
         11    1    3    3    0    0 -0.52387697690E+03 -0.17549191009E+03  0.12944583895E+03  0.56745107512E+03  0.00000000000E+00 0.  1.
        -11    1    3    3    0    0 -0.14745006624E+04 -0.35784980550E+03  0.30189763613E+03  0.15470458524E+04  0.00000000000E+00 0. -1.
         22    1    1    2    0    0  0.19983776393E+04  0.53334171559E+03 -0.11366319111E+04  0.23600632779E+04  0.00000000000E+00 0.  1.
<mgrwt>
<rscale>  0 0.44186262E+04</rscale>
<asrwt>0</asrwt>
<pdfrwt beam="1">  1        2 0.28994398E+00 0.44186262E+04</pdfrwt>
<pdfrwt beam="2">  1       -2 0.39844989E+00 0.44186262E+04</pdfrwt>
<totfact> 0.44875232E-02</totfact>
</mgrwt>
</event>
<event>
 6    1  0.1528034E-005  0.2745961E+04  0.7818608E-02  0.8320244E-01
         -2   -1    0    0    0  501 -0.00000000000E+00  0.00000000000E+00  0.85746002097E+03  0.85746002097E+03  0.00000000000E+00 0. -1.
          2   -1    0    0  501    0  0.00000000000E+00 -0.00000000000E+00 -0.21984416712E+04  0.21984416712E+04  0.00000000000E+00 0.  1.
         23    2    1    2    0    0  0.12559364907E+04  0.10377377044E+03 -0.68891403675E+02  0.12652707811E+04  0.89546970381E+02 0.  0.
         11    1    3    3    0    0  0.33409568256E+03  0.65334451287E+02 -0.57835222417E+01  0.34047314837E+03  0.00000000000E+00 0. -1.
        -11    1    3    3    0    0  0.92184080816E+03  0.38439319151E+02 -0.63107881433E+02  0.92479763275E+03  0.00000000000E+00 0.  1.
         22    1    1    2    0    0 -0.12559364907E+04 -0.10377377044E+03 -0.12720902465E+04  0.17906309110E+04  0.00000000000E+00 0.  1.
<mgrwt>
<rscale>  0 0.27459613E+04</rscale>
<asrwt>0</asrwt>
<pdfrwt beam="1">  1        2 0.33822179E+00 0.27459613E+04</pdfrwt>
<pdfrwt beam="2">  1       -2 0.13191693E+00 0.27459613E+04</pdfrwt>
<totfact> 0.18922929E+00</totfact>
</mgrwt>
</event>
<event>
 6    1  0.1528034E-005  0.3296579E+04  0.7818608E-02  0.8163766E-01
         -2   -1    0    0    0  501 -0.00000000000E+00  0.00000000000E+00  0.19011116184E+04  0.19011116184E+04  0.00000000000E+00 0.  1.
          2   -1    0    0  501    0  0.00000000000E+00 -0.00000000000E+00 -0.14290890810E+04  0.14290890810E+04  0.00000000000E+00 0. -1.
         23    2    1    2    0    0  0.15268623007E+04 -0.54562096166E+03  0.52882712788E+03  0.17077835271E+04  0.88632529037E+02 0.  0.
         13    1    3    3    0    0  0.68403564453E+03 -0.26249119004E+03  0.28177899658E+03  0.78498776471E+03  0.00000000000E+00 0. -1.
        -13    1    3    3    0    0  0.84282665618E+03 -0.28312977162E+03  0.24704813130E+03  0.92279576242E+03  0.00000000000E+00 0.  1.
         22    1    1    2    0    0 -0.15268623007E+04  0.54562096166E+03 -0.56804590484E+02  0.16224171722E+04  0.00000000000E+00 0.  1.
<mgrwt>
<rscale>  0 0.32965787E+04</rscale>
<asrwt>0</asrwt>
<pdfrwt beam="1">  1        2 0.21985986E+00 0.32965787E+04</pdfrwt>
<pdfrwt beam="2">  1       -2 0.29247871E+00 0.32965787E+04</pdfrwt>
<totfact> 0.41109880E-01</totfact>
</mgrwt>
</event>
<event>
 6    1  0.1528034E-005  0.2447427E+04  0.7818608E-02  0.8421958E-01
          1   -1    0    0  501    0  0.00000000000E+00  0.00000000000E+00  0.85581017937E+03  0.85581017937E+03  0.00000000000E+00 0. -1.
         -1   -1    0    0    0  501 -0.00000000000E+00 -0.00000000000E+00 -0.17497750601E+04  0.17497750601E+04  0.00000000000E+00 0.  1.
         23    2    1    2    0    0  0.17707282169E+03  0.41346739970E+03 -0.16572735795E+04  0.17196110613E+04  0.90534026952E+02 0.  0.
         11    1    3    3    0    0  0.73785207879E+02  0.28170157122E+03 -0.10754275131E+04  0.11141563482E+04  0.00000000000E+00 0.  1.
        -11    1    3    3    0    0  0.10328761381E+03  0.13176582848E+03 -0.58184606635E+03  0.60545471313E+03  0.00000000000E+00 0. -1.
         22    1    1    2    0    0 -0.17707282169E+03 -0.41346739970E+03  0.76330869876E+03  0.88597417818E+03  0.00000000000E+00 0. -1.
<mgrwt>
<rscale>  0 0.24474275E+04</rscale>
<asrwt>0</asrwt>
<pdfrwt beam="1">  1        1 0.13166310E+00 0.24474275E+04</pdfrwt>
<pdfrwt beam="2">  1       -1 0.26919616E+00 0.24474275E+04</pdfrwt>
<totfact> 0.92418465E-01</totfact>
</mgrwt>
</event>
<event>
 6    1  0.1528034E-005  0.2415822E+04  0.7818608E-02  0.8433604E-01
          1   -1    0    0  501    0  0.00000000000E+00  0.00000000000E+00  0.14872650104E+04  0.14872650104E+04  0.00000000000E+00 0. -1.
         -1   -1    0    0    0  501 -0.00000000000E+00 -0.00000000000E+00 -0.98102804051E+03  0.98102804051E+03  0.00000000000E+00 0.  1.
         23    2    1    2    0    0  0.45277368584E+02 -0.10126796154E+04  0.92314926019E+03  0.13722155439E+04  0.56576487580E+02 0.  0.
         11    1    3    3    0    0  0.30795357332E+02 -0.88598138731E+03  0.82863772288E+03  0.12134874736E+04  0.00000000000E+00 0.  1.
        -11    1    3    3    0    0  0.14482011252E+02 -0.12669822806E+03  0.94511537308E+02  0.15872807038E+03  0.00000000000E+00 0. -1.
         22    1    1    2    0    0 -0.45277368584E+02  0.10126796154E+04 -0.41691229030E+03  0.10960775070E+04  0.00000000000E+00 0.  1.
<mgrwt>
<rscale>  0 0.24158217E+04</rscale>
<asrwt>0</asrwt>
<pdfrwt beam="1">  1        1 0.22881000E+00 0.24158217E+04</pdfrwt>
<pdfrwt beam="2">  1       -1 0.15092739E+00 0.24158217E+04</pdfrwt>
<totfact> 0.20501608E+00</totfact>
</mgrwt>
</event>
<event>
 6    1  0.1734581E-005  0.3707115E+04  0.7818608E-02  0.8066387E-01
         -2   -1    0    0    0  501 -0.00000000000E+00  0.00000000000E+00  0.25100964881E+04  0.25100964881E+04  0.00000000000E+00 0.  1.
          2   -1    0    0  501    0  0.00000000000E+00 -0.00000000000E+00 -0.13687421923E+04  0.13687421923E+04  0.00000000000E+00 0. -1.
         23    2    1    2    0    0 -0.15338373918E+04  0.10233688823E+04  0.38532233460E+03  0.18859700595E+04  0.92025810699E+02 0.  0.
         11    1    3    3    0    0 -0.72361435632E+03  0.48227602268E+03  0.22867654448E+03  0.89916675913E+03  0.00000000000E+00 0. -1.
        -11    1    3    3    0    0 -0.81022303552E+03  0.54109285961E+03  0.15664579012E+03  0.98680330035E+03  0.00000000000E+00 0.  1.
         22    1    1    2    0    0  0.15338373918E+04 -0.10233688823E+04  0.75603196119E+03  0.19928686209E+04  0.00000000000E+00 0.  1.
<mgrwt>
<rscale>  0 0.37071148E+04</rscale>
<asrwt>0</asrwt>
<pdfrwt beam="1">  1        2 0.21057572E+00 0.37071148E+04</pdfrwt>
<pdfrwt beam="2">  1       -2 0.38616869E+00 0.37071148E+04</pdfrwt>
<totfact> 0.11121375E-01</totfact>
</mgrwt>
</event>
<event>
 6    1  0.1528034E-005  0.3920117E+04  0.7818608E-02  0.8020858E-01
          1   -1    0    0  501    0  0.00000000000E+00  0.00000000000E+00  0.16009362668E+04  0.16009362668E+04  0.00000000000E+00 0. -1.
         -1   -1    0    0    0  501 -0.00000000000E+00 -0.00000000000E+00 -0.23997387832E+04  0.23997387832E+04  0.00000000000E+00 0.  1.
         23    2    1    2    0    0 -0.12974646531E+03 -0.65998900676E+03 -0.22773467942E+04  0.23763250829E+04  0.90514332023E+02 0.  0.
         13    1    3    3    0    0  0.72502392013E+01 -0.11996505905E+03 -0.46480502316E+03  0.48009154430E+03  0.00000000000E+00 0. -1.
        -13    1    3    3    0    0 -0.13699670451E+03 -0.54002394771E+03 -0.18125417710E+04  0.18962335386E+04  0.00000000000E+00 0.  1.
         22    1    1    2    0    0  0.12974646531E+03  0.65998900676E+03  0.14785442778E+04  0.16243499671E+04  0.00000000000E+00 0. -1.
<mgrwt>
<rscale>  0 0.39201168E+04</rscale>
<asrwt>0</asrwt>
<pdfrwt beam="1">  1        1 0.24629789E+00 0.39201168E+04</pdfrwt>
<pdfrwt beam="2">  1       -1 0.36919058E+00 0.39201168E+04</pdfrwt>
<totfact> 0.50756476E-02</totfact>
</mgrwt>
</event>
<event>
 6    1  0.1528034E-005  0.9769295E+03  0.7818608E-02  0.9334216E-01
         -2   -1    0    0    0  501 -0.00000000000E+00  0.00000000000E+00  0.24104345443E+03  0.24104345443E+03  0.00000000000E+00 0.  1.
          2   -1    0    0  501    0  0.00000000000E+00 -0.00000000000E+00 -0.98985394022E+03  0.98985394022E+03  0.00000000000E+00 0. -1.
         23    2    1    2    0    0  0.33905180688E+03 -0.17013682163E+02  0.57319387861E+02  0.35620260998E+03  0.91373924096E+02 0.  0.
         13    1    3    3    0    0  0.87541094410E+02 -0.31265490966E+02 -0.14893951846E+02  0.94142466174E+02  0.00000000000E+00 0. -1.
        -13    1    3    3    0    0  0.25151071247E+03  0.14251808803E+02  0.72213339707E+02  0.26206014380E+03  0.00000000000E+00 0.  1.
         22    1    1    2    0    0 -0.33905180688E+03  0.17013682163E+02 -0.80612987366E+03  0.87469478467E+03  0.00000000000E+00 0. -1.
<mgrwt>
<rscale>  0 0.97692950E+03</rscale>
<asrwt>0</asrwt>
<pdfrwt beam="1">  1        2 0.15228522E+00 0.97692950E+03</pdfrwt>
<pdfrwt beam="2">  1       -2 0.37083610E-01 0.97692950E+03</pdfrwt>
<totfact> 0.17497747E+02</totfact>
</mgrwt>
</event>
<event>
 6    1  0.1736242E-005  0.1714869E+04  0.7818608E-02  0.8752929E-01
         -2   -1    0    0    0  501 -0.00000000000E+00  0.00000000000E+00  0.62450487215E+03  0.62450487215E+03  0.00000000000E+00 0.  1.
          2   -1    0    0  501    0  0.00000000000E+00 -0.00000000000E+00 -0.11772430551E+04  0.11772430551E+04  0.00000000000E+00 0. -1.
         23    2    1    2    0    0 -0.47391714654E+03  0.14253120884E+03  0.45577992806E+03  0.67835067448E+03  0.86669991740E+02 0.  0.
         13    1    3    3    0    0 -0.17116880829E+03  0.53105283693E+02  0.22319011086E+03  0.28623898699E+03  0.00000000000E+00 0. -1.
        -13    1    3    3    0    0 -0.30274833825E+03  0.89425925148E+02  0.23258981720E+03  0.39211168749E+03  0.00000000000E+00 0.  1.
         22    1    1    2    0    0  0.47391714654E+03 -0.14253120884E+03 -0.10085181111E+04  0.11233972528E+04  0.00000000000E+00 0. -1.
<mgrwt>
<rscale>  0 0.17148691E+04</rscale>
<asrwt>0</asrwt>
<pdfrwt beam="1">  1        2 0.18111431E+00 0.17148691E+04</pdfrwt>
<pdfrwt beam="2">  1       -2 0.96077674E-01 0.17148691E+04</pdfrwt>
<totfact> 0.16865990E+01</totfact>
</mgrwt>
</event>
<event>
 6    1  0.1528034E-005  0.4830621E+04  0.7818608E-02  0.7855180E-01
          1   -1    0    0  501    0  0.00000000000E+00  0.00000000000E+00  0.27010977264E+04  0.27010977264E+04  0.00000000000E+00 0. -1.
         -1   -1    0    0    0  501 -0.00000000000E+00 -0.00000000000E+00 -0.21597605914E+04  0.21597605914E+04  0.00000000000E+00 0.  1.
         23    2    1    2    0    0 -0.15326805416E+04 -0.50231279020E+03 -0.15372166118E+04  0.22299243658E+04  0.89999907716E+02 0.  0.
         11    1    3    3    0    0 -0.80114453744E+03 -0.26585670311E+03 -0.74248144124E+03  0.11241846143E+04  0.00000000000E+00 0.  1.
        -11    1    3    3    0    0 -0.73153600419E+03 -0.23645608709E+03 -0.79473517060E+03  0.11057397515E+04  0.00000000000E+00 0. -1.
         22    1    1    2    0    0  0.15326805416E+04  0.50231279020E+03  0.20785537468E+04  0.26309339521E+04  0.00000000000E+00 0. -1.
<mgrwt>
<rscale>  0 0.48306208E+04</rscale>
<asrwt>0</asrwt>
<pdfrwt beam="1">  1        1 0.41555350E+00 0.48306208E+04</pdfrwt>
<pdfrwt beam="2">  1       -1 0.33227086E+00 0.48306208E+04</pdfrwt>
<totfact> 0.14581696E-02</totfact>
</mgrwt>
</event>
<event>
 6    1  0.1863876E-005  0.2904878E+04  0.7818608E-02  0.8271428E-01
          4   -1    0    0  501    0  0.00000000000E+00  0.00000000000E+00  0.17411588867E+04  0.17411588867E+04  0.00000000000E+00 0. -1.
         -4   -1    0    0    0  501 -0.00000000000E+00 -0.00000000000E+00 -0.12115950236E+04  0.12115950236E+04  0.00000000000E+00 0.  1.
         23    2    1    2    0    0 -0.52751816564E+03 -0.11981067084E+04 -0.37128486415E+03  0.13636461326E+04  0.89124771718E+02 0.  0.
         13    1    3    3    0    0 -0.34422070567E+03 -0.87310816718E+03 -0.28242193033E+03  0.98008566591E+03  0.00000000000E+00 0. -1.
        -13    1    3    3    0    0 -0.18329745997E+03 -0.32499854120E+03 -0.88862933820E+02  0.38356046670E+03  0.00000000000E+00 0.  1.
         22    1    1    2    0    0  0.52751816564E+03  0.11981067084E+04  0.90084872730E+03  0.15891077777E+04  0.00000000000E+00 0. -1.
<mgrwt>
<rscale>  0 0.29048783E+04</rscale>
<asrwt>0</asrwt>
<pdfrwt beam="1">  1        4 0.26787060E+00 0.29048783E+04</pdfrwt>
<pdfrwt beam="2">  1       -4 0.18639923E+00 0.29048783E+04</pdfrwt>
<totfact> 0.13615455E-02</totfact>
</mgrwt>
</event>
<event>
 6    1  0.1528034E-005  0.1707456E+04  0.7818608E-02  0.8757123E-01
         -2   -1    0    0    0  501 -0.00000000000E+00  0.00000000000E+00  0.64921895762E+03  0.64921895762E+03  0.00000000000E+00 0.  1.
          2   -1    0    0  501    0  0.00000000000E+00 -0.00000000000E+00 -0.11226592636E+04  0.11226592636E+04  0.00000000000E+00 0. -1.
         23    2    1    2    0    0  0.31210641663E+03  0.76279790363E+03 -0.17222252272E+02  0.82985594463E+03  0.95358406963E+02 0.  0.
         11    1    3    3    0    0  0.14816813538E+03  0.48429331082E+03 -0.59660642340E+01  0.50648731591E+03  0.00000000000E+00 0.  1.
        -11    1    3    3    0    0  0.16393828125E+03  0.27850459280E+03 -0.11256188038E+02  0.32336862872E+03  0.00000000000E+00 0. -1.
         22    1    1    2    0    0 -0.31210641663E+03 -0.76279790363E+03 -0.45621805372E+03  0.94202227660E+03  0.00000000000E+00 0. -1.
<mgrwt>
<rscale>  0 0.17074562E+04</rscale>
<asrwt>0</asrwt>
<pdfrwt beam="1">  1        2 0.17271681E+00 0.17074562E+04</pdfrwt>
<pdfrwt beam="2">  1       -2 0.99879840E-01 0.17074562E+04</pdfrwt>
<totfact> 0.16623269E+01</totfact>
</mgrwt>
</event>
<event>
 6    1  0.1528034E-005  0.1844217E+04  0.7818608E-02  0.8683132E-01
          1   -1    0    0  501    0  0.00000000000E+00  0.00000000000E+00  0.11748242939E+04  0.11748242939E+04  0.00000000000E+00 0. -1.
         -1   -1    0    0    0  501 -0.00000000000E+00 -0.00000000000E+00 -0.72375445373E+03  0.72375445373E+03  0.00000000000E+00 0.  1.
         23    2    1    2    0    0  0.52461021631E+03 -0.72233496110E+03  0.45415570866E+03  0.10058339926E+04  0.91983356650E+02 0.  0.
         11    1    3    3    0    0  0.20399439052E+03 -0.28784284610E+03  0.12976212828E+03  0.37590613901E+03  0.00000000000E+00 0. -1.
        -11    1    3    3    0    0  0.32061582579E+03 -0.43449211500E+03  0.32439358038E+03  0.62992785360E+03  0.00000000000E+00 0.  1.
         22    1    1    2    0    0 -0.52461021631E+03  0.72233496110E+03 -0.30858684588E+01  0.89274475505E+03  0.00000000000E+00 0.  1.
<mgrwt>
<rscale>  0 0.18442172E+04</rscale>
<asrwt>0</asrwt>
<pdfrwt beam="1">  1        1 0.18074220E+00 0.18442172E+04</pdfrwt>
<pdfrwt beam="2">  1       -1 0.11134684E+00 0.18442172E+04</pdfrwt>
<totfact> 0.77730223E+00</totfact>
</mgrwt>
</event>
<event>
 6    1  0.1528034E-005  0.6637960E+03  0.7818608E-02  0.9781231E-01
         -2   -1    0    0    0  501 -0.00000000000E+00  0.00000000000E+00  0.13648808770E+03  0.13648808770E+03  0.00000000000E+00 0.  1.
          2   -1    0    0  501    0  0.00000000000E+00 -0.00000000000E+00 -0.80707610487E+03  0.80707610487E+03  0.00000000000E+00 0. -1.
         23    2    1    2    0    0 -0.29604511956E+03  0.13481562015E+03 -0.33699058506E+03  0.47761869043E+03  0.93482590776E+02 0.  0.
         13    1    3    3    0    0 -0.24370156484E+03  0.10061213832E+03 -0.21371709162E+03  0.33939394563E+03  0.00000000000E+00 0.  1.
        -13    1    3    3    0    0 -0.52343554728E+02  0.34203481823E+02 -0.12327349344E+03  0.13822474480E+03  0.00000000000E+00 0. -1.
         22    1    1    2    0    0  0.29604511956E+03 -0.13481562015E+03 -0.33359743211E+03  0.46594550214E+03  0.00000000000E+00 0.  1.
<mgrwt>
<rscale>  0 0.66379598E+03</rscale>
<asrwt>0</asrwt>
<pdfrwt beam="1">  1        2 0.12416555E+00 0.66379598E+03</pdfrwt>
<pdfrwt beam="2">  1       -2 0.20998168E-01 0.66379598E+03</pdfrwt>
<totfact> 0.67072856E+02</totfact>
</mgrwt>
</event>
<event>
 6    1  0.1920905E-005  0.2909593E+04  0.7818608E-02  0.8270029E-01
         -1   -1    0    0    0  501 -0.00000000000E+00  0.00000000000E+00  0.20122384649E+04  0.20122384649E+04  0.00000000000E+00 0.  1.
          1   -1    0    0  501    0  0.00000000000E+00 -0.00000000000E+00 -0.10517802145E+04  0.10517802145E+04  0.00000000000E+00 0. -1.
         23    2    1    2    0    0 -0.31406497539E+03  0.45503021524E+03  0.18961090969E+04  0.19772197965E+04  0.92082086291E+02 0.  0.
         13    1    3    3    0    0 -0.13044586109E+03  0.20987308207E+03  0.10052006013E+04  0.10351285341E+04  0.00000000000E+00 0. -1.
        -13    1    3    3    0    0 -0.18361911430E+03  0.24515713317E+03  0.89090849556E+03  0.94209126233E+03  0.00000000000E+00 0.  1.
         22    1    1    2    0    0  0.31406497539E+03 -0.45503021524E+03 -0.93565084648E+03  0.10867988830E+04  0.00000000000E+00 0. -1.
<mgrwt>
<rscale>  0 0.29095928E+04</rscale>
<asrwt>0</asrwt>
<pdfrwt beam="1">  1        1 0.16181234E+00 0.29095928E+04</pdfrwt>
<pdfrwt beam="2">  1       -1 0.30957515E+00 0.29095928E+04</pdfrwt>
<totfact> 0.33857252E-01</totfact>
</mgrwt>
</event>
<event>
 6    1  0.1956939E-005  0.5438454E+04  0.7818608E-02  0.7764215E-01
         -2   -1    0    0    0  501 -0.00000000000E+00  0.00000000000E+00  0.32179004564E+04  0.32179004564E+04  0.00000000000E+00 0.  1.
          2   -1    0    0  501    0  0.00000000000E+00 -0.00000000000E+00 -0.22978324558E+04  0.22978324558E+04  0.00000000000E+00 0. -1.
         23    2    1    2    0    0 -0.23946505517E+04  0.47630352303E+03  0.16725165611E+04  0.29608561741E+04  0.90229295592E+02 0.  0.
         13    1    3    3    0    0 -0.11697033389E+04  0.27635582740E+03  0.80577383836E+03  0.14470141406E+04  0.00000000000E+00 0. -1.
        -13    1    3    3    0    0 -0.12249472128E+04  0.19994769563E+03  0.86674272272E+03  0.15138420335E+04  0.00000000000E+00 0.  1.
         22    1    1    2    0    0  0.23946505517E+04 -0.47630352303E+03 -0.75244856043E+03  0.25548767381E+04  0.00000000000E+00 0. -1.
<mgrwt>
<rscale>  0 0.54384542E+04</rscale>
<asrwt>0</asrwt>
<pdfrwt beam="1">  1        2 0.35351269E+00 0.54384542E+04</pdfrwt>
<pdfrwt beam="2">  1       -2 0.49506161E+00 0.54384542E+04</pdfrwt>
<totfact> 0.57096624E-03</totfact>
</mgrwt>
</event>
<event>
 6    1  0.1528034E-005  0.8204582E+03  0.7818608E-02  0.9530868E-01
         -2   -1    0    0    0  501 -0.00000000000E+00  0.00000000000E+00  0.23118022281E+03  0.23118022281E+03  0.00000000000E+00 0.  1.
          2   -1    0    0  501    0  0.00000000000E+00 -0.00000000000E+00 -0.72795125348E+03  0.72795125348E+03  0.00000000000E+00 0. -1.
         23    2    1    2    0    0 -0.17067754501E+02 -0.18901713664E+03 -0.67007398515E+03  0.70212427753E+03  0.89222022730E+02 0.  0.
         13    1    3    3    0    0 -0.37902619436E+02 -0.32589771899E+02 -0.12373767357E+03  0.13345303913E+03  0.00000000000E+00 0.  1.
        -13    1    3    3    0    0  0.20834864936E+02 -0.15642736474E+03 -0.54633631157E+03  0.56867123840E+03  0.00000000000E+00 0. -1.
         22    1    1    2    0    0  0.17067754501E+02  0.18901713664E+03  0.17330295448E+03  0.25700719876E+03  0.00000000000E+00 0.  1.
<mgrwt>
<rscale>  0 0.82045825E+03</rscale>
<asrwt>0</asrwt>
<pdfrwt beam="1">  1        2 0.11199250E+00 0.82045825E+03</pdfrwt>
<pdfrwt beam="2">  1       -2 0.35566188E-01 0.82045825E+03</pdfrwt>
<totfact> 0.29086129E+02</totfact>
</mgrwt>
</event>
<event>
 6    1  0.1528034E-005  0.1825229E+04  0.7818608E-02  0.8692997E-01
         -1   -1    0    0    0  501 -0.00000000000E+00  0.00000000000E+00  0.41381341763E+03  0.41381341763E+03  0.00000000000E+00 0.  1.
          1   -1    0    0  501    0  0.00000000000E+00 -0.00000000000E+00 -0.20126587574E+04  0.20126587574E+04  0.00000000000E+00 0. -1.
         23    2    1    2    0    0 -0.85616755197E+03  0.28115869676E+03 -0.62956546991E+03  0.11030007715E+04  0.90470609836E+02 0.  0.
         11    1    3    3    0    0 -0.50278778544E+03  0.18503633374E+03 -0.32450788613E+03  0.62636999462E+03  0.00000000000E+00 0. -1.
        -11    1    3    3    0    0 -0.35337976653E+03  0.96122363016E+02 -0.30505758378E+03  0.47663077690E+03  0.00000000000E+00 0.  1.
         22    1    1    2    0    0  0.85616755197E+03 -0.28115869676E+03 -0.96927986988E+03  0.13234714035E+04  0.00000000000E+00 0. -1.
<mgrwt>
<rscale>  0 0.18252290E+04</rscale>
<asrwt>0</asrwt>
<pdfrwt beam="1">  1        1 0.30963981E+00 0.18252290E+04</pdfrwt>
<pdfrwt beam="2">  1       -1 0.63663603E-01 0.18252290E+04</pdfrwt>
<totfact> 0.68841707E+00</totfact>
</mgrwt>
</event>
<event>
 6    1  0.1528034E-005  0.3393034E+04  0.7818608E-02  0.8139618E-01
          2   -1    0    0  501    0  0.00000000000E+00  0.00000000000E+00  0.18800059488E+04  0.18800059488E+04  0.00000000000E+00 0. -1.
         -2   -1    0    0    0  501 -0.00000000000E+00 -0.00000000000E+00 -0.15309367828E+04  0.15309367828E+04  0.00000000000E+00 0.  1.
         23    2    1    2    0    0  0.20320958568E+02  0.12623986665E+04 -0.96268349175E+03  0.15902949432E+04  0.90637555822E+02 0.  0.
         11    1    3    3    0    0 -0.27614374625E+02  0.74826280801E+03 -0.54417474010E+03  0.92562731772E+03  0.00000000000E+00 0.  1.
        -11    1    3    3    0    0  0.47935333193E+02  0.51413585848E+03 -0.41850875165E+03  0.66466762547E+03  0.00000000000E+00 0. -1.
         22    1    1    2    0    0 -0.20320958568E+02 -0.12623986665E+04  0.13117526578E+04  0.18206477885E+04  0.00000000000E+00 0. -1.
<mgrwt>
<rscale>  0 0.33930342E+04</rscale>
<asrwt>0</asrwt>
<pdfrwt beam="1">  1        2 0.28923168E+00 0.33930342E+04</pdfrwt>
<pdfrwt beam="2">  1       -2 0.23552874E+00 0.33930342E+04</pdfrwt>
<totfact> 0.50993527E-01</totfact>
</mgrwt>
</event>
<event>
 6    1  0.1528034E-005  0.7361862E+03  0.7818608E-02  0.9657275E-01
         -2   -1    0    0    0  501 -0.00000000000E+00  0.00000000000E+00  0.23233883335E+03  0.23233883335E+03  0.00000000000E+00 0.  1.
          2   -1    0    0  501    0  0.00000000000E+00 -0.00000000000E+00 -0.58316779458E+03  0.58316779458E+03  0.00000000000E+00 0. -1.
         23    2    1    2    0    0  0.10856387134E+03  0.34094776009E+03 -0.11330241198E+03  0.38602979401E+03  0.90277771551E+02 0.  0.
         11    1    3    3    0    0  0.30971186516E+02  0.21524918097E+03 -0.94530673711E+02  0.23712332777E+03  0.00000000000E+00 0. -1.
        -11    1    3    3    0    0  0.77592684820E+02  0.12569857912E+03 -0.18771738267E+02  0.14890646624E+03  0.00000000000E+00 0.  1.
         22    1    1    2    0    0 -0.10856387134E+03 -0.34094776009E+03 -0.23752654925E+03  0.42947683391E+03  0.00000000000E+00 0.  1.
<mgrwt>
<rscale>  0 0.73618619E+03</rscale>
<asrwt>0</asrwt>
<pdfrwt beam="1">  1        2 0.89718122E-01 0.73618619E+03</pdfrwt>
<pdfrwt beam="2">  1       -2 0.35744436E-01 0.73618619E+03</pdfrwt>
<totfact> 0.38020683E+02</totfact>
</mgrwt>
</event>
<event>
 6    1  0.1528034E-005  0.2189273E+04  0.7818608E-02  0.8522906E-01
         -2   -1    0    0    0  501 -0.00000000000E+00  0.00000000000E+00  0.13236884076E+04  0.13236884076E+04  0.00000000000E+00 0.  1.
          2   -1    0    0  501    0  0.00000000000E+00 -0.00000000000E+00 -0.90521955814E+03  0.90521955814E+03  0.00000000000E+00 0. -1.
         23    2    1    2    0    0  0.42548686752E+03 -0.10059991133E+04  0.24279997267E+03  0.11225929814E+04  0.90497981975E+02 0.  0.
         13    1    3    3    0    0  0.58929004389E+02 -0.22825917526E+03  0.66037088998E+02  0.24481784202E+03  0.00000000000E+00 0. -1.
        -13    1    3    3    0    0  0.36655786314E+03 -0.77773993800E+03  0.17676288368E+03  0.87777513933E+03  0.00000000000E+00 0.  1.
         22    1    1    2    0    0 -0.42548686752E+03  0.10059991133E+04  0.17566887674E+03  0.11063149843E+04  0.00000000000E+00 0.  1.
<mgrwt>
<rscale>  0 0.21892726E+04</rscale>
<asrwt>0</asrwt>
<pdfrwt beam="1">  1        2 0.13926455E+00 0.21892726E+04</pdfrwt>
<pdfrwt beam="2">  1       -2 0.20364437E+00 0.21892726E+04</pdfrwt>
<totfact> 0.33485159E+00</totfact>
</mgrwt>
</event>
<event>
 6    1  0.1528034E-005  0.1902972E+04  0.7818608E-02  0.8653378E-01
          2   -1    0    0  501    0  0.00000000000E+00  0.00000000000E+00  0.74229478288E+03  0.74229478288E+03  0.00000000000E+00 0.  1.
         -2   -1    0    0    0  501 -0.00000000000E+00 -0.00000000000E+00 -0.12196309966E+04  0.12196309966E+04  0.00000000000E+00 0. -1.
         23    2    1    2    0    0  0.45922315919E+03 -0.78682323465E+03 -0.51429745573E+03  0.10501457370E+04  0.91255045874E+02 0.  0.
         13    1    3    3    0    0  0.23579875061E+03 -0.31448428630E+03 -0.22286185840E+03  0.45185044545E+03  0.00000000000E+00 0.  1.
        -13    1    3    3    0    0  0.22342440858E+03 -0.47233894835E+03 -0.29143559733E+03  0.59829529153E+03  0.00000000000E+00 0. -1.
         22    1    1    2    0    0 -0.45922315919E+03  0.78682323465E+03  0.36961242002E+02  0.91178004252E+03  0.00000000000E+00 0.  1.
<mgrwt>
<rscale>  0 0.19029721E+04</rscale>
<asrwt>0</asrwt>
<pdfrwt beam="1">  1        2 0.11419920E+00 0.19029721E+04</pdfrwt>
<pdfrwt beam="2">  1       -2 0.18763554E+00 0.19029721E+04</pdfrwt>
<totfact> 0.57183852E+00</totfact>
</mgrwt>
</event>
<event>
 6    1  0.2108468E-005  0.2837587E+04  0.7818608E-02  0.8291693E-01
          2   -1    0    0  501    0  0.00000000000E+00  0.00000000000E+00  0.23753036756E+04  0.23753036756E+04  0.00000000000E+00 0. -1.
         -2   -1    0    0    0  501 -0.00000000000E+00 -0.00000000000E+00 -0.84746001035E+03  0.84746001035E+03  0.00000000000E+00 0.  1.
         23    2    1    2    0    0 -0.21373947899E+03  0.56749251733E+03 -0.68982029446E+03  0.92368435711E+03  0.98022603611E+02 0.  0.
         11    1    3    3    0    0 -0.17326470493E+03  0.32776997385E+03 -0.43318077198E+03  0.57017488102E+03  0.00000000000E+00 0.  1.
        -11    1    3    3    0    0 -0.40474774057E+02  0.23972254348E+03 -0.25663952248E+03  0.35350947609E+03  0.00000000000E+00 0. -1.
         22    1    1    2    0    0  0.21373947899E+03 -0.56749251733E+03  0.22176639597E+04  0.22990793288E+04  0.00000000000E+00 0. -1.
<mgrwt>
<rscale>  0 0.28375869E+04</rscale>
<asrwt>0</asrwt>
<pdfrwt beam="1">  1        2 0.36543133E+00 0.28375869E+04</pdfrwt>
<pdfrwt beam="2">  1       -2 0.13037846E+00 0.28375869E+04</pdfrwt>
<totfact> 0.15357526E+00</totfact>
</mgrwt>
</event>
<event>
 6    1  0.1528034E-005  0.2034146E+04  0.7818608E-02  0.8590820E-01
         -1   -1    0    0    0  501 -0.00000000000E+00  0.00000000000E+00  0.81001411877E+03  0.81001411877E+03  0.00000000000E+00 0.  1.
          1   -1    0    0  501    0  0.00000000000E+00 -0.00000000000E+00 -0.12770614486E+04  0.12770614486E+04  0.00000000000E+00 0. -1.
         23    2    1    2    0    0  0.62379885032E+03  0.79642569438E+03 -0.31926937959E+03  0.10646973522E+04  0.90711756261E+02 0.  0.
         11    1    3    3    0    0  0.36048489843E+03  0.48938477305E+03 -0.23408746830E+03  0.65133997336E+03  0.00000000000E+00 0. -1.
        -11    1    3    3    0    0  0.26331395189E+03  0.30704092134E+03 -0.85181911288E+02  0.41335737885E+03  0.00000000000E+00 0.  1.
         22    1    1    2    0    0 -0.62379885032E+03 -0.79642569438E+03 -0.14777795029E+03  0.10223782152E+04  0.00000000000E+00 0.  1.
<mgrwt>
<rscale>  0 0.20341463E+04</rscale>
<asrwt>0</asrwt>
<pdfrwt beam="1">  1        1 0.19647099E+00 0.20341463E+04</pdfrwt>
<pdfrwt beam="2">  1       -1 0.12461756E+00 0.20341463E+04</pdfrwt>
<totfact> 0.49005904E+00</totfact>
</mgrwt>
</event>
<event>
 6    1  0.1528034E-005  0.2489734E+04  0.7818608E-02  0.8406652E-01
          2   -1    0    0  501    0  0.00000000000E+00  0.00000000000E+00  0.19817145722E+04  0.19817145722E+04  0.00000000000E+00 0. -1.
         -2   -1    0    0    0  501 -0.00000000000E+00 -0.00000000000E+00 -0.78199635426E+03  0.78199635426E+03  0.00000000000E+00 0.  1.
         23    2    1    2    0    0 -0.56370999696E+03  0.98272654474E+03  0.11688417649E+04  0.16303646520E+04  0.91528163914E+02 0.  0.
         13    1    3    3    0    0 -0.26750704088E+03  0.40176657581E+03  0.45174218773E+03  0.66109560771E+03  0.00000000000E+00 0.  1.
        -13    1    3    3    0    0 -0.29620295608E+03  0.58095996893E+03  0.71709957718E+03  0.96926904433E+03  0.00000000000E+00 0. -1.
         22    1    1    2    0    0  0.56370999696E+03 -0.98272654474E+03  0.30876453019E+02  0.11333462744E+04  0.00000000000E+00 0.  1.
<mgrwt>
<rscale>  0 0.24897338E+04</rscale>
<asrwt>0</asrwt>
<pdfrwt beam="1">  1        2 0.30487916E+00 0.24897338E+04</pdfrwt>
<pdfrwt beam="2">  1       -2 0.12030713E+00 0.24897338E+04</pdfrwt>
<totfact> 0.32213767E+00</totfact>
</mgrwt>
</event>
<event>
 6    1  0.1528034E-005  0.3136285E+04  0.7818608E-02  0.8205850E-01
          2   -1    0    0  501    0  0.00000000000E+00  0.00000000000E+00  0.44536231451E+04  0.44536231451E+04  0.00000000000E+00 0.  1.
         -2   -1    0    0    0  501 -0.00000000000E+00 -0.00000000000E+00 -0.55215078744E+03  0.55215078744E+03  0.00000000000E+00 0. -1.
         23    2    1    2    0    0  0.13027782331E+04  0.85588973054E+03  0.22049275576E+04  0.27018549640E+04  0.92392405206E+02 0.  0.
         13    1    3    3    0    0  0.17952458593E+03  0.15710977184E+03  0.34642621595E+03  0.42062296710E+03  0.00000000000E+00 0.  1.
        -13    1    3    3    0    0  0.11232536471E+04  0.69877995870E+03  0.18585013417E+04  0.22812319969E+04  0.00000000000E+00 0. -1.
         22    1    1    2    0    0 -0.13027782331E+04 -0.85588973054E+03  0.16965448001E+04  0.23039189686E+04  0.00000000000E+00 0. -1.
<mgrwt>
<rscale>  0 0.31362854E+04</rscale>
<asrwt>0</asrwt>
<pdfrwt beam="1">  1        2 0.68517277E+00 0.31362854E+04</pdfrwt>
<pdfrwt beam="2">  1       -2 0.84946278E-01 0.31362854E+04</pdfrwt>
<totfact> 0.13914078E-01</totfact>
</mgrwt>
</event>
<event>
 6    1  0.1528034E-005  0.2756418E+04  0.7818608E-02  0.8316928E-01
         -2   -1    0    0    0  501 -0.00000000000E+00  0.00000000000E+00  0.13754893837E+04  0.13754893837E+04  0.00000000000E+00 0.  1.
          2   -1    0    0  501    0  0.00000000000E+00 -0.00000000000E+00 -0.13809343356E+04  0.13809343356E+04  0.00000000000E+00 0. -1.
         23    2    1    2    0    0 -0.11040654898E+04  0.70233781289E+03 -0.43058393130E+03  0.13805668368E+04  0.91231900317E+02 0.  0.
         11    1    3    3    0    0 -0.39932741414E+03  0.29794587771E+03 -0.18926168252E+03  0.53296727310E+03  0.00000000000E+00 0. -1.
        -11    1    3    3    0    0 -0.70473807570E+03  0.40439193518E+03 -0.24132224878E+03  0.84759956368E+03  0.00000000000E+00 0.  1.
         22    1    1    2    0    0  0.11040654898E+04 -0.70233781289E+03  0.42513897942E+03  0.13758568825E+04  0.00000000000E+00 0.  1.
<mgrwt>
<rscale>  0 0.27564183E+04</rscale>
<asrwt>0</asrwt>
<pdfrwt beam="1">  1        2 0.21245144E+00 0.27564183E+04</pdfrwt>
<pdfrwt beam="2">  1       -2 0.21161375E+00 0.27564183E+04</pdfrwt>
<totfact> 0.14489503E+00</totfact>
</mgrwt>
</event>
<event>
 6    1  0.1528034E-005  0.2007741E+04  0.7818608E-02  0.8603010E-01
         -1   -1    0    0    0  501 -0.00000000000E+00  0.00000000000E+00  0.57715734254E+03  0.57715734254E+03  0.00000000000E+00 0.  1.
          1   -1    0    0  501    0  0.00000000000E+00 -0.00000000000E+00 -0.17460680479E+04  0.17460680479E+04  0.00000000000E+00 0. -1.
         23    2    1    2    0    0 -0.31585390137E+03 -0.88655170321E+03 -0.18845529984E+03  0.96417042036E+03  0.91496393323E+02 0.  0.
         11    1    3    3    0    0 -0.14687785596E+03 -0.35825856257E+03 -0.35580098449E+02  0.38882932713E+03  0.00000000000E+00 0.  1.
        -11    1    3    3    0    0 -0.16897604541E+03 -0.52829314063E+03 -0.15287520139E+03  0.57534109323E+03  0.00000000000E+00 0. -1.
         22    1    1    2    0    0  0.31585390137E+03  0.88655170321E+03 -0.98045540549E+03  0.13590549700E+04  0.00000000000E+00 0. -1.
<mgrwt>
<rscale>  0 0.20077410E+04</rscale>
<asrwt>0</asrwt>
<pdfrwt beam="1">  1        1 0.26862585E+00 0.20077410E+04</pdfrwt>
<pdfrwt beam="2">  1       -1 0.88793438E-01 0.20077410E+04</pdfrwt>
<totfact> 0.51139452E+00</totfact>
</mgrwt>
</event>
<event>
 6    1  0.1528034E-005  0.2619817E+04  0.7818608E-02  0.8361501E-01
         -1   -1    0    0    0  501 -0.00000000000E+00  0.00000000000E+00  0.13380655457E+04  0.13380655457E+04  0.00000000000E+00 0.  1.
          1   -1    0    0  501    0  0.00000000000E+00 -0.00000000000E+00 -0.12823439552E+04  0.12823439552E+04  0.00000000000E+00 0. -1.
         23    2    1    2    0    0  0.76092152024E+03 -0.77628918504E+02 -0.10338230334E+04  0.12891937796E+04  0.90568912123E+02 0.  0.
         11    1    3    3    0    0  0.60282242295E+03 -0.37022881733E+02 -0.76472046896E+03  0.97445521346E+03  0.00000000000E+00 0.  1.
        -11    1    3    3    0    0  0.15809909729E+03 -0.40606036772E+02 -0.26910256449E+03  0.31473856612E+03  0.00000000000E+00 0. -1.
         22    1    1    2    0    0 -0.76092152024E+03  0.77628918504E+02  0.10895446240E+04  0.13312157213E+04  0.00000000000E+00 0.  1.
<mgrwt>
<rscale>  0 0.26198170E+04</rscale>
<asrwt>0</asrwt>
<pdfrwt beam="1">  1        1 0.19728368E+00 0.26198170E+04</pdfrwt>
<pdfrwt beam="2">  1       -1 0.20585624E+00 0.26198170E+04</pdfrwt>
<totfact> 0.11234103E+00</totfact>
</mgrwt>
</event>
<event>
 6    1  0.1528034E-005  0.2686410E+04  0.7818608E-02  0.8339428E-01
          2   -1    0    0  501    0  0.00000000000E+00  0.00000000000E+00  0.13897562630E+04  0.13897562630E+04  0.00000000000E+00 0. -1.
         -2   -1    0    0    0  501 -0.00000000000E+00 -0.00000000000E+00 -0.12982133354E+04  0.12982133354E+04  0.00000000000E+00 0.  1.
         23    2    1    2    0    0 -0.11598446019E+04  0.50188979636E+03  0.49616050068E+03  0.13610000250E+04  0.94936595790E+02 0.  0.
         13    1    3    3    0    0 -0.44754290832E+03  0.16146685376E+03  0.14893277238E+03  0.49854505347E+03  0.00000000000E+00 0.  1.
        -13    1    3    3    0    0 -0.71230169363E+03  0.34042294260E+03  0.34722772830E+03  0.86245497152E+03  0.00000000000E+00 0. -1.
         22    1    1    2    0    0  0.11598446019E+04 -0.50188979636E+03 -0.40461757304E+03  0.13269695734E+04  0.00000000000E+00 0.  1.
<mgrwt>
<rscale>  0 0.26864103E+04</rscale>
<asrwt>0</asrwt>
<pdfrwt beam="1">  1        2 0.21380866E+00 0.26864103E+04</pdfrwt>
<pdfrwt beam="2">  1       -2 0.19972513E+00 0.26864103E+04</pdfrwt>
<totfact> 0.17206230E+00</totfact>
</mgrwt>
</event>
<event>
 6    1  0.1528034E-005  0.4721910E+04  0.7818608E-02  0.7872898E-01
         -2   -1    0    0    0  501 -0.00000000000E+00  0.00000000000E+00  0.46914758139E+04  0.46914758139E+04  0.00000000000E+00 0.  1.
          2   -1    0    0  501    0  0.00000000000E+00 -0.00000000000E+00 -0.11881352353E+04  0.11881352353E+04  0.00000000000E+00 0. -1.
         23    2    1    2    0    0  0.15080431622E+04  0.13873807714E+03 -0.50165431850E+03  0.15978559700E+04  0.89689533858E+02 0.  0.
         13    1    3    3    0    0  0.51817559120E+03  0.89607441610E+02 -0.16464630396E+03  0.55103887550E+03  0.00000000000E+00 0.  1.
        -13    1    3    3    0    0  0.98986757096E+03  0.49130635529E+02 -0.33700801454E+03  0.10468170945E+04  0.00000000000E+00 0. -1.
         22    1    1    2    0    0 -0.15080431622E+04 -0.13873807714E+03  0.40049948971E+04  0.42817550793E+04  0.00000000000E+00 0.  1.
<mgrwt>
<rscale>  0 0.47219097E+04</rscale>
<asrwt>0</asrwt>
<pdfrwt beam="1">  1        2 0.18279004E+00 0.47219097E+04</pdfrwt>
<pdfrwt beam="2">  1       -2 0.72176550E+00 0.47219097E+04</pdfrwt>
<totfact> 0.27175829E-03</totfact>
</mgrwt>
</event>
<event>
 6    1  0.1528034E-005  0.6030863E+03  0.7818608E-02  0.9899024E-01
         -1   -1    0    0    0  501 -0.00000000000E+00  0.00000000000E+00  0.11888553163E+03  0.11888553163E+03  0.00000000000E+00 0.  1.
          1   -1    0    0  501    0  0.00000000000E+00 -0.00000000000E+00 -0.76483877038E+03  0.76483877038E+03  0.00000000000E+00 0. -1.
         23    2    1    2    0    0  0.14313839878E+03  0.12572613704E+03 -0.66281112689E+03  0.69246570447E+03  0.62405922699E+02 0.  0.
         11    1    3    3    0    0  0.68393213982E+02  0.20494368839E+02 -0.23719832708E+03  0.24771091466E+03  0.00000000000E+00 0.  1.
        -11    1    3    3    0    0  0.74745184801E+02  0.10523176820E+03 -0.42561279981E+03  0.44475478981E+03  0.00000000000E+00 0. -1.
         22    1    1    2    0    0 -0.14313839878E+03 -0.12572613704E+03  0.16857888140E+02  0.19125859754E+03  0.00000000000E+00 0.  1.
<mgrwt>
<rscale>  0 0.60308628E+03</rscale>
<asrwt>0</asrwt>
<pdfrwt beam="1">  1        1 0.11766750E+00 0.60308628E+03</pdfrwt>
<pdfrwt beam="2">  1       -1 0.18290082E-01 0.60308628E+03</pdfrwt>
<totfact> 0.56990914E+02</totfact>
</mgrwt>
</event>
<event>
 6    1  0.1528034E-005  0.2882295E+04  0.7818608E-02  0.8278165E-01
          1   -1    0    0  501    0  0.00000000000E+00  0.00000000000E+00  0.28822560928E+04  0.28822560928E+04  0.00000000000E+00 0. -1.
         -1   -1    0    0    0  501 -0.00000000000E+00 -0.00000000000E+00 -0.72058345919E+03  0.72058345919E+03  0.00000000000E+00 0.  1.
         23    2    1    2    0    0  0.59308005177E+03 -0.30711186791E+03 -0.51228346654E+03  0.84673671052E+03  0.92016626973E+02 0.  0.
         13    1    3    3    0    0  0.28333216574E+03 -0.15276775289E+03 -0.18968962853E+03  0.37362716394E+03  0.00000000000E+00 0.  1.
        -13    1    3    3    0    0  0.30974788604E+03 -0.15434411502E+03 -0.32259383801E+03  0.47310954658E+03  0.00000000000E+00 0. -1.
         22    1    1    2    0    0 -0.59308005177E+03  0.30711186791E+03  0.26739561002E+04  0.27561028415E+04  0.00000000000E+00 0. -1.
<mgrwt>
<rscale>  0 0.28822950E+04</rscale>
<asrwt>0</asrwt>
<pdfrwt beam="1">  1        1 0.44342401E+00 0.28822950E+04</pdfrwt>
<pdfrwt beam="2">  1       -1 0.11085900E+00 0.28822950E+04</pdfrwt>
<totfact> 0.46833470E-01</totfact>
</mgrwt>
</event>
<event>
 6    1  0.1528034E-005  0.8348105E+03  0.7818608E-02  0.9510954E-01
          1   -1    0    0  501    0  0.00000000000E+00  0.00000000000E+00  0.75049730699E+03  0.75049730699E+03  0.00000000000E+00 0.  1.
         -1   -1    0    0    0  501 -0.00000000000E+00 -0.00000000000E+00 -0.23214894694E+03  0.23214894694E+03  0.00000000000E+00 0. -1.
         23    2    1    2    0    0  0.24291065380E+03 -0.33131005526E+03  0.30641928375E+03  0.52038456200E+03  0.90196321827E+02 0.  0.
         11    1    3    3    0    0  0.97639745468E+02 -0.20451090286E+03  0.18469001879E+03  0.29235018783E+03  0.00000000000E+00 0. -1.
        -11    1    3    3    0    0  0.14527090833E+03 -0.12679915240E+03  0.12172926496E+03  0.22803437417E+03  0.00000000000E+00 0.  1.
         22    1    1    2    0    0 -0.24291065380E+03  0.33131005526E+03  0.21192907630E+03  0.46226169193E+03  0.00000000000E+00 0. -1.
<mgrwt>
<rscale>  0 0.83481054E+03</rscale>
<asrwt>0</asrwt>
<pdfrwt beam="1">  1        1 0.11546112E+00 0.83481054E+03</pdfrwt>
<pdfrwt beam="2">  1       -1 0.35715223E-01 0.83481054E+03</pdfrwt>
<totfact> 0.18473234E+02</totfact>
</mgrwt>
</event>
<event>
 6    1  0.1528034E-005  0.3601852E+04  0.7818608E-02  0.8090068E-01
          2   -1    0    0  501    0  0.00000000000E+00  0.00000000000E+00  0.14836847688E+04  0.14836847688E+04  0.00000000000E+00 0. -1.
         -2   -1    0    0    0  501 -0.00000000000E+00 -0.00000000000E+00 -0.21860001944E+04  0.21860001944E+04  0.00000000000E+00 0.  1.
         23    2    1    2    0    0 -0.14125459520E+04  0.70383739308E+03 -0.12327926236E+04  0.20047287475E+04  0.92122505772E+02 0.  0.
         13    1    3    3    0    0 -0.42366187172E+03  0.18787901725E+03 -0.31630259509E+03  0.56110180746E+03  0.00000000000E+00 0. -1.
        -13    1    3    3    0    0 -0.98888408026E+03  0.51595837583E+03 -0.91649002852E+03  0.14436269401E+04  0.00000000000E+00 0.  1.
         22    1    1    2    0    0  0.14125459520E+04 -0.70383739308E+03  0.53047719804E+03  0.16649562156E+04  0.00000000000E+00 0. -1.
<mgrwt>
<rscale>  0 0.36018524E+04</rscale>
<asrwt>0</asrwt>
<pdfrwt beam="1">  1        2 0.22825919E+00 0.36018524E+04</pdfrwt>
<pdfrwt beam="2">  1       -2 0.33630772E+00 0.36018524E+04</pdfrwt>
<totfact> 0.20030740E-01</totfact>
</mgrwt>
</event>
<event>
 6    1  0.1528034E-005  0.1526587E+04  0.7818608E-02  0.8866963E-01
         -2   -1    0    0    0  501 -0.00000000000E+00  0.00000000000E+00  0.95536711068E+03  0.95536711068E+03  0.00000000000E+00 0.  1.
          2   -1    0    0  501    0  0.00000000000E+00 -0.00000000000E+00 -0.60983564352E+03  0.60983564352E+03  0.00000000000E+00 0. -1.
         23    2    1    2    0    0  0.66968562991E+03  0.11810761149E+03  0.52145851454E+03  0.86279363069E+03  0.10032754346E+03 0.  0.
         11    1    3    3    0    0  0.36030069973E+03  0.29035691181E+02  0.22946008775E+03  0.42814903650E+03  0.00000000000E+00 0. -1.
        -11    1    3    3    0    0  0.30938493017E+03  0.89071920305E+02  0.29199842679E+03  0.43464459418E+03  0.00000000000E+00 0.  1.
         22    1    1    2    0    0 -0.66968562991E+03 -0.11810761149E+03 -0.17592704738E+03  0.70240912351E+03  0.00000000000E+00 0. -1.
<mgrwt>
<rscale>  0 0.15265869E+04</rscale>
<asrwt>0</asrwt>
<pdfrwt beam="1">  1        2 0.93820868E-01 0.15265869E+04</pdfrwt>
<pdfrwt beam="2">  1       -2 0.14697956E+00 0.15265869E+04</pdfrwt>
<totfact> 0.14815624E+01</totfact>
</mgrwt>
</event>
<event>
 6    1  0.1528034E-005  0.1779200E+04  0.7818608E-02  0.8717440E-01
         -1   -1    0    0    0  501 -0.00000000000E+00  0.00000000000E+00  0.69406555347E+03  0.69406555347E+03  0.00000000000E+00 0.  1.
          1   -1    0    0  501    0  0.00000000000E+00 -0.00000000000E+00 -0.11402205496E+04  0.11402205496E+04  0.00000000000E+00 0. -1.
         23    2    1    2    0    0  0.53302727476E+03  0.99259445146E+02  0.49946324377E+03  0.74425657653E+03  0.10239046214E+03 0.  0.
         13    1    3    3    0    0  0.17097876435E+03 -0.10158069181E+02  0.12518152547E+03  0.21214933077E+03  0.00000000000E+00 0. -1.
        -13    1    3    3    0    0  0.36204851041E+03  0.10941751433E+03  0.37428171829E+03  0.53210724575E+03  0.00000000000E+00 0.  1.
         22    1    1    2    0    0 -0.53302727476E+03 -0.99259445146E+02 -0.94561823987E+03  0.10900295265E+04  0.00000000000E+00 0. -1.
<mgrwt>
<rscale>  0 0.17791996E+04</rscale>
<asrwt>0</asrwt>
<pdfrwt beam="1">  1        1 0.17541854E+00 0.17791996E+04</pdfrwt>
<pdfrwt beam="2">  1       -1 0.10677932E+00 0.17791996E+04</pdfrwt>
<totfact> 0.91537866E+00</totfact>
</mgrwt>
</event>
<event>
 6    1  0.1528034E-005  0.1868533E+04  0.7818608E-02  0.8670680E-01
          2   -1    0    0  501    0  0.00000000000E+00  0.00000000000E+00  0.18822168620E+04  0.18822168620E+04  0.00000000000E+00 0.  1.
         -2   -1    0    0    0  501 -0.00000000000E+00 -0.00000000000E+00 -0.46373706982E+03  0.46373706982E+03  0.00000000000E+00 0. -1.
         23    2    1    2    0    0 -0.28957195586E+03  0.18107369586E+03  0.17996656562E+04  0.18341509776E+04  0.93132880686E+02 0.  0.
         13    1    3    3    0    0 -0.61536758403E+02 -0.19191537956E+01  0.30164164627E+03  0.30786058298E+03  0.00000000000E+00 0.  1.
        -13    1    3    3    0    0 -0.22803519745E+03  0.18299284966E+03  0.14980240100E+04  0.15262903946E+04  0.00000000000E+00 0. -1.
         22    1    1    2    0    0  0.28957195586E+03 -0.18107369586E+03 -0.38118586407E+03  0.51180295419E+03  0.00000000000E+00 0. -1.
<mgrwt>
<rscale>  0 0.18685328E+04</rscale>
<asrwt>0</asrwt>
<pdfrwt beam="1">  1        2 0.28957182E+00 0.18685328E+04</pdfrwt>
<pdfrwt beam="2">  1       -2 0.71344166E-01 0.18685328E+04</pdfrwt>
<totfact> 0.13003469E+01</totfact>
</mgrwt>
</event>
<event>
 6    1  0.1528034E-005  0.9493513E+03  0.7818608E-02  0.9365909E-01
          2   -1    0    0  501    0  0.00000000000E+00  0.00000000000E+00  0.18367685270E+04  0.18367685270E+04  0.00000000000E+00 0. -1.
         -2   -1    0    0    0  501 -0.00000000000E+00 -0.00000000000E+00 -0.12267030555E+03  0.12267030555E+03  0.00000000000E+00 0.  1.
         23    2    1    2    0    0 -0.52354953305E+01  0.30945356081E+03  0.15958921795E+04  0.16281359725E+04  0.90365810970E+02 0.  0.
         13    1    3    3    0    0  0.48396382057E+01  0.27445620316E+03  0.12208156775E+04  0.12512955478E+04  0.00000000000E+00 0. -1.
        -13    1    3    3    0    0 -0.10075133536E+02  0.34997357655E+02  0.37507650197E+03  0.37684042470E+03  0.00000000000E+00 0.  1.
         22    1    1    2    0    0  0.52354953305E+01 -0.30945356081E+03  0.11820604201E+03  0.33130286005E+03  0.00000000000E+00 0.  1.
<mgrwt>
<rscale>  0 0.94935127E+03</rscale>
<asrwt>0</asrwt>
<pdfrwt beam="1">  1        2 0.28257975E+00 0.94935127E+03</pdfrwt>
<pdfrwt beam="2">  1       -2 0.18872356E-01 0.94935127E+03</pdfrwt>
<totfact> 0.19547607E+02</totfact>
</mgrwt>
</event>
<event>
 6    1  0.1528034E-005  0.3518993E+04  0.7818608E-02  0.8109303E-01
          2   -1    0    0  501    0  0.00000000000E+00  0.00000000000E+00  0.32411381499E+04  0.32411381499E+04  0.00000000000E+00 0. -1.
         -2   -1    0    0    0  501 -0.00000000000E+00 -0.00000000000E+00 -0.95516711203E+03  0.95516711203E+03  0.00000000000E+00 0.  1.
         23    2    1    2    0    0  0.44501226628E+03 -0.95982840717E+03 -0.53098787227E+03  0.11872250055E+04  0.90821829952E+02 0.  0.
         11    1    3    3    0    0  0.28890205046E+03 -0.60531628969E+03 -0.28788149940E+03  0.72989585765E+03  0.00000000000E+00 0. -1.
        -11    1    3    3    0    0  0.15611021581E+03 -0.35451211748E+03 -0.24310637287E+03  0.45732914782E+03  0.00000000000E+00 0.  1.
         22    1    1    2    0    0 -0.44501226628E+03  0.95982840717E+03  0.28169589101E+04  0.30090802564E+04  0.00000000000E+00 0. -1.
<mgrwt>
<rscale>  0 0.35189934E+04</rscale>
<asrwt>0</asrwt>
<pdfrwt beam="1">  1        2 0.49863663E+00 0.35189934E+04</pdfrwt>
<pdfrwt beam="2">  1       -2 0.14694879E+00 0.35189934E+04</pdfrwt>
<totfact> 0.31594710E-01</totfact>
</mgrwt>
</event>
<event>
 6    1  0.1528034E-005  0.5193399E+04  0.7818608E-02  0.7799347E-01
         -1   -1    0    0    0  501 -0.00000000000E+00  0.00000000000E+00  0.30954459943E+04  0.30954459943E+04  0.00000000000E+00 0.  1.
          1   -1    0    0  501    0  0.00000000000E+00 -0.00000000000E+00 -0.21783122490E+04  0.21783122490E+04  0.00000000000E+00 0. -1.
         23    2    1    2    0    0 -0.24109614308E+04  0.71274235465E+03  0.11152420519E+04  0.27518574550E+04  0.90652820087E+02 0.  0.
         13    1    3    3    0    0 -0.50467682358E+03  0.11440454431E+03  0.24605599339E+03  0.57300143795E+03  0.00000000000E+00 0. -1.
        -13    1    3    3    0    0 -0.19062846072E+04  0.59833781034E+03  0.86918605848E+03  0.21788560171E+04  0.00000000000E+00 0.  1.
         22    1    1    2    0    0  0.24109614308E+04 -0.71274235465E+03 -0.19810830655E+03  0.25219007883E+04  0.00000000000E+00 0. -1.
<mgrwt>
<rscale>  0 0.51933989E+04</rscale>
<asrwt>0</asrwt>
<pdfrwt beam="1">  1        1 0.33512496E+00 0.51933989E+04</pdfrwt>
<pdfrwt beam="2">  1       -1 0.47622246E+00 0.51933989E+04</pdfrwt>
<totfact> 0.34479692E-03</totfact>
</mgrwt>
</event>
<event>
 6    1  0.1528034E-005  0.3727728E+04  0.7818608E-02  0.8061845E-01
          1   -1    0    0  501    0  0.00000000000E+00  0.00000000000E+00  0.22808357217E+04  0.22808357217E+04  0.00000000000E+00 0.  1.
         -1   -1    0    0    0  501 -0.00000000000E+00 -0.00000000000E+00 -0.15231212236E+04  0.15231212236E+04  0.00000000000E+00 0. -1.
         23    2    1    2    0    0  0.17174179170E+04 -0.72127646343E+03  0.36850255328E+03  0.19009987281E+04  0.90763396858E+02 0.  0.
         13    1    3    3    0    0  0.30697379116E+03 -0.10761607371E+03  0.93383585382E+02  0.33842964084E+03  0.00000000000E+00 0. -1.
        -13    1    3    3    0    0  0.14104441258E+04 -0.61366038972E+03  0.27511896790E+03  0.15625690873E+04  0.00000000000E+00 0.  1.
         22    1    1    2    0    0 -0.17174179170E+04  0.72127646343E+03  0.38921194475E+03  0.19029582172E+04  0.00000000000E+00 0. -1.
<mgrwt>
<rscale>  0 0.37277282E+04</rscale>
<asrwt>0</asrwt>
<pdfrwt beam="1">  1        1 0.35089781E+00 0.37277282E+04</pdfrwt>
<pdfrwt beam="2">  1       -1 0.23432634E+00 0.37277282E+04</pdfrwt>
<totfact> 0.13569626E-01</totfact>
</mgrwt>
</event>
<event>
 6    1  0.1528034E-005  0.3437571E+04  0.7818608E-02  0.8128746E-01
          1   -1    0    0  501    0  0.00000000000E+00  0.00000000000E+00  0.32704459424E+04  0.32704459424E+04  0.00000000000E+00 0. -1.
         -1   -1    0    0    0  501 -0.00000000000E+00 -0.00000000000E+00 -0.90330925050E+03  0.90330925050E+03  0.00000000000E+00 0.  1.
         23    2    1    2    0    0  0.10457105241E+04  0.77705021903E+03 -0.17458304028E+03  0.13175940034E+04  0.90869008890E+02 0.  0.
         13    1    3    3    0    0  0.28084821244E+03  0.20581550069E+03 -0.63249267559E+01  0.34824667041E+03  0.00000000000E+00 0.  1.
        -13    1    3    3    0    0  0.76486231170E+03  0.57123471833E+03 -0.16825811352E+03  0.96934733303E+03  0.00000000000E+00 0. -1.
         22    1    1    2    0    0 -0.10457105241E+04 -0.77705021903E+03  0.25417197322E+04  0.28561611895E+04  0.00000000000E+00 0. -1.
<mgrwt>
<rscale>  0 0.34375713E+04</rscale>
<asrwt>0</asrwt>
<pdfrwt beam="1">  1        1 0.50314552E+00 0.34375713E+04</pdfrwt>
<pdfrwt beam="2">  1       -1 0.13897066E+00 0.34375713E+04</pdfrwt>
<totfact> 0.13165451E-01</totfact>
</mgrwt>
</event>
<event>
 6    1  0.1528034E-005  0.1356420E+04  0.7818608E-02  0.8985982E-01
         -2   -1    0    0    0  501 -0.00000000000E+00  0.00000000000E+00  0.34418942592E+03  0.34418942592E+03  0.00000000000E+00 0.  1.
          2   -1    0    0  501    0  0.00000000000E+00 -0.00000000000E+00 -0.13363831608E+04  0.13363831608E+04  0.00000000000E+00 0. -1.
         23    2    1    2    0    0 -0.22996984960E+03 -0.63209219842E+03 -0.42558178086E+03  0.80109786540E+03  0.90615995952E+02 0.  0.
         13    1    3    3    0    0 -0.49320271230E+02 -0.18502245903E+03 -0.78331837587E+02  0.20688565992E+03  0.00000000000E+00 0. -1.
        -13    1    3    3    0    0 -0.18064957837E+03 -0.44706973939E+03 -0.34724994327E+03  0.59421220548E+03  0.00000000000E+00 0.  1.
         22    1    1    2    0    0  0.22996984960E+03  0.63209219842E+03 -0.56661195406E+03  0.87947472136E+03  0.00000000000E+00 0. -1.
<mgrwt>
<rscale>  0 0.13564202E+04</rscale>
<asrwt>0</asrwt>
<pdfrwt beam="1">  1        2 0.20559740E+00 0.13564202E+04</pdfrwt>
<pdfrwt beam="2">  1       -2 0.52952221E-01 0.13564202E+04</pdfrwt>
<totfact> 0.51695281E+01</totfact>
</mgrwt>
</event>
<event>
 6    1  0.1528034E-005  0.2185588E+04  0.7818608E-02  0.8524451E-01
          1   -1    0    0  501    0  0.00000000000E+00  0.00000000000E+00  0.28361182393E+04  0.28361182393E+04  0.00000000000E+00 0. -1.
         -1   -1    0    0    0  501 -0.00000000000E+00 -0.00000000000E+00 -0.42106806432E+03  0.42106806432E+03  0.00000000000E+00 0.  1.
         23    2    1    2    0    0 -0.85031216539E+03  0.38170800027E+03  0.20539981967E+04  0.22576412536E+04  0.96455491021E+02 0.  0.
         13    1    3    3    0    0 -0.63196090999E+03  0.31993747726E+03  0.14939150811E+04  0.16533350691E+04  0.00000000000E+00 0.  1.
        -13    1    3    3    0    0 -0.21835125540E+03  0.61770523002E+02  0.56008311556E+03  0.60430618447E+03  0.00000000000E+00 0. -1.
         22    1    1    2    0    0  0.85031216539E+03 -0.38170800027E+03  0.36105197830E+03  0.99954505007E+03  0.00000000000E+00 0.  1.
<mgrwt>
<rscale>  0 0.21855881E+04</rscale>
<asrwt>0</asrwt>
<pdfrwt beam="1">  1        1 0.43632587E+00 0.21855881E+04</pdfrwt>
<pdfrwt beam="2">  1       -1 0.64779704E-01 0.21855881E+04</pdfrwt>
<totfact> 0.17330943E+00</totfact>
</mgrwt>
</event>
<event>
 6    1  0.1528034E-005  0.3251237E+04  0.7818608E-02  0.8175415E-01
          2   -1    0    0  501    0  0.00000000000E+00  0.00000000000E+00  0.17706001528E+04  0.17706001528E+04  0.00000000000E+00 0. -1.
         -2   -1    0    0    0  501 -0.00000000000E+00 -0.00000000000E+00 -0.14925087728E+04  0.14925087728E+04  0.00000000000E+00 0.  1.
         23    2    1    2    0    0  0.15296470292E+03  0.99523176663E+03  0.14184210631E+04  0.17418475227E+04  0.90719403619E+02 0.  0.
         11    1    3    3    0    0  0.10669897283E+03  0.85018649742E+03  0.12407943819E+04  0.15079033289E+04  0.00000000000E+00 0.  1.
        -11    1    3    3    0    0  0.46265730084E+02  0.14504526921E+03  0.17762668128E+03  0.23394419378E+03  0.00000000000E+00 0. -1.
         22    1    1    2    0    0 -0.15296470292E+03 -0.99523176663E+03 -0.11403296832E+04  0.15212614029E+04  0.00000000000E+00 0.  1.
<mgrwt>
<rscale>  0 0.32512375E+04</rscale>
<asrwt>0</asrwt>
<pdfrwt beam="1">  1        2 0.27240002E+00 0.32512375E+04</pdfrwt>
<pdfrwt beam="2">  1       -2 0.22961674E+00 0.32512375E+04</pdfrwt>
<totfact> 0.64593346E-01</totfact>
</mgrwt>
</event>
<event>
 6    1  0.1528034E-005  0.4051883E+04  0.7818608E-02  0.7994161E-01
         -2   -1    0    0    0  501 -0.00000000000E+00  0.00000000000E+00  0.17211523876E+04  0.17211523876E+04  0.00000000000E+00 0. -1.
          2   -1    0    0  501    0  0.00000000000E+00 -0.00000000000E+00 -0.23847035417E+04  0.23847035417E+04  0.00000000000E+00 0.  1.
         23    2    1    2    0    0  0.11056685867E+04  0.67790450510E+03 -0.19077034191E+04  0.23086435322E+04  0.91897127011E+02 0.  0.
         11    1    3    3    0    0  0.87904096744E+03  0.54982365482E+03 -0.15855169770E+04  0.18944347859E+04  0.00000000000E+00 0. -1.
        -11    1    3    3    0    0  0.22662761922E+03  0.12808085028E+03 -0.32218644212E+03  0.41420874627E+03  0.00000000000E+00 0.  1.
         22    1    1    2    0    0 -0.11056685867E+04 -0.67790450510E+03  0.12441522650E+04  0.17972123971E+04  0.00000000000E+00 0. -1.
<mgrwt>
<rscale>  0 0.40518826E+04</rscale>
<asrwt>0</asrwt>
<pdfrwt beam="1">  1        2 0.36687747E+00 0.40518826E+04</pdfrwt>
<pdfrwt beam="2">  1       -2 0.26479268E+00 0.40518826E+04</pdfrwt>
<totfact> 0.16620563E-01</totfact>
</mgrwt>
</event>
<event>
 6    1  0.1528034E-005  0.1078973E+04  0.7818608E-02  0.9225932E-01
         -3   -1    0    0    0  501 -0.00000000000E+00  0.00000000000E+00  0.22012724621E+03  0.22012724621E+03  0.00000000000E+00 0.  1.
          3   -1    0    0  501    0  0.00000000000E+00 -0.00000000000E+00 -0.13221690940E+04  0.13221690940E+04  0.00000000000E+00 0. -1.
         23    2    1    2    0    0  0.42235270853E+03  0.11144369435E+03 -0.11157936972E+03  0.45979117723E+03  0.90313141345E+02 0.  0.
         13    1    3    3    0    0  0.28869000304E+03  0.54586312724E+02 -0.11230072872E+03  0.31453622536E+03  0.00000000000E+00 0.  1.
        -13    1    3    3    0    0  0.13366270549E+03  0.56857381626E+02  0.72135900362E+00  0.14525495187E+03  0.00000000000E+00 0. -1.
         22    1    1    2    0    0 -0.42235270853E+03 -0.11144369435E+03 -0.99046247810E+03  0.10825051630E+04  0.00000000000E+00 0. -1.
<mgrwt>
<rscale>  0 0.10789726E+04</rscale>
<asrwt>0</asrwt>
<pdfrwt beam="1">  1        3 0.20341063E+00 0.10789726E+04</pdfrwt>
<pdfrwt beam="2">  1       -3 0.33865730E-01 0.10789726E+04</pdfrwt>
<totfact> 0.31516847E+00</totfact>
</mgrwt>
</event>
<event>
 6    1  0.1528034E-005  0.2675833E+04  0.7818608E-02  0.8342889E-01
         -2   -1    0    0    0  501 -0.00000000000E+00  0.00000000000E+00  0.11905663968E+04  0.11905663968E+04  0.00000000000E+00 0.  1.
          2   -1    0    0  501    0  0.00000000000E+00 -0.00000000000E+00 -0.15035035204E+04  0.15035035204E+04  0.00000000000E+00 0. -1.
         23    2    1    2    0    0 -0.10117489003E+04  0.71334286961E+01  0.72238293831E+03  0.12464600410E+04  0.90215304535E+02 0.  0.
         11    1    3    3    0    0 -0.59909856236E+03 -0.52356982457E+00  0.37310574009E+03  0.70578130808E+03  0.00000000000E+00 0. -1.
        -11    1    3    3    0    0 -0.41265033790E+03  0.76569985207E+01  0.34927719822E+03  0.54067873289E+03  0.00000000000E+00 0.  1.
         22    1    1    2    0    0  0.10117489003E+04 -0.71334286961E+01 -0.10353200620E+04  0.14476098762E+04  0.00000000000E+00 0. -1.
<mgrwt>
<rscale>  0 0.26758332E+04</rscale>
<asrwt>0</asrwt>
<pdfrwt beam="1">  1        2 0.23130823E+00 0.26758332E+04</pdfrwt>
<pdfrwt beam="2">  1       -2 0.18316406E+00 0.26758332E+04</pdfrwt>
<totfact> 0.19158824E+00</totfact>
</mgrwt>
</event>
<event>
 6    1  0.1528034E-005  0.1161588E+04  0.7818608E-02  0.9147159E-01
         -2   -1    0    0    0  501 -0.00000000000E+00  0.00000000000E+00  0.78736540577E+03  0.78736540577E+03  0.00000000000E+00 0.  1.
          2   -1    0    0  501    0  0.00000000000E+00 -0.00000000000E+00 -0.42841833622E+03  0.42841833622E+03  0.00000000000E+00 0. -1.
         23    2    1    2    0    0  0.30740583094E+03 -0.38793978751E+03 -0.13076064363E+03  0.51950127920E+03  0.88247433593E+02 0.  0.
         11    1    3    3    0    0  0.79399546387E+02 -0.95980867676E+02 -0.73575571368E+02  0.14467197250E+03  0.00000000000E+00 0. -1.
        -11    1    3    3    0    0  0.22800628455E+03 -0.29195891984E+03 -0.57185072267E+02  0.37482930670E+03  0.00000000000E+00 0.  1.
         22    1    1    2    0    0 -0.30740583094E+03  0.38793978751E+03  0.48970771319E+03  0.69628246279E+03  0.00000000000E+00 0.  1.
<mgrwt>
<rscale>  0 0.11615882E+04</rscale>
<asrwt>0</asrwt>
<pdfrwt beam="1">  1        2 0.65910513E-01 0.11615882E+04</pdfrwt>
<pdfrwt beam="2">  1       -2 0.12113314E+00 0.11615882E+04</pdfrwt>
<totfact> 0.37729683E+01</totfact>
</mgrwt>
</event>
<event>
 6    1  0.1528034E-005  0.9357630E+03  0.7818608E-02  0.9381948E-01
         -1   -1    0    0    0  501 -0.00000000000E+00  0.00000000000E+00  0.44756656181E+03  0.44756656181E+03  0.00000000000E+00 0.  1.
          1   -1    0    0  501    0  0.00000000000E+00 -0.00000000000E+00 -0.48911852390E+03  0.48911852390E+03  0.00000000000E+00 0. -1.
         23    2    1    2    0    0 -0.40291989489E+03 -0.21692097095E+03 -0.96523710009E+02  0.47579351234E+03  0.87541364237E+02 0.  0.
         11    1    3    3    0    0 -0.37691832852E+03 -0.17868052999E+03 -0.71485641963E+02  0.42320722486E+03  0.00000000000E+00 0. -1.
        -11    1    3    3    0    0 -0.26001566373E+02 -0.38240440966E+02 -0.25038068047E+02  0.52586287477E+02  0.00000000000E+00 0.  1.
         22    1    1    2    0    0  0.40291989489E+03  0.21692097095E+03  0.54971747917E+02  0.46089157337E+03  0.00000000000E+00 0. -1.
<mgrwt>
<rscale>  0 0.93576300E+03</rscale>
<asrwt>0</asrwt>
<pdfrwt beam="1">  1        1 0.75249004E-01 0.93576300E+03</pdfrwt>
<pdfrwt beam="2">  1       -1 0.68856394E-01 0.93576300E+03</pdfrwt>
<totfact> 0.98152608E+01</totfact>
</mgrwt>
</event>
<event>
 6    1  0.1528034E-005  0.1857744E+04  0.7818608E-02  0.8676181E-01
         -2   -1    0    0    0  501 -0.00000000000E+00  0.00000000000E+00  0.57690784507E+03  0.57690784507E+03  0.00000000000E+00 0.  1.
          2   -1    0    0  501    0  0.00000000000E+00 -0.00000000000E+00 -0.14955642604E+04  0.14955642604E+04  0.00000000000E+00 0. -1.
         23    2    1    2    0    0 -0.47142255673E+03 -0.44063082415E+03 -0.12023964699E+04  0.13675585159E+04  0.89801299818E+02 0.  0.
         11    1    3    3    0    0 -0.32835603255E+03 -0.31606403129E+03 -0.75955855292E+03  0.88580096596E+03  0.00000000000E+00 0. -1.
        -11    1    3    3    0    0 -0.14306652418E+03 -0.12456679286E+03 -0.44283791697E+03  0.48175754995E+03  0.00000000000E+00 0.  1.
         22    1    1    2    0    0  0.47142255673E+03  0.44063082415E+03  0.28374005456E+03  0.70491358956E+03  0.00000000000E+00 0.  1.
<mgrwt>
<rscale>  0 0.18577435E+04</rscale>
<asrwt>0</asrwt>
<pdfrwt beam="1">  1        2 0.23008681E+00 0.18577435E+04</pdfrwt>
<pdfrwt beam="2">  1       -2 0.88755053E-01 0.18577435E+04</pdfrwt>
<totfact> 0.13093853E+01</totfact>
</mgrwt>
</event>
<event>
 6    1  0.1528034E-005  0.2115055E+04  0.7818608E-02  0.8554641E-01
          1   -1    0    0  501    0  0.00000000000E+00  0.00000000000E+00  0.10996780309E+04  0.10996780309E+04  0.00000000000E+00 0. -1.
         -1   -1    0    0    0  501 -0.00000000000E+00 -0.00000000000E+00 -0.10169922702E+04  0.10169922702E+04  0.00000000000E+00 0.  1.
         23    2    1    2    0    0  0.48704833524E+03 -0.77488016495E+03  0.56786709809E+03  0.10807860021E+04  0.89274801971E+02 0.  0.
         13    1    3    3    0    0  0.22688949345E+03 -0.44401400884E+03  0.31385314708E+03  0.58917830935E+03  0.00000000000E+00 0.  1.
        -13    1    3    3    0    0  0.26015884179E+03 -0.33086615611E+03  0.25401395102E+03  0.49160769271E+03  0.00000000000E+00 0. -1.
         22    1    1    2    0    0 -0.48704833524E+03  0.77488016495E+03 -0.48518133732E+03  0.10358842990E+04  0.00000000000E+00 0.  1.
<mgrwt>
<rscale>  0 0.21150547E+04</rscale>
<asrwt>0</asrwt>
<pdfrwt beam="1">  1        1 0.16918124E+00 0.21150547E+04</pdfrwt>
<pdfrwt beam="2">  1       -1 0.15646035E+00 0.21150547E+04</pdfrwt>
<totfact> 0.36237403E+00</totfact>
</mgrwt>
</event>
<event>
 6    1  0.1528034E-005  0.2548978E+04  0.7818608E-02  0.8385742E-01
         -2   -1    0    0    0  501 -0.00000000000E+00  0.00000000000E+00  0.77530928377E+03  0.77530928377E+03  0.00000000000E+00 0.  1.
          2   -1    0    0  501    0  0.00000000000E+00 -0.00000000000E+00 -0.20950639864E+04  0.20950639864E+04  0.00000000000E+00 0. -1.
         23    2    1    2    0    0 -0.15995594002E+03 -0.76680309609E+03 -0.17905269840E+04  0.19564808083E+04  0.90870138425E+02 0.  0.
         13    1    3    3    0    0 -0.37775171121E+02 -0.28616158004E+03 -0.75595238322E+03  0.80918441602E+03  0.00000000000E+00 0. -1.
        -13    1    3    3    0    0 -0.12218076890E+03 -0.48064151605E+03 -0.10345746007E+04  0.11472963923E+04  0.00000000000E+00 0.  1.
         22    1    1    2    0    0  0.15995594002E+03  0.76680309609E+03  0.47077228135E+03  0.91389246184E+03  0.00000000000E+00 0.  1.
<mgrwt>
<rscale>  0 0.25489783E+04</rscale>
<asrwt>0</asrwt>
<pdfrwt beam="1">  1        2 0.32231754E+00 0.25489783E+04</pdfrwt>
<pdfrwt beam="2">  1       -2 0.11927835E+00 0.25489783E+04</pdfrwt>
<totfact> 0.28312462E+00</totfact>
</mgrwt>
</event>
<event>
 6    1  0.1528034E-005  0.3177400E+04  0.7818608E-02  0.8194811E-01
         -2   -1    0    0    0  501 -0.00000000000E+00  0.00000000000E+00  0.10333148863E+04  0.10333148863E+04  0.00000000000E+00 0.  1.
          2   -1    0    0  501    0  0.00000000000E+00 -0.00000000000E+00 -0.24425936818E+04  0.24425936818E+04  0.00000000000E+00 0. -1.
         23    2    1    2    0    0  0.61928093011E+03 -0.12814051302E+04 -0.14742459201E+04  0.20512230922E+04  0.92774796377E+02 0.  0.
         11    1    3    3    0    0  0.71713050224E+02 -0.22398236388E+03 -0.22893718044E+03  0.32821196427E+03  0.00000000000E+00 0.  1.
        -11    1    3    3    0    0  0.54756787988E+03 -0.10574227663E+04 -0.12453087397E+04  0.17230111279E+04  0.00000000000E+00 0. -1.
         22    1    1    2    0    0 -0.61928093011E+03  0.12814051302E+04  0.64967124530E+02  0.14246854759E+04  0.00000000000E+00 0.  1.
<mgrwt>
<rscale>  0 0.31774005E+04</rscale>
<asrwt>0</asrwt>
<pdfrwt beam="1">  1        2 0.37578364E+00 0.31774005E+04</pdfrwt>
<pdfrwt beam="2">  1       -2 0.15897152E+00 0.31774005E+04</pdfrwt>
<totfact> 0.81251760E-01</totfact>
</mgrwt>
</event>
<event>
 6    1  0.1528034E-005  0.1907067E+04  0.7818608E-02  0.8651347E-01
          1   -1    0    0  501    0  0.00000000000E+00  0.00000000000E+00  0.13893701630E+04  0.13893701630E+04  0.00000000000E+00 0. -1.
         -1   -1    0    0    0  501 -0.00000000000E+00 -0.00000000000E+00 -0.65441600999E+03  0.65441600999E+03  0.00000000000E+00 0.  1.
         23    2    1    2    0    0 -0.31073077696E+03  0.13502982032E+03 -0.58441918865E+03  0.68160678583E+03  0.90858980297E+02 0.  0.
         11    1    3    3    0    0 -0.10748615727E+03  0.20680614641E+01 -0.16466119335E+03  0.19664907698E+03  0.00000000000E+00 0.  1.
        -11    1    3    3    0    0 -0.20324461969E+03  0.13296175886E+03 -0.41975799530E+03  0.48495770884E+03  0.00000000000E+00 0. -1.
         22    1    1    2    0    0  0.31073077696E+03 -0.13502982032E+03  0.13193733416E+04  0.13621793871E+04  0.00000000000E+00 0. -1.
<mgrwt>
<rscale>  0 0.19070669E+04</rscale>
<asrwt>0</asrwt>
<pdfrwt beam="1">  1        1 0.21374926E+00 0.19070669E+04</pdfrwt>
<pdfrwt beam="2">  1       -1 0.10067939E+00 0.19070669E+04</pdfrwt>
<totfact> 0.68586628E+00</totfact>
</mgrwt>
</event>
<event>
 6    1  0.1528034E-005  0.4499259E+04  0.7818608E-02  0.7910766E-01
         -2   -1    0    0    0  501 -0.00000000000E+00  0.00000000000E+00  0.15892866659E+04  0.15892866659E+04  0.00000000000E+00 0.  1.
          2   -1    0    0  501    0  0.00000000000E+00 -0.00000000000E+00 -0.31843426116E+04  0.31843426116E+04  0.00000000000E+00 0. -1.
         23    2    1    2    0    0  0.13373031718E+04  0.12238907313E+04  0.61243253226E+03  0.19171815403E+04  0.11926087470E+03 0.  0.
         13    1    3    3    0    0  0.92755928676E+03  0.89655275619E+03  0.39175091142E+03  0.13481994851E+04  0.00000000000E+00 0. -1.
        -13    1    3    3    0    0  0.40974388509E+03  0.32733797508E+03  0.22068162084E+03  0.56898205514E+03  0.00000000000E+00 0.  1.
         22    1    1    2    0    0 -0.13373031718E+04 -0.12238907313E+04 -0.22074884779E+04  0.28564477373E+04  0.00000000000E+00 0. -1.
<mgrwt>
<rscale>  0 0.44992592E+04</rscale>
<asrwt>0</asrwt>
<pdfrwt beam="1">  1        2 0.48989886E+00 0.44992592E+04</pdfrwt>
<pdfrwt beam="2">  1       -2 0.24450564E+00 0.44992592E+04</pdfrwt>
<totfact> 0.69824141E-02</totfact>
</mgrwt>
</event>
<event>
 6    1  0.1528034E-005  0.2755114E+04  0.7818608E-02  0.8317341E-01
          1   -1    0    0  501    0  0.00000000000E+00  0.00000000000E+00  0.15086571573E+04  0.15086571573E+04  0.00000000000E+00 0. -1.
         -1   -1    0    0    0  501 -0.00000000000E+00 -0.00000000000E+00 -0.12578492198E+04  0.12578492198E+04  0.00000000000E+00 0.  1.
         23    2    1    2    0    0  0.20415950471E+03 -0.13606684007E+04  0.11491281113E+03  0.13839120457E+04  0.94382180099E+02 0.  0.
         11    1    3    3    0    0  0.10846548323E+03 -0.42777039342E+03  0.41189844771E+02  0.44322553385E+03  0.00000000000E+00 0. -1.
        -11    1    3    3    0    0  0.95694021476E+02 -0.93289800727E+03  0.73722966361E+02  0.94068651180E+03  0.00000000000E+00 0.  1.
         22    1    1    2    0    0 -0.20415950471E+03  0.13606684007E+04  0.13589512642E+03  0.13825943315E+04  0.00000000000E+00 0. -1.
<mgrwt>
<rscale>  0 0.27551140E+04</rscale>
<asrwt>0</asrwt>
<pdfrwt beam="1">  1        1 0.23210110E+00 0.27551140E+04</pdfrwt>
<pdfrwt beam="2">  1       -1 0.19351527E+00 0.27551140E+04</pdfrwt>
<totfact> 0.93616561E-01</totfact>
</mgrwt>
</event>
<event>
 6    1  0.1528034E-005  0.1240463E+04  0.7818608E-02  0.9078159E-01
         -2   -1    0    0    0  501 -0.00000000000E+00  0.00000000000E+00  0.40359946189E+03  0.40359946189E+03  0.00000000000E+00 0.  1.
          2   -1    0    0  501    0  0.00000000000E+00 -0.00000000000E+00 -0.95314035614E+03  0.95314035614E+03  0.00000000000E+00 0. -1.
         23    2    1    2    0    0 -0.56631563872E+03 -0.19075693365E+03 -0.44243212790E+03  0.74963694519E+03  0.95434539891E+02 0.  0.
         13    1    3    3    0    0 -0.31692700328E+03 -0.10335658388E+03 -0.18757121122E+03  0.38250263805E+03  0.00000000000E+00 0. -1.
        -13    1    3    3    0    0 -0.24938863544E+03 -0.87400349769E+02 -0.25486091668E+03  0.36713430714E+03  0.00000000000E+00 0.  1.
         22    1    1    2    0    0  0.56631563872E+03  0.19075693365E+03 -0.10710876635E+03  0.60710287285E+03  0.00000000000E+00 0.  1.
<mgrwt>
<rscale>  0 0.12404627E+04</rscale>
<asrwt>0</asrwt>
<pdfrwt beam="1">  1        2 0.14663698E+00 0.12404627E+04</pdfrwt>
<pdfrwt beam="2">  1       -2 0.62092226E-01 0.12404627E+04</pdfrwt>
<totfact> 0.64047298E+01</totfact>
</mgrwt>
</event>
<event>
 6    1  0.1528034E-005  0.1429391E+04  0.7818608E-02  0.8932815E-01
          2   -1    0    0  501    0  0.00000000000E+00  0.00000000000E+00  0.13434459525E+04  0.13434459525E+04  0.00000000000E+00 0. -1.
         -2   -1    0    0    0  501 -0.00000000000E+00 -0.00000000000E+00 -0.38020846727E+03  0.38020846727E+03  0.00000000000E+00 0.  1.
         23    2    1    2    0    0  0.32295761748E+03  0.31348767876E+03 -0.18140408643E+03  0.49370300813E+03  0.90879426928E+02 0.  0.
         11    1    3    3    0    0  0.24611849565E+03  0.23142000975E+03 -0.17653036875E+03  0.38117254086E+03  0.00000000000E+00 0. -1.
        -11    1    3    3    0    0  0.76839121832E+02  0.82067669002E+02 -0.48737176832E+01  0.11253046727E+03  0.00000000000E+00 0.  1.
         22    1    1    2    0    0 -0.32295761748E+03 -0.31348767876E+03  0.11446415717E+04  0.12299514117E+04  0.00000000000E+00 0. -1.
<mgrwt>
<rscale>  0 0.14293908E+04</rscale>
<asrwt>0</asrwt>
<pdfrwt beam="1">  1        2 0.20668399E+00 0.14293908E+04</pdfrwt>
<pdfrwt beam="2">  1       -2 0.58493611E-01 0.14293908E+04</pdfrwt>
<totfact> 0.41394786E+01</totfact>
</mgrwt>
</event>
<event>
 6    1  0.1528034E-005  0.1958394E+04  0.7818608E-02  0.8626324E-01
          2   -1    0    0  501    0  0.00000000000E+00  0.00000000000E+00  0.12385438791E+04  0.12385438791E+04  0.00000000000E+00 0. -1.
         -2   -1    0    0    0  501 -0.00000000000E+00 -0.00000000000E+00 -0.77415612545E+03  0.77415612545E+03  0.00000000000E+00 0.  1.
         23    2    1    2    0    0  0.22098671443E+03  0.88957948820E+03  0.57971320507E+03  0.10888565364E+04  0.96717956113E+02 0.  0.
         11    1    3    3    0    0  0.17154157699E+03  0.59530694523E+03  0.43659157302E+03  0.75791099300E+03  0.00000000000E+00 0. -1.
        -11    1    3    3    0    0  0.49445137436E+02  0.29427254297E+03  0.14312163204E+03  0.33094554344E+03  0.00000000000E+00 0.  1.
         22    1    1    2    0    0 -0.22098671443E+03 -0.88957948820E+03 -0.11532545144E+03  0.92384346809E+03  0.00000000000E+00 0.  1.
<mgrwt>
<rscale>  0 0.19583936E+04</rscale>
<asrwt>0</asrwt>
<pdfrwt beam="1">  1        2 0.19054521E+00 0.19583936E+04</pdfrwt>
<pdfrwt beam="2">  1       -2 0.11910094E+00 0.19583936E+04</pdfrwt>
<totfact> 0.90622978E+00</totfact>
</mgrwt>
</event>
<event>
 6    1  0.1528034E-005  0.3371651E+04  0.7818608E-02  0.8144899E-01
          2   -1    0    0  501    0  0.00000000000E+00  0.00000000000E+00  0.26065609363E+04  0.26065609363E+04  0.00000000000E+00 0.  1.
         -2   -1    0    0    0  501 -0.00000000000E+00 -0.00000000000E+00 -0.10903283137E+04  0.10903283137E+04  0.00000000000E+00 0. -1.
         23    2    1    2    0    0 -0.72627928264E+03  0.71457298597E+03 -0.71229747695E+03  0.12464928427E+04  0.90997596623E+02 0.  0.
         13    1    3    3    0    0 -0.60713704663E+03  0.54688537146E+03 -0.57575778054E+03  0.99959793155E+03  0.00000000000E+00 0. -1.
        -13    1    3    3    0    0 -0.11914223601E+03  0.16768761451E+03 -0.13653969641E+03  0.24689491116E+03  0.00000000000E+00 0.  1.
         22    1    1    2    0    0  0.72627928264E+03 -0.71457298597E+03  0.22285300995E+04  0.24503964073E+04  0.00000000000E+00 0. -1.
<mgrwt>
<rscale>  0 0.33716507E+04</rscale>
<asrwt>0</asrwt>
<pdfrwt beam="1">  1        2 0.40100937E+00 0.33716507E+04</pdfrwt>
<pdfrwt beam="2">  1       -2 0.16774282E+00 0.33716507E+04</pdfrwt>
<totfact> 0.55388965E-01</totfact>
</mgrwt>
</event>
<event>
 6    1  0.1528034E-005  0.1969212E+04  0.7818608E-02  0.8621152E-01
          2   -1    0    0  501    0  0.00000000000E+00  0.00000000000E+00  0.19431887327E+04  0.19431887327E+04  0.00000000000E+00 0.  1.
         -2   -1    0    0    0  501 -0.00000000000E+00 -0.00000000000E+00 -0.49889584505E+03  0.49889584505E+03  0.00000000000E+00 0. -1.
         23    2    1    2    0    0  0.19035344392E+03 -0.70977961889E+03 -0.85718943967E+02  0.74474614778E+03  0.85308535794E+02 0.  0.
         13    1    3    3    0    0  0.19465072854E+03 -0.61914049028E+03 -0.72721207878E+02  0.65307903572E+03  0.00000000000E+00 0. -1.
        -13    1    3    3    0    0 -0.42972846169E+01 -0.90639128604E+02 -0.12997736089E+02  0.91667112056E+02  0.00000000000E+00 0.  1.
         22    1    1    2    0    0 -0.19035344392E+03  0.70977961889E+03  0.15300118316E+04  0.16973384300E+04  0.00000000000E+00 0.  1.
<mgrwt>
<rscale>  0 0.19692118E+04</rscale>
<asrwt>0</asrwt>
<pdfrwt beam="1">  1        2 0.29895211E+00 0.19692118E+04</pdfrwt>
<pdfrwt beam="2">  1       -2 0.76753208E-01 0.19692118E+04</pdfrwt>
<totfact> 0.10149817E+01</totfact>
</mgrwt>
</event>
<event>
 6    1  0.1528034E-005  0.1412268E+04  0.7818608E-02  0.8944986E-01
          1   -1    0    0  501    0  0.00000000000E+00  0.00000000000E+00  0.27318578674E+04  0.27318578674E+04  0.00000000000E+00 0. -1.
         -1   -1    0    0    0  501 -0.00000000000E+00 -0.00000000000E+00 -0.18252249941E+03  0.18252249941E+03  0.00000000000E+00 0.  1.
         23    2    1    2    0    0  0.12628524575E+03 -0.69096824085E+03  0.13466456045E+04  0.15215961982E+04  0.91736214651E+02 0.  0.
         11    1    3    3    0    0  0.36028641682E+02 -0.26104578615E+03  0.41536710458E+03  0.49190730535E+03  0.00000000000E+00 0.  1.
        -11    1    3    3    0    0  0.90256604068E+02 -0.42992245470E+03  0.93127849996E+03  0.10296888929E+04  0.00000000000E+00 0. -1.
         22    1    1    2    0    0 -0.12628524575E+03  0.69096824085E+03  0.12026897634E+04  0.13927841685E+04  0.00000000000E+00 0. -1.
<mgrwt>
<rscale>  0 0.14122684E+04</rscale>
<asrwt>0</asrwt>
<pdfrwt beam="1">  1        1 0.42028580E+00 0.14122684E+04</pdfrwt>
<pdfrwt beam="2">  1       -1 0.28080387E-01 0.14122684E+04</pdfrwt>
<totfact> 0.10451821E+01</totfact>
</mgrwt>
</event>
<event>
 6    1  0.1528034E-005  0.2181048E+04  0.7818608E-02  0.8526358E-01
          1   -1    0    0  501    0  0.00000000000E+00  0.00000000000E+00  0.56198994726E+03  0.56198994726E+03  0.00000000000E+00 0. -1.
         -1   -1    0    0    0  501 -0.00000000000E+00 -0.00000000000E+00 -0.21161272728E+04  0.21161272728E+04  0.00000000000E+00 0.  1.
         23    2    1    2    0    0 -0.69320178671E+03 -0.75778772019E+02 -0.18049552724E+04  0.19370498940E+04  0.89596969912E+02 0.  0.
         11    1    3    3    0    0 -0.48802355830E+03 -0.40341387671E+02 -0.11538061746E+04  0.12534205637E+04  0.00000000000E+00 0. -1.
        -11    1    3    3    0    0 -0.20517822840E+03 -0.35437384349E+02 -0.65114909781E+03  0.68362933026E+03  0.00000000000E+00 0.  1.
         22    1    1    2    0    0  0.69320178671E+03  0.75778772019E+02  0.25081794682E+03  0.74106732611E+03  0.00000000000E+00 0. -1.
<mgrwt>
<rscale>  0 0.21810477E+04</rscale>
<asrwt>0</asrwt>
<pdfrwt beam="1">  1        1 0.86459991E-01 0.21810477E+04</pdfrwt>
<pdfrwt beam="2">  1       -1 0.32555805E+00 0.21810477E+04</pdfrwt>
<totfact> 0.77394882E-01</totfact>
</mgrwt>
</event>
<event>
 6    1  0.1528034E-005  0.2161900E+04  0.7818608E-02  0.8534456E-01
          2   -1    0    0  501    0  0.00000000000E+00  0.00000000000E+00  0.14004048943E+04  0.14004048943E+04  0.00000000000E+00 0. -1.
         -2   -1    0    0    0  501 -0.00000000000E+00 -0.00000000000E+00 -0.83436795988E+03  0.83436795988E+03  0.00000000000E+00 0.  1.
         23    2    1    2    0    0  0.21557104514E+03  0.83681480717E+03 -0.38342947039E+03  0.95094406852E+03  0.10269647355E+03 0.  0.
         13    1    3    3    0    0  0.94452141902E+02  0.26793919936E+03 -0.81173386602E+02  0.29546867915E+03  0.00000000000E+00 0.  1.
        -13    1    3    3    0    0  0.12111890324E+03  0.56887560781E+03 -0.30225608378E+03  0.65547538937E+03  0.00000000000E+00 0. -1.
         22    1    1    2    0    0 -0.21557104514E+03 -0.83681480717E+03  0.94946640477E+03  0.12838287856E+04  0.00000000000E+00 0. -1.
<mgrwt>
<rscale>  0 0.21619001E+04</rscale>
<asrwt>0</asrwt>
<pdfrwt beam="1">  1        2 0.21544691E+00 0.21619001E+04</pdfrwt>
<pdfrwt beam="2">  1       -2 0.12836430E+00 0.21619001E+04</pdfrwt>
<totfact> 0.59479301E+00</totfact>
</mgrwt>
</event>
<event>
 6    1  0.1528034E-005  0.1861398E+04  0.7818608E-02  0.8674313E-01
         -2   -1    0    0    0  501 -0.00000000000E+00  0.00000000000E+00  0.17134791194E+04  0.17134791194E+04  0.00000000000E+00 0.  1.
          2   -1    0    0  501    0  0.00000000000E+00 -0.00000000000E+00 -0.50552156030E+03  0.50552156030E+03  0.00000000000E+00 0. -1.
         23    2    1    2    0    0  0.53757950973E+03  0.67734627151E+03  0.20083247749E+03  0.89156306126E+03  0.82227169321E+02 0.  0.
         11    1    3    3    0    0  0.41784216968E+02  0.82034251773E+02  0.39670235948E+02  0.10024603170E+03  0.00000000000E+00 0. -1.
        -11    1    3    3    0    0  0.49579529276E+03  0.59531201974E+03  0.16116224155E+03  0.79131702956E+03  0.00000000000E+00 0.  1.
         22    1    1    2    0    0 -0.53757950973E+03 -0.67734627151E+03  0.10071250816E+04  0.13274376184E+04  0.00000000000E+00 0.  1.
<mgrwt>
<rscale>  0 0.18613980E+04</rscale>
<asrwt>0</asrwt>
<pdfrwt beam="1">  1        2 0.77772548E-01 0.18613980E+04</pdfrwt>
<pdfrwt beam="2">  1       -2 0.26361217E+00 0.18613980E+04</pdfrwt>
<totfact> 0.30292721E+00</totfact>
</mgrwt>
</event>
<event>
 6    1  0.1528034E-005  0.3288509E+04  0.7818608E-02  0.8165825E-01
          1   -1    0    0  501    0  0.00000000000E+00  0.00000000000E+00  0.27615966705E+04  0.27615966705E+04  0.00000000000E+00 0. -1.
         -1   -1    0    0    0  501 -0.00000000000E+00 -0.00000000000E+00 -0.97898917807E+03  0.97898917807E+03  0.00000000000E+00 0.  1.
         23    2    1    2    0    0 -0.50763656828E+03 -0.12764118201E+04  0.19176285988E+04  0.23603131512E+04  0.82805247768E+02 0.  0.
         13    1    3    3    0    0 -0.42989572728E+03 -0.10596629675E+04  0.15426759686E+04  0.19202981761E+04  0.00000000000E+00 0. -1.
        -13    1    3    3    0    0 -0.77740841007E+02 -0.21674885262E+03  0.37495263017E+03  0.44001497513E+03  0.00000000000E+00 0.  1.
         22    1    1    2    0    0  0.50763656828E+03  0.12764118201E+04 -0.13502110631E+03  0.13802726974E+04  0.00000000000E+00 0. -1.
<mgrwt>
<rscale>  0 0.32885092E+04</rscale>
<asrwt>0</asrwt>
<pdfrwt beam="1">  1        1 0.42486102E+00 0.32885092E+04</pdfrwt>
<pdfrwt beam="2">  1       -1 0.15061372E+00 0.32885092E+04</pdfrwt>
<totfact> 0.25419192E-01</totfact>
</mgrwt>
</event>
<event>
 6    1  0.1528034E-005  0.2624876E+04  0.7818608E-02  0.8359800E-01
          1   -1    0    0  501    0  0.00000000000E+00  0.00000000000E+00  0.11594976257E+04  0.11594976257E+04  0.00000000000E+00 0. -1.
         -1   -1    0    0    0  501 -0.00000000000E+00 -0.00000000000E+00 -0.14855518353E+04  0.14855518353E+04  0.00000000000E+00 0.  1.
         23    2    1    2    0    0 -0.54196542295E+03  0.92502306817E+03  0.59668848155E+03  0.12305360216E+04  0.93741986669E+02 0.  0.
         11    1    3    3    0    0 -0.31942305572E+03  0.46354509785E+03  0.33763604929E+03  0.65643221131E+03  0.00000000000E+00 0.  1.
        -11    1    3    3    0    0 -0.22254236723E+03  0.46147797032E+03  0.25905243226E+03  0.57410381027E+03  0.00000000000E+00 0. -1.
         22    1    1    2    0    0  0.54196542295E+03 -0.92502306817E+03 -0.92274269114E+03  0.14145134394E+04  0.00000000000E+00 0.  1.
<mgrwt>
<rscale>  0 0.26248762E+04</rscale>
<asrwt>0</asrwt>
<pdfrwt beam="1">  1        1 0.17838425E+00 0.26248762E+04</pdfrwt>
<pdfrwt beam="2">  1       -1 0.22854643E+00 0.26248762E+04</pdfrwt>
<totfact> 0.97077838E-01</totfact>
</mgrwt>
</event>
<event>
 6    1  0.1528034E-005  0.4266281E+03  0.7818608E-02  0.1034930E+00
          3   -1    0    0  501    0  0.00000000000E+00  0.00000000000E+00  0.28887834387E+03  0.28887834387E+03  0.00000000000E+00 0. -1.
         -3   -1    0    0    0  501 -0.00000000000E+00 -0.00000000000E+00 -0.15751573962E+03  0.15751573962E+03  0.00000000000E+00 0.  1.
         23    2    1    2    0    0 -0.24818349685E+02  0.19429625973E+03  0.12404383581E+02  0.21722592407E+03  0.93092676031E+02 0.  0.
         13    1    3    3    0    0 -0.14851014889E+02  0.14034737316E+03  0.51092642934E+02  0.15009462335E+03  0.00000000000E+00 0.  1.
        -13    1    3    3    0    0 -0.99673347950E+01  0.53948886574E+02 -0.38688259353E+02  0.67131300726E+02  0.00000000000E+00 0. -1.
         22    1    1    2    0    0  0.24818349685E+02 -0.19429625973E+03  0.11895822067E+03  0.22916815942E+03  0.00000000000E+00 0. -1.
<mgrwt>
<rscale>  0 0.42662811E+03</rscale>
<asrwt>0</asrwt>
<pdfrwt beam="1">  1        3 0.44442822E-01 0.42662811E+03</pdfrwt>
<pdfrwt beam="2">  1       -3 0.24233191E-01 0.42662811E+03</pdfrwt>
<totfact> 0.20977991E+02</totfact>
</mgrwt>
</event>
<event>
 6    1  0.1528034E-005  0.3481269E+04  0.7818608E-02  0.8118243E-01
          2   -1    0    0  501    0  0.00000000000E+00  0.00000000000E+00  0.18924847988E+04  0.18924847988E+04  0.00000000000E+00 0. -1.
         -2   -1    0    0    0  501 -0.00000000000E+00 -0.00000000000E+00 -0.16009683017E+04  0.16009683017E+04  0.00000000000E+00 0.  1.
         23    2    1    2    0    0  0.23503309624E+03 -0.16636943809E+04 -0.30580041102E+03  0.17102237159E+04  0.90728814860E+02 0.  0.
         11    1    3    3    0    0  0.20886422829E+03 -0.11870918016E+04 -0.21576369906E+03  0.12244856819E+04  0.00000000000E+00 0. -1.
        -11    1    3    3    0    0  0.26168867950E+02 -0.47660257926E+03 -0.90036711963E+02  0.48573803403E+03  0.00000000000E+00 0.  1.
         22    1    1    2    0    0 -0.23503309624E+03  0.16636943809E+04  0.59731690808E+03  0.17832293846E+04  0.00000000000E+00 0. -1.
<mgrwt>
<rscale>  0 0.34812688E+04</rscale>
<asrwt>0</asrwt>
<pdfrwt beam="1">  1        2 0.29115151E+00 0.34812688E+04</pdfrwt>
<pdfrwt beam="2">  1       -2 0.24630282E+00 0.34812688E+04</pdfrwt>
<totfact> 0.42732194E-01</totfact>
</mgrwt>
</event>
<event>
 6    1  0.1528034E-005  0.1512789E+04  0.7818608E-02  0.8875993E-01
          2   -1    0    0  501    0  0.00000000000E+00  0.00000000000E+00  0.19096237309E+04  0.19096237309E+04  0.00000000000E+00 0. -1.
         -2   -1    0    0    0  501 -0.00000000000E+00 -0.00000000000E+00 -0.29960473453E+03  0.29960473453E+03  0.00000000000E+00 0.  1.
         23    2    1    2    0    0  0.19999814834E+03  0.59415444090E+03  0.14191336001E+04  0.15538995453E+04  0.87434907745E+02 0.  0.
         13    1    3    3    0    0  0.15284164697E+02  0.16454554565E+03  0.38218740901E+03  0.41638450726E+03  0.00000000000E+00 0. -1.
        -13    1    3    3    0    0  0.18471398365E+03  0.42960889526E+03  0.10369461911E+04  0.11375150381E+04  0.00000000000E+00 0.  1.
         22    1    1    2    0    0 -0.19999814834E+03 -0.59415444090E+03  0.19088539624E+03  0.65532892007E+03  0.00000000000E+00 0. -1.
<mgrwt>
<rscale>  0 0.15127886E+04</rscale>
<asrwt>0</asrwt>
<pdfrwt beam="1">  1        2 0.29378826E+00 0.15127886E+04</pdfrwt>
<pdfrwt beam="2">  1       -2 0.46093037E-01 0.15127886E+04</pdfrwt>
<totfact> 0.32316423E+01</totfact>
</mgrwt>
</event>
<event>
 6    1  0.1528034E-005  0.3279092E+04  0.7818608E-02  0.8168236E-01
         -2   -1    0    0    0  501 -0.00000000000E+00  0.00000000000E+00  0.77618034657E+03  0.77618034657E+03  0.00000000000E+00 0.  1.
          2   -1    0    0  501    0  0.00000000000E+00 -0.00000000000E+00 -0.34632560374E+04  0.34632560374E+04  0.00000000000E+00 0. -1.
         23    2    1    2    0    0  0.63355455674E+03  0.75620016716E+03  0.34635949717E+03  0.10496152120E+04  0.92179839606E+02 0.  0.
         13    1    3    3    0    0  0.18425258134E+03  0.28237524269E+03  0.99726737993E+02  0.35161088391E+03  0.00000000000E+00 0.  1.
        -13    1    3    3    0    0  0.44930197540E+03  0.47382492447E+03  0.24663275918E+03  0.69800432810E+03  0.00000000000E+00 0. -1.
         22    1    1    2    0    0 -0.63355455674E+03 -0.75620016716E+03 -0.30334351880E+04  0.31898211719E+04  0.00000000000E+00 0. -1.
<mgrwt>
<rscale>  0 0.32790921E+04</rscale>
<asrwt>0</asrwt>
<pdfrwt beam="1">  1        2 0.53280862E+00 0.32790921E+04</pdfrwt>
<pdfrwt beam="2">  1       -2 0.11941236E+00 0.32790921E+04</pdfrwt>
<totfact> 0.38730367E-01</totfact>
</mgrwt>
</event>
<event>
 6    1  0.1528034E-005  0.1407251E+04  0.7818608E-02  0.8948587E-01
          1   -1    0    0  501    0  0.00000000000E+00  0.00000000000E+00  0.18441467122E+04  0.18441467122E+04  0.00000000000E+00 0. -1.
         -1   -1    0    0    0  501 -0.00000000000E+00 -0.00000000000E+00 -0.26846485947E+03  0.26846485947E+03  0.00000000000E+00 0.  1.
         23    2    1    2    0    0 -0.47959493027E+03  0.47121378447E+03  0.10881419701E+04  0.12821003647E+04  0.87605194948E+02 0.  0.
         13    1    3    3    0    0 -0.22750179174E+03  0.16307814571E+03  0.44841685515E+03  0.52861065336E+03  0.00000000000E+00 0.  1.
        -13    1    3    3    0    0 -0.25209313853E+03  0.30813563876E+03  0.63972511496E+03  0.75348971132E+03  0.00000000000E+00 0. -1.
         22    1    1    2    0    0  0.47959493027E+03 -0.47121378447E+03  0.48753988263E+03  0.83051120701E+03  0.00000000000E+00 0. -1.
<mgrwt>
<rscale>  0 0.14072506E+04</rscale>
<asrwt>0</asrwt>
<pdfrwt beam="1">  1        1 0.28371487E+00 0.14072506E+04</pdfrwt>
<pdfrwt beam="2">  1       -1 0.41302287E-01 0.14072506E+04</pdfrwt>
<totfact> 0.21286012E+01</totfact>
</mgrwt>
</event>
<event>
 6    1  0.1528034E-005  0.5190398E+04  0.7818608E-02  0.7799789E-01
          2   -1    0    0  501    0  0.00000000000E+00  0.00000000000E+00  0.30551909951E+04  0.30551909951E+04  0.00000000000E+00 0. -1.
         -2   -1    0    0    0  501 -0.00000000000E+00 -0.00000000000E+00 -0.22044638130E+04  0.22044638130E+04  0.00000000000E+00 0.  1.
         23    2    1    2    0    0 -0.20640635833E+04 -0.96421361942E+03 -0.83237904757E+03  0.24271801022E+04  0.91005439836E+02 0.  0.
         11    1    3    3    0    0 -0.17879038283E+04 -0.82689626435E+03 -0.68705455752E+03  0.20862409967E+04  0.00000000000E+00 0. -1.
        -11    1    3    3    0    0 -0.27615975498E+03 -0.13731735508E+03 -0.14532449004E+03  0.34093910553E+03  0.00000000000E+00 0.  1.
         22    1    1    2    0    0  0.20640635833E+04  0.96421361942E+03  0.16831062296E+04  0.28324747059E+04  0.00000000000E+00 0.  1.
<mgrwt>
<rscale>  0 0.51903981E+04</rscale>
<asrwt>0</asrwt>
<pdfrwt beam="1">  1        2 0.47002938E+00 0.51903981E+04</pdfrwt>
<pdfrwt beam="2">  1       -2 0.33914828E+00 0.51903981E+04</pdfrwt>
<totfact> 0.20967091E-02</totfact>
</mgrwt>
</event>
<event>
 6    1  0.1528034E-005  0.2779151E+04  0.7818608E-02  0.8309771E-01
         -1   -1    0    0    0  501 -0.00000000000E+00  0.00000000000E+00  0.15597637113E+04  0.15597637113E+04  0.00000000000E+00 0.  1.
          1   -1    0    0  501    0  0.00000000000E+00 -0.00000000000E+00 -0.12379566318E+04  0.12379566318E+04  0.00000000000E+00 0. -1.
         23    2    1    2    0    0  0.54496476347E+03 -0.89152409002E+03 -0.75866765668E+03  0.12946476729E+04  0.93456873531E+02 0.  0.
         13    1    3    3    0    0  0.87310370419E+02 -0.89933613805E+02 -0.10626797018E+03  0.16432905148E+03  0.00000000000E+00 0.  1.
        -13    1    3    3    0    0  0.45765439305E+03 -0.80159047621E+03 -0.65239968649E+03  0.11303186214E+04  0.00000000000E+00 0. -1.
         22    1    1    2    0    0 -0.54496476347E+03  0.89152409002E+03  0.10804747361E+04  0.15030726702E+04  0.00000000000E+00 0.  1.
<mgrwt>
<rscale>  0 0.27791508E+04</rscale>
<asrwt>0</asrwt>
<pdfrwt beam="1">  1        1 0.19045487E+00 0.27791508E+04</pdfrwt>
<pdfrwt beam="2">  1       -1 0.23996365E+00 0.27791508E+04</pdfrwt>
<totfact> 0.70534858E-01</totfact>
</mgrwt>
</event>
<event>
 6    1  0.1528034E-005  0.8552715E+03  0.7818608E-02  0.9483289E-01
          1   -1    0    0  501    0  0.00000000000E+00  0.00000000000E+00  0.78088934259E+03  0.78088934259E+03  0.00000000000E+00 0. -1.
         -1   -1    0    0    0  501 -0.00000000000E+00 -0.00000000000E+00 -0.23418469801E+03  0.23418469801E+03  0.00000000000E+00 0.  1.
         23    2    1    2    0    0 -0.14000857659E+03 -0.12070134213E+03 -0.17457476700E+03  0.27048341141E+03  0.92269773285E+02 0.  0.
         13    1    3    3    0    0 -0.11215842701E+03 -0.40040669838E+02 -0.82074448498E+02  0.14463396243E+03  0.00000000000E+00 0.  1.
        -13    1    3    3    0    0 -0.27850149584E+02 -0.80660672292E+02 -0.92500318499E+02  0.12584944898E+03  0.00000000000E+00 0. -1.
         22    1    1    2    0    0  0.14000857659E+03  0.12070134213E+03  0.72127941158E+03  0.74459062920E+03  0.00000000000E+00 0. -1.
<mgrwt>
<rscale>  0 0.85527150E+03</rscale>
<asrwt>0</asrwt>
<pdfrwt beam="1">  1        1 0.12013682E+00 0.85527150E+03</pdfrwt>
<pdfrwt beam="2">  1       -1 0.36028415E-01 0.85527150E+03</pdfrwt>
<totfact> 0.17068509E+02</totfact>
</mgrwt>
</event>
<event>
 6    1  0.1528034E-005  0.1383011E+04  0.7818608E-02  0.8966208E-01
         -2   -1    0    0    0  501 -0.00000000000E+00  0.00000000000E+00  0.26820104632E+03  0.26820104632E+03  0.00000000000E+00 0.  1.
          2   -1    0    0  501    0  0.00000000000E+00 -0.00000000000E+00 -0.17829169621E+04  0.17829169621E+04  0.00000000000E+00 0. -1.
         23    2    1    2    0    0 -0.24491247328E+01 -0.44755337134E+03 -0.15367657826E+04  0.16030151017E+04  0.87740112037E+02 0.  0.
         11    1    3    3    0    0  0.37665578396E+02 -0.24192820688E+03 -0.75806086148E+03  0.79662050111E+03  0.00000000000E+00 0. -1.
        -11    1    3    3    0    0 -0.40114703129E+02 -0.20562516447E+03 -0.77870492111E+03  0.80639460057E+03  0.00000000000E+00 0.  1.
         22    1    1    2    0    0  0.24491247328E+01  0.44755337134E+03  0.22049866795E+02  0.44810290675E+03  0.00000000000E+00 0.  1.
<mgrwt>
<rscale>  0 0.13830115E+04</rscale>
<asrwt>0</asrwt>
<pdfrwt beam="1">  1        2 0.27429492E+00 0.13830115E+04</pdfrwt>
<pdfrwt beam="2">  1       -2 0.41261698E-01 0.13830115E+04</pdfrwt>
<totfact> 0.47819341E+01</totfact>
</mgrwt>
</event>
<event>
 6    1  0.1528034E-005  0.5889767E+04  0.7818608E-02  0.7704221E-01
         -1   -1    0    0    0  501 -0.00000000000E+00  0.00000000000E+00  0.31904218948E+04  0.31904218948E+04  0.00000000000E+00 0.  1.
          1   -1    0    0  501    0  0.00000000000E+00 -0.00000000000E+00 -0.27182424512E+04  0.27182424512E+04  0.00000000000E+00 0. -1.
         23    2    1    2    0    0  0.89681616007E+03 -0.27927801496E+04 -0.17442846640E+02  0.29348401790E+04  0.95301806049E+02 0.  0.
         13    1    3    3    0    0  0.27738296752E+03 -0.97029144438E+03  0.25453452968E+02  0.10094823802E+04  0.00000000000E+00 0.  1.
        -13    1    3    3    0    0  0.61943319255E+03 -0.18224887053E+04 -0.42896299608E+02  0.19253577988E+04  0.00000000000E+00 0. -1.
         22    1    1    2    0    0 -0.89681616007E+03  0.27927801496E+04  0.48962229018E+03  0.29738241670E+04  0.00000000000E+00 0.  1.
<mgrwt>
<rscale>  0 0.58897675E+04</rscale>
<asrwt>0</asrwt>
<pdfrwt beam="1">  1        1 0.41819115E+00 0.58897675E+04</pdfrwt>
<pdfrwt beam="2">  1       -1 0.49083414E+00 0.58897675E+04</pdfrwt>
<totfact> 0.11070946E-03</totfact>
</mgrwt>
</event>
<event>
 6    1  0.1528034E-005  0.1416369E+04  0.7818608E-02  0.8942054E-01
         -3   -1    0    0    0  501 -0.00000000000E+00  0.00000000000E+00  0.11250261283E+04  0.11250261283E+04  0.00000000000E+00 0.  1.
          3   -1    0    0  501    0  0.00000000000E+00 -0.00000000000E+00 -0.44579018939E+03  0.44579018939E+03  0.00000000000E+00 0. -1.
         23    2    1    2    0    0  0.35865501338E+03 -0.22141609762E+03 -0.28647575974E+03  0.51712870182E+03  0.87722439685E+02 0.  0.
         13    1    3    3    0    0  0.21590754776E+03 -0.10028960988E+03 -0.11996852546E+03  0.26658304922E+03  0.00000000000E+00 0.  1.
        -13    1    3    3    0    0  0.14274746563E+03 -0.12112648774E+03 -0.16650723428E+03  0.25054565261E+03  0.00000000000E+00 0. -1.
         22    1    1    2    0    0 -0.35865501338E+03  0.22141609762E+03  0.96571169868E+03  0.10536876159E+04  0.00000000000E+00 0.  1.
<mgrwt>
<rscale>  0 0.14163695E+04</rscale>
<asrwt>0</asrwt>
<pdfrwt beam="1">  1        3 0.68583107E-01 0.14163695E+04</pdfrwt>
<pdfrwt beam="2">  1       -3 0.17308094E+00 0.14163695E+04</pdfrwt>
<totfact> 0.11446396E+00</totfact>
</mgrwt>
</event>
<event>
 6    1  0.1528034E-005  0.1949764E+04  0.7818608E-02  0.8630475E-01
         -2   -1    0    0    0  501 -0.00000000000E+00  0.00000000000E+00  0.36870527986E+03  0.36870527986E+03  0.00000000000E+00 0.  1.
          2   -1    0    0  501    0  0.00000000000E+00 -0.00000000000E+00 -0.25776540304E+04  0.25776540304E+04  0.00000000000E+00 0. -1.
         23    2    1    2    0    0 -0.29166201006E+03  0.91664355673E+03 -0.13234649046E+04  0.16389252662E+04  0.95992376184E+02 0.  0.
         13    1    3    3    0    0 -0.16388851018E+03  0.49833682706E+03 -0.64055509073E+03  0.82795522900E+03  0.00000000000E+00 0.  1.
        -13    1    3    3    0    0 -0.12777349988E+03  0.41830672967E+03 -0.68290981385E+03  0.81097003719E+03  0.00000000000E+00 0. -1.
         22    1    1    2    0    0  0.29166201006E+03 -0.91664355673E+03 -0.88548384600E+03  0.13074340441E+04  0.00000000000E+00 0. -1.
<mgrwt>
<rscale>  0 0.19497637E+04</rscale>
<asrwt>0</asrwt>
<pdfrwt beam="1">  1        2 0.39656216E+00 0.19497637E+04</pdfrwt>
<pdfrwt beam="2">  1       -2 0.56723889E-01 0.19497637E+04</pdfrwt>
<totfact> 0.85365096E+00</totfact>
</mgrwt>
</event>
<event>
 6    1  0.1528034E-005  0.2067463E+04  0.7818608E-02  0.8575713E-01
         -1   -1    0    0    0  501 -0.00000000000E+00  0.00000000000E+00  0.12631390848E+04  0.12631390848E+04  0.00000000000E+00 0.  1.
          1   -1    0    0  501    0  0.00000000000E+00 -0.00000000000E+00 -0.84598813298E+03  0.84598813298E+03  0.00000000000E+00 0. -1.
         23    2    1    2    0    0 -0.71270083875E+01 -0.64565016329E+03  0.10299369072E+04  0.12189465873E+04  0.90254209141E+02 0.  0.
         11    1    3    3    0    0 -0.96797755250E+01 -0.28320899329E+03  0.37024991748E+03  0.46624675155E+03  0.00000000000E+00 0. -1.
        -11    1    3    3    0    0  0.25527671376E+01 -0.36244117000E+03  0.65968698976E+03  0.75269983578E+03  0.00000000000E+00 0.  1.
         22    1    1    2    0    0  0.71270083875E+01  0.64565016329E+03 -0.61278595544E+03  0.89018063043E+03  0.00000000000E+00 0. -1.
<mgrwt>
<rscale>  0 0.20674629E+04</rscale>
<asrwt>0</asrwt>
<pdfrwt beam="1">  1        1 0.13015202E+00 0.20674629E+04</pdfrwt>
<pdfrwt beam="2">  1       -1 0.19432909E+00 0.20674629E+04</pdfrwt>
<totfact> 0.30673840E+00</totfact>
</mgrwt>
</event>
<event>
 6    1  0.1528034E-005  0.2115202E+04  0.7818608E-02  0.8554576E-01
          2   -1    0    0  501    0  0.00000000000E+00  0.00000000000E+00  0.74628628964E+03  0.74628628964E+03  0.00000000000E+00 0. -1.
         -2   -1    0    0    0  501 -0.00000000000E+00 -0.00000000000E+00 -0.14987813675E+04  0.14987813675E+04  0.00000000000E+00 0.  1.
         23    2    1    2    0    0 -0.29499052123E+03  0.86501478695E+03 -0.93755977812E+03  0.13125876667E+04  0.92725702788E+02 0.  0.
         13    1    3    3    0    0 -0.11163763267E+03  0.44969898487E+03 -0.50825795905E+03  0.68776325211E+03  0.00000000000E+00 0.  1.
        -13    1    3    3    0    0 -0.18335288857E+03  0.41531580208E+03 -0.42930181907E+03  0.62482441459E+03  0.00000000000E+00 0. -1.
         22    1    1    2    0    0  0.29499052123E+03 -0.86501478695E+03  0.18506470028E+03  0.93247999042E+03  0.00000000000E+00 0. -1.
<mgrwt>
<rscale>  0 0.21152021E+04</rscale>
<asrwt>0</asrwt>
<pdfrwt beam="1">  1        2 0.11481328E+00 0.21152021E+04</pdfrwt>
<pdfrwt beam="2">  1       -2 0.23058175E+00 0.21152021E+04</pdfrwt>
<totfact> 0.29441417E+00</totfact>
</mgrwt>
</event>
<event>
 6    1  0.1528034E-005  0.2529495E+04  0.7818608E-02  0.8392553E-01
         -2   -1    0    0    0  501 -0.00000000000E+00  0.00000000000E+00  0.11726330641E+04  0.11726330641E+04  0.00000000000E+00 0. -1.
          2   -1    0    0  501    0  0.00000000000E+00 -0.00000000000E+00 -0.13640977684E+04  0.13640977684E+04  0.00000000000E+00 0.  1.
         23    2    1    2    0    0 -0.13973959850E+03  0.95399306130E+03 -0.91417719287E+03  0.13317647510E+04  0.90815723819E+02 0.  0.
         11    1    3    3    0    0  0.39271955407E+01  0.10021653187E+03 -0.12517825670E+03  0.16040066108E+03  0.00000000000E+00 0.  1.
        -11    1    3    3    0    0 -0.14366679404E+03  0.85377652943E+03 -0.78899893617E+03  0.11713640899E+04  0.00000000000E+00 0. -1.
         22    1    1    2    0    0  0.13973959850E+03 -0.95399306130E+03  0.72271248851E+03  0.12049660814E+04  0.00000000000E+00 0. -1.
<mgrwt>
<rscale>  0 0.25294949E+04</rscale>
<asrwt>0</asrwt>
<pdfrwt beam="1">  1        2 0.20986119E+00 0.25294949E+04</pdfrwt>
<pdfrwt beam="2">  1       -2 0.18040509E+00 0.25294949E+04</pdfrwt>
<totfact> 0.24326637E+00</totfact>
</mgrwt>
</event>
<event>
 6    1  0.1528034E-005  0.7939727E+03  0.7818608E-02  0.9568783E-01
         -2   -1    0    0    0  501 -0.00000000000E+00  0.00000000000E+00  0.11036324755E+03  0.11036324755E+03  0.00000000000E+00 0.  1.
          2   -1    0    0  501    0  0.00000000000E+00 -0.00000000000E+00 -0.14279951168E+04  0.14279951168E+04  0.00000000000E+00 0. -1.
         23    2    1    2    0    0  0.73065268895E+02  0.38337519636E+03 -0.60716379757E+03  0.72775367920E+03  0.93072368665E+02 0.  0.
         11    1    3    3    0    0  0.60664075460E+02  0.19204364408E+03 -0.38342743174E+03  0.43310216657E+03  0.00000000000E+00 0. -1.
        -11    1    3    3    0    0  0.12401193436E+02  0.19133155228E+03 -0.22373636583E+03  0.29465151262E+03  0.00000000000E+00 0.  1.
         22    1    1    2    0    0 -0.73065268895E+02 -0.38337519636E+03 -0.71046807170E+03  0.81060468516E+03  0.00000000000E+00 0. -1.
<mgrwt>
<rscale>  0 0.79397274E+03</rscale>
<asrwt>0</asrwt>
<pdfrwt beam="1">  1        2 0.21969155E+00 0.79397274E+03</pdfrwt>
<pdfrwt beam="2">  1       -2 0.16978962E-01 0.79397274E+03</pdfrwt>
<totfact> 0.39908002E+02</totfact>
</mgrwt>
</event>
<event>
 6    1  0.1528034E-005  0.2755773E+04  0.7818608E-02  0.8317132E-01
         -1   -1    0    0    0  501 -0.00000000000E+00  0.00000000000E+00  0.22609231284E+04  0.22609231284E+04  0.00000000000E+00 0.  1.
          1   -1    0    0  501    0  0.00000000000E+00 -0.00000000000E+00 -0.83973280615E+03  0.83973280615E+03  0.00000000000E+00 0. -1.
         23    2    1    2    0    0 -0.10073668365E+04  0.48953609087E+01  0.17666108016E+04  0.20357018439E+04  0.91413155804E+02 0.  0.
         11    1    3    3    0    0 -0.75110627749E+02 -0.13973644650E+02  0.98358408350E+02  0.12454415136E+03  0.00000000000E+00 0. -1.
        -11    1    3    3    0    0 -0.93225620875E+03  0.18869005558E+02  0.16682523932E+04  0.19111576925E+04  0.00000000000E+00 0.  1.
         22    1    1    2    0    0  0.10073668365E+04 -0.48953609087E+01 -0.34542047929E+03  0.10649540907E+04  0.00000000000E+00 0. -1.
<mgrwt>
<rscale>  0 0.27557731E+04</rscale>
<asrwt>0</asrwt>
<pdfrwt beam="1">  1        1 0.12918966E+00 0.27557731E+04</pdfrwt>
<pdfrwt beam="2">  1       -1 0.34783433E+00 0.27557731E+04</pdfrwt>
<totfact> 0.28514663E-01</totfact>
</mgrwt>
</event>
<event>
 6    1  0.1528034E-005  0.2755441E+04  0.7818608E-02  0.8317237E-01
          2   -1    0    0  501    0  0.00000000000E+00  0.00000000000E+00  0.10682551473E+04  0.10682551473E+04  0.00000000000E+00 0. -1.
         -2   -1    0    0    0  501 -0.00000000000E+00 -0.00000000000E+00 -0.17768353526E+04  0.17768353526E+04  0.00000000000E+00 0.  1.
         23    2    1    2    0    0  0.22054839107E+02 -0.11210928895E+04 -0.11786063745E+04  0.16292532236E+04  0.89539922836E+02 0.  0.
         13    1    3    3    0    0 -0.34504768200E+02 -0.50254332906E+03 -0.53293377220E+03  0.73332038166E+03  0.00000000000E+00 0.  1.
        -13    1    3    3    0    0  0.56559607307E+02 -0.61854956040E+03 -0.64567260230E+03  0.89593284191E+03  0.00000000000E+00 0. -1.
         22    1    1    2    0    0 -0.22054839107E+02  0.11210928895E+04  0.47002616923E+03  0.12158372763E+04  0.00000000000E+00 0. -1.
<mgrwt>
<rscale>  0 0.27554408E+04</rscale>
<asrwt>0</asrwt>
<pdfrwt beam="1">  1        2 0.16434695E+00 0.27554408E+04</pdfrwt>
<pdfrwt beam="2">  1       -2 0.27335928E+00 0.27554408E+04</pdfrwt>
<totfact> 0.92047370E-01</totfact>
</mgrwt>
</event>
<event>
 6    1  0.1528034E-005  0.3802206E+04  0.7818608E-02  0.8045682E-01
         -1   -1    0    0    0  501 -0.00000000000E+00  0.00000000000E+00  0.13374252696E+04  0.13374252696E+04  0.00000000000E+00 0.  1.
          1   -1    0    0  501    0  0.00000000000E+00 -0.00000000000E+00 -0.27023513732E+04  0.27023513732E+04  0.00000000000E+00 0. -1.
         23    2    1    2    0    0  0.63133346413E+03  0.15839435871E+03  0.12137208513E+04  0.13802483323E+04  0.91084786507E+02 0.  0.
         13    1    3    3    0    0  0.37267297424E+03  0.48472809627E+02  0.67103175917E+03  0.76910232142E+03  0.00000000000E+00 0. -1.
        -13    1    3    3    0    0  0.25866048989E+03  0.10992154908E+03  0.54268909211E+03  0.61114601093E+03  0.00000000000E+00 0.  1.
         22    1    1    2    0    0 -0.63133346413E+03 -0.15839435871E+03 -0.25786469549E+04  0.26595283104E+04  0.00000000000E+00 0. -1.
<mgrwt>
<rscale>  0 0.38022062E+04</rscale>
<asrwt>0</asrwt>
<pdfrwt beam="1">  1        1 0.41574636E+00 0.38022062E+04</pdfrwt>
<pdfrwt beam="2">  1       -1 0.20575774E+00 0.38022062E+04</pdfrwt>
<totfact> 0.10684006E-01</totfact>
</mgrwt>
</event>
<event>
 6    1  0.1528034E-005  0.4165139E+04  0.7818608E-02  0.7972037E-01
         -2   -1    0    0    0  501 -0.00000000000E+00  0.00000000000E+00  0.93972035969E+03  0.93972035969E+03  0.00000000000E+00 0.  1.
          2   -1    0    0  501    0  0.00000000000E+00 -0.00000000000E+00 -0.46153056123E+04  0.46153056123E+04  0.00000000000E+00 0. -1.
         23    2    1    2    0    0 -0.10995314724E+04 -0.10165242339E+04 -0.37670646759E+04  0.40548061675E+04  0.91574049044E+02 0.  0.
         13    1    3    3    0    0 -0.76890732412E+03 -0.76646802432E+03 -0.27184541831E+04  0.29272316018E+04  0.00000000000E+00 0.  1.
        -13    1    3    3    0    0 -0.33062414831E+03 -0.25005620957E+03 -0.10486104928E+04  0.11275745656E+04  0.00000000000E+00 0. -1.
         22    1    1    2    0    0  0.10995314724E+04  0.10165242339E+04  0.91479423288E+02  0.15002198045E+04  0.00000000000E+00 0.  1.
<mgrwt>
<rscale>  0 0.41651394E+04</rscale>
<asrwt>0</asrwt>
<pdfrwt beam="1">  1        2 0.71004700E+00 0.41651394E+04</pdfrwt>
<pdfrwt beam="2">  1       -2 0.14457237E+00 0.41651394E+04</pdfrwt>
<totfact> 0.24015565E-02</totfact>
</mgrwt>
</event>
<event>
 6    1  0.1528034E-005  0.1908497E+04  0.7818608E-02  0.8650638E-01
          1   -1    0    0  501    0  0.00000000000E+00  0.00000000000E+00  0.10986267854E+04  0.10986267854E+04  0.00000000000E+00 0. -1.
         -1   -1    0    0    0  501 -0.00000000000E+00 -0.00000000000E+00 -0.82884436847E+03  0.82884436847E+03  0.00000000000E+00 0.  1.
         23    2    1    2    0    0 -0.64400285778E+03  0.35913604189E+03  0.74346665245E+03  0.10510607864E+04  0.90927091150E+02 0.  0.
         13    1    3    3    0    0 -0.10845465962E+03  0.10178400698E+03  0.15367518487E+03  0.21386551782E+03  0.00000000000E+00 0.  1.
        -13    1    3    3    0    0 -0.53554819816E+03  0.25735203491E+03  0.58979146758E+03  0.83719526853E+03  0.00000000000E+00 0. -1.
         22    1    1    2    0    0  0.64400285778E+03 -0.35913604189E+03 -0.47368423548E+03  0.87641036755E+03  0.00000000000E+00 0.  1.
<mgrwt>
<rscale>  0 0.19084974E+04</rscale>
<asrwt>0</asrwt>
<pdfrwt beam="1">  1        1 0.16901951E+00 0.19084974E+04</pdfrwt>
<pdfrwt beam="2">  1       -1 0.12751452E+00 0.19084974E+04</pdfrwt>
<totfact> 0.63271834E+00</totfact>
</mgrwt>
</event>
<event>
 6    1  0.1528034E-005  0.1466124E+04  0.7818608E-02  0.8907298E-01
         -2   -1    0    0    0  501 -0.00000000000E+00  0.00000000000E+00  0.32354004816E+03  0.32354004816E+03  0.00000000000E+00 0.  1.
          2   -1    0    0  501    0  0.00000000000E+00 -0.00000000000E+00 -0.16609384096E+04  0.16609384096E+04  0.00000000000E+00 0. -1.
         23    2    1    2    0    0  0.15894670779E+03  0.42436536133E+03  0.10382781320E+03  0.47368962332E+03  0.90838475494E+02 0.  0.
         13    1    3    3    0    0  0.10162924073E+03  0.18799158672E+03  0.13134827231E+02  0.21410712957E+03  0.00000000000E+00 0. -1.
        -13    1    3    3    0    0  0.57317467066E+02  0.23637377462E+03  0.90692985967E+02  0.25958249375E+03  0.00000000000E+00 0.  1.
         22    1    1    2    0    0 -0.15894670779E+03 -0.42436536133E+03 -0.14412261747E+04  0.15107888345E+04  0.00000000000E+00 0. -1.
<mgrwt>
<rscale>  0 0.14661243E+04</rscale>
<asrwt>0</asrwt>
<pdfrwt beam="1">  1        2 0.25552899E+00 0.14661243E+04</pdfrwt>
<pdfrwt beam="2">  1       -2 0.49775392E-01 0.14661243E+04</pdfrwt>
<totfact> 0.38138399E+01</totfact>
</mgrwt>
</event>
<event>
 6    1  0.1528034E-005  0.9332196E+03  0.7818608E-02  0.9384982E-01
         -1   -1    0    0    0  501 -0.00000000000E+00  0.00000000000E+00  0.29474755948E+03  0.29474755948E+03  0.00000000000E+00 0.  1.
          1   -1    0    0  501    0  0.00000000000E+00 -0.00000000000E+00 -0.73868192779E+03  0.73868192779E+03  0.00000000000E+00 0. -1.
         23    2    1    2    0    0  0.33929624114E+03  0.17647461899E+03 -0.51046039962E+03  0.64524017361E+03  0.97467079886E+02 0.  0.
         13    1    3    3    0    0  0.12508199031E+03  0.82779618768E+02 -0.27599695811E+03  0.31412145815E+03  0.00000000000E+00 0.  1.
        -13    1    3    3    0    0  0.21421425083E+03  0.93695000223E+02 -0.23446344151E+03  0.33111871546E+03  0.00000000000E+00 0. -1.
         22    1    1    2    0    0 -0.33929624114E+03 -0.17647461899E+03  0.66526031317E+02  0.38818931366E+03  0.00000000000E+00 0.  1.
<mgrwt>
<rscale>  0 0.93321958E+03</rscale>
<asrwt>0</asrwt>
<pdfrwt beam="1">  1        1 0.11364337E+00 0.93321958E+03</pdfrwt>
<pdfrwt beam="2">  1       -1 0.45345779E-01 0.93321958E+03</pdfrwt>
<totfact> 0.12175622E+02</totfact>
</mgrwt>
</event>
<event>
 6    1  0.1528034E-005  0.2515696E+04  0.7818608E-02  0.8397415E-01
         -2   -1    0    0    0  501 -0.00000000000E+00  0.00000000000E+00  0.19468271010E+04  0.19468271010E+04  0.00000000000E+00 0. -1.
          2   -1    0    0  501    0  0.00000000000E+00 -0.00000000000E+00 -0.81269738906E+03  0.81269738906E+03  0.00000000000E+00 0.  1.
         23    2    1    2    0    0  0.91121289642E+03  0.85991044205E+03  0.46909439909E+03  0.13410651575E+04  0.93012312730E+02 0.  0.
         11    1    3    3    0    0  0.25971641923E+03  0.19247708892E+03  0.13540615662E+03  0.35047806697E+03  0.00000000000E+00 0.  1.
        -11    1    3    3    0    0  0.65149647719E+03  0.66743335313E+03  0.33368824247E+03  0.99058709048E+03  0.00000000000E+00 0. -1.
         22    1    1    2    0    0 -0.91121289642E+03 -0.85991044205E+03  0.66503531284E+03  0.14184593326E+04  0.00000000000E+00 0.  1.
<mgrwt>
<rscale>  0 0.25156958E+04</rscale>
<asrwt>0</asrwt>
<pdfrwt beam="1">  1        2 0.12503037E+00 0.25156958E+04</pdfrwt>
<pdfrwt beam="2">  1       -2 0.29951186E+00 0.25156958E+04</pdfrwt>
<totfact> 0.96161337E-01</totfact>
</mgrwt>
</event>
<event>
 6    1  0.1528034E-005  0.2230572E+04  0.7818608E-02  0.8505810E-01
          2   -1    0    0  501    0  0.00000000000E+00  0.00000000000E+00  0.60686253747E+03  0.60686253747E+03  0.00000000000E+00 0.  1.
         -2   -1    0    0    0  501 -0.00000000000E+00 -0.00000000000E+00 -0.20496625081E+04  0.20496625081E+04  0.00000000000E+00 0. -1.
         23    2    1    2    0    0 -0.10754061254E+04  0.15759472714E+03 -0.43409728027E+03  0.11736846799E+04  0.88095667633E+02 0.  0.
         13    1    3    3    0    0 -0.87225212747E+03  0.14485243096E+03 -0.38446636116E+03  0.96416823402E+03  0.00000000000E+00 0. -1.
        -13    1    3    3    0    0 -0.20315399789E+03  0.12742296180E+02 -0.49630919115E+02  0.20951644590E+03  0.00000000000E+00 0.  1.
         22    1    1    2    0    0  0.10754061254E+04 -0.15759472714E+03 -0.10087026903E+04  0.14828403656E+04  0.00000000000E+00 0.  1.
<mgrwt>
<rscale>  0 0.22305725E+04</rscale>
<asrwt>0</asrwt>
<pdfrwt beam="1">  1        2 0.93363466E-01 0.22305725E+04</pdfrwt>
<pdfrwt beam="2">  1       -2 0.31533270E+00 0.22305725E+04</pdfrwt>
<totfact> 0.11419949E+00</totfact>
</mgrwt>
</event>
<event>
 6    1  0.1528034E-005  0.1798474E+04  0.7818608E-02  0.8707111E-01
          2   -1    0    0  501    0  0.00000000000E+00  0.00000000000E+00  0.14869989921E+04  0.14869989921E+04  0.00000000000E+00 0. -1.
         -2   -1    0    0    0  501 -0.00000000000E+00 -0.00000000000E+00 -0.54379829218E+03  0.54379829218E+03  0.00000000000E+00 0.  1.
         23    2    1    2    0    0 -0.18901573225E+03  0.87651473504E+03  0.49736013068E+03  0.10294088277E+04  0.91161434912E+02 0.  0.
         11    1    3    3    0    0 -0.50180508537E+02  0.44298258548E+03  0.23397382468E+03  0.50348327193E+03  0.00000000000E+00 0. -1.
        -11    1    3    3    0    0 -0.13883522372E+03  0.43353214955E+03  0.26338630600E+03  0.52592555579E+03  0.00000000000E+00 0.  1.
         22    1    1    2    0    0  0.18901573225E+03 -0.87651473504E+03  0.44584056927E+03  0.10013884566E+04  0.00000000000E+00 0. -1.
<mgrwt>
<rscale>  0 0.17984744E+04</rscale>
<asrwt>0</asrwt>
<pdfrwt beam="1">  1        2 0.22876907E+00 0.17984744E+04</pdfrwt>
<pdfrwt beam="2">  1       -2 0.83661276E-01 0.17984744E+04</pdfrwt>
<totfact> 0.15228325E+01</totfact>
</mgrwt>
</event>
<event>
 6    1  0.1528034E-005  0.6660373E+03  0.7818608E-02  0.9777143E-01
          2   -1    0    0  501    0  0.00000000000E+00  0.00000000000E+00  0.33292335569E+03  0.33292335569E+03  0.00000000000E+00 0. -1.
         -2   -1    0    0    0  501 -0.00000000000E+00 -0.00000000000E+00 -0.33311397247E+03  0.33311397247E+03  0.00000000000E+00 0.  1.
         23    2    1    2    0    0  0.20910646921E+02 -0.27450216525E+03 -0.17598498145E+03  0.33939937487E+03  0.91828797681E+02 0.  0.
         13    1    3    3    0    0  0.40292905357E+02 -0.82603590042E+02 -0.27326530262E+02  0.95883317454E+02  0.00000000000E+00 0.  1.
        -13    1    3    3    0    0 -0.19382258436E+02 -0.19189857521E+03 -0.14865845118E+03  0.24351605741E+03  0.00000000000E+00 0. -1.
         22    1    1    2    0    0 -0.20910646921E+02  0.27450216525E+03  0.17579436466E+03  0.32663795329E+03  0.00000000000E+00 0. -1.
<mgrwt>
<rscale>  0 0.66603730E+03</rscale>
<asrwt>0</asrwt>
<pdfrwt beam="1">  1        2 0.51218978E-01 0.66603730E+03</pdfrwt>
<pdfrwt beam="2">  1       -2 0.51248303E-01 0.66603730E+03</pdfrwt>
<totfact> 0.35496732E+02</totfact>
</mgrwt>
</event>
<event>
 6    1  0.1528034E-005  0.2310083E+04  0.7818608E-02  0.8473956E-01
          1   -1    0    0  501    0  0.00000000000E+00  0.00000000000E+00  0.24718888642E+04  0.24718888642E+04  0.00000000000E+00 0. -1.
         -1   -1    0    0    0  501 -0.00000000000E+00 -0.00000000000E+00 -0.53971717864E+03  0.53971717864E+03  0.00000000000E+00 0.  1.
         23    2    1    2    0    0  0.91096258837E+03  0.14379543784E+03  0.64762999728E+02  0.92888062519E+03  0.89972242273E+02 0.  0.
         13    1    3    3    0    0  0.64700555380E+03  0.66040566326E+02  0.24962994035E+02  0.65084613706E+03  0.00000000000E+00 0.  1.
        -13    1    3    3    0    0  0.26395703456E+03  0.77754871513E+02  0.39800005692E+02  0.27803448814E+03  0.00000000000E+00 0. -1.
         22    1    1    2    0    0 -0.91096258837E+03 -0.14379543784E+03  0.18674086858E+04  0.20827254176E+04  0.00000000000E+00 0. -1.
<mgrwt>
<rscale>  0 0.23100830E+04</rscale>
<asrwt>0</asrwt>
<pdfrwt beam="1">  1        1 0.38029059E+00 0.23100830E+04</pdfrwt>
<pdfrwt beam="2">  1       -1 0.83033414E-01 0.23100830E+04</pdfrwt>
<totfact> 0.18427364E+00</totfact>
</mgrwt>
</event>
<event>
 6    1  0.1528034E-005  0.1136699E+04  0.7818608E-02  0.9170142E-01
         -1   -1    0    0    0  501 -0.00000000000E+00  0.00000000000E+00  0.25847932938E+03  0.25847932938E+03  0.00000000000E+00 0.  1.
          1   -1    0    0  501    0  0.00000000000E+00 -0.00000000000E+00 -0.12496992997E+04  0.12496992997E+04  0.00000000000E+00 0. -1.
         23    2    1    2    0    0 -0.30545107430E+03 -0.25938467224E+03  0.28907969859E+02  0.41216686759E+03  0.92005918431E+02 0.  0.
         13    1    3    3    0    0 -0.14317148170E+03 -0.66930245158E+02  0.27524711041E+02  0.16042238188E+03  0.00000000000E+00 0.  1.
        -13    1    3    3    0    0 -0.16227959260E+03 -0.19245442708E+03  0.13832588175E+01  0.25174448571E+03  0.00000000000E+00 0. -1.
         22    1    1    2    0    0  0.30545107430E+03  0.25938467224E+03 -0.10201279402E+04  0.10960117615E+04  0.00000000000E+00 0. -1.
<mgrwt>
<rscale>  0 0.11366995E+04</rscale>
<asrwt>0</asrwt>
<pdfrwt beam="1">  1        1 0.19226143E+00 0.11366995E+04</pdfrwt>
<pdfrwt beam="2">  1       -1 0.39766051E-01 0.11366995E+04</pdfrwt>
<totfact> 0.60136477E+01</totfact>
</mgrwt>
</event>
<event>
 6    1  0.1528034E-005  0.3630495E+04  0.7818608E-02  0.8083542E-01
         -2   -1    0    0    0  501 -0.00000000000E+00  0.00000000000E+00  0.12753525002E+04  0.12753525002E+04  0.00000000000E+00 0. -1.
          2   -1    0    0  501    0  0.00000000000E+00 -0.00000000000E+00 -0.25836965757E+04  0.25836965757E+04  0.00000000000E+00 0.  1.
         23    2    1    2    0    0  0.41867909113E+03  0.39775828373E+03  0.11734337249E+04  0.13109664861E+04  0.90457654246E+02 0.  0.
         11    1    3    3    0    0  0.29412915317E+03  0.33131869957E+03  0.90860793349E+03  0.10108671605E+04  0.00000000000E+00 0.  1.
        -11    1    3    3    0    0  0.12454993796E+03  0.66439584154E+02  0.26482579142E+03  0.30009932554E+03  0.00000000000E+00 0. -1.
         22    1    1    2    0    0 -0.41867909113E+03 -0.39775828373E+03 -0.24817778005E+04  0.25480825898E+04  0.00000000000E+00 0.  1.
<mgrwt>
<rscale>  0 0.36304952E+04</rscale>
<asrwt>0</asrwt>
<pdfrwt beam="1">  1        2 0.39749178E+00 0.36304952E+04</pdfrwt>
<pdfrwt beam="2">  1       -2 0.19620808E+00 0.36304952E+04</pdfrwt>
<totfact> 0.35630264E-01</totfact>
</mgrwt>
</event>
<event>
 6    1  0.1528034E-005  0.1993761E+04  0.7818608E-02  0.8609543E-01
          2   -1    0    0  501    0  0.00000000000E+00  0.00000000000E+00  0.42332261578E+04  0.42332261578E+04  0.00000000000E+00 0. -1.
         -2   -1    0    0    0  501 -0.00000000000E+00 -0.00000000000E+00 -0.23475490917E+03  0.23475490917E+03  0.00000000000E+00 0.  1.
         23    2    1    2    0    0  0.14408896121E+03  0.38497576731E+03  0.40335453940E+04  0.40554302631E+04  0.89767495262E+02 0.  0.
         13    1    3    3    0    0 -0.38138435592E+01  0.17361986869E+02  0.73922495244E+02  0.76029726383E+02  0.00000000000E+00 0.  1.
        -13    1    3    3    0    0  0.14790280477E+03  0.36761378044E+03  0.39596228987E+04  0.39794005367E+04  0.00000000000E+00 0. -1.
         22    1    1    2    0    0 -0.14408896121E+03 -0.38497576731E+03 -0.35074145319E+02  0.41255080393E+03  0.00000000000E+00 0.  1.
<mgrwt>
<rscale>  0 0.19937609E+04</rscale>
<asrwt>0</asrwt>
<pdfrwt beam="1">  1        2 0.65126551E+00 0.19937609E+04</pdfrwt>
<pdfrwt beam="2">  1       -2 0.36116143E-01 0.19937609E+04</pdfrwt>
<totfact> 0.14777961E+00</totfact>
</mgrwt>
</event>
<event>
 6    1  0.1528034E-005  0.2775674E+04  0.7818608E-02  0.8310861E-01
         -1   -1    0    0    0  501 -0.00000000000E+00  0.00000000000E+00  0.19594324547E+04  0.19594324547E+04  0.00000000000E+00 0.  1.
          1   -1    0    0  501    0  0.00000000000E+00 -0.00000000000E+00 -0.98298447182E+03  0.98298447182E+03  0.00000000000E+00 0. -1.
         23    2    1    2    0    0 -0.82813078450E+03 -0.55872918303E+03 -0.53007261695E+03  0.11347711609E+04  0.93539896202E+02 0.  0.
         13    1    3    3    0    0 -0.62771118790E+03 -0.37347650744E+03 -0.38917904587E+03  0.82762694903E+03  0.00000000000E+00 0. -1.
        -13    1    3    3    0    0 -0.20041959660E+03 -0.18525267560E+03 -0.14089357109E+03  0.30714421188E+03  0.00000000000E+00 0.  1.
         22    1    1    2    0    0  0.82813078450E+03  0.55872918303E+03  0.15065205998E+04  0.18076457656E+04  0.00000000000E+00 0.  1.
<mgrwt>
<rscale>  0 0.27756741E+04</rscale>
<asrwt>0</asrwt>
<pdfrwt beam="1">  1        1 0.15122838E+00 0.27756741E+04</pdfrwt>
<pdfrwt beam="2">  1       -1 0.30145115E+00 0.27756741E+04</pdfrwt>
<totfact> 0.43744800E-01</totfact>
</mgrwt>
</event>
<event>
 6    1  0.1528034E-005  0.1625589E+04  0.7818608E-02  0.8804980E-01
          2   -1    0    0  501    0  0.00000000000E+00  0.00000000000E+00  0.31242417572E+04  0.31242417572E+04  0.00000000000E+00 0.  1.
         -2   -1    0    0    0  501 -0.00000000000E+00 -0.00000000000E+00 -0.21145436519E+03  0.21145436519E+03  0.00000000000E+00 0. -1.
         23    2    1    2    0    0 -0.71001857264E+03  0.24893380246E+03  0.20777232691E+04  0.22116736578E+04  0.92043327692E+02 0.  0.
         13    1    3    3    0    0 -0.44370579011E+03  0.10997929762E+03  0.12922254379E+04  0.13706994041E+04  0.00000000000E+00 0.  1.
        -13    1    3    3    0    0 -0.26631278253E+03  0.13895450484E+03  0.78549783123E+03  0.84097425372E+03  0.00000000000E+00 0. -1.
         22    1    1    2    0    0  0.71001857264E+03 -0.24893380246E+03  0.83506412290E+03  0.11240224646E+04  0.00000000000E+00 0. -1.
<mgrwt>
<rscale>  0 0.16255886E+04</rscale>
<asrwt>0</asrwt>
<pdfrwt beam="1">  1        2 0.48065254E+00 0.16255886E+04</pdfrwt>
<pdfrwt beam="2">  1       -2 0.32531443E-01 0.16255886E+04</pdfrwt>
<totfact> 0.12320638E+01</totfact>
</mgrwt>
</event>
<event>
 6    1  0.1528034E-005  0.5438864E+03  0.7818608E-02  0.1002919E+00
          1   -1    0    0  501    0  0.00000000000E+00  0.00000000000E+00  0.10001255921E+04  0.10001255921E+04  0.00000000000E+00 0. -1.
         -1   -1    0    0    0  501 -0.00000000000E+00 -0.00000000000E+00 -0.73943827164E+02  0.73943827164E+02  0.00000000000E+00 0.  1.
         23    2    1    2    0    0 -0.14667206056E+03  0.84792466871E+02  0.71509515041E+02  0.20276745638E+03  0.85431696916E+02 0.  0.
         11    1    3    3    0    0 -0.15111824049E+03  0.69714566315E+02  0.80271050281E+02  0.18477089835E+03  0.00000000000E+00 0. -1.
        -11    1    3    3    0    0  0.44461799257E+01  0.15077900556E+02 -0.87615352400E+01  0.17996558028E+02  0.00000000000E+00 0.  1.
         22    1    1    2    0    0  0.14667206056E+03 -0.84792466871E+02  0.85467224985E+03  0.87130196284E+03  0.00000000000E+00 0. -1.
<mgrwt>
<rscale>  0 0.54388644E+03</rscale>
<asrwt>0</asrwt>
<pdfrwt beam="1">  1        1 0.15386547E+00 0.54388644E+03</pdfrwt>
<pdfrwt beam="2">  1       -1 0.11375974E-01 0.54388644E+03</pdfrwt>
<totfact> 0.78897981E+02</totfact>
</mgrwt>
</event>
<event>
 6    1  0.1528034E-005  0.2532742E+04  0.7818608E-02  0.8391413E-01
          1   -1    0    0  501    0  0.00000000000E+00  0.00000000000E+00  0.15061478296E+04  0.15061478296E+04  0.00000000000E+00 0. -1.
         -1   -1    0    0    0  501 -0.00000000000E+00 -0.00000000000E+00 -0.10647660030E+04  0.10647660030E+04  0.00000000000E+00 0.  1.
         23    2    1    2    0    0  0.87108504026E+03 -0.77061361698E+03 -0.28337899164E+03  0.12005442702E+04  0.91478946750E+02 0.  0.
         11    1    3    3    0    0  0.34017173273E+03 -0.24341065775E+03 -0.11007483158E+03  0.43252979620E+03  0.00000000000E+00 0. -1.
        -11    1    3    3    0    0  0.53091330753E+03 -0.52720295923E+03 -0.17330416006E+03  0.76801447397E+03  0.00000000000E+00 0.  1.
         22    1    1    2    0    0 -0.87108504026E+03  0.77061361698E+03  0.72476081829E+03  0.13703695625E+04  0.00000000000E+00 0. -1.
<mgrwt>
<rscale>  0 0.25327416E+04</rscale>
<asrwt>0</asrwt>
<pdfrwt beam="1">  1        1 0.23171505E+00 0.25327416E+04</pdfrwt>
<pdfrwt beam="2">  1       -1 0.16381015E+00 0.25327416E+04</pdfrwt>
<totfact> 0.15697781E+00</totfact>
</mgrwt>
</event>
<event>
 6    1  0.1528034E-005  0.1894510E+04  0.7818608E-02  0.8657594E-01
         -2   -1    0    0    0  501 -0.00000000000E+00  0.00000000000E+00  0.57662149141E+03  0.57662149141E+03  0.00000000000E+00 0.  1.
          2   -1    0    0  501    0  0.00000000000E+00 -0.00000000000E+00 -0.15561189182E+04  0.15561189182E+04  0.00000000000E+00 0. -1.
         23    2    1    2    0    0  0.76803628080E+03  0.53197053598E+03 -0.65286150163E+03  0.11430114531E+04  0.85875850705E+02 0.  0.
         13    1    3    3    0    0  0.61964834336E+03  0.46590761106E+03 -0.55396290184E+03  0.95284252009E+03  0.00000000000E+00 0. -1.
        -13    1    3    3    0    0  0.14838793744E+03  0.66062924924E+02 -0.98898599785E+02  0.19016893297E+03  0.00000000000E+00 0.  1.
         22    1    1    2    0    0 -0.76803628080E+03 -0.53197053598E+03 -0.32663592511E+03  0.98972895651E+03  0.00000000000E+00 0. -1.
<mgrwt>
<rscale>  0 0.18945096E+04</rscale>
<asrwt>0</asrwt>
<pdfrwt beam="1">  1        2 0.23940291E+00 0.18945096E+04</pdfrwt>
<pdfrwt beam="2">  1       -2 0.88711000E-01 0.18945096E+04</pdfrwt>
<totfact> 0.12082216E+01</totfact>
</mgrwt>
</event>
<event>
 6    1  0.1528034E-005  0.4899037E+04  0.7818608E-02  0.7844273E-01
         -1   -1    0    0    0  501 -0.00000000000E+00  0.00000000000E+00  0.15215546327E+04  0.15215546327E+04  0.00000000000E+00 0.  1.
          1   -1    0    0  501    0  0.00000000000E+00 -0.00000000000E+00 -0.39434276166E+04  0.39434276166E+04  0.00000000000E+00 0. -1.
         23    2    1    2    0    0  0.17120876921E+04 -0.60267659734E+03 -0.30448448722E+04  0.35459832081E+04  0.91941667149E+02 0.  0.
         13    1    3    3    0    0  0.75315386567E+03 -0.30552470166E+03 -0.14116126724E+04  0.16288758165E+04  0.00000000000E+00 0.  1.
        -13    1    3    3    0    0  0.95893382648E+03 -0.29715189568E+03 -0.16332321998E+04  0.19171073917E+04  0.00000000000E+00 0. -1.
         22    1    1    2    0    0 -0.17120876921E+04  0.60267659734E+03  0.62297188823E+03  0.19189990412E+04  0.00000000000E+00 0.  1.
<mgrwt>
<rscale>  0 0.48990369E+04</rscale>
<asrwt>0</asrwt>
<pdfrwt beam="1">  1        1 0.60668117E+00 0.48990369E+04</pdfrwt>
<pdfrwt beam="2">  1       -1 0.23408533E+00 0.48990369E+04</pdfrwt>
<totfact> 0.69184121E-03</totfact>
</mgrwt>
</event>
<event>
 6    1  0.1528034E-005  0.2409263E+04  0.7818608E-02  0.8436044E-01
         -1   -1    0    0    0  501 -0.00000000000E+00  0.00000000000E+00  0.11410340391E+04  0.11410340391E+04  0.00000000000E+00 0.  1.
          1   -1    0    0  501    0  0.00000000000E+00 -0.00000000000E+00 -0.12717734212E+04  0.12717734212E+04  0.00000000000E+00 0. -1.
         23    2    1    2    0    0 -0.18553547934E+03  0.80321162744E+03  0.81194806007E+03  0.11605167807E+04  0.89259249112E+02 0.  0.
         13    1    3    3    0    0 -0.91262608931E+02  0.44389982665E+03  0.38553462980E+03  0.59498980719E+03  0.00000000000E+00 0. -1.
        -13    1    3    3    0    0 -0.94272870407E+02  0.35931180079E+03  0.42641343026E+03  0.56552697353E+03  0.00000000000E+00 0.  1.
         22    1    1    2    0    0  0.18553547934E+03 -0.80321162744E+03 -0.94268744220E+03  0.12522906796E+04  0.00000000000E+00 0. -1.
<mgrwt>
<rscale>  0 0.24092628E+04</rscale>
<asrwt>0</asrwt>
<pdfrwt beam="1">  1        1 0.19565745E+00 0.24092628E+04</pdfrwt>
<pdfrwt beam="2">  1       -1 0.17554370E+00 0.24092628E+04</pdfrwt>
<totfact> 0.19022126E+00</totfact>
</mgrwt>
</event>
<event>
 6    1  0.1528034E-005  0.3630345E+04  0.7818608E-02  0.8083576E-01
         -1   -1    0    0    0  501 -0.00000000000E+00  0.00000000000E+00  0.32282934561E+04  0.32282934561E+04  0.00000000000E+00 0.  1.
          1   -1    0    0  501    0  0.00000000000E+00 -0.00000000000E+00 -0.10206171761E+04  0.10206171761E+04  0.00000000000E+00 0. -1.
         23    2    1    2    0    0 -0.49812416224E+03 -0.17227146714E+04  0.14251787727E+04  0.22923381524E+04  0.88352423221E+02 0.  0.
         11    1    3    3    0    0 -0.37440842571E+03 -0.13626385196E+04  0.10825920934E+04  0.17801603986E+04  0.00000000000E+00 0. -1.
        -11    1    3    3    0    0 -0.12371573653E+03 -0.36007615182E+03  0.34258667934E+03  0.51217775375E+03  0.00000000000E+00 0.  1.
         22    1    1    2    0    0  0.49812416224E+03  0.17227146714E+04  0.78249750725E+03  0.19565724798E+04  0.00000000000E+00 0. -1.
<mgrwt>
<rscale>  0 0.36303453E+04</rscale>
<asrwt>0</asrwt>
<pdfrwt beam="1">  1        1 0.15701803E+00 0.36303453E+04</pdfrwt>
<pdfrwt beam="2">  1       -1 0.49666053E+00 0.36303453E+04</pdfrwt>
<totfact> 0.18423171E-02</totfact>
</mgrwt>
</event>
<event>
 6    1  0.1528034E-005  0.3494474E+04  0.7818608E-02  0.8115101E-01
          1   -1    0    0  501    0  0.00000000000E+00  0.00000000000E+00  0.23472525730E+04  0.23472525730E+04  0.00000000000E+00 0. -1.
         -1   -1    0    0    0  501 -0.00000000000E+00 -0.00000000000E+00 -0.13006005473E+04  0.13006005473E+04  0.00000000000E+00 0.  1.
         23    2    1    2    0    0  0.10314517917E+04 -0.16328005994E+03  0.19845276386E+04  0.22442278705E+04  0.87496339537E+02 0.  0.
         11    1    3    3    0    0  0.87531356911E+03 -0.10681255915E+03  0.16579031423E+04  0.18778246980E+04  0.00000000000E+00 0.  1.
        -11    1    3    3    0    0  0.15613822263E+03 -0.56467500797E+02  0.32662449629E+03  0.36640317246E+03  0.00000000000E+00 0. -1.
         22    1    1    2    0    0 -0.10314517917E+04  0.16328005994E+03 -0.93787561293E+03  0.14036252498E+04  0.00000000000E+00 0.  1.
<mgrwt>
<rscale>  0 0.34944745E+04</rscale>
<asrwt>0</asrwt>
<pdfrwt beam="1">  1        1 0.36111578E+00 0.34944745E+04</pdfrwt>
<pdfrwt beam="2">  1       -1 0.20009239E+00 0.34944745E+04</pdfrwt>
<totfact> 0.21185953E-01</totfact>
</mgrwt>
</event>
<event>
 6    1  0.1528034E-005  0.3268154E+04  0.7818608E-02  0.8171046E-01
          2   -1    0    0  501    0  0.00000000000E+00  0.00000000000E+00  0.15765705992E+04  0.15765705992E+04  0.00000000000E+00 0.  1.
         -2   -1    0    0    0  501 -0.00000000000E+00 -0.00000000000E+00 -0.16936812852E+04  0.16936812852E+04  0.00000000000E+00 0. -1.
         23    2    1    2    0    0  0.12985157422E+03  0.15324388658E+04  0.49033139623E+03  0.16167053347E+04  0.89894116684E+02 0.  0.
         13    1    3    3    0    0  0.37291305241E+02  0.95436801233E+03  0.29953087964E+03  0.10009633821E+04  0.00000000000E+00 0. -1.
        -13    1    3    3    0    0  0.92560268977E+02  0.57807085348E+03  0.19080051658E+03  0.61574195258E+03  0.00000000000E+00 0.  1.
         22    1    1    2    0    0 -0.12985157422E+03 -0.15324388658E+04 -0.60744208227E+03  0.16535465497E+04  0.00000000000E+00 0. -1.
<mgrwt>
<rscale>  0 0.32681543E+04</rscale>
<asrwt>0</asrwt>
<pdfrwt beam="1">  1        2 0.24254932E+00 0.32681543E+04</pdfrwt>
<pdfrwt beam="2">  1       -2 0.26056635E+00 0.32681543E+04</pdfrwt>
<totfact> 0.53274394E-01</totfact>
</mgrwt>
</event>
<event>
 6    1  0.1528034E-005  0.1773277E+04  0.7818608E-02  0.8720641E-01
          2   -1    0    0  501    0  0.00000000000E+00  0.00000000000E+00  0.12773206987E+04  0.12773206987E+04  0.00000000000E+00 0. -1.
         -2   -1    0    0    0  501 -0.00000000000E+00 -0.00000000000E+00 -0.61545074569E+03  0.61545074569E+03  0.00000000000E+00 0.  1.
         23    2    1    2    0    0 -0.52645811722E+03  0.63771473153E+03  0.66574153173E+03  0.10658172636E+04  0.94426820031E+02 0.  0.
         11    1    3    3    0    0 -0.19902858119E+03  0.31362413796E+03  0.28641098254E+03  0.46904554892E+03  0.00000000000E+00 0.  1.
        -11    1    3    3    0    0 -0.32742953603E+03  0.32409059357E+03  0.37933054919E+03  0.59677171469E+03  0.00000000000E+00 0. -1.
         22    1    1    2    0    0  0.52645811722E+03 -0.63771473153E+03 -0.38715787021E+01  0.82695418079E+03  0.00000000000E+00 0.  1.
<mgrwt>
<rscale>  0 0.17732772E+04</rscale>
<asrwt>0</asrwt>
<pdfrwt beam="1">  1        2 0.19651088E+00 0.17732772E+04</pdfrwt>
<pdfrwt beam="2">  1       -2 0.94684730E-01 0.17732772E+04</pdfrwt>
<totfact> 0.15148557E+01</totfact>
</mgrwt>
</event>
<event>
 6    1  0.1528034E-005  0.5148099E+04  0.7818608E-02  0.7806059E-01
          2   -1    0    0  501    0  0.00000000000E+00  0.00000000000E+00  0.38135414055E+04  0.38135414055E+04  0.00000000000E+00 0. -1.
         -2   -1    0    0    0  501 -0.00000000000E+00 -0.00000000000E+00 -0.17374218419E+04  0.17374218419E+04  0.00000000000E+00 0.  1.
         23    2    1    2    0    0 -0.20710179990E+03 -0.18034433695E+04 -0.92776055314E+03  0.20411776559E+04  0.10182060875E+03 0.  0.
         13    1    3    3    0    0 -0.12067203270E+03 -0.13632663972E+04 -0.66972933910E+03  0.15236779177E+04  0.00000000000E+00 0. -1.
        -13    1    3    3    0    0 -0.86429767202E+02 -0.44017697231E+03 -0.25803121404E+03  0.51749973819E+03  0.00000000000E+00 0.  1.
         22    1    1    2    0    0  0.20710179990E+03  0.18034433695E+04  0.30038801168E+04  0.35097855915E+04  0.00000000000E+00 0. -1.
<mgrwt>
<rscale>  0 0.51480987E+04</rscale>
<asrwt>0</asrwt>
<pdfrwt beam="1">  1        2 0.58669868E+00 0.51480987E+04</pdfrwt>
<pdfrwt beam="2">  1       -2 0.26729567E+00 0.51480987E+04</pdfrwt>
<totfact> 0.17311543E-02</totfact>
</mgrwt>
</event>
<event>
 6    1  0.1528034E-005  0.1744935E+04  0.7818608E-02  0.8736143E-01
         -3   -1    0    0    0  501 -0.00000000000E+00  0.00000000000E+00  0.16414369724E+04  0.16414369724E+04  0.00000000000E+00 0.  1.
          3   -1    0    0  501    0  0.00000000000E+00 -0.00000000000E+00 -0.46373949249E+03  0.46373949249E+03  0.00000000000E+00 0. -1.
         23    2    1    2    0    0  0.16755838398E+03  0.20460193227E+03 -0.40968127852E+03  0.49591915625E+03  0.90328826148E+02 0.  0.
         11    1    3    3    0    0  0.12016829772E+03  0.19798212893E+03 -0.33786781864E+03  0.40962422539E+03  0.00000000000E+00 0. -1.
        -11    1    3    3    0    0  0.47390086261E+02  0.66198033382E+01 -0.71813459880E+02  0.86294930859E+02  0.00000000000E+00 0.  1.
         22    1    1    2    0    0 -0.16755838398E+03 -0.20460193227E+03  0.15873787584E+04  0.16092573086E+04  0.00000000000E+00 0.  1.
<mgrwt>
<rscale>  0 0.17449346E+04</rscale>
<asrwt>0</asrwt>
<pdfrwt beam="1">  1        3 0.71344538E-01 0.17449346E+04</pdfrwt>
<pdfrwt beam="2">  1       -3 0.25252876E+00 0.17449346E+04</pdfrwt>
<totfact> 0.32875953E-01</totfact>
</mgrwt>
</event>
<event>
 6    1  0.1528034E-005  0.4721331E+04  0.7818608E-02  0.7872994E-01
          2   -1    0    0  501    0  0.00000000000E+00  0.00000000000E+00  0.38424281906E+04  0.38424281906E+04  0.00000000000E+00 0. -1.
         -2   -1    0    0    0  501 -0.00000000000E+00 -0.00000000000E+00 -0.14503174546E+04  0.14503174546E+04  0.00000000000E+00 0.  1.
         23    2    1    2    0    0  0.89605156689E+03 -0.75669318873E+03  0.34920352573E+04  0.36848504543E+04  0.91212060839E+02 0.  0.
         13    1    3    3    0    0  0.59416319544E+03 -0.45999693999E+03  0.23263261569E+04  0.24446718544E+04  0.00000000000E+00 0. -1.
        -13    1    3    3    0    0  0.30188837145E+03 -0.29669624874E+03  0.11657091004E+04  0.12401785999E+04  0.00000000000E+00 0.  1.
         22    1    1    2    0    0 -0.89605156689E+03  0.75669318873E+03 -0.10999245213E+04  0.16078951909E+04  0.00000000000E+00 0.  1.
<mgrwt>
<rscale>  0 0.47213306E+04</rscale>
<asrwt>0</asrwt>
<pdfrwt beam="1">  1        2 0.59114279E+00 0.47213306E+04</pdfrwt>
<pdfrwt beam="2">  1       -2 0.22312576E+00 0.47213306E+04</pdfrwt>
<totfact> 0.31919533E-02</totfact>
</mgrwt>
</event>
<event>
 6    1  0.1528034E-005  0.2033136E+04  0.7818608E-02  0.8591283E-01
          2   -1    0    0  501    0  0.00000000000E+00  0.00000000000E+00  0.12772835791E+04  0.12772835791E+04  0.00000000000E+00 0. -1.
         -2   -1    0    0    0  501 -0.00000000000E+00 -0.00000000000E+00 -0.80906921755E+03  0.80906921755E+03  0.00000000000E+00 0.  1.
         23    2    1    2    0    0  0.41052366534E+03  0.46303033377E+03 -0.59039430535E+03  0.86014764276E+03  0.91442669267E+02 0.  0.
         13    1    3    3    0    0  0.21125431460E+03  0.20557059601E+03 -0.22552918631E+03  0.37114831168E+03  0.00000000000E+00 0.  1.
        -13    1    3    3    0    0  0.19926935074E+03  0.25745973776E+03 -0.36486511903E+03  0.48899933108E+03  0.00000000000E+00 0. -1.
         22    1    1    2    0    0 -0.41052366534E+03 -0.46303033377E+03  0.10586086669E+04  0.12262051539E+04  0.00000000000E+00 0. -1.
<mgrwt>
<rscale>  0 0.20331363E+04</rscale>
<asrwt>0</asrwt>
<pdfrwt beam="1">  1        2 0.19650516E+00 0.20331363E+04</pdfrwt>
<pdfrwt beam="2">  1       -2 0.12447219E+00 0.20331363E+04</pdfrwt>
<totfact> 0.76550397E+00</totfact>
</mgrwt>
</event>
<event>
 6    1  0.1528034E-005  0.1765732E+04  0.7818608E-02  0.8724738E-01
          2   -1    0    0  501    0  0.00000000000E+00  0.00000000000E+00  0.89905093602E+03  0.89905093602E+03  0.00000000000E+00 0. -1.
         -2   -1    0    0    0  501 -0.00000000000E+00 -0.00000000000E+00 -0.86697196547E+03  0.86697196547E+03  0.00000000000E+00 0.  1.
         23    2    1    2    0    0 -0.40891814234E+03 -0.77713429188E+03 -0.56452871379E+02  0.88341900292E+03  0.78041356152E+02 0.  0.
         13    1    3    3    0    0 -0.85805283008E+02 -0.18903576370E+03  0.17530941112E+02  0.20833722770E+03  0.00000000000E+00 0. -1.
        -13    1    3    3    0    0 -0.32311285933E+03 -0.58809852818E+03 -0.73983812491E+02  0.67508177522E+03  0.00000000000E+00 0.  1.
         22    1    1    2    0    0  0.40891814234E+03  0.77713429188E+03  0.88531841927E+02  0.88260389858E+03  0.00000000000E+00 0.  1.
<mgrwt>
<rscale>  0 0.17657315E+04</rscale>
<asrwt>0</asrwt>
<pdfrwt beam="1">  1        2 0.13831553E+00 0.17657315E+04</pdfrwt>
<pdfrwt beam="2">  1       -2 0.13338030E+00 0.17657315E+04</pdfrwt>
<totfact> 0.11308756E+01</totfact>
</mgrwt>
</event>
<event>
 6    1  0.1528034E-005  0.2439319E+04  0.7818608E-02  0.8424928E-01
          2   -1    0    0  501    0  0.00000000000E+00  0.00000000000E+00  0.10169435098E+04  0.10169435098E+04  0.00000000000E+00 0. -1.
         -2   -1    0    0    0  501 -0.00000000000E+00 -0.00000000000E+00 -0.14627847094E+04  0.14627847094E+04  0.00000000000E+00 0.  1.
         23    2    1    2    0    0 -0.29309377890E+02  0.73233824556E+03  0.76551893313E+03  0.10638992336E+04  0.93187964225E+02 0.  0.
         11    1    3    3    0    0 -0.58771690214E+02  0.35896270933E+03  0.39762965368E+03  0.53890414708E+03  0.00000000000E+00 0.  1.
        -11    1    3    3    0    0  0.29462312324E+02  0.37337553624E+03  0.36788927944E+03  0.52499508649E+03  0.00000000000E+00 0. -1.
         22    1    1    2    0    0  0.29309377890E+02 -0.73233824556E+03 -0.12113601327E+04  0.14158289857E+04  0.00000000000E+00 0.  1.
<mgrwt>
<rscale>  0 0.24393191E+04</rscale>
<asrwt>0</asrwt>
<pdfrwt beam="1">  1        2 0.15645285E+00 0.24393191E+04</pdfrwt>
<pdfrwt beam="2">  1       -2 0.22504380E+00 0.24393191E+04</pdfrwt>
<totfact> 0.20220511E+00</totfact>
</mgrwt>
</event>
<event>
 6    1  0.1528034E-005  0.1933892E+04  0.7818608E-02  0.8638168E-01
         -1   -1    0    0    0  501 -0.00000000000E+00  0.00000000000E+00  0.23795153801E+04  0.23795153801E+04  0.00000000000E+00 0.  1.
          1   -1    0    0  501    0  0.00000000000E+00 -0.00000000000E+00 -0.39293075814E+03  0.39293075814E+03  0.00000000000E+00 0. -1.
         23    2    1    2    0    0  0.36713409417E+03  0.78546091381E+03  0.16023605567E+04  0.18240978781E+04  0.89651686063E+02 0.  0.
         11    1    3    3    0    0  0.11875884000E+03  0.31740465490E+03  0.69851527807E+03  0.77638455080E+03  0.00000000000E+00 0. -1.
        -11    1    3    3    0    0  0.24837525417E+03  0.46805625892E+03  0.90384527868E+03  0.10477133273E+04  0.00000000000E+00 0.  1.
         22    1    1    2    0    0 -0.36713409417E+03 -0.78546091381E+03  0.38422406522E+03  0.94834826015E+03  0.00000000000E+00 0. -1.
<mgrwt>
<rscale>  0 0.19338922E+04</rscale>
<asrwt>0</asrwt>
<pdfrwt beam="1">  1        1 0.60450887E-01 0.19338922E+04</pdfrwt>
<pdfrwt beam="2">  1       -1 0.36607928E+00 0.19338922E+04</pdfrwt>
<totfact> 0.69725679E-01</totfact>
</mgrwt>
</event>
<event>
 6    1  0.1528034E-005  0.5654757E+04  0.7818608E-02  0.7734746E-01
          2   -1    0    0  501    0  0.00000000000E+00  0.00000000000E+00  0.21929998472E+04  0.21929998472E+04  0.00000000000E+00 0. -1.
         -2   -1    0    0    0  501 -0.00000000000E+00 -0.00000000000E+00 -0.36452670156E+04  0.36452670156E+04  0.00000000000E+00 0.  1.
         23    2    1    2    0    0  0.29498887530E+03  0.94618304814E+03 -0.34594134636E+04  0.35997590903E+04  0.91886881453E+02 0.  0.
         11    1    3    3    0    0  0.17974024682E+03  0.59239835211E+03 -0.19970466533E+04  0.20907983402E+04  0.00000000000E+00 0. -1.
        -11    1    3    3    0    0  0.11524862848E+03  0.35378469603E+03 -0.14623668103E+04  0.15089607501E+04  0.00000000000E+00 0.  1.
         22    1    1    2    0    0 -0.29498887530E+03 -0.94618304814E+03  0.20071462952E+04  0.22385077725E+04  0.00000000000E+00 0. -1.
<mgrwt>
<rscale>  0 0.56547573E+04</rscale>
<asrwt>0</asrwt>
<pdfrwt beam="1">  1        2 0.33738459E+00 0.56547573E+04</pdfrwt>
<pdfrwt beam="2">  1       -2 0.56081031E+00 0.56547573E+04</pdfrwt>
<totfact> 0.27599285E-03</totfact>
</mgrwt>
</event>
<event>
 6    1  0.1528034E-005  0.1270029E+04  0.7818608E-02  0.9053676E-01
          1   -1    0    0  501    0  0.00000000000E+00  0.00000000000E+00  0.24338529499E+03  0.24338529499E+03  0.00000000000E+00 0. -1.
         -1   -1    0    0    0  501 -0.00000000000E+00 -0.00000000000E+00 -0.16568122120E+04  0.16568122120E+04  0.00000000000E+00 0.  1.
         23    2    1    2    0    0  0.53108283114E+03 -0.95020970794E+02 -0.12024931551E+04  0.13209125941E+04  0.87990537066E+02 0.  0.
         13    1    3    3    0    0  0.26744406339E+03 -0.77726980932E+02 -0.69588544065E+03  0.74954943607E+03  0.00000000000E+00 0. -1.
        -13    1    3    3    0    0  0.26363876775E+03 -0.17293989862E+02 -0.50660771450E+03  0.57136315801E+03  0.00000000000E+00 0.  1.
         22    1    1    2    0    0 -0.53108283114E+03  0.95020970794E+02 -0.21093376186E+03  0.57928491290E+03  0.00000000000E+00 0. -1.
<mgrwt>
<rscale>  0 0.12700295E+04</rscale>
<asrwt>0</asrwt>
<pdfrwt beam="1">  1        1 0.37443893E-01 0.12700295E+04</pdfrwt>
<pdfrwt beam="2">  1       -1 0.25489417E+00 0.12700295E+04</pdfrwt>
<totfact> 0.73607782E+00</totfact>
</mgrwt>
</event>
<event>
 6    1  0.1528034E-005  0.3456068E+04  0.7818608E-02  0.8124281E-01
          2   -1    0    0  501    0  0.00000000000E+00  0.00000000000E+00  0.18877285084E+04  0.18877285084E+04  0.00000000000E+00 0. -1.
         -2   -1    0    0    0  501 -0.00000000000E+00 -0.00000000000E+00 -0.15818486377E+04  0.15818486377E+04  0.00000000000E+00 0.  1.
         23    2    1    2    0    0  0.94340503219E+03 -0.12761787639E+04  0.83634910837E+03  0.17962442729E+04  0.91478766585E+02 0.  0.
         13    1    3    3    0    0  0.47420494772E+03 -0.57104422881E+03  0.41116870648E+03  0.84854083513E+03  0.00000000000E+00 0.  1.
        -13    1    3    3    0    0  0.46920008448E+03 -0.70513453509E+03  0.42518040189E+03  0.94770343779E+03  0.00000000000E+00 0. -1.
         22    1    1    2    0    0 -0.94340503219E+03  0.12761787639E+04 -0.53046923768E+03  0.16733328731E+04  0.00000000000E+00 0.  1.
<mgrwt>
<rscale>  0 0.34560676E+04</rscale>
<asrwt>0</asrwt>
<pdfrwt beam="1">  1        2 0.29041977E+00 0.34560676E+04</pdfrwt>
<pdfrwt beam="2">  1       -2 0.24336133E+00 0.34560676E+04</pdfrwt>
<totfact> 0.44919556E-01</totfact>
</mgrwt>
</event>
<event>
 6    1  0.1528034E-005  0.3912780E+04  0.7818608E-02  0.8022377E-01
         -1   -1    0    0    0  501 -0.00000000000E+00  0.00000000000E+00  0.13366883125E+04  0.13366883125E+04  0.00000000000E+00 0.  1.
          1   -1    0    0  501    0  0.00000000000E+00 -0.00000000000E+00 -0.28633908269E+04  0.28633908269E+04  0.00000000000E+00 0. -1.
         23    2    1    2    0    0  0.16429856044E+04  0.21869756849E+03 -0.18772639111E+04  0.25059352212E+04  0.91439698448E+02 0.  0.
         13    1    3    3    0    0  0.74367942700E+03  0.54173186804E+02 -0.82860062444E+03  0.11147075038E+04  0.00000000000E+00 0. -1.
        -13    1    3    3    0    0  0.89930617739E+03  0.16452438169E+03 -0.10486632867E+04  0.13912277174E+04  0.00000000000E+00 0.  1.
         22    1    1    2    0    0 -0.16429856044E+04 -0.21869756849E+03  0.35056139673E+03  0.16941439182E+04  0.00000000000E+00 0.  1.
<mgrwt>
<rscale>  0 0.39127796E+04</rscale>
<asrwt>0</asrwt>
<pdfrwt beam="1">  1        1 0.44052166E+00 0.39127796E+04</pdfrwt>
<pdfrwt beam="2">  1       -1 0.20564436E+00 0.39127796E+04</pdfrwt>
<totfact> 0.81421053E-02</totfact>
</mgrwt>
</event>
<event>
 6    1  0.1528034E-005  0.5901358E+03  0.7818608E-02  0.9926085E-01
         -4   -1    0    0    0  501 -0.00000000000E+00  0.00000000000E+00  0.71539841747E+03  0.71539841747E+03  0.00000000000E+00 0.  1.
          4   -1    0    0  501    0  0.00000000000E+00 -0.00000000000E+00 -0.12170152329E+03  0.12170152329E+03  0.00000000000E+00 0. -1.
         23    2    1    2    0    0 -0.26967587113E+03  0.97963724956E+02  0.26655351214E+03  0.40196230818E+03  0.90559127035E+02 0.  0.
         11    1    3    3    0    0 -0.83696267797E+02  0.59275540644E+02  0.50645382408E+02  0.11438360775E+03  0.00000000000E+00 0. -1.
        -11    1    3    3    0    0 -0.18597960333E+03  0.38688184312E+02  0.21590812973E+03  0.28757870043E+03  0.00000000000E+00 0.  1.
         22    1    1    2    0    0  0.26967587113E+03 -0.97963724956E+02  0.32714338204E+03  0.43513763258E+03  0.00000000000E+00 0.  1.
<mgrwt>
<rscale>  0 0.59013584E+03</rscale>
<asrwt>0</asrwt>
<pdfrwt beam="1">  1        4 0.18723312E-01 0.59013584E+03</pdfrwt>
<pdfrwt beam="2">  1       -4 0.11006129E+00 0.59013584E+03</pdfrwt>
<totfact> 0.33722886E+01</totfact>
</mgrwt>
</event>
<event>
 6    1  0.1528034E-005  0.2203324E+04  0.7818608E-02  0.8517046E-01
         -1   -1    0    0    0  501 -0.00000000000E+00  0.00000000000E+00  0.16515696569E+04  0.16515696569E+04  0.00000000000E+00 0.  1.
          1   -1    0    0  501    0  0.00000000000E+00 -0.00000000000E+00 -0.73485216404E+03  0.73485216404E+03  0.00000000000E+00 0. -1.
         23    2    1    2    0    0 -0.30517261586E+03  0.96719209891E+03  0.91935743831E+03  0.13722236890E+04  0.95858601756E+02 0.  0.
         13    1    3    3    0    0 -0.13335764417E+03  0.56683037486E+03  0.49998554531E+03  0.76750666488E+03  0.00000000000E+00 0. -1.
        -13    1    3    3    0    0 -0.17181497169E+03  0.40036172405E+03  0.41937189301E+03  0.60471702409E+03  0.00000000000E+00 0.  1.
         22    1    1    2    0    0  0.30517261586E+03 -0.96719209891E+03 -0.26399454050E+01  0.10141981320E+04  0.00000000000E+00 0. -1.
<mgrwt>
<rscale>  0 0.22033243E+04</rscale>
<asrwt>0</asrwt>
<pdfrwt beam="1">  1        1 0.11305418E+00 0.22033243E+04</pdfrwt>
<pdfrwt beam="2">  1       -1 0.25408764E+00 0.22033243E+04</pdfrwt>
<totfact> 0.15108500E+00</totfact>
</mgrwt>
</event>
<event>
 6    1  0.1528034E-005  0.1403772E+04  0.7818608E-02  0.8951093E-01
         -2   -1    0    0    0  501 -0.00000000000E+00  0.00000000000E+00  0.43121078753E+03  0.43121078753E+03  0.00000000000E+00 0. -1.
          2   -1    0    0  501    0  0.00000000000E+00 -0.00000000000E+00 -0.11424666656E+04  0.11424666656E+04  0.00000000000E+00 0.  1.
         23    2    1    2    0    0 -0.94407370622E+02  0.52294391433E+02 -0.11311249215E+04  0.11401599002E+04  0.94199548835E+02 0.  0.
         11    1    3    3    0    0 -0.50547405779E+02 -0.23193128900E+02 -0.47861055642E+03  0.48183091036E+03  0.00000000000E+00 0.  1.
        -11    1    3    3    0    0 -0.43859964843E+02  0.75487520332E+02 -0.65251436510E+03  0.65832898987E+03  0.00000000000E+00 0. -1.
         22    1    1    2    0    0  0.94407370622E+02 -0.52294391433E+02  0.41986904346E+03  0.43351755289E+03  0.00000000000E+00 0. -1.
<mgrwt>
<rscale>  0 0.14037720E+04</rscale>
<asrwt>0</asrwt>
<pdfrwt beam="1">  1        2 0.17576410E+00 0.14037720E+04</pdfrwt>
<pdfrwt beam="2">  1       -2 0.66340121E-01 0.14037720E+04</pdfrwt>
<totfact> 0.41712902E+01</totfact>
</mgrwt>
</event>
<event>
 6    1  0.1528034E-005  0.1667666E+04  0.7818608E-02  0.8780023E-01
          2   -1    0    0  501    0  0.00000000000E+00  0.00000000000E+00  0.17063819606E+04  0.17063819606E+04  0.00000000000E+00 0. -1.
         -2   -1    0    0    0  501 -0.00000000000E+00 -0.00000000000E+00 -0.40745734715E+03  0.40745734715E+03  0.00000000000E+00 0.  1.
         23    2    1    2    0    0 -0.44594993714E+03  0.63326417724E+03  0.26861704665E+03  0.82487517063E+03  0.91482592590E+02 0.  0.
         13    1    3    3    0    0 -0.37913335747E+03  0.56401501604E+03  0.26222536042E+03  0.72843474705E+03  0.00000000000E+00 0. -1.
        -13    1    3    3    0    0 -0.66816579675E+02  0.69249161200E+02  0.63916862364E+01  0.96440423575E+02  0.00000000000E+00 0.  1.
         22    1    1    2    0    0  0.44594993714E+03 -0.63326417724E+03  0.10303075668E+04  0.12889641372E+04  0.00000000000E+00 0. -1.
<mgrwt>
<rscale>  0 0.16676665E+04</rscale>
<asrwt>0</asrwt>
<pdfrwt beam="1">  1        2 0.26252030E+00 0.16676665E+04</pdfrwt>
<pdfrwt beam="2">  1       -2 0.62685747E-01 0.16676665E+04</pdfrwt>
<totfact> 0.21892846E+01</totfact>
</mgrwt>
</event>
<event>
 6    1  0.1528034E-005  0.1090557E+04  0.7818608E-02  0.9214445E-01
         -2   -1    0    0    0  501 -0.00000000000E+00  0.00000000000E+00  0.82144391890E+02  0.82144391890E+02  0.00000000000E+00 0.  1.
          2   -1    0    0  501    0  0.00000000000E+00 -0.00000000000E+00 -0.36195854486E+04  0.36195854486E+04  0.00000000000E+00 0. -1.
         23    2    1    2    0    0 -0.53523391132E+03 -0.57121356345E+02 -0.15765089224E+04  0.16682616149E+04  0.89321017259E+02 0.  0.
         11    1    3    3    0    0 -0.15003804517E+03 -0.29059456183E+02 -0.33832100239E+03  0.37123707742E+03  0.00000000000E+00 0. -1.
        -11    1    3    3    0    0 -0.38519586615E+03 -0.28061900162E+02 -0.12381879200E+04  0.12970245374E+04  0.00000000000E+00 0.  1.
         22    1    1    2    0    0  0.53523391132E+03  0.57121356345E+02 -0.19609321344E+04  0.20334682257E+04  0.00000000000E+00 0.  1.
<mgrwt>
<rscale>  0 0.10905570E+04</rscale>
<asrwt>0</asrwt>
<pdfrwt beam="1">  1        2 0.55685938E+00 0.10905570E+04</pdfrwt>
<pdfrwt beam="2">  1       -2 0.12637597E-01 0.10905570E+04</pdfrwt>
<totfact> 0.32225170E+01</totfact>
</mgrwt>
</event>
<event>
 6    1  0.1528034E-005  0.7828879E+03  0.7818608E-02  0.9585122E-01
         -2   -1    0    0    0  501 -0.00000000000E+00  0.00000000000E+00  0.16262046725E+03  0.16262046725E+03  0.00000000000E+00 0.  1.
          2   -1    0    0  501    0  0.00000000000E+00 -0.00000000000E+00 -0.94224518988E+03  0.94224518988E+03  0.00000000000E+00 0. -1.
         23    2    1    2    0    0  0.22345608113E+03  0.23759979673E+03 -0.10302346741E+03  0.35374945960E+03  0.90213977469E+02 0.  0.
         11    1    3    3    0    0  0.20964232924E+02  0.71108773199E+02 -0.65942609426E+01  0.74427420789E+02  0.00000000000E+00 0.  1.
        -11    1    3    3    0    0  0.20249184821E+03  0.16649102353E+03 -0.96429206465E+02  0.27932203882E+03  0.00000000000E+00 0. -1.
         22    1    1    2    0    0 -0.22345608113E+03 -0.23759979673E+03 -0.67660125523E+03  0.75111619752E+03  0.00000000000E+00 0. -1.
<mgrwt>
<rscale>  0 0.78288787E+03</rscale>
<asrwt>0</asrwt>
<pdfrwt beam="1">  1        2 0.14496079E+00 0.78288787E+03</pdfrwt>
<pdfrwt beam="2">  1       -2 0.25018534E-01 0.78288787E+03</pdfrwt>
<totfact> 0.39520124E+02</totfact>
</mgrwt>
</event>
<event>
 6    1  0.1528034E-005  0.5329218E+04  0.7818608E-02  0.7779636E-01
         -2   -1    0    0    0  501 -0.00000000000E+00  0.00000000000E+00  0.17220658732E+04  0.17220658732E+04  0.00000000000E+00 0.  1.
          2   -1    0    0  501    0  0.00000000000E+00 -0.00000000000E+00 -0.41230365367E+04  0.41230365367E+04  0.00000000000E+00 0. -1.
         23    2    1    2    0    0  0.27083529602E+03  0.20002529048E+04  0.70561404365E+03  0.21403443903E+04  0.93912138552E+02 0.  0.
         13    1    3    3    0    0  0.54360818150E+02  0.38407490362E+03  0.96926163226E+02  0.39982910256E+03  0.00000000000E+00 0. -1.
        -13    1    3    3    0    0  0.21647447787E+03  0.16161780012E+04  0.60868788043E+03  0.17405152877E+04  0.00000000000E+00 0.  1.
         22    1    1    2    0    0 -0.27083529602E+03 -0.20002529048E+04 -0.31065847072E+04  0.37047580196E+04  0.00000000000E+00 0. -1.
<mgrwt>
<rscale>  0 0.53292178E+04</rscale>
<asrwt>0</asrwt>
<pdfrwt beam="1">  1        2 0.63431330E+00 0.53292178E+04</pdfrwt>
<pdfrwt beam="2">  1       -2 0.26493322E+00 0.53292178E+04</pdfrwt>
<totfact> 0.99320924E-03</totfact>
</mgrwt>
</event>
<event>
 6    1  0.1528034E-005  0.1565412E+04  0.7818608E-02  0.8842083E-01
          2   -1    0    0  501    0  0.00000000000E+00  0.00000000000E+00  0.53602525253E+03  0.53602525253E+03  0.00000000000E+00 0.  1.
         -2   -1    0    0    0  501 -0.00000000000E+00 -0.00000000000E+00 -0.11429103465E+04  0.11429103465E+04  0.00000000000E+00 0. -1.
         23    2    1    2    0    0 -0.50092815851E+03  0.52103640667E+03  0.89251679685E+01  0.72939348002E+03  0.97607545893E+02 0.  0.
         11    1    3    3    0    0 -0.39197870963E+03  0.34441886690E+03  0.90694941187E+01  0.52187538781E+03  0.00000000000E+00 0.  1.
        -11    1    3    3    0    0 -0.10894944888E+03  0.17661753977E+03 -0.14432615023E+00  0.20751809221E+03  0.00000000000E+00 0. -1.
         22    1    1    2    0    0  0.50092815851E+03 -0.52103640667E+03 -0.61581026191E+03  0.94954211899E+03  0.00000000000E+00 0. -1.
<mgrwt>
<rscale>  0 0.15654122E+04</rscale>
<asrwt>0</asrwt>
<pdfrwt beam="1">  1        2 0.82465424E-01 0.15654122E+04</pdfrwt>
<pdfrwt beam="2">  1       -2 0.17583236E+00 0.15654122E+04</pdfrwt>
<totfact> 0.10567271E+01</totfact>
</mgrwt>
</event>
<event>
 6    1  0.1528034E-005  0.2695400E+04  0.7818608E-02  0.8336499E-01
         -2   -1    0    0    0  501 -0.00000000000E+00  0.00000000000E+00  0.10446228586E+04  0.10446228586E+04  0.00000000000E+00 0.  1.
          2   -1    0    0  501    0  0.00000000000E+00 -0.00000000000E+00 -0.17387096825E+04  0.17387096825E+04  0.00000000000E+00 0. -1.
         23    2    1    2    0    0  0.12040039371E+04  0.13882287024E+03 -0.95218467379E+03  0.15441748554E+04  0.94461956590E+02 0.  0.
         13    1    3    3    0    0  0.66354827837E+03  0.67915198941E+02 -0.58240271818E+03  0.88549518244E+03  0.00000000000E+00 0.  1.
        -13    1    3    3    0    0  0.54045565870E+03  0.70907671302E+02 -0.36978195561E+03  0.65867967295E+03  0.00000000000E+00 0. -1.
         22    1    1    2    0    0 -0.12040039371E+04 -0.13882287024E+03  0.25809784989E+03  0.12391576856E+04  0.00000000000E+00 0.  1.
<mgrwt>
<rscale>  0 0.26954004E+04</rscale>
<asrwt>0</asrwt>
<pdfrwt beam="1">  1        2 0.26749380E+00 0.26954004E+04</pdfrwt>
<pdfrwt beam="2">  1       -2 0.16071121E+00 0.26954004E+04</pdfrwt>
<totfact> 0.20386197E+00</totfact>
</mgrwt>
</event>
<event>
 6    1  0.1528034E-005  0.1526645E+04  0.7818608E-02  0.8866925E-01
          2   -1    0    0  501    0  0.00000000000E+00  0.00000000000E+00  0.49545031072E+03  0.49545031072E+03  0.00000000000E+00 0. -1.
         -2   -1    0    0    0  501 -0.00000000000E+00 -0.00000000000E+00 -0.11760232614E+04  0.11760232614E+04  0.00000000000E+00 0.  1.
         23    2    1    2    0    0  0.45566239433E+02  0.49984826226E+03 -0.96706327161E+03  0.10935451410E+04  0.93300785745E+02 0.  0.
         11    1    3    3    0    0  0.49346124167E+02  0.32625651900E+03 -0.71499830171E+03  0.78746487389E+03  0.00000000000E+00 0. -1.
        -11    1    3    3    0    0 -0.37798847339E+01  0.17359174326E+03 -0.25206496990E+03  0.30608026710E+03  0.00000000000E+00 0.  1.
         22    1    1    2    0    0 -0.45566239433E+02 -0.49984826226E+03  0.28649032097E+03  0.57792843110E+03  0.00000000000E+00 0. -1.
<mgrwt>
<rscale>  0 0.15266448E+04</rscale>
<asrwt>0</asrwt>
<pdfrwt beam="1">  1        2 0.76223126E-01 0.15266448E+04</pdfrwt>
<pdfrwt beam="2">  1       -2 0.18092665E+00 0.15266448E+04</pdfrwt>
<totfact> 0.10711406E+01</totfact>
</mgrwt>
</event>
<event>
 6    1  0.1528034E-005  0.1165745E+04  0.7818608E-02  0.9143380E-01
          1   -1    0    0  501    0  0.00000000000E+00  0.00000000000E+00  0.11940969248E+04  0.11940969248E+04  0.00000000000E+00 0. -1.
         -1   -1    0    0    0  501 -0.00000000000E+00 -0.00000000000E+00 -0.28451644324E+03  0.28451644324E+03  0.00000000000E+00 0.  1.
         23    2    1    2    0    0 -0.28254889069E+03 -0.54324498582E+02  0.10953368338E+04  0.11361364357E+04  0.90874607233E+02 0.  0.
         13    1    3    3    0    0 -0.69694327120E+02 -0.37495548285E+02  0.43489655312E+03  0.44203871695E+03  0.00000000000E+00 0.  1.
        -13    1    3    3    0    0 -0.21285456357E+03 -0.16828950297E+02  0.66044028068E+03  0.69409771873E+03  0.00000000000E+00 0. -1.
         22    1    1    2    0    0  0.28254889069E+03  0.54324498582E+02 -0.18575635226E+03  0.34247693233E+03  0.00000000000E+00 0.  1.
<mgrwt>
<rscale>  0 0.11657448E+04</rscale>
<asrwt>0</asrwt>
<pdfrwt beam="1">  1        1 0.18370722E+00 0.11657448E+04</pdfrwt>
<pdfrwt beam="2">  1       -1 0.43771761E-01 0.11657448E+04</pdfrwt>
<totfact> 0.55190336E+01</totfact>
</mgrwt>
</event>
<event>
 6    1  0.1528034E-005  0.2698713E+04  0.7818608E-02  0.8335423E-01
         -2   -1    0    0    0  501 -0.00000000000E+00  0.00000000000E+00  0.12721845132E+04  0.12721845132E+04  0.00000000000E+00 0.  1.
          2   -1    0    0  501    0  0.00000000000E+00 -0.00000000000E+00 -0.14312100197E+04  0.14312100197E+04  0.00000000000E+00 0. -1.
         23    2    1    2    0    0  0.12736567594E+04  0.39447460813E+03 -0.27594164093E+03  0.13649323034E+04  0.95313411271E+02 0.  0.
         11    1    3    3    0    0  0.96110809975E+03  0.25451189663E+03 -0.19976969967E+03  0.10141070051E+04  0.00000000000E+00 0.  1.
        -11    1    3    3    0    0  0.31254865969E+03  0.13996271149E+03 -0.76171941261E+02  0.35082529829E+03  0.00000000000E+00 0. -1.
         22    1    1    2    0    0 -0.12736567594E+04 -0.39447460813E+03  0.11691613438E+03  0.13384622295E+04  0.00000000000E+00 0. -1.
<mgrwt>
<rscale>  0 0.26987132E+04</rscale>
<asrwt>0</asrwt>
<pdfrwt beam="1">  1        2 0.22018616E+00 0.26987132E+04</pdfrwt>
<pdfrwt beam="2">  1       -2 0.19572070E+00 0.26987132E+04</pdfrwt>
<totfact> 0.17298149E+00</totfact>
</mgrwt>
</event>
<event>
 6    1  0.1528034E-005  0.1239289E+04  0.7818608E-02  0.9079146E-01
         -1   -1    0    0    0  501 -0.00000000000E+00  0.00000000000E+00  0.21038987593E+04  0.21038987593E+04  0.00000000000E+00 0.  1.
          1   -1    0    0  501    0  0.00000000000E+00 -0.00000000000E+00 -0.18249889528E+03  0.18249889528E+03  0.00000000000E+00 0. -1.
         23    2    1    2    0    0  0.48279768272E+03 -0.22727761273E+03  0.15352916923E+04  0.16277412677E+04  0.87591885767E+02 0.  0.
         11    1    3    3    0    0  0.81300369726E+02 -0.92713944908E+01  0.18608109982E+03  0.20327785070E+03  0.00000000000E+00 0.  1.
        -11    1    3    3    0    0  0.40149731299E+03 -0.21800621824E+03  0.13492105925E+04  0.14244634170E+04  0.00000000000E+00 0. -1.
         22    1    1    2    0    0 -0.48279768272E+03  0.22727761273E+03  0.38610817170E+03  0.65865638686E+03  0.00000000000E+00 0. -1.
<mgrwt>
<rscale>  0 0.12392888E+04</rscale>
<asrwt>0</asrwt>
<pdfrwt beam="1">  1        1 0.28076755E-01 0.12392888E+04</pdfrwt>
<pdfrwt beam="2">  1       -1 0.32367671E+00 0.12392888E+04</pdfrwt>
<totfact> 0.38632640E+00</totfact>
</mgrwt>
</event>
<event>
 6    1  0.1528034E-005  0.2832820E+04  0.7818608E-02  0.8293151E-01
          2   -1    0    0  501    0  0.00000000000E+00  0.00000000000E+00  0.34872926537E+04  0.34872926537E+04  0.00000000000E+00 0. -1.
         -2   -1    0    0    0  501 -0.00000000000E+00 -0.00000000000E+00 -0.57529352238E+03  0.57529352238E+03  0.00000000000E+00 0.  1.
         23    2    1    2    0    0  0.11123834801E+04  0.75033572457E+03  0.81345669137E+03  0.15717467435E+04  0.90968844905E+02 0.  0.
         13    1    3    3    0    0  0.83463952699E+02  0.55529113414E+02  0.90466595516E+02  0.13503302833E+03  0.00000000000E+00 0.  1.
        -13    1    3    3    0    0  0.10289195274E+04  0.69480661116E+03  0.72299009586E+03  0.14367137152E+04  0.00000000000E+00 0. -1.
         22    1    1    2    0    0 -0.11123834801E+04 -0.75033572457E+03  0.20985424399E+04  0.24908394325E+04  0.00000000000E+00 0. -1.
<mgrwt>
<rscale>  0 0.28328197E+04</rscale>
<asrwt>0</asrwt>
<pdfrwt beam="1">  1        2 0.53650655E+00 0.28328197E+04</pdfrwt>
<pdfrwt beam="2">  1       -2 0.88506698E-01 0.28328197E+04</pdfrwt>
<totfact> 0.79071313E-01</totfact>
</mgrwt>
</event>
<event>
 6    1  0.1528034E-005  0.1659594E+04  0.7818608E-02  0.8784751E-01
          1   -1    0    0  501    0  0.00000000000E+00  0.00000000000E+00  0.15676309406E+04  0.15676309406E+04  0.00000000000E+00 0. -1.
         -1   -1    0    0    0  501 -0.00000000000E+00 -0.00000000000E+00 -0.43923780884E+03  0.43923780884E+03  0.00000000000E+00 0.  1.
         23    2    1    2    0    0  0.14733387507E+03  0.34175196617E+02  0.15494566931E+04  0.15594654218E+04  0.90780742060E+02 0.  0.
         13    1    3    3    0    0  0.49029589555E+02  0.33476679118E+02  0.96283483206E+03  0.96466341411E+03  0.00000000000E+00 0.  1.
        -13    1    3    3    0    0  0.98304285517E+02  0.69851749943E+00  0.58662186108E+03  0.59480200771E+03  0.00000000000E+00 0. -1.
         22    1    1    2    0    0 -0.14733387507E+03 -0.34175196617E+02 -0.42106356141E+03  0.44740332760E+03  0.00000000000E+00 0.  1.
<mgrwt>
<rscale>  0 0.16595937E+04</rscale>
<asrwt>0</asrwt>
<pdfrwt beam="1">  1        1 0.24117399E+00 0.16595937E+04</pdfrwt>
<pdfrwt beam="2">  1       -1 0.67575048E-01 0.16595937E+04</pdfrwt>
<totfact> 0.12437585E+01</totfact>
</mgrwt>
</event>
<event>
 6    1  0.1528034E-005  0.1484458E+04  0.7818608E-02  0.8894855E-01
         -2   -1    0    0    0  501 -0.00000000000E+00  0.00000000000E+00  0.24273081073E+03  0.24273081073E+03  0.00000000000E+00 0.  1.
          2   -1    0    0  501    0  0.00000000000E+00 -0.00000000000E+00 -0.22696076504E+04  0.22696076504E+04  0.00000000000E+00 0. -1.
         23    2    1    2    0    0 -0.57568073536E+03  0.45981767007E+03 -0.91123982741E+03  0.11753692985E+04  0.91073409667E+02 0.  0.
         13    1    3    3    0    0 -0.45523924760E+03  0.35393238091E+03 -0.76771607516E+03  0.96015565138E+03  0.00000000000E+00 0. -1.
        -13    1    3    3    0    0 -0.12044148776E+03  0.10588528916E+03 -0.14352375226E+03  0.21521364709E+03  0.00000000000E+00 0.  1.
         22    1    1    2    0    0  0.57568073536E+03 -0.45981767007E+03 -0.11156370122E+04  0.13369691626E+04  0.00000000000E+00 0. -1.
<mgrwt>
<rscale>  0 0.14844578E+04</rscale>
<asrwt>0</asrwt>
<pdfrwt beam="1">  1        2 0.34917040E+00 0.14844578E+04</pdfrwt>
<pdfrwt beam="2">  1       -2 0.37343202E-01 0.14844578E+04</pdfrwt>
<totfact> 0.30899657E+01</totfact>
</mgrwt>
</event>
<event>
 6    1  0.1528034E-005  0.1151294E+04  0.7818608E-02  0.9156591E-01
          2   -1    0    0  501    0  0.00000000000E+00  0.00000000000E+00  0.67995705836E+03  0.67995705836E+03  0.00000000000E+00 0. -1.
         -2   -1    0    0    0  501 -0.00000000000E+00 -0.00000000000E+00 -0.48733854723E+03  0.48733854723E+03  0.00000000000E+00 0.  1.
         23    2    1    2    0    0  0.59086660958E+02  0.52249728953E+03  0.32483221907E+03  0.62510088444E+03  0.93490609727E+02 0.  0.
         13    1    3    3    0    0  0.48841703650E+02  0.18392103458E+03  0.76523588621E+02  0.20510562789E+03  0.00000000000E+00 0. -1.
        -13    1    3    3    0    0  0.10244957308E+02  0.33857625496E+03  0.24830863045E+03  0.41999525655E+03  0.00000000000E+00 0.  1.
         22    1    1    2    0    0 -0.59086660958E+02 -0.52249728953E+03 -0.13221370794E+03  0.54219472115E+03  0.00000000000E+00 0.  1.
<mgrwt>
<rscale>  0 0.11512937E+04</rscale>
<asrwt>0</asrwt>
<pdfrwt beam="1">  1        2 0.10460878E+00 0.11512937E+04</pdfrwt>
<pdfrwt beam="2">  1       -2 0.74975161E-01 0.11512937E+04</pdfrwt>
<totfact> 0.67265455E+01</totfact>
</mgrwt>
</event>
<event>
 6    1  0.1528034E-005  0.7660324E+03  0.7818608E-02  0.9610528E-01
          2   -1    0    0  501    0  0.00000000000E+00  0.00000000000E+00  0.39921885587E+04  0.39921885587E+04  0.00000000000E+00 0. -1.
         -2   -1    0    0    0  501 -0.00000000000E+00 -0.00000000000E+00 -0.36747118939E+02  0.36747118939E+02  0.00000000000E+00 0.  1.
         23    2    1    2    0    0 -0.80605553555E+02 -0.28562080594E+03  0.32337046273E+04  0.32485636340E+04  0.90794093405E+02 0.  0.
         13    1    3    3    0    0 -0.64091532899E+02 -0.80170273886E+02  0.92520560886E+03  0.93088152634E+03  0.00000000000E+00 0. -1.
        -13    1    3    3    0    0 -0.16514020656E+02 -0.20545053205E+03  0.23084990184E+04  0.23176821076E+04  0.00000000000E+00 0.  1.
         22    1    1    2    0    0  0.80605553555E+02  0.28562080594E+03  0.72173681247E+03  0.78037204366E+03  0.00000000000E+00 0.  1.
<mgrwt>
<rscale>  0 0.76603245E+03</rscale>
<asrwt>0</asrwt>
<pdfrwt beam="1">  1        2 0.61418251E+00 0.76603245E+03</pdfrwt>
<pdfrwt beam="2">  1       -2 0.56534061E-02 0.76603245E+03</pdfrwt>
<totfact> 0.64999498E+01</totfact>
</mgrwt>
</event>
<event>
 6    1  0.1528034E-005  0.3416477E+04  0.7818608E-02  0.8133874E-01
         -1   -1    0    0    0  501 -0.00000000000E+00  0.00000000000E+00  0.18082085826E+04  0.18082085826E+04  0.00000000000E+00 0.  1.
          1   -1    0    0  501    0  0.00000000000E+00 -0.00000000000E+00 -0.16137953305E+04  0.16137953305E+04  0.00000000000E+00 0. -1.
         23    2    1    2    0    0 -0.96792173281E+03 -0.73891186476E+03 -0.11009338640E+04  0.16441435766E+04  0.91046706192E+02 0.  0.
         11    1    3    3    0    0 -0.47118932008E+03 -0.37429340386E+03 -0.60324651631E+03  0.85206882760E+03  0.00000000000E+00 0. -1.
        -11    1    3    3    0    0 -0.49673241273E+03 -0.36461846090E+03 -0.49768734772E+03  0.79207474898E+03  0.00000000000E+00 0.  1.
         22    1    1    2    0    0  0.96792173281E+03  0.73891186476E+03  0.12953471162E+04  0.17778603365E+04  0.00000000000E+00 0.  1.
<mgrwt>
<rscale>  0 0.34164769E+04</rscale>
<asrwt>0</asrwt>
<pdfrwt beam="1">  1        1 0.24827621E+00 0.34164769E+04</pdfrwt>
<pdfrwt beam="2">  1       -1 0.27818593E+00 0.34164769E+04</pdfrwt>
<totfact> 0.20509791E-01</totfact>
</mgrwt>
</event>
<event>
 6    1  0.1528034E-005  0.3769846E+04  0.7818608E-02  0.8052657E-01
         -2   -1    0    0    0  501 -0.00000000000E+00  0.00000000000E+00  0.13693928112E+04  0.13693928112E+04  0.00000000000E+00 0.  1.
          2   -1    0    0  501    0  0.00000000000E+00 -0.00000000000E+00 -0.25945335873E+04  0.25945335873E+04  0.00000000000E+00 0. -1.
         23    2    1    2    0    0  0.17080139210E+04  0.74986992141E+03 -0.88925192847E+03  0.20685536722E+04  0.92351769925E+02 0.  0.
         13    1    3    3    0    0  0.64962164804E+03  0.30687825452E+03 -0.38727841229E+03  0.81619061335E+03  0.00000000000E+00 0. -1.
        -13    1    3    3    0    0  0.10583922729E+04  0.44299166689E+03 -0.50197351618E+03  0.12523630589E+04  0.00000000000E+00 0.  1.
         22    1    1    2    0    0 -0.17080139210E+04 -0.74986992141E+03 -0.33588884760E+03  0.18953727262E+04  0.00000000000E+00 0.  1.
<mgrwt>
<rscale>  0 0.37698465E+04</rscale>
<asrwt>0</asrwt>
<pdfrwt beam="1">  1        2 0.39915901E+00 0.37698465E+04</pdfrwt>
<pdfrwt beam="2">  1       -2 0.21067582E+00 0.37698465E+04</pdfrwt>
<totfact> 0.27933815E-01</totfact>
</mgrwt>
</event>
<event>
 6    1  0.1528034E-005  0.1864978E+04  0.7818608E-02  0.8672488E-01
         -2   -1    0    0    0  501 -0.00000000000E+00  0.00000000000E+00  0.89485241935E+03  0.89485241935E+03  0.00000000000E+00 0.  1.
          2   -1    0    0  501    0  0.00000000000E+00 -0.00000000000E+00 -0.97170835712E+03  0.97170835712E+03  0.00000000000E+00 0. -1.
         23    2    1    2    0    0  0.68857072845E+03 -0.60938557874E+03 -0.18068421497E+03  0.94121719552E+03  0.88105572679E+02 0.  0.
         11    1    3    3    0    0  0.45234661873E+03 -0.37296353762E+03 -0.77112222783E+02  0.59132525633E+03  0.00000000000E+00 0.  1.
        -11    1    3    3    0    0  0.23622410972E+03 -0.23642204112E+03 -0.10357199219E+03  0.34989193919E+03  0.00000000000E+00 0. -1.
         22    1    1    2    0    0 -0.68857072845E+03  0.60938557874E+03  0.10382827720E+03  0.92534358095E+03  0.00000000000E+00 0.  1.
<mgrwt>
<rscale>  0 0.18649778E+04</rscale>
<asrwt>0</asrwt>
<pdfrwt beam="1">  1        2 0.14949359E+00 0.18649778E+04</pdfrwt>
<pdfrwt beam="2">  1       -2 0.13766960E+00 0.18649778E+04</pdfrwt>
<totfact> 0.92567184E+00</totfact>
</mgrwt>
</event>
<event>
 6    1  0.1528034E-005  0.6192128E+03  0.7818608E-02  0.9866328E-01
          2   -1    0    0  501    0  0.00000000000E+00  0.00000000000E+00  0.90709187740E+03  0.90709187740E+03  0.00000000000E+00 0.  1.
         -2   -1    0    0    0  501 -0.00000000000E+00 -0.00000000000E+00 -0.10567411913E+03  0.10567411913E+03  0.00000000000E+00 0. -1.
         23    2    1    2    0    0  0.21011295861E+03  0.36201316956E+02  0.76115974112E+03  0.79578973361E+03  0.91973680460E+02 0.  0.
         11    1    3    3    0    0  0.48918914397E+02 -0.30572897513E+02  0.18307975002E+03  0.19195300757E+03  0.00000000000E+00 0.  1.
        -11    1    3    3    0    0  0.16119404422E+03  0.66774214468E+02  0.57807999110E+03  0.60383672604E+03  0.00000000000E+00 0. -1.
         22    1    1    2    0    0 -0.21011295861E+03 -0.36201316956E+02  0.40258017152E+02  0.21697626292E+03  0.00000000000E+00 0. -1.
<mgrwt>
<rscale>  0 0.61921284E+03</rscale>
<asrwt>0</asrwt>
<pdfrwt beam="1">  1        2 0.13955259E+00 0.61921284E+03</pdfrwt>
<pdfrwt beam="2">  1       -2 0.16257557E-01 0.61921284E+03</pdfrwt>
<totfact> 0.89188624E+02</totfact>
</mgrwt>
</event>
<event>
 6    1  0.1528034E-005  0.1872868E+04  0.7818608E-02  0.8668481E-01
          3   -1    0    0  501    0  0.00000000000E+00  0.00000000000E+00  0.89526773192E+03  0.89526773192E+03  0.00000000000E+00 0. -1.
         -3   -1    0    0    0  501 -0.00000000000E+00 -0.00000000000E+00 -0.97949277557E+03  0.97949277557E+03  0.00000000000E+00 0.  1.
         23    2    1    2    0    0 -0.35851860528E+03  0.85077068406E+03  0.10615399707E+03  0.93210970983E+03  0.72204521128E+02 0.  0.
         13    1    3    3    0    0 -0.84919048867E+02  0.28450729449E+03  0.24180193247E+02  0.29789314733E+03  0.00000000000E+00 0. -1.
        -13    1    3    3    0    0 -0.27359955641E+03  0.56626338957E+03  0.81973803828E+02  0.63421656250E+03  0.00000000000E+00 0.  1.
         22    1    1    2    0    0  0.35851860528E+03 -0.85077068406E+03 -0.19037904073E+03  0.94265079767E+03  0.00000000000E+00 0.  1.
<mgrwt>
<rscale>  0 0.18728676E+04</rscale>
<asrwt>0</asrwt>
<pdfrwt beam="1">  1        3 0.13773350E+00 0.18728676E+04</pdfrwt>
<pdfrwt beam="2">  1       -3 0.15069120E+00 0.18728676E+04</pdfrwt>
<totfact> 0.31484798E-01</totfact>
</mgrwt>
</event>
<event>
 6    1  0.1528034E-005  0.1936139E+04  0.7818608E-02  0.8637074E-01
          2   -1    0    0  501    0  0.00000000000E+00  0.00000000000E+00  0.22224402826E+04  0.22224402826E+04  0.00000000000E+00 0. -1.
         -2   -1    0    0    0  501 -0.00000000000E+00 -0.00000000000E+00 -0.42167999442E+03  0.42167999442E+03  0.00000000000E+00 0.  1.
         23    2    1    2    0    0  0.41803588592E+03  0.64357587719E+02  0.20883352009E+04  0.21326564646E+04  0.90464266035E+02 0.  0.
         11    1    3    3    0    0  0.10031817108E+03  0.14468032647E+02  0.71608432005E+03  0.72322182823E+03  0.00000000000E+00 0.  1.
        -11    1    3    3    0    0  0.31771771484E+03  0.49889555073E+02  0.13722508809E+04  0.14094346363E+04  0.00000000000E+00 0. -1.
         22    1    1    2    0    0 -0.41803588592E+03 -0.64357587719E+02 -0.28757491274E+03  0.51146381246E+03  0.00000000000E+00 0.  1.
<mgrwt>
<rscale>  0 0.19361391E+04</rscale>
<asrwt>0</asrwt>
<pdfrwt beam="1">  1        2 0.34191388E+00 0.19361391E+04</pdfrwt>
<pdfrwt beam="2">  1       -2 0.64873846E-01 0.19361391E+04</pdfrwt>
<totfact> 0.10269739E+01</totfact>
</mgrwt>
</event>
<event>
 6    1  0.1528034E-005  0.2575202E+04  0.7818608E-02  0.8376674E-01
          2   -1    0    0  501    0  0.00000000000E+00  0.00000000000E+00  0.11559532741E+04  0.11559532741E+04  0.00000000000E+00 0.  1.
         -2   -1    0    0    0  501 -0.00000000000E+00 -0.00000000000E+00 -0.14342419750E+04  0.14342419750E+04  0.00000000000E+00 0. -1.
         23    2    1    2    0    0 -0.10922555718E+04  0.45353708994E+03 -0.64731257950E+03  0.13512857493E+04  0.90782567523E+02 0.  0.
         11    1    3    3    0    0 -0.70544943755E+03  0.27592089629E+03 -0.46028426981E+03  0.88637061040E+03  0.00000000000E+00 0. -1.
        -11    1    3    3    0    0 -0.38680613421E+03  0.17761619364E+03 -0.18702830969E+03  0.46491513885E+03  0.00000000000E+00 0.  1.
         22    1    1    2    0    0  0.10922555718E+04 -0.45353708994E+03  0.36902387855E+03  0.12389094999E+04  0.00000000000E+00 0.  1.
<mgrwt>
<rscale>  0 0.25752023E+04</rscale>
<asrwt>0</asrwt>
<pdfrwt beam="1">  1        2 0.17783896E+00 0.25752023E+04</pdfrwt>
<pdfrwt beam="2">  1       -2 0.22065261E+00 0.25752023E+04</pdfrwt>
<totfact> 0.17470253E+00</totfact>
</mgrwt>
</event>
<event>
 6    1  0.1528034E-005  0.1701879E+04  0.7818608E-02  0.8760294E-01
         -2   -1    0    0    0  501 -0.00000000000E+00  0.00000000000E+00  0.60414161106E+03  0.60414161106E+03  0.00000000000E+00 0. -1.
          2   -1    0    0  501    0  0.00000000000E+00 -0.00000000000E+00 -0.11985565399E+04  0.11985565399E+04  0.00000000000E+00 0.  1.
         23    2    1    2    0    0 -0.63579767386E+03 -0.44404260273E+03  0.65969894043E+02  0.78411058506E+03  0.95209598028E+02 0.  0.
         11    1    3    3    0    0 -0.30995510525E+03 -0.26338857725E+03  0.62495343835E+02  0.41152324102E+03  0.00000000000E+00 0. -1.
        -11    1    3    3    0    0 -0.32584256861E+03 -0.18065402547E+03  0.34745502078E+01  0.37258734404E+03  0.00000000000E+00 0.  1.
         22    1    1    2    0    0  0.63579767386E+03  0.44404260273E+03 -0.66038482290E+03  0.10185875659E+04  0.00000000000E+00 0.  1.
<mgrwt>
<rscale>  0 0.17018788E+04</rscale>
<asrwt>0</asrwt>
<pdfrwt beam="1">  1        2 0.18439331E+00 0.17018788E+04</pdfrwt>
<pdfrwt beam="2">  1       -2 0.92944864E-01 0.17018788E+04</pdfrwt>
<totfact> 0.17712629E+01</totfact>
</mgrwt>
</event>
<event>
 6    1  0.1528034E-005  0.1729916E+04  0.7818608E-02  0.8744484E-01
         -1   -1    0    0    0  501 -0.00000000000E+00  0.00000000000E+00  0.79140554976E+03  0.79140554976E+03  0.00000000000E+00 0.  1.
          1   -1    0    0  501    0  0.00000000000E+00 -0.00000000000E+00 -0.94534668456E+03  0.94534668456E+03  0.00000000000E+00 0. -1.
         23    2    1    2    0    0  0.81131544878E+03 -0.18995151051E+03 -0.30085857159E+03  0.89064404561E+03  0.91742041087E+02 0.  0.
         11    1    3    3    0    0  0.33315837878E+03 -0.33593094465E+02 -0.10729357219E+03  0.35161756495E+03  0.00000000000E+00 0.  1.
        -11    1    3    3    0    0  0.47815707001E+03 -0.15635841605E+03 -0.19356499939E+03  0.53902648066E+03  0.00000000000E+00 0. -1.
         22    1    1    2    0    0 -0.81131544878E+03  0.18995151051E+03  0.14691743678E+03  0.84610818871E+03  0.00000000000E+00 0.  1.
<mgrwt>
<rscale>  0 0.17299163E+04</rscale>
<asrwt>0</asrwt>
<pdfrwt beam="1">  1        1 0.14543795E+00 0.17299163E+04</pdfrwt>
<pdfrwt beam="2">  1       -1 0.12175470E+00 0.17299163E+04</pdfrwt>
<totfact> 0.94812320E+00</totfact>
</mgrwt>
</event>
<event>
 6    1  0.1528034E-005  0.5695485E+04  0.7818608E-02  0.7729349E-01
         -2   -1    0    0    0  501 -0.00000000000E+00  0.00000000000E+00  0.43649995120E+04  0.43649995120E+04  0.00000000000E+00 0.  1.
          2   -1    0    0  501    0  0.00000000000E+00 -0.00000000000E+00 -0.18578779216E+04  0.18578779216E+04  0.00000000000E+00 0. -1.
         23    2    1    2    0    0  0.20835682460E+04  0.19319984014E+04  0.10627729892E+04  0.30353992235E+04  0.10142761350E+03 0.  0.
         11    1    3    3    0    0  0.54602926787E+03  0.55150216168E+03  0.32311043937E+03  0.84065626254E+03  0.00000000000E+00 0. -1.
        -11    1    3    3    0    0  0.15375389781E+04  0.13804962397E+04  0.73966254988E+03  0.21947429610E+04  0.00000000000E+00 0.  1.
         22    1    1    2    0    0 -0.20835682460E+04 -0.19319984014E+04  0.14443486011E+04  0.31874782101E+04  0.00000000000E+00 0.  1.
<mgrwt>
<rscale>  0 0.56954846E+04</rscale>
<asrwt>0</asrwt>
<pdfrwt beam="1">  1        2 0.28582737E+00 0.56954846E+04</pdfrwt>
<pdfrwt beam="2">  1       -2 0.67153838E+00 0.56954846E+04</pdfrwt>
<totfact> 0.16000510E-03</totfact>
</mgrwt>
</event>
<event>
 6    1  0.1528034E-005  0.1447935E+04  0.7818608E-02  0.8919833E-01
         -2   -1    0    0    0  501 -0.00000000000E+00  0.00000000000E+00  0.46256567814E+03  0.46256567814E+03  0.00000000000E+00 0.  1.
          2   -1    0    0  501    0  0.00000000000E+00 -0.00000000000E+00 -0.11330915184E+04  0.11330915184E+04  0.00000000000E+00 0. -1.
         23    2    1    2    0    0 -0.35897913670E+02 -0.58183341317E+03 -0.80425145457E+03  0.99757583019E+03  0.92294928962E+02 0.  0.
         13    1    3    3    0    0  0.24705102387E+02 -0.84171424609E+02 -0.14296655712E+03  0.16773373918E+03  0.00000000000E+00 0. -1.
        -13    1    3    3    0    0 -0.60603016057E+02 -0.49766198856E+03 -0.66128489745E+03  0.82984209101E+03  0.00000000000E+00 0.  1.
         22    1    1    2    0    0  0.35897913670E+02  0.58183341317E+03  0.13372561430E+03  0.59808136637E+03  0.00000000000E+00 0.  1.
<mgrwt>
<rscale>  0 0.14479354E+04</rscale>
<asrwt>0</asrwt>
<pdfrwt beam="1">  1        2 0.17432177E+00 0.14479354E+04</pdfrwt>
<pdfrwt beam="2">  1       -2 0.71163951E-01 0.14479354E+04</pdfrwt>
<totfact> 0.36159283E+01</totfact>
</mgrwt>
</event>
<event>
 6    1  0.1528034E-005  0.1670357E+04  0.7818608E-02  0.8778454E-01
          2   -1    0    0  501    0  0.00000000000E+00  0.00000000000E+00  0.38507399456E+03  0.38507399456E+03  0.00000000000E+00 0. -1.
         -2   -1    0    0    0  501 -0.00000000000E+00 -0.00000000000E+00 -0.18114010085E+04  0.18114010085E+04  0.00000000000E+00 0.  1.
         23    2    1    2    0    0 -0.20094996729E+03 -0.68493731576E+03 -0.12789149245E+04  0.14676057830E+04  0.93398791781E+02 0.  0.
         13    1    3    3    0    0 -0.12780529984E+03 -0.55873760753E+03 -0.98973827266E+03  0.11437236367E+04  0.00000000000E+00 0.  1.
        -13    1    3    3    0    0 -0.73144667450E+02 -0.12619970823E+03 -0.28917665182E+03  0.32388214630E+03  0.00000000000E+00 0. -1.
         22    1    1    2    0    0  0.20094996729E+03  0.68493731576E+03 -0.14741208948E+03  0.72886922010E+03  0.00000000000E+00 0. -1.
<mgrwt>
<rscale>  0 0.16703574E+04</rscale>
<asrwt>0</asrwt>
<pdfrwt beam="1">  1        2 0.59242153E-01 0.16703574E+04</pdfrwt>
<pdfrwt beam="2">  1       -2 0.27867708E+00 0.16703574E+04</pdfrwt>
<totfact> 0.34010138E+00</totfact>
</mgrwt>
</event>
<event>
 6    1  0.1528034E-005  0.2392189E+04  0.7818608E-02  0.8442434E-01
          2   -1    0    0  501    0  0.00000000000E+00  0.00000000000E+00  0.40664978688E+04  0.40664978688E+04  0.00000000000E+00 0. -1.
         -2   -1    0    0    0  501 -0.00000000000E+00 -0.00000000000E+00 -0.35181190312E+03  0.35181190312E+03  0.00000000000E+00 0.  1.
         23    2    1    2    0    0  0.10667842408E+03  0.52349331432E+03  0.38329296101E+04  0.38711287272E+04  0.94141862331E+02 0.  0.
         13    1    3    3    0    0 -0.47903019709E+01  0.20104619113E+03  0.14737906391E+04  0.14874479372E+04  0.00000000000E+00 0.  1.
        -13    1    3    3    0    0  0.11146872605E+03  0.32244712319E+03  0.23591389710E+04  0.23836807900E+04  0.00000000000E+00 0. -1.
         22    1    1    2    0    0 -0.10667842408E+03 -0.52349331432E+03 -0.11824364439E+03  0.54718104476E+03  0.00000000000E+00 0.  1.
<mgrwt>
<rscale>  0 0.23921893E+04</rscale>
<asrwt>0</asrwt>
<pdfrwt beam="1">  1        2 0.62561502E+00 0.23921893E+04</pdfrwt>
<pdfrwt beam="2">  1       -2 0.54124911E-01 0.23921893E+04</pdfrwt>
<totfact> 0.87730549E-01</totfact>
</mgrwt>
</event>
<event>
 6    1  0.1528034E-005  0.3131574E+04  0.7818608E-02  0.8207126E-01
         -2   -1    0    0    0  501 -0.00000000000E+00  0.00000000000E+00  0.18234863192E+04  0.18234863192E+04  0.00000000000E+00 0.  1.
          2   -1    0    0  501    0  0.00000000000E+00 -0.00000000000E+00 -0.13445060749E+04  0.13445060749E+04  0.00000000000E+00 0. -1.
         23    2    1    2    0    0 -0.96043011042E+03  0.11518181937E+04 -0.20992024191E+03  0.15176303041E+04  0.10012034568E+03 0.  0.
         13    1    3    3    0    0 -0.83631347853E+03  0.97756253773E+03 -0.21107734038E+03  0.13036879969E+04  0.00000000000E+00 0.  1.
        -13    1    3    3    0    0 -0.12411663189E+03  0.17425565597E+03  0.11570984642E+01  0.21394230724E+03  0.00000000000E+00 0. -1.
         22    1    1    2    0    0  0.96043011042E+03 -0.11518181937E+04  0.68890048619E+03  0.16503620900E+04  0.00000000000E+00 0.  1.
<mgrwt>
<rscale>  0 0.31315737E+04</rscale>
<asrwt>0</asrwt>
<pdfrwt beam="1">  1        2 0.20684709E+00 0.31315737E+04</pdfrwt>
<pdfrwt beam="2">  1       -2 0.28053636E+00 0.31315737E+04</pdfrwt>
<totfact> 0.55125143E-01</totfact>
</mgrwt>
</event>
<event>
 6    1  0.1528034E-005  0.2628267E+04  0.7818608E-02  0.8358663E-01
         -1   -1    0    0    0  501 -0.00000000000E+00  0.00000000000E+00  0.20432771374E+04  0.20432771374E+04  0.00000000000E+00 0.  1.
          1   -1    0    0  501    0  0.00000000000E+00 -0.00000000000E+00 -0.84518463292E+03  0.84518463292E+03  0.00000000000E+00 0. -1.
         23    2    1    2    0    0  0.10764409707E+04 -0.27940414236E+03  0.13659610203E+04  0.17637521737E+04  0.90445471352E+02 0.  0.
         13    1    3    3    0    0  0.77276953153E+03 -0.22988050546E+03  0.10332149632E+04  0.13105536829E+04  0.00000000000E+00 0.  1.
        -13    1    3    3    0    0  0.30367143912E+03 -0.49523636899E+02  0.33274605709E+03  0.45319849080E+03  0.00000000000E+00 0. -1.
         22    1    1    2    0    0 -0.10764409707E+04  0.27940414236E+03 -0.16786851580E+03  0.11247095966E+04  0.00000000000E+00 0. -1.
<mgrwt>
<rscale>  0 0.26282667E+04</rscale>
<asrwt>0</asrwt>
<pdfrwt beam="1">  1        1 0.13002841E+00 0.26282667E+04</pdfrwt>
<pdfrwt beam="2">  1       -1 0.31435033E+00 0.26282667E+04</pdfrwt>
<totfact> 0.47322901E-01</totfact>
</mgrwt>
</event>
<event>
 6    1  0.1528034E-005  0.1515417E+04  0.7818608E-02  0.8874265E-01
          2   -1    0    0  501    0  0.00000000000E+00  0.00000000000E+00  0.57223226150E+03  0.57223226150E+03  0.00000000000E+00 0. -1.
         -2   -1    0    0    0  501 -0.00000000000E+00 -0.00000000000E+00 -0.10033030702E+04  0.10033030702E+04  0.00000000000E+00 0.  1.
         23    2    1    2    0    0  0.48918628226E+03 -0.46348963800E+03 -0.56924540507E+03  0.88762684771E+03  0.98565847476E+02 0.  0.
         11    1    3    3    0    0  0.40932403378E+02 -0.82393250447E+02 -0.91170999270E+02  0.12952320438E+03  0.00000000000E+00 0. -1.
        -11    1    3    3    0    0  0.44825387888E+03 -0.38109638756E+03 -0.47807440580E+03  0.75810364332E+03  0.00000000000E+00 0.  1.
         22    1    1    2    0    0 -0.48918628226E+03  0.46348963800E+03  0.13817459636E+03  0.68790848401E+03  0.00000000000E+00 0. -1.
<mgrwt>
<rscale>  0 0.15154173E+04</rscale>
<asrwt>0</asrwt>
<pdfrwt beam="1">  1        2 0.88035735E-01 0.15154173E+04</pdfrwt>
<pdfrwt beam="2">  1       -2 0.15435431E+00 0.15154173E+04</pdfrwt>
<totfact> 0.14056897E+01</totfact>
</mgrwt>
</event>
<event>
 6    1  0.1528034E-005  0.9002853E+03  0.7818608E-02  0.9425225E-01
          1   -1    0    0  501    0  0.00000000000E+00  0.00000000000E+00  0.98114035742E+03  0.98114035742E+03  0.00000000000E+00 0. -1.
         -1   -1    0    0    0  501 -0.00000000000E+00 -0.00000000000E+00 -0.20652338072E+03  0.20652338072E+03  0.00000000000E+00 0.  1.
         23    2    1    2    0    0  0.40368195933E+03 -0.71263227873E+02  0.62142640007E+03  0.75005098158E+03  0.91477496317E+02 0.  0.
         13    1    3    3    0    0  0.21474514098E+03 -0.43469396591E+02  0.41193960598E+03  0.46658257896E+03  0.00000000000E+00 0. -1.
        -13    1    3    3    0    0  0.18893681836E+03 -0.27793831283E+02  0.20948679409E+03  0.28346840262E+03  0.00000000000E+00 0.  1.
         22    1    1    2    0    0 -0.40368195933E+03  0.71263227873E+02  0.15319057663E+03  0.43761275656E+03  0.00000000000E+00 0. -1.
<mgrwt>
<rscale>  0 0.90028534E+03</rscale>
<asrwt>0</asrwt>
<pdfrwt beam="1">  1        1 0.15094467E+00 0.90028534E+03</pdfrwt>
<pdfrwt beam="2">  1       -1 0.31772828E-01 0.90028534E+03</pdfrwt>
<totfact> 0.14526240E+02</totfact>
</mgrwt>
</event>
<event>
 6    1  0.1528034E-005  0.3423245E+04  0.7818608E-02  0.8132225E-01
         -2   -1    0    0    0  501 -0.00000000000E+00  0.00000000000E+00  0.16539123987E+04  0.16539123987E+04  0.00000000000E+00 0.  1.
          2   -1    0    0  501    0  0.00000000000E+00 -0.00000000000E+00 -0.17713467709E+04  0.17713467709E+04  0.00000000000E+00 0. -1.
         23    2    1    2    0    0  0.15856130639E+04 -0.40273605585E+03 -0.55753514524E+03  0.17311358538E+04  0.98085611081E+02 0.  0.
         13    1    3    3    0    0  0.75210674737E+03 -0.14121914533E+03 -0.26878395985E+03  0.81108089826E+03  0.00000000000E+00 0.  1.
        -13    1    3    3    0    0  0.83350631650E+03 -0.26151691052E+03 -0.28875118539E+03  0.92005495553E+03  0.00000000000E+00 0. -1.
         22    1    1    2    0    0 -0.15856130639E+04  0.40273605585E+03  0.44010077301E+03  0.16941233159E+04  0.00000000000E+00 0.  1.
<mgrwt>
<rscale>  0 0.34232455E+04</rscale>
<asrwt>0</asrwt>
<pdfrwt beam="1">  1        2 0.27251489E+00 0.34232455E+04</pdfrwt>
<pdfrwt beam="2">  1       -2 0.25444806E+00 0.34232455E+04</pdfrwt>
<totfact> 0.44660892E-01</totfact>
</mgrwt>
</event>
<event>
 6    1  0.1528034E-005  0.8532587E+03  0.7818608E-02  0.9485974E-01
         -2   -1    0    0    0  501 -0.00000000000E+00  0.00000000000E+00  0.17255932014E+03  0.17255932014E+03  0.00000000000E+00 0.  1.
          2   -1    0    0  501    0  0.00000000000E+00 -0.00000000000E+00 -0.10547827905E+04  0.10547827905E+04  0.00000000000E+00 0. -1.
         23    2    1    2    0    0  0.58937917949E+02  0.19304521207E+03 -0.97896421645E+03  0.10035142660E+04  0.89049496940E+02 0.  0.
         11    1    3    3    0    0 -0.22337362637E+02  0.66232040125E+02 -0.32396314522E+03  0.33141780333E+03  0.00000000000E+00 0.  1.
        -11    1    3    3    0    0  0.81275280586E+02  0.12681317195E+03 -0.65500107123E+03  0.67209646266E+03  0.00000000000E+00 0. -1.
         22    1    1    2    0    0 -0.58937917949E+02 -0.19304521207E+03  0.96740746102E+02  0.22382784463E+03  0.00000000000E+00 0.  1.
<mgrwt>
<rscale>  0 0.85325870E+03</rscale>
<asrwt>0</asrwt>
<pdfrwt beam="1">  1        2 0.16227427E+00 0.85325870E+03</pdfrwt>
<pdfrwt beam="2">  1       -2 0.26547588E-01 0.85325870E+03</pdfrwt>
<totfact> 0.29964170E+02</totfact>
</mgrwt>
</event>
<event>
 6    1  0.1528034E-005  0.1577708E+04  0.7818608E-02  0.8834361E-01
         -1   -1    0    0    0  501 -0.00000000000E+00  0.00000000000E+00  0.94605523975E+03  0.94605523975E+03  0.00000000000E+00 0.  1.
          1   -1    0    0  501    0  0.00000000000E+00 -0.00000000000E+00 -0.65777432693E+03  0.65777432693E+03  0.00000000000E+00 0. -1.
         23    2    1    2    0    0 -0.33060409909E+03  0.99369923168E+02 -0.57349901416E+03  0.67547721196E+03  0.90525646524E+02 0.  0.
         11    1    3    3    0    0 -0.26710042809E+03  0.11080878586E+03 -0.43063688788E+03  0.51871895561E+03  0.00000000000E+00 0.  1.
        -11    1    3    3    0    0 -0.63503671002E+02 -0.11438862688E+02 -0.14286212628E+03  0.15675825636E+03  0.00000000000E+00 0. -1.
         22    1    1    2    0    0  0.33060409909E+03 -0.99369923168E+02  0.86177992698E+03  0.92835235471E+03  0.00000000000E+00 0.  1.
<mgrwt>
<rscale>  0 0.15777083E+04</rscale>
<asrwt>0</asrwt>
<pdfrwt beam="1">  1        1 0.10119605E+00 0.15777083E+04</pdfrwt>
<pdfrwt beam="2">  1       -1 0.14554696E+00 0.15777083E+04</pdfrwt>
<totfact> 0.10881706E+01</totfact>
</mgrwt>
</event>
<event>
 6    1  0.1528034E-005  0.1908029E+04  0.7818608E-02  0.8650870E-01
          1   -1    0    0  501    0  0.00000000000E+00  0.00000000000E+00  0.96006304584E+03  0.96006304584E+03  0.00000000000E+00 0. -1.
         -1   -1    0    0    0  501 -0.00000000000E+00 -0.00000000000E+00 -0.94800441323E+03  0.94800441323E+03  0.00000000000E+00 0.  1.
         23    2    1    2    0    0 -0.89675195580E+03 -0.28700902387E+03  0.14490357958E+03  0.95718048894E+03  0.93054774315E+02 0.  0.
         13    1    3    3    0    0 -0.24837622476E+03 -0.73271711744E+02 -0.14972621713E+01  0.25896280536E+03  0.00000000000E+00 0.  1.
        -13    1    3    3    0    0 -0.64837573104E+03 -0.21373731212E+03  0.14640084175E+03  0.69821768358E+03  0.00000000000E+00 0. -1.
         22    1    1    2    0    0  0.89675195580E+03  0.28700902387E+03 -0.13284494696E+03  0.95088697012E+03  0.00000000000E+00 0.  1.
<mgrwt>
<rscale>  0 0.19080294E+04</rscale>
<asrwt>0</asrwt>
<pdfrwt beam="1">  1        1 0.14770201E+00 0.19080294E+04</pdfrwt>
<pdfrwt beam="2">  1       -1 0.14584683E+00 0.19080294E+04</pdfrwt>
<totfact> 0.57236363E+00</totfact>
</mgrwt>
</event>
<event>
 6    1  0.1528034E-005  0.1257376E+04  0.7818608E-02  0.9064067E-01
         -1   -1    0    0    0  501 -0.00000000000E+00  0.00000000000E+00  0.34217217545E+03  0.34217217545E+03  0.00000000000E+00 0.  1.
          1   -1    0    0  501    0  0.00000000000E+00 -0.00000000000E+00 -0.11551160724E+04  0.11551160724E+04  0.00000000000E+00 0. -1.
         23    2    1    2    0    0 -0.20487540941E+03  0.90406594675E+02  0.28663423179E+03  0.37513881621E+03  0.91775066621E+02 0.  0.
         11    1    3    3    0    0 -0.84837981207E+02  0.66874658994E+02  0.19268669031E+03  0.22090238499E+03  0.00000000000E+00 0. -1.
        -11    1    3    3    0    0 -0.12003742820E+03  0.23531935681E+02  0.93947541475E+02  0.15423643122E+03  0.00000000000E+00 0.  1.
         22    1    1    2    0    0  0.20487540941E+03 -0.90406594675E+02 -0.10995781288E+04  0.11221494317E+04  0.00000000000E+00 0. -1.
<mgrwt>
<rscale>  0 0.12573760E+04</rscale>
<asrwt>0</asrwt>
<pdfrwt beam="1">  1        1 0.17771017E+00 0.12573760E+04</pdfrwt>
<pdfrwt beam="2">  1       -1 0.52641872E-01 0.12573760E+04</pdfrwt>
<totfact> 0.41324359E+01</totfact>
</mgrwt>
</event>
<event>
 6    1  0.1528034E-005  0.1351681E+04  0.7818608E-02  0.8989557E-01
         -1   -1    0    0    0  501 -0.00000000000E+00  0.00000000000E+00  0.21990573819E+03  0.21990573819E+03  0.00000000000E+00 0.  1.
          1   -1    0    0  501    0  0.00000000000E+00 -0.00000000000E+00 -0.20770734633E+04  0.20770734633E+04  0.00000000000E+00 0. -1.
         23    2    1    2    0    0 -0.19054450647E+03 -0.64246767365E+03 -0.10338889208E+04  0.12354426217E+04  0.91215405987E+02 0.  0.
         13    1    3    3    0    0 -0.91844101347E+02 -0.19452599999E+03 -0.28192392709E+03  0.35462205838E+03  0.00000000000E+00 0.  1.
        -13    1    3    3    0    0 -0.98700405126E+02 -0.44794167366E+03 -0.75196499372E+03  0.88082056331E+03  0.00000000000E+00 0. -1.
         22    1    1    2    0    0  0.19054450647E+03  0.64246767365E+03 -0.82327880433E+03  0.10615365798E+04  0.00000000000E+00 0.  1.
<mgrwt>
<rscale>  0 0.13516810E+04</rscale>
<asrwt>0</asrwt>
<pdfrwt beam="1">  1        1 0.31954976E+00 0.13516810E+04</pdfrwt>
<pdfrwt beam="2">  1       -1 0.33831653E-01 0.13516810E+04</pdfrwt>
<totfact> 0.21349648E+01</totfact>
</mgrwt>
</event>
<event>
 6    1  0.1528034E-005  0.2396184E+04  0.7818608E-02  0.8440934E-01
          1   -1    0    0  501    0  0.00000000000E+00  0.00000000000E+00  0.12899872134E+04  0.12899872134E+04  0.00000000000E+00 0. -1.
         -1   -1    0    0    0  501 -0.00000000000E+00 -0.00000000000E+00 -0.11127433423E+04  0.11127433423E+04  0.00000000000E+00 0.  1.
         23    2    1    2    0    0 -0.25572186181E+03 -0.25075480155E+03  0.12333329345E+04  0.12875643120E+04  0.91869957541E+02 0.  0.
         13    1    3    3    0    0 -0.44179343864E+02 -0.97205494234E+02  0.30595375444E+03  0.32405003069E+03  0.00000000000E+00 0. -1.
        -13    1    3    3    0    0 -0.21154251795E+03 -0.15354930732E+03  0.92737918009E+03  0.96351428134E+03  0.00000000000E+00 0.  1.
         22    1    1    2    0    0  0.25572186181E+03  0.25075480155E+03 -0.10560890634E+04  0.11151662436E+04  0.00000000000E+00 0.  1.
<mgrwt>
<rscale>  0 0.23961842E+04</rscale>
<asrwt>0</asrwt>
<pdfrwt beam="1">  1        1 0.19845957E+00 0.23961842E+04</pdfrwt>
<pdfrwt beam="2">  1       -1 0.17119128E+00 0.23961842E+04</pdfrwt>
<totfact> 0.19881286E+00</totfact>
</mgrwt>
</event>
<event>
 6    1  0.1528034E-005  0.1513217E+04  0.7818608E-02  0.8875711E-01
         -2   -1    0    0    0  501 -0.00000000000E+00  0.00000000000E+00  0.38449402795E+03  0.38449402795E+03  0.00000000000E+00 0.  1.
          2   -1    0    0  501    0  0.00000000000E+00 -0.00000000000E+00 -0.14888563842E+04  0.14888563842E+04  0.00000000000E+00 0. -1.
         23    2    1    2    0    0  0.24088115309E+02 -0.66896810551E+03 -0.12493707171E+03  0.68702311688E+03  0.91065513544E+02 0.  0.
         11    1    3    3    0    0  0.57309573950E+02 -0.41492132697E+03 -0.90288166575E+02  0.42848109394E+03  0.00000000000E+00 0.  1.
        -11    1    3    3    0    0 -0.33221458641E+02 -0.25404677854E+03 -0.34648905133E+02  0.25854202294E+03  0.00000000000E+00 0. -1.
         22    1    1    2    0    0 -0.24088115309E+02  0.66896810551E+03 -0.97942528453E+03  0.11863272953E+04  0.00000000000E+00 0. -1.
<mgrwt>
<rscale>  0 0.15132170E+04</rscale>
<asrwt>0</asrwt>
<pdfrwt beam="1">  1        2 0.22905483E+00 0.15132170E+04</pdfrwt>
<pdfrwt beam="2">  1       -2 0.59152927E-01 0.15132170E+04</pdfrwt>
<totfact> 0.33175278E+01</totfact>
</mgrwt>
</event>
<event>
 6    1  0.1528034E-005  0.1086050E+04  0.7818608E-02  0.9218896E-01
          1   -1    0    0  501    0  0.00000000000E+00  0.00000000000E+00  0.32504821321E+03  0.32504821321E+03  0.00000000000E+00 0. -1.
         -1   -1    0    0    0  501 -0.00000000000E+00 -0.00000000000E+00 -0.90717712728E+03  0.90717712728E+03  0.00000000000E+00 0.  1.
         23    2    1    2    0    0  0.26273147326E+02 -0.27793700372E+03 -0.81637354673E+03  0.86779454564E+03  0.93071742925E+02 0.  0.
         13    1    3    3    0    0  0.14280086549E+02 -0.16453009822E+02 -0.15469441075E+03  0.15622094329E+03  0.00000000000E+00 0.  1.
        -13    1    3    3    0    0  0.11993060777E+02 -0.26148399390E+03 -0.66167913598E+03  0.71157360235E+03  0.00000000000E+00 0. -1.
         22    1    1    2    0    0 -0.26273147326E+02  0.27793700372E+03  0.23424463265E+03  0.36443079485E+03  0.00000000000E+00 0. -1.
<mgrwt>
<rscale>  0 0.10860503E+04</rscale>
<asrwt>0</asrwt>
<pdfrwt beam="1">  1        1 0.50007418E-01 0.10860503E+04</pdfrwt>
<pdfrwt beam="2">  1       -1 0.13956571E+00 0.10860503E+04</pdfrwt>
<totfact> 0.33275299E+01</totfact>
</mgrwt>
</event>
<event>
 6    1  0.1528034E-005  0.1864590E+04  0.7818608E-02  0.8672686E-01
          2   -1    0    0  501    0  0.00000000000E+00  0.00000000000E+00  0.11451195580E+04  0.11451195580E+04  0.00000000000E+00 0. -1.
         -2   -1    0    0    0  501 -0.00000000000E+00 -0.00000000000E+00 -0.75902463472E+03  0.75902463472E+03  0.00000000000E+00 0.  1.
         23    2    1    2    0    0 -0.16429982682E+02 -0.92328654883E+03  0.80913377035E+02  0.93158891322E+03  0.92644120554E+02 0.  0.
         13    1    3    3    0    0 -0.40177875520E+02 -0.41492053420E+03  0.68970610086E+02  0.42252840903E+03  0.00000000000E+00 0. -1.
        -13    1    3    3    0    0  0.23747892838E+02 -0.50836601463E+03  0.11942766948E+02  0.50906050419E+03  0.00000000000E+00 0.  1.
         22    1    1    2    0    0  0.16429982682E+02  0.92328654883E+03  0.30518154629E+03  0.97255527955E+03  0.00000000000E+00 0. -1.
<mgrwt>
<rscale>  0 0.18645900E+04</rscale>
<asrwt>0</asrwt>
<pdfrwt beam="1">  1        2 0.17617224E+00 0.18645900E+04</pdfrwt>
<pdfrwt beam="2">  1       -2 0.11677302E+00 0.18645900E+04</pdfrwt>
<totfact> 0.10906263E+01</totfact>
</mgrwt>
</event>
<event>
 6    1  0.1528034E-005  0.2440422E+04  0.7818608E-02  0.8424523E-01
         -1   -1    0    0    0  501 -0.00000000000E+00  0.00000000000E+00  0.19567556528E+04  0.19567556528E+04  0.00000000000E+00 0.  1.
          1   -1    0    0  501    0  0.00000000000E+00 -0.00000000000E+00 -0.76091013783E+03  0.76091013783E+03  0.00000000000E+00 0. -1.
         23    2    1    2    0    0  0.98051158094E+03  0.61182818150E+03  0.10285857259E+04  0.15498847662E+04  0.91746982959E+02 0.  0.
         11    1    3    3    0    0  0.24609856058E+03  0.12562840265E+03  0.20506791467E+03  0.34409278792E+03  0.00000000000E+00 0. -1.
        -11    1    3    3    0    0  0.73441302036E+03  0.48619977885E+03  0.82351781119E+03  0.12057919782E+04  0.00000000000E+00 0.  1.
         22    1    1    2    0    0 -0.98051158094E+03 -0.61182818150E+03  0.16725978908E+03  0.11677810245E+04  0.00000000000E+00 0.  1.
<mgrwt>
<rscale>  0 0.24404223E+04</rscale>
<asrwt>0</asrwt>
<pdfrwt beam="1">  1        1 0.11706310E+00 0.24404223E+04</pdfrwt>
<pdfrwt beam="2">  1       -1 0.30103933E+00 0.24404223E+04</pdfrwt>
<totfact> 0.69536709E-01</totfact>
</mgrwt>
</event>
<event>
 6    1  0.1528034E-005  0.6643517E+03  0.7818608E-02  0.9780216E-01
          1   -1    0    0  501    0  0.00000000000E+00  0.00000000000E+00  0.16433554403E+04  0.16433554403E+04  0.00000000000E+00 0. -1.
         -1   -1    0    0    0  501 -0.00000000000E+00 -0.00000000000E+00 -0.67143587889E+02  0.67143587889E+02  0.00000000000E+00 0.  1.
         23    2    1    2    0    0  0.99838767205E+02  0.28262782777E+03  0.11337949591E+04  0.11761031300E+04  0.88776656701E+02 0.  0.
         13    1    3    3    0    0  0.42246934443E+02  0.22052959339E+03  0.74061597874E+03  0.77390576494E+03  0.00000000000E+00 0.  1.
        -13    1    3    3    0    0  0.57591832762E+02  0.62098234378E+02  0.39317898033E+03  0.40219736509E+03  0.00000000000E+00 0. -1.
         22    1    1    2    0    0 -0.99838767205E+02 -0.28262782777E+03  0.44241689335E+03  0.53439589818E+03  0.00000000000E+00 0.  1.
<mgrwt>
<rscale>  0 0.66435166E+03</rscale>
<asrwt>0</asrwt>
<pdfrwt beam="1">  1        1 0.25282388E+00 0.66435166E+03</pdfrwt>
<pdfrwt beam="2">  1       -1 0.10329784E-01 0.66435166E+03</pdfrwt>
<totfact> 0.32070682E+02</totfact>
</mgrwt>
</event>
<event>
 6    1  0.1528034E-005  0.1433483E+04  0.7818608E-02  0.8929932E-01
         -1   -1    0    0    0  501 -0.00000000000E+00  0.00000000000E+00  0.54830216398E+03  0.54830216398E+03  0.00000000000E+00 0.  1.
          1   -1    0    0  501    0  0.00000000000E+00 -0.00000000000E+00 -0.93692620721E+03  0.93692620721E+03  0.00000000000E+00 0. -1.
         23    2    1    2    0    0 -0.18645053762E+03  0.15148442031E+03 -0.89151357850E+03  0.92790511018E+03  0.92195988392E+02 0.  0.
         11    1    3    3    0    0 -0.96984189774E+02  0.13507963598E+03 -0.56605007101E+03  0.58997044334E+03  0.00000000000E+00 0. -1.
        -11    1    3    3    0    0 -0.89466347847E+02  0.16404784323E+02 -0.32546350749E+03  0.33793466684E+03  0.00000000000E+00 0.  1.
         22    1    1    2    0    0  0.18645053762E+03 -0.15148442031E+03  0.50288953527E+03  0.55732326101E+03  0.00000000000E+00 0.  1.
<mgrwt>
<rscale>  0 0.14334834E+04</rscale>
<asrwt>0</asrwt>
<pdfrwt beam="1">  1        1 0.14414249E+00 0.14334834E+04</pdfrwt>
<pdfrwt beam="2">  1       -1 0.84354179E-01 0.14334834E+04</pdfrwt>
<totfact> 0.22992546E+01</totfact>
</mgrwt>
</event>
<event>
 6    1  0.1528034E-005  0.2202354E+04  0.7818608E-02  0.8517449E-01
          2   -1    0    0  501    0  0.00000000000E+00  0.00000000000E+00  0.54293084942E+03  0.54293084942E+03  0.00000000000E+00 0. -1.
         -2   -1    0    0    0  501 -0.00000000000E+00 -0.00000000000E+00 -0.22334167163E+04  0.22334167163E+04  0.00000000000E+00 0.  1.
         23    2    1    2    0    0 -0.10348341323E+04  0.36356470970E+03 -0.75390129404E+03  0.13340398172E+04  0.90741904586E+02 0.  0.
         11    1    3    3    0    0 -0.23371608208E+03  0.52655729653E+02 -0.13455890171E+03  0.27477614692E+03  0.00000000000E+00 0. -1.
        -11    1    3    3    0    0 -0.80111805018E+03  0.31090898004E+03 -0.61934239234E+03  0.10592636703E+04  0.00000000000E+00 0.  1.
         22    1    1    2    0    0  0.10348341323E+04 -0.36356470970E+03 -0.93658457285E+03  0.14423077486E+04  0.00000000000E+00 0. -1.
<mgrwt>
<rscale>  0 0.22023540E+04</rscale>
<asrwt>0</asrwt>
<pdfrwt beam="1">  1        2 0.83527825E-01 0.22023540E+04</pdfrwt>
<pdfrwt beam="2">  1       -2 0.34360256E+00 0.22023540E+04</pdfrwt>
<totfact> 0.87317940E-01</totfact>
</mgrwt>
</event>
<event>
 6    1  0.1528034E-005  0.6393644E+03  0.7818608E-02  0.9826943E-01
         -3   -1    0    0    0  501 -0.00000000000E+00  0.00000000000E+00  0.14572570806E+04  0.14572570806E+04  0.00000000000E+00 0.  1.
          3   -1    0    0  501    0  0.00000000000E+00 -0.00000000000E+00 -0.70129500256E+02  0.70129500256E+02  0.00000000000E+00 0. -1.
         23    2    1    2    0    0  0.46102243110E+02 -0.30778982266E+03  0.78295473234E+03  0.84776549376E+03  0.93958649239E+02 0.  0.
         13    1    3    3    0    0  0.28277557486E+01 -0.16221148003E+03  0.29432080821E+03  0.33607335300E+03  0.00000000000E+00 0.  1.
        -13    1    3    3    0    0  0.43274487361E+02 -0.14557834263E+03  0.48863392413E+03  0.51169214076E+03  0.00000000000E+00 0. -1.
         22    1    1    2    0    0 -0.46102243110E+02  0.30778982266E+03  0.60417284798E+03  0.67962108707E+03  0.00000000000E+00 0. -1.
<mgrwt>
<rscale>  0 0.63936441E+03</rscale>
<asrwt>0</asrwt>
<pdfrwt beam="1">  1        3 0.10789155E-01 0.63936441E+03</pdfrwt>
<pdfrwt beam="2">  1       -3 0.22419337E+00 0.63936441E+03</pdfrwt>
<totfact> 0.18799259E+01</totfact>
</mgrwt>
</event>
<event>
 6    1  0.1528034E-005  0.2665753E+04  0.7818608E-02  0.8346203E-01
          2   -1    0    0  501    0  0.00000000000E+00  0.00000000000E+00  0.36746595017E+04  0.36746595017E+04  0.00000000000E+00 0. -1.
         -2   -1    0    0    0  501 -0.00000000000E+00 -0.00000000000E+00 -0.48346255536E+03  0.48346255536E+03  0.00000000000E+00 0.  1.
         23    2    1    2    0    0  0.11325207557E+04  0.32788650797E+03  0.25619259337E+04  0.28216734679E+04  0.90905692630E+02 0.  0.
         13    1    3    3    0    0  0.56279852902E+03  0.11761036499E+03  0.12769179304E+04  0.14003905824E+04  0.00000000000E+00 0.  1.
        -13    1    3    3    0    0  0.56972222671E+03  0.21027614298E+03  0.12850080033E+04  0.14212828855E+04  0.00000000000E+00 0. -1.
         22    1    1    2    0    0 -0.11325207557E+04 -0.32788650797E+03  0.62927101258E+03  0.13364485892E+04  0.00000000000E+00 0.  1.
<mgrwt>
<rscale>  0 0.26657534E+04</rscale>
<asrwt>0</asrwt>
<pdfrwt beam="1">  1        2 0.56533221E+00 0.26657534E+04</pdfrwt>
<pdfrwt beam="2">  1       -2 0.74378857E-01 0.26657534E+04</pdfrwt>
<totfact> 0.87260106E-01</totfact>
</mgrwt>
</event>
<event>
 6    1  0.1528034E-005  0.1887628E+04  0.7818608E-02  0.8661039E-01
         -1   -1    0    0    0  501 -0.00000000000E+00  0.00000000000E+00  0.26089386495E+04  0.26089386495E+04  0.00000000000E+00 0.  1.
          1   -1    0    0  501    0  0.00000000000E+00 -0.00000000000E+00 -0.34143577801E+03  0.34143577801E+03  0.00000000000E+00 0. -1.
         23    2    1    2    0    0  0.29154606239E+03  0.89537703681E+03  0.11479134150E+04  0.14874391263E+04  0.89837639545E+02 0.  0.
         11    1    3    3    0    0  0.18928496530E+03  0.52067765545E+03  0.73703590269E+03  0.92203901264E+03  0.00000000000E+00 0. -1.
        -11    1    3    3    0    0  0.10226109709E+03  0.37469938137E+03  0.41087751228E+03  0.56540011361E+03  0.00000000000E+00 0.  1.
         22    1    1    2    0    0 -0.29154606239E+03 -0.89537703681E+03  0.11195894565E+04  0.14629353013E+04  0.00000000000E+00 0.  1.
<mgrwt>
<rscale>  0 0.18876281E+04</rscale>
<asrwt>0</asrwt>
<pdfrwt beam="1">  1        1 0.52528583E-01 0.18876281E+04</pdfrwt>
<pdfrwt beam="2">  1       -1 0.40137516E+00 0.18876281E+04</pdfrwt>
<totfact> 0.48636117E-01</totfact>
</mgrwt>
</event>
<event>
 6    1  0.1528034E-005  0.2160809E+04  0.7818608E-02  0.8534920E-01
         -2   -1    0    0    0  501 -0.00000000000E+00  0.00000000000E+00  0.10017534113E+04  0.10017534113E+04  0.00000000000E+00 0. -1.
          2   -1    0    0  501    0  0.00000000000E+00 -0.00000000000E+00 -0.11652304539E+04  0.11652304539E+04  0.00000000000E+00 0.  1.
         23    2    1    2    0    0 -0.66135713313E+03  0.13612972852E+03  0.76155861057E+03  0.10217260251E+04  0.89599065261E+02 0.  0.
         13    1    3    3    0    0 -0.37056785974E+03  0.30918999703E+02  0.40975425941E+03  0.55333089225E+03  0.00000000000E+00 0. -1.
        -13    1    3    3    0    0 -0.29078927338E+03  0.10521072882E+03  0.35180435116E+03  0.46839513284E+03  0.00000000000E+00 0.  1.
         22    1    1    2    0    0  0.66135713313E+03 -0.13612972852E+03 -0.92503565319E+03  0.11452578401E+04  0.00000000000E+00 0.  1.
<mgrwt>
<rscale>  0 0.21608087E+04</rscale>
<asrwt>0</asrwt>
<pdfrwt beam="1">  1        2 0.17926622E+00 0.21608087E+04</pdfrwt>
<pdfrwt beam="2">  1       -2 0.15411591E+00 0.21608087E+04</pdfrwt>
<totfact> 0.50808079E+00</totfact>
</mgrwt>
</event>
<event>
 6    1  0.1528034E-005  0.3115477E+04  0.7818608E-02  0.8211503E-01
          2   -1    0    0  501    0  0.00000000000E+00  0.00000000000E+00  0.37408970103E+04  0.37408970103E+04  0.00000000000E+00 0. -1.
         -2   -1    0    0    0  501 -0.00000000000E+00 -0.00000000000E+00 -0.64865433570E+03  0.64865433570E+03  0.00000000000E+00 0.  1.
         23    2    1    2    0    0 -0.13151583158E+04  0.79256027287E+03  0.11896867369E+04  0.19446561994E+04  0.92412228654E+02 0.  0.
         13    1    3    3    0    0 -0.31196652927E+03  0.15638136301E+03  0.30570624804E+03  0.46393378425E+03  0.00000000000E+00 0.  1.
        -13    1    3    3    0    0 -0.10031917866E+04  0.63617890986E+03  0.88398048882E+03  0.14807224151E+04  0.00000000000E+00 0. -1.
         22    1    1    2    0    0  0.13151583158E+04 -0.79256027287E+03  0.19025559378E+04  0.24448951467E+04  0.00000000000E+00 0.  1.
<mgrwt>
<rscale>  0 0.31154769E+04</rscale>
<asrwt>0</asrwt>
<pdfrwt beam="1">  1        2 0.57552261E+00 0.31154769E+04</pdfrwt>
<pdfrwt beam="2">  1       -2 0.99792977E-01 0.31154769E+04</pdfrwt>
<totfact> 0.38260155E-01</totfact>
</mgrwt>
</event>
<event>
 6    1  0.1528034E-005  0.1137280E+04  0.7818608E-02  0.9169599E-01
         -1   -1    0    0    0  501 -0.00000000000E+00  0.00000000000E+00  0.99525089879E+02  0.99525089879E+02  0.00000000000E+00 0.  1.
          1   -1    0    0  501    0  0.00000000000E+00 -0.00000000000E+00 -0.32489428434E+04  0.32489428434E+04  0.00000000000E+00 0. -1.
         23    2    1    2    0    0  0.49780026502E+03 -0.55502514598E+00 -0.79946271930E+03  0.94636592155E+03  0.93072047382E+02 0.  0.
         13    1    3    3    0    0  0.30993039235E+03  0.36720376581E+02 -0.54259969917E+03  0.62595500453E+03  0.00000000000E+00 0. -1.
        -13    1    3    3    0    0  0.18786987268E+03 -0.37275401727E+02 -0.25686302014E+03  0.32041091702E+03  0.00000000000E+00 0.  1.
         22    1    1    2    0    0 -0.49780026502E+03  0.55502514598E+00 -0.23499550342E+04  0.24021020117E+04  0.00000000000E+00 0.  1.
<mgrwt>
<rscale>  0 0.11372798E+04</rscale>
<asrwt>0</asrwt>
<pdfrwt beam="1">  1        1 0.49983735E+00 0.11372798E+04</pdfrwt>
<pdfrwt beam="2">  1       -1 0.15311553E-01 0.11372798E+04</pdfrwt>
<totfact> 0.12605354E+01</totfact>
</mgrwt>
</event>
<event>
 6    1  0.1528034E-005  0.1886645E+04  0.7818608E-02  0.8661533E-01
         -2   -1    0    0    0  501 -0.00000000000E+00  0.00000000000E+00  0.16280589904E+04  0.16280589904E+04  0.00000000000E+00 0.  1.
          2   -1    0    0  501    0  0.00000000000E+00 -0.00000000000E+00 -0.54657578414E+03  0.54657578414E+03  0.00000000000E+00 0. -1.
         23    2    1    2    0    0 -0.86302490993E+03 -0.36642729918E+03  0.44821206339E+03  0.10432138533E+04  0.91214741785E+02 0.  0.
         13    1    3    3    0    0 -0.70697355873E+03 -0.29999404675E+03  0.32678525227E+03  0.83462365287E+03  0.00000000000E+00 0.  1.
        -13    1    3    3    0    0 -0.15605135120E+03 -0.66433252431E+02  0.12142681112E+03  0.20859020038E+03  0.00000000000E+00 0. -1.
         22    1    1    2    0    0  0.86302490993E+03  0.36642729918E+03  0.63327114292E+03  0.11314209213E+04  0.00000000000E+00 0.  1.
<mgrwt>
<rscale>  0 0.18866453E+04</rscale>
<asrwt>0</asrwt>
<pdfrwt beam="1">  1        2 0.84088583E-01 0.18866453E+04</pdfrwt>
<pdfrwt beam="2">  1       -2 0.25047061E+00 0.18866453E+04</pdfrwt>
<totfact> 0.33188591E+00</totfact>
</mgrwt>
</event>
<event>
 6    1  0.1528034E-005  0.3178687E+03  0.7818608E-02  0.1076634E+00
         -2   -1    0    0    0  501 -0.00000000000E+00  0.00000000000E+00  0.18582938319E+02  0.18582938319E+02  0.00000000000E+00 0. -1.
          2   -1    0    0  501    0  0.00000000000E+00 -0.00000000000E+00 -0.13593179180E+04  0.13593179180E+04  0.00000000000E+00 0.  1.
         23    2    1    2    0    0  0.93164124511E+02  0.29385301286E+02 -0.11899358961E+04  0.11982249992E+04  0.10125542869E+03 0.  0.
         11    1    3    3    0    0  0.32611243643E+02  0.57461709108E+02 -0.39457673781E+03  0.40007017290E+03  0.00000000000E+00 0. -1.
        -11    1    3    3    0    0  0.60552880868E+02 -0.28076407822E+02 -0.79535915828E+03  0.79815482628E+03  0.00000000000E+00 0.  1.
         22    1    1    2    0    0 -0.93164124511E+02 -0.29385301286E+02 -0.15079908364E+03  0.17967585718E+03  0.00000000000E+00 0. -1.
<mgrwt>
<rscale>  0 0.31786866E+03</rscale>
<asrwt>0</asrwt>
<pdfrwt beam="1">  1        2 0.20912580E+00 0.31786866E+03</pdfrwt>
<pdfrwt beam="2">  1       -2 0.28589141E-02 0.31786866E+03</pdfrwt>
<totfact> 0.74241045E+03</totfact>
</mgrwt>
</event>
<event>
 6    1  0.1528034E-005  0.1246131E+04  0.7818608E-02  0.9073409E-01
         -2   -1    0    0    0  501 -0.00000000000E+00  0.00000000000E+00  0.46787150060E+03  0.46787150060E+03  0.00000000000E+00 0.  1.
          2   -1    0    0  501    0  0.00000000000E+00 -0.00000000000E+00 -0.82973792173E+03  0.82973792173E+03  0.00000000000E+00 0. -1.
         23    2    1    2    0    0 -0.19341430737E+03 -0.35112411026E+03  0.31056643055E+03  0.51475364051E+03  0.88445279856E+02 0.  0.
         13    1    3    3    0    0 -0.87181475288E+02 -0.19494404446E+03  0.21513897128E+03  0.30313127035E+03  0.00000000000E+00 0.  1.
        -13    1    3    3    0    0 -0.10623283209E+03 -0.15618006580E+03  0.95427459272E+02  0.21162237016E+03  0.00000000000E+00 0. -1.
         22    1    1    2    0    0  0.19341430737E+03  0.35112411026E+03 -0.67243285168E+03  0.78285578181E+03  0.00000000000E+00 0. -1.
<mgrwt>
<rscale>  0 0.12461312E+04</rscale>
<asrwt>0</asrwt>
<pdfrwt beam="1">  1        2 0.12765199E+00 0.12461312E+04</pdfrwt>
<pdfrwt beam="2">  1       -2 0.71980232E-01 0.12461312E+04</pdfrwt>
<totfact> 0.56442251E+01</totfact>
</mgrwt>
</event>
<event>
 6    1  0.1528034E-005  0.4144839E+04  0.7818608E-02  0.7975949E-01
         -2   -1    0    0    0  501 -0.00000000000E+00  0.00000000000E+00  0.29558042499E+04  0.29558042499E+04  0.00000000000E+00 0.  1.
          2   -1    0    0  501    0  0.00000000000E+00 -0.00000000000E+00 -0.14530470243E+04  0.14530470243E+04  0.00000000000E+00 0. -1.
         23    2    1    2    0    0  0.15478905188E+04  0.38300191292E+03 -0.65464921699E+03  0.17261179513E+04  0.90895881027E+02 0.  0.
         11    1    3    3    0    0  0.10427229730E+04  0.22090712621E+03 -0.41196267434E+03  0.11427092376E+04  0.00000000000E+00 0.  1.
        -11    1    3    3    0    0  0.50516754583E+03  0.16209478670E+03 -0.24268654265E+03  0.58340871370E+03  0.00000000000E+00 0. -1.
         22    1    1    2    0    0 -0.15478905188E+04 -0.38300191292E+03  0.21574064425E+04  0.26827333229E+04  0.00000000000E+00 0.  1.
<mgrwt>
<rscale>  0 0.41448390E+04</rscale>
<asrwt>0</asrwt>
<pdfrwt beam="1">  1        2 0.22354570E+00 0.41448390E+04</pdfrwt>
<pdfrwt beam="2">  1       -2 0.45473912E+00 0.41448390E+04</pdfrwt>
<totfact> 0.34000274E-02</totfact>
</mgrwt>
</event>
<event>
 6    1  0.1528034E-005  0.1626153E+04  0.7818608E-02  0.8804640E-01
         -2   -1    0    0    0  501 -0.00000000000E+00  0.00000000000E+00  0.33747834403E+03  0.33747834403E+03  0.00000000000E+00 0.  1.
          2   -1    0    0  501    0  0.00000000000E+00 -0.00000000000E+00 -0.19589219879E+04  0.19589219879E+04  0.00000000000E+00 0. -1.
         23    2    1    2    0    0 -0.71369369398E+03  0.33057861574E+03 -0.10901397090E+04  0.13472297565E+04  0.89344959034E+02 0.  0.
         11    1    3    3    0    0 -0.23134861094E+03  0.15412757429E+03 -0.38203888368E+03  0.47247348876E+03  0.00000000000E+00 0. -1.
        -11    1    3    3    0    0 -0.48234508305E+03  0.17645104145E+03 -0.70810082527E+03  0.87475626772E+03  0.00000000000E+00 0.  1.
         22    1    1    2    0    0  0.71369369398E+03 -0.33057861574E+03 -0.53130393491E+03  0.94917057544E+03  0.00000000000E+00 0. -1.
<mgrwt>
<rscale>  0 0.16261534E+04</rscale>
<asrwt>0</asrwt>
<pdfrwt beam="1">  1        2 0.30137261E+00 0.16261534E+04</pdfrwt>
<pdfrwt beam="2">  1       -2 0.51919746E-01 0.16261534E+04</pdfrwt>
<totfact> 0.23610279E+01</totfact>
</mgrwt>
</event>
<event>
 6    1  0.1528034E-005  0.3133948E+04  0.7818608E-02  0.8206482E-01
          2   -1    0    0  501    0  0.00000000000E+00  0.00000000000E+00  0.18008148687E+04  0.18008148687E+04  0.00000000000E+00 0.  1.
         -2   -1    0    0    0  501 -0.00000000000E+00 -0.00000000000E+00 -0.13634984004E+04  0.13634984004E+04  0.00000000000E+00 0. -1.
         23    2    1    2    0    0 -0.36148431625E+03 -0.52377963596E+03  0.16632661754E+04  0.17830208661E+04  0.87709866807E+02 0.  0.
         13    1    3    3    0    0 -0.30711001791E+03 -0.46983736571E+03  0.13853468861E+04  0.14947406825E+04  0.00000000000E+00 0. -1.
        -13    1    3    3    0    0 -0.54374298343E+02 -0.53942270247E+02  0.27791928938E+03  0.28828018359E+03  0.00000000000E+00 0.  1.
         22    1    1    2    0    0  0.36148431625E+03  0.52377963596E+03 -0.12259497072E+04  0.13812924030E+04  0.00000000000E+00 0. -1.
<mgrwt>
<rscale>  0 0.31339484E+04</rscale>
<asrwt>0</asrwt>
<pdfrwt beam="1">  1        2 0.27704844E+00 0.31339484E+04</pdfrwt>
<pdfrwt beam="2">  1       -2 0.20976898E+00 0.31339484E+04</pdfrwt>
<totfact> 0.83863452E-01</totfact>
</mgrwt>
</event>
<event>
 6    1  0.1528034E-005  0.4558498E+04  0.7818608E-02  0.7900475E-01
         -1   -1    0    0    0  501 -0.00000000000E+00  0.00000000000E+00  0.17799134696E+04  0.17799134696E+04  0.00000000000E+00 0.  1.
          1   -1    0    0  501    0  0.00000000000E+00 -0.00000000000E+00 -0.29186682378E+04  0.29186682378E+04  0.00000000000E+00 0. -1.
         23    2    1    2    0    0  0.78273485732E+03 -0.27243077667E+03  0.16179224420E+04  0.18200123359E+04  0.88766487596E+02 0.  0.
         13    1    3    3    0    0  0.19339794366E+03 -0.43538086968E+02  0.32274196628E+03  0.37876207100E+03  0.00000000000E+00 0. -1.
        -13    1    3    3    0    0  0.58933691366E+03 -0.22889268970E+03  0.12951804757E+04  0.14412502649E+04  0.00000000000E+00 0.  1.
         22    1    1    2    0    0 -0.78273485732E+03  0.27243077667E+03 -0.27566772102E+04  0.28785693715E+04  0.00000000000E+00 0. -1.
<mgrwt>
<rscale>  0 0.45584984E+04</rscale>
<asrwt>0</asrwt>
<pdfrwt beam="1">  1        1 0.44902588E+00 0.45584984E+04</pdfrwt>
<pdfrwt beam="2">  1       -1 0.27383284E+00 0.45584984E+04</pdfrwt>
<totfact> 0.24989844E-02</totfact>
</mgrwt>
</event>
<event>
 6    1  0.1528034E-005  0.2354556E+04  0.7818608E-02  0.8456716E-01
         -2   -1    0    0    0  501 -0.00000000000E+00  0.00000000000E+00  0.37811373345E+03  0.37811373345E+03  0.00000000000E+00 0.  1.
          2   -1    0    0  501    0  0.00000000000E+00 -0.00000000000E+00 -0.36655197047E+04  0.36655197047E+04  0.00000000000E+00 0. -1.
         23    2    1    2    0    0  0.90688846951E+03  0.21310821120E+03 -0.28773390559E+04  0.30257843919E+04  0.91811426322E+02 0.  0.
         13    1    3    3    0    0  0.63949790582E+03  0.13878343977E+03 -0.18843379704E+04  0.19947300573E+04  0.00000000000E+00 0. -1.
        -13    1    3    3    0    0  0.26739056369E+03  0.74324771437E+02 -0.99300108552E+03  0.10310543347E+04  0.00000000000E+00 0.  1.
         22    1    1    2    0    0 -0.90688846951E+03 -0.21310821120E+03 -0.41006691534E+03  0.10178490462E+04  0.00000000000E+00 0.  1.
<mgrwt>
<rscale>  0 0.23545559E+04</rscale>
<asrwt>0</asrwt>
<pdfrwt beam="1">  1        2 0.56392613E+00 0.23545559E+04</pdfrwt>
<pdfrwt beam="2">  1       -2 0.58171341E-01 0.23545559E+04</pdfrwt>
<totfact> 0.15489829E+00</totfact>
</mgrwt>
</event>
<event>
 6    1  0.1528034E-005  0.2640907E+04  0.7818608E-02  0.8354437E-01
          2   -1    0    0  501    0  0.00000000000E+00  0.00000000000E+00  0.15374602093E+04  0.15374602093E+04  0.00000000000E+00 0. -1.
         -2   -1    0    0    0  501 -0.00000000000E+00 -0.00000000000E+00 -0.11340765395E+04  0.11340765395E+04  0.00000000000E+00 0.  1.
         23    2    1    2    0    0  0.65965743055E+03 -0.97960487606E+03 -0.39254804404E+03  0.12473594663E+04  0.83892981144E+02 0.  0.
         13    1    3    3    0    0  0.45675881012E+03 -0.63863919332E+03 -0.22593969046E+03  0.81702960386E+03  0.00000000000E+00 0. -1.
        -13    1    3    3    0    0  0.20289862044E+03 -0.34096568275E+03 -0.16660835358E+03  0.43032986240E+03  0.00000000000E+00 0.  1.
         22    1    1    2    0    0 -0.65965743055E+03  0.97960487606E+03  0.79593171382E+03  0.14241772825E+04  0.00000000000E+00 0. -1.
<mgrwt>
<rscale>  0 0.26409071E+04</rscale>
<asrwt>0</asrwt>
<pdfrwt beam="1">  1        2 0.23653234E+00 0.26409071E+04</pdfrwt>
<pdfrwt beam="2">  1       -2 0.17447331E+00 0.26409071E+04</pdfrwt>
<totfact> 0.21125548E+00</totfact>
</mgrwt>
</event>
<event>
 6    1  0.1528034E-005  0.1784948E+04  0.7818608E-02  0.8714345E-01
          2   -1    0    0  501    0  0.00000000000E+00  0.00000000000E+00  0.14523579913E+04  0.14523579913E+04  0.00000000000E+00 0. -1.
         -2   -1    0    0    0  501 -0.00000000000E+00 -0.00000000000E+00 -0.54842500621E+03  0.54842500621E+03  0.00000000000E+00 0.  1.
         23    2    1    2    0    0  0.30152556318E+03 -0.83367740257E+03  0.54307743947E+03  0.10436244936E+04  0.91012645218E+02 0.  0.
         11    1    3    3    0    0  0.13145899503E+03 -0.46752976573E+03  0.26332352782E+03  0.55245346367E+03  0.00000000000E+00 0.  1.
        -11    1    3    3    0    0  0.17006656815E+03 -0.36614763684E+03  0.27975391165E+03  0.49117102994E+03  0.00000000000E+00 0. -1.
         22    1    1    2    0    0 -0.30152556318E+03  0.83367740257E+03  0.36085554564E+03  0.95715850392E+03  0.00000000000E+00 0. -1.
<mgrwt>
<rscale>  0 0.17849476E+04</rscale>
<asrwt>0</asrwt>
<pdfrwt beam="1">  1        2 0.22343969E+00 0.17849476E+04</pdfrwt>
<pdfrwt beam="2">  1       -2 0.84373078E-01 0.17849476E+04</pdfrwt>
<totfact> 0.15646483E+01</totfact>
</mgrwt>
</event>
<event>
 6    1  0.1528034E-005  0.4606543E+03  0.7818608E-02  0.1024592E+00
         -2   -1    0    0    0  501 -0.00000000000E+00  0.00000000000E+00  0.70746847574E+02  0.70746847574E+02  0.00000000000E+00 0.  1.
          2   -1    0    0  501    0  0.00000000000E+00 -0.00000000000E+00 -0.74986509615E+03  0.74986509615E+03  0.00000000000E+00 0. -1.
         23    2    1    2    0    0  0.23583011054E+02 -0.88176948927E+02 -0.71219730745E+03  0.72352663655E+03  0.89075565218E+02 0.  0.
         13    1    3    3    0    0 -0.50745109123E+01 -0.17771285564E+02 -0.45390647202E+03  0.45428257131E+03  0.00000000000E+00 0.  1.
        -13    1    3    3    0    0  0.28657521967E+02 -0.70405663363E+02 -0.25829083543E+03  0.26924406524E+03  0.00000000000E+00 0. -1.
         22    1    1    2    0    0 -0.23583011054E+02  0.88176948927E+02  0.33079058880E+02  0.97085307173E+02  0.00000000000E+00 0.  1.
<mgrwt>
<rscale>  0 0.46065428E+03</rscale>
<asrwt>0</asrwt>
<pdfrwt beam="1">  1        2 0.11536386E+00 0.46065428E+03</pdfrwt>
<pdfrwt beam="2">  1       -2 0.10884130E-01 0.46065428E+03</pdfrwt>
<totfact> 0.22395242E+03</totfact>
</mgrwt>
</event>
<event>
 6    1  0.1528034E-005  0.7474266E+03  0.7818608E-02  0.9639396E-01
          1   -1    0    0  501    0  0.00000000000E+00  0.00000000000E+00  0.39927499024E+03  0.39927499024E+03  0.00000000000E+00 0. -1.
         -1   -1    0    0    0  501 -0.00000000000E+00 -0.00000000000E+00 -0.34978811797E+03  0.34978811797E+03  0.00000000000E+00 0.  1.
         23    2    1    2    0    0  0.23566486529E+03 -0.21901951845E+03 -0.15411312002E+03  0.36832640779E+03  0.91684299193E+02 0.  0.
         13    1    3    3    0    0  0.19445536646E+03 -0.16116324132E+03 -0.78260467007E+02  0.26440722493E+03  0.00000000000E+00 0.  1.
        -13    1    3    3    0    0  0.41209498824E+02 -0.57856277133E+02 -0.75852653013E+02  0.10391918286E+03  0.00000000000E+00 0. -1.
         22    1    1    2    0    0 -0.23566486529E+03  0.21901951845E+03  0.20359999228E+03  0.38073670042E+03  0.00000000000E+00 0. -1.
<mgrwt>
<rscale>  0 0.74742664E+03</rscale>
<asrwt>0</asrwt>
<pdfrwt beam="1">  1        1 0.61426921E-01 0.74742664E+03</pdfrwt>
<pdfrwt beam="2">  1       -1 0.53813557E-01 0.74742664E+03</pdfrwt>
<totfact> 0.21238408E+02</totfact>
</mgrwt>
</event>
<event>
 6    1  0.1528034E-005  0.4469159E+04  0.7818608E-02  0.7916058E-01
         -1   -1    0    0    0  501 -0.00000000000E+00  0.00000000000E+00  0.21766174333E+04  0.21766174333E+04  0.00000000000E+00 0.  1.
          1   -1    0    0  501    0  0.00000000000E+00 -0.00000000000E+00 -0.22940849182E+04  0.22940849182E+04  0.00000000000E+00 0. -1.
         23    2    1    2    0    0 -0.99466960623E+03 -0.72826529278E+03 -0.19219678058E+04  0.22853055065E+04  0.94461894660E+02 0.  0.
         13    1    3    3    0    0 -0.87284395197E+03 -0.61076452966E+03 -0.16136982931E+04  0.19336266589E+04  0.00000000000E+00 0. -1.
        -13    1    3    3    0    0 -0.12182565427E+03 -0.11750076312E+03 -0.30826951272E+03  0.35167884759E+03  0.00000000000E+00 0.  1.
         22    1    1    2    0    0  0.99466960623E+03  0.72826529278E+03  0.18045003208E+04  0.21853968450E+04  0.00000000000E+00 0.  1.
<mgrwt>
<rscale>  0 0.44691589E+04</rscale>
<asrwt>0</asrwt>
<pdfrwt beam="1">  1        1 0.35293614E+00 0.44691589E+04</pdfrwt>
<pdfrwt beam="2">  1       -1 0.33486422E+00 0.44691589E+04</pdfrwt>
<totfact> 0.27678895E-02</totfact>
</mgrwt>
</event>
<event>
 6    1  0.1528034E-005  0.4406071E+04  0.7818608E-02  0.7927291E-01
         -2   -1    0    0    0  501 -0.00000000000E+00  0.00000000000E+00  0.16526625180E+04  0.16526625180E+04  0.00000000000E+00 0.  1.
          2   -1    0    0  501    0  0.00000000000E+00 -0.00000000000E+00 -0.29366942602E+04  0.29366942602E+04  0.00000000000E+00 0. -1.
         23    2    1    2    0    0  0.15892679761E+04 -0.64414688145E+03  0.79670050916E+03  0.18930362100E+04  0.90313266667E+02 0.  0.
         13    1    3    3    0    0  0.58296966349E+03 -0.28094677309E+03  0.31597419043E+03  0.72015582125E+03  0.00000000000E+00 0.  1.
        -13    1    3    3    0    0  0.10062983126E+04 -0.36320010837E+03  0.48072631873E+03  0.11728803887E+04  0.00000000000E+00 0. -1.
         22    1    1    2    0    0 -0.15892679761E+04  0.64414688145E+03 -0.20807322514E+04  0.26963205682E+04  0.00000000000E+00 0. -1.
<mgrwt>
<rscale>  0 0.44060706E+04</rscale>
<asrwt>0</asrwt>
<pdfrwt beam="1">  1        2 0.45179911E+00 0.44060706E+04</pdfrwt>
<pdfrwt beam="2">  1       -2 0.25425578E+00 0.44060706E+04</pdfrwt>
<totfact> 0.88046665E-02</totfact>
</mgrwt>
</event>
<event>
 6    1  0.1528034E-005  0.4121658E+04  0.7818608E-02  0.7980444E-01
         -2   -1    0    0    0  501 -0.00000000000E+00  0.00000000000E+00  0.12371988523E+04  0.12371988523E+04  0.00000000000E+00 0. -1.
          2   -1    0    0  501    0  0.00000000000E+00 -0.00000000000E+00 -0.34327679651E+04  0.34327679651E+04  0.00000000000E+00 0.  1.
         23    2    1    2    0    0  0.15009833344E+04  0.75387515397E+03  0.25286190658E+03  0.17007761575E+04  0.86149151685E+02 0.  0.
         13    1    3    3    0    0  0.57768818478E+03  0.33299408165E+03  0.82485938531E+02  0.67187247846E+03  0.00000000000E+00 0. -1.
        -13    1    3    3    0    0  0.92329514957E+03  0.42088107232E+03  0.17037596805E+03  0.10289036790E+04  0.00000000000E+00 0.  1.
         22    1    1    2    0    0 -0.15009833344E+04 -0.75387515397E+03 -0.24484310194E+04  0.29691906598E+04  0.00000000000E+00 0.  1.
<mgrwt>
<rscale>  0 0.41216582E+04</rscale>
<asrwt>0</asrwt>
<pdfrwt beam="1">  1        2 0.52811815E+00 0.41216582E+04</pdfrwt>
<pdfrwt beam="2">  1       -2 0.19033828E+00 0.41216582E+04</pdfrwt>
<totfact> 0.10886729E-01</totfact>
</mgrwt>
</event>
<event>
 6    1  0.1528034E-005  0.2918769E+04  0.7818608E-02  0.8267315E-01
         -2   -1    0    0    0  501 -0.00000000000E+00  0.00000000000E+00  0.84131901338E+03  0.84131901338E+03  0.00000000000E+00 0. -1.
          2   -1    0    0  501    0  0.00000000000E+00 -0.00000000000E+00 -0.25315050649E+04  0.25315050649E+04  0.00000000000E+00 0.  1.
         23    2    1    2    0    0 -0.10790113967E+04 -0.53588133060E+03  0.10363686074E+03  0.12119827987E+04  0.82020185032E+02 0.  0.
         11    1    3    3    0    0 -0.46156570500E+03 -0.27360504927E+03  0.36992206158E+02  0.53783923837E+03  0.00000000000E+00 0. -1.
        -11    1    3    3    0    0 -0.61744569174E+03 -0.26227628133E+03  0.66644654582E+02  0.67414356036E+03  0.00000000000E+00 0.  1.
         22    1    1    2    0    0  0.10790113967E+04  0.53588133060E+03 -0.17938229122E+04  0.21608412795E+04  0.00000000000E+00 0.  1.
<mgrwt>
<rscale>  0 0.29187692E+04</rscale>
<asrwt>0</asrwt>
<pdfrwt beam="1">  1        2 0.38946232E+00 0.29187692E+04</pdfrwt>
<pdfrwt beam="2">  1       -2 0.12943370E+00 0.29187692E+04</pdfrwt>
<totfact> 0.12626106E+00</totfact>
</mgrwt>
</event>
<event>
 6    1  0.1528034E-005  0.3302697E+04  0.7818608E-02  0.8162209E-01
         -2   -1    0    0    0  501 -0.00000000000E+00  0.00000000000E+00  0.11579151889E+04  0.11579151889E+04  0.00000000000E+00 0.  1.
          2   -1    0    0  501    0  0.00000000000E+00 -0.00000000000E+00 -0.23550532302E+04  0.23550532302E+04  0.00000000000E+00 0. -1.
         23    2    1    2    0    0 -0.13984416356E+04 -0.49801780244E+03  0.16739303358E+03  0.14966336766E+04  0.90725930552E+02 0.  0.
         13    1    3    3    0    0 -0.91887429369E+03 -0.32259333725E+03  0.66561078993E+02  0.97612847826E+03  0.00000000000E+00 0.  1.
        -13    1    3    3    0    0 -0.47956734190E+03 -0.17542446518E+03  0.10083195459E+03  0.52050519831E+03  0.00000000000E+00 0. -1.
         22    1    1    2    0    0  0.13984416356E+04  0.49801780244E+03 -0.13645310748E+04  0.20163347425E+04  0.00000000000E+00 0. -1.
<mgrwt>
<rscale>  0 0.33026970E+04</rscale>
<asrwt>0</asrwt>
<pdfrwt beam="1">  1        2 0.36231588E+00 0.33026970E+04</pdfrwt>
<pdfrwt beam="2">  1       -2 0.17814080E+00 0.33026970E+04</pdfrwt>
<totfact> 0.65786265E-01</totfact>
</mgrwt>
</event>
<event>
 6    1  0.1528034E-005  0.4472830E+04  0.7818608E-02  0.7915411E-01
         -2   -1    0    0    0  501 -0.00000000000E+00  0.00000000000E+00  0.18000023062E+04  0.18000023062E+04  0.00000000000E+00 0.  1.
          2   -1    0    0  501    0  0.00000000000E+00 -0.00000000000E+00 -0.27786361239E+04  0.27786361239E+04  0.00000000000E+00 0. -1.
         23    2    1    2    0    0 -0.19395147670E+04 -0.86563054183E+03 -0.12033732475E+04  0.24428618553E+04  0.91831938963E+02 0.  0.
         13    1    3    3    0    0 -0.75534489443E+03 -0.38568226119E+03 -0.47153708468E+03  0.97038339762E+03  0.00000000000E+00 0. -1.
        -13    1    3    3    0    0 -0.11841698726E+04 -0.47994828064E+03 -0.73183616285E+03  0.14724784577E+04  0.00000000000E+00 0.  1.
         22    1    1    2    0    0  0.19395147670E+04  0.86563054183E+03  0.22473942984E+03  0.21357765749E+04  0.00000000000E+00 0.  1.
<mgrwt>
<rscale>  0 0.44728297E+04</rscale>
<asrwt>0</asrwt>
<pdfrwt beam="1">  1        2 0.42748248E+00 0.44728297E+04</pdfrwt>
<pdfrwt beam="2">  1       -2 0.27692343E+00 0.44728297E+04</pdfrwt>
<totfact> 0.79529858E-02</totfact>
</mgrwt>
</event>
<event>
 6    1  0.1528034E-005  0.1758560E+04  0.7818608E-02  0.8728653E-01
         -2   -1    0    0    0  501 -0.00000000000E+00  0.00000000000E+00  0.74740224190E+03  0.74740224190E+03  0.00000000000E+00 0.  1.
          2   -1    0    0  501    0  0.00000000000E+00 -0.00000000000E+00 -0.10344269296E+04  0.10344269296E+04  0.00000000000E+00 0. -1.
         23    2    1    2    0    0  0.75268187680E+03 -0.26566278104E+03 -0.51203735295E+03  0.95252981643E+03  0.89577226393E+02 0.  0.
         13    1    3    3    0    0  0.48646222176E+03 -0.12626918147E+03 -0.31271561458E+03  0.59192943413E+03  0.00000000000E+00 0. -1.
        -13    1    3    3    0    0  0.26621965504E+03 -0.13939359957E+03 -0.19932173837E+03  0.36060038231E+03  0.00000000000E+00 0.  1.
         22    1    1    2    0    0 -0.75268187680E+03  0.26566278104E+03  0.22501266520E+03  0.82929935511E+03  0.00000000000E+00 0.  1.
<mgrwt>
<rscale>  0 0.17585596E+04</rscale>
<asrwt>0</asrwt>
<pdfrwt beam="1">  1        2 0.15914261E+00 0.17585596E+04</pdfrwt>
<pdfrwt beam="2">  1       -2 0.11498496E+00 0.17585596E+04</pdfrwt>
<totfact> 0.13379077E+01</totfact>
</mgrwt>
</event>
<event>
 6    1  0.1528034E-005  0.5179487E+03  0.7818608E-02  0.1009197E+00
          1   -1    0    0  501    0  0.00000000000E+00  0.00000000000E+00  0.31000562579E+03  0.31000562579E+03  0.00000000000E+00 0. -1.
         -1   -1    0    0    0  501 -0.00000000000E+00 -0.00000000000E+00 -0.21634350328E+03  0.21634350328E+03  0.00000000000E+00 0.  1.
         23    2    1    2    0    0  0.63978103692E+02  0.10453885011E+03 -0.17398247931E+03  0.23197657291E+03  0.92312828684E+02 0.  0.
         13    1    3    3    0    0  0.74726147076E+01  0.29225829936E+02 -0.11938701703E+03  0.12313914463E+03  0.00000000000E+00 0.  1.
        -13    1    3    3    0    0  0.56505488984E+02  0.75313020171E+02 -0.54595462279E+02  0.10883742828E+03  0.00000000000E+00 0. -1.
         22    1    1    2    0    0 -0.63978103692E+02 -0.10453885011E+03  0.26764460182E+03  0.29437255616E+03  0.00000000000E+00 0. -1.
<mgrwt>
<rscale>  0 0.51794866E+03</rscale>
<asrwt>0</asrwt>
<pdfrwt beam="1">  1        1 0.47693173E-01 0.51794866E+03</pdfrwt>
<pdfrwt beam="2">  1       -1 0.33283616E-01 0.51794866E+03</pdfrwt>
<totfact> 0.71813642E+02</totfact>
</mgrwt>
</event>
<event>
 6    1  0.1528034E-005  0.1765042E+04  0.7818608E-02  0.8725114E-01
          4   -1    0    0  501    0  0.00000000000E+00  0.00000000000E+00  0.24813396344E+04  0.24813396344E+04  0.00000000000E+00 0. -1.
         -4   -1    0    0    0  501 -0.00000000000E+00 -0.00000000000E+00 -0.31388032534E+03  0.31388032534E+03  0.00000000000E+00 0.  1.
         23    2    1    2    0    0  0.56610082645E+03  0.62018687734E+03  0.15046351425E+04  0.17254359702E+04  0.90002593071E+02 0.  0.
         11    1    3    3    0    0  0.34189493614E+03  0.40890809251E+03  0.10268075683E+04  0.11569061145E+04  0.00000000000E+00 0. -1.
        -11    1    3    3    0    0  0.22420589030E+03  0.21127878483E+03  0.47782757420E+03  0.56852985571E+03  0.00000000000E+00 0.  1.
         22    1    1    2    0    0 -0.56610082645E+03 -0.62018687734E+03  0.66282416664E+03  0.10697839896E+04  0.00000000000E+00 0. -1.
<mgrwt>
<rscale>  0 0.17650424E+04</rscale>
<asrwt>0</asrwt>
<pdfrwt beam="1">  1        4 0.38174455E+00 0.17650424E+04</pdfrwt>
<pdfrwt beam="2">  1       -4 0.48289282E-01 0.17650424E+04</pdfrwt>
<totfact> 0.72175016E-02</totfact>
</mgrwt>
</event>
<event>
 6    1  0.1528034E-005  0.1692893E+04  0.7818608E-02  0.8765428E-01
         -2   -1    0    0    0  501 -0.00000000000E+00  0.00000000000E+00  0.41903310418E+03  0.41903310418E+03  0.00000000000E+00 0. -1.
          2   -1    0    0  501    0  0.00000000000E+00 -0.00000000000E+00 -0.17098216475E+04  0.17098216475E+04  0.00000000000E+00 0.  1.
         23    2    1    2    0    0 -0.55221655085E+03  0.32165076111E+03  0.46216181445E+02  0.64696947771E+03  0.89617177505E+02 0.  0.
         11    1    3    3    0    0 -0.43729297938E+03  0.22655587004E+03  0.64440748757E+02  0.49669439514E+03  0.00000000000E+00 0. -1.
        -11    1    3    3    0    0 -0.11492357148E+03  0.95094891069E+02 -0.18224567312E+02  0.15027508257E+03  0.00000000000E+00 0.  1.
         22    1    1    2    0    0  0.55221655085E+03 -0.32165076111E+03 -0.13370047247E+04  0.14818852739E+04  0.00000000000E+00 0.  1.
<mgrwt>
<rscale>  0 0.16928932E+04</rscale>
<asrwt>0</asrwt>
<pdfrwt beam="1">  1        2 0.26304949E+00 0.16928932E+04</pdfrwt>
<pdfrwt beam="2">  1       -2 0.64466629E-01 0.16928932E+04</pdfrwt>
<totfact> 0.20486583E+01</totfact>
</mgrwt>
</event>
<event>
 6    1  0.1528034E-005  0.1996694E+04  0.7818608E-02  0.8608168E-01
         -2   -1    0    0    0  501 -0.00000000000E+00  0.00000000000E+00  0.72447874229E+03  0.72447874229E+03  0.00000000000E+00 0. -1.
          2   -1    0    0  501    0  0.00000000000E+00 -0.00000000000E+00 -0.13757435606E+04  0.13757435606E+04  0.00000000000E+00 0.  1.
         23    2    1    2    0    0  0.54830817093E+02 -0.95585198863E+03 -0.61509729499E+03  0.11421160810E+04  0.97082528882E+02 0.  0.
         11    1    3    3    0    0  0.50047312101E+02 -0.59686789852E+03 -0.43643471109E+03  0.74110139574E+03  0.00000000000E+00 0. -1.
        -11    1    3    3    0    0  0.47835049923E+01 -0.35898409012E+03 -0.17866258390E+03  0.40101468522E+03  0.00000000000E+00 0.  1.
         22    1    1    2    0    0 -0.54830817093E+02  0.95585198863E+03 -0.36167523273E+02  0.95810622188E+03  0.00000000000E+00 0. -1.
<mgrwt>
<rscale>  0 0.19966942E+04</rscale>
<asrwt>0</asrwt>
<pdfrwt beam="1">  1        2 0.21165285E+00 0.19966942E+04</pdfrwt>
<pdfrwt beam="2">  1       -2 0.11145827E+00 0.19966942E+04</pdfrwt>
<totfact> 0.88378743E+00</totfact>
</mgrwt>
</event>
<event>
 6    1  0.1528034E-005  0.8393124E+03  0.7818608E-02  0.9504795E-01
         -1   -1    0    0    0  501 -0.00000000000E+00  0.00000000000E+00  0.54543012121E+03  0.54543012121E+03  0.00000000000E+00 0.  1.
          1   -1    0    0  501    0  0.00000000000E+00 -0.00000000000E+00 -0.32288520586E+03  0.32288520586E+03  0.00000000000E+00 0. -1.
         23    2    1    2    0    0  0.17337789045E+03  0.10773803640E+03  0.48587627506E+03  0.53513252080E+03  0.92863786070E+02 0.  0.
         11    1    3    3    0    0  0.78214554264E+02  0.99201278112E+01  0.25529691063E+03  0.26719363392E+03  0.00000000000E+00 0. -1.
        -11    1    3    3    0    0  0.95163336190E+02  0.97817908594E+02  0.23057936443E+03  0.26793888687E+03  0.00000000000E+00 0.  1.
         22    1    1    2    0    0 -0.17337789045E+03 -0.10773803640E+03 -0.26333135972E+03  0.33318280627E+03  0.00000000000E+00 0. -1.
<mgrwt>
<rscale>  0 0.83931238E+03</rscale>
<asrwt>0</asrwt>
<pdfrwt beam="1">  1        1 0.49674647E-01 0.83931238E+03</pdfrwt>
<pdfrwt beam="2">  1       -1 0.83912327E-01 0.83931238E+03</pdfrwt>
<totfact> 0.11335760E+02</totfact>
</mgrwt>
</event>
<event>
 6    1  0.1528034E-005  0.2094917E+04  0.7818608E-02  0.8563486E-01
          1   -1    0    0  501    0  0.00000000000E+00  0.00000000000E+00  0.68931337333E+03  0.68931337333E+03  0.00000000000E+00 0. -1.
         -1   -1    0    0    0  501 -0.00000000000E+00 -0.00000000000E+00 -0.15916845745E+04  0.15916845745E+04  0.00000000000E+00 0.  1.
         23    2    1    2    0    0  0.39862468508E+03 -0.75300889448E+03 -0.11118076590E+04  0.14036225068E+04  0.90087935842E+02 0.  0.
         13    1    3    3    0    0  0.15871709615E+03 -0.37301978665E+03 -0.47963658053E+03  0.62800169365E+03  0.00000000000E+00 0. -1.
        -13    1    3    3    0    0  0.23990758893E+03 -0.37998910783E+03 -0.63217107847E+03  0.77562081312E+03  0.00000000000E+00 0.  1.
         22    1    1    2    0    0 -0.39862468508E+03  0.75300889448E+03  0.20943645782E+03  0.87737544107E+03  0.00000000000E+00 0. -1.
<mgrwt>
<rscale>  0 0.20949171E+04</rscale>
<asrwt>0</asrwt>
<pdfrwt beam="1">  1        1 0.10604821E+00 0.20949171E+04</pdfrwt>
<pdfrwt beam="2">  1       -1 0.24487455E+00 0.20949171E+04</pdfrwt>
<totfact> 0.19324964E+00</totfact>
</mgrwt>
</event>
<event>
 6    1  0.1528034E-005  0.1569759E+04  0.7818608E-02  0.8839345E-01
         -1   -1    0    0    0  501 -0.00000000000E+00  0.00000000000E+00  0.85032150260E+03  0.85032150260E+03  0.00000000000E+00 0.  1.
          1   -1    0    0  501    0  0.00000000000E+00 -0.00000000000E+00 -0.72447414436E+03  0.72447414436E+03  0.00000000000E+00 0. -1.
         23    2    1    2    0    0  0.64411506205E+03  0.27708078795E+03  0.41126099581E+03  0.81774946560E+03  0.88997784256E+02 0.  0.
         11    1    3    3    0    0  0.24843833949E+03  0.14026688697E+03  0.20298400620E+03  0.35014127846E+03  0.00000000000E+00 0. -1.
        -11    1    3    3    0    0  0.39567672256E+03  0.13681390097E+03  0.20827698961E+03  0.46760818714E+03  0.00000000000E+00 0.  1.
         22    1    1    2    0    0 -0.64411506205E+03 -0.27708078795E+03 -0.28541363757E+03  0.75704618136E+03  0.00000000000E+00 0. -1.
<mgrwt>
<rscale>  0 0.15697591E+04</rscale>
<asrwt>0</asrwt>
<pdfrwt beam="1">  1        1 0.11145756E+00 0.15697591E+04</pdfrwt>
<pdfrwt beam="2">  1       -1 0.13081869E+00 0.15697591E+04</pdfrwt>
<totfact> 0.12412138E+01</totfact>
</mgrwt>
</event>
<event>
 6    1  0.1528034E-005  0.1280015E+04  0.7818608E-02  0.9045565E-01
         -2   -1    0    0    0  501 -0.00000000000E+00  0.00000000000E+00  0.45149367899E+03  0.45149367899E+03  0.00000000000E+00 0. -1.
          2   -1    0    0  501    0  0.00000000000E+00 -0.00000000000E+00 -0.90723185294E+03  0.90723185294E+03  0.00000000000E+00 0.  1.
         23    2    1    2    0    0 -0.38149904772E+03  0.37478597948E+03 -0.59566386617E+03  0.80592787169E+03  0.93264350562E+02 0.  0.
         11    1    3    3    0    0 -0.21154882330E+03  0.23627529236E+03 -0.41195851233E+03  0.51989300275E+03  0.00000000000E+00 0. -1.
        -11    1    3    3    0    0 -0.16995022441E+03  0.13851068712E+03 -0.18370535384E+03  0.28603486894E+03  0.00000000000E+00 0.  1.
         22    1    1    2    0    0  0.38149904772E+03 -0.37478597948E+03  0.13992569223E+03  0.55279766024E+03  0.00000000000E+00 0. -1.
<mgrwt>
<rscale>  0 0.12800148E+04</rscale>
<asrwt>0</asrwt>
<pdfrwt beam="1">  1        2 0.13957413E+00 0.12800148E+04</pdfrwt>
<pdfrwt beam="2">  1       -2 0.69460567E-01 0.12800148E+04</pdfrwt>
<totfact> 0.53818720E+01</totfact>
</mgrwt>
</event>
<event>
 6    1  0.1528034E-005  0.5727100E+03  0.7818608E-02  0.9963700E-01
         -3   -1    0    0    0  501 -0.00000000000E+00  0.00000000000E+00  0.54196386562E+03  0.54196386562E+03  0.00000000000E+00 0.  1.
          3   -1    0    0  501    0  0.00000000000E+00 -0.00000000000E+00 -0.15130010622E+03  0.15130010622E+03  0.00000000000E+00 0. -1.
         23    2    1    2    0    0 -0.18023153191E+03 -0.11693098028E+03 -0.19679626980E+02  0.23008155207E+03  0.79962326397E+02 0.  0.
         13    1    3    3    0    0 -0.11812292989E+03 -0.29488099139E+02 -0.15657529453E+02  0.12275069363E+03  0.00000000000E+00 0. -1.
        -13    1    3    3    0    0 -0.62108602017E+02 -0.87442881138E+02 -0.40220975263E+01  0.10733085845E+03  0.00000000000E+00 0.  1.
         22    1    1    2    0    0  0.18023153191E+03  0.11693098028E+03  0.41034338638E+03  0.46318241977E+03  0.00000000000E+00 0.  1.
<mgrwt>
<rscale>  0 0.57271002E+03</rscale>
<asrwt>0</asrwt>
<pdfrwt beam="1">  1        3 0.23276940E-01 0.57271002E+03</pdfrwt>
<pdfrwt beam="2">  1       -3 0.83379055E-01 0.57271002E+03</pdfrwt>
<totfact> 0.60550580E+01</totfact>
</mgrwt>
</event>
<event>
 6    1  0.1528034E-005  0.2048128E+04  0.7818608E-02  0.8584444E-01
         -2   -1    0    0    0  501 -0.00000000000E+00  0.00000000000E+00  0.52816264017E+03  0.52816264017E+03  0.00000000000E+00 0.  1.
          2   -1    0    0  501    0  0.00000000000E+00 -0.00000000000E+00 -0.19855767099E+04  0.19855767099E+04  0.00000000000E+00 0. -1.
         23    2    1    2    0    0 -0.24562231159E+03 -0.39928303683E+03  0.38415666619E+03  0.61343936353E+03  0.94732492319E+02 0.  0.
         13    1    3    3    0    0 -0.15618340098E+03 -0.17318410331E+03  0.21544337414E+03  0.31749304849E+03  0.00000000000E+00 0.  1.
        -13    1    3    3    0    0 -0.89438910614E+02 -0.22609893352E+03  0.16871329205E+03  0.29594631504E+03  0.00000000000E+00 0. -1.
         22    1    1    2    0    0  0.24562231159E+03  0.39928303683E+03 -0.18415707359E+04  0.19002999865E+04  0.00000000000E+00 0. -1.
<mgrwt>
<rscale>  0 0.20481284E+04</rscale>
<asrwt>0</asrwt>
<pdfrwt beam="1">  1        2 0.30547333E+00 0.20481284E+04</pdfrwt>
<pdfrwt beam="2">  1       -2 0.81255793E-01 0.20481284E+04</pdfrwt>
<totfact> 0.84050945E+00</totfact>
</mgrwt>
</event>
<event>
 6    1  0.1528034E-005  0.4487303E+04  0.7818608E-02  0.7912863E-01
         -2   -1    0    0    0  501 -0.00000000000E+00  0.00000000000E+00  0.16060749045E+04  0.16060749045E+04  0.00000000000E+00 0.  1.
          2   -1    0    0  501    0  0.00000000000E+00 -0.00000000000E+00 -0.31343317739E+04  0.31343317739E+04  0.00000000000E+00 0. -1.
         23    2    1    2    0    0 -0.15766036274E+04  0.72591255362E+03  0.73601407961E+03  0.18874168494E+04  0.89429328615E+02 0.  0.
         11    1    3    3    0    0 -0.48034827687E+03  0.17895103616E+03  0.23221201528E+03  0.56274360101E+03  0.00000000000E+00 0. -1.
        -11    1    3    3    0    0 -0.10962553505E+04  0.54696151746E+03  0.50380206433E+03  0.13246732484E+04  0.00000000000E+00 0.  1.
         22    1    1    2    0    0  0.15766036274E+04 -0.72591255362E+03 -0.22642709490E+04  0.28529898289E+04  0.00000000000E+00 0.  1.
<mgrwt>
<rscale>  0 0.44873028E+04</rscale>
<asrwt>0</asrwt>
<pdfrwt beam="1">  1        2 0.48220489E+00 0.44873028E+04</pdfrwt>
<pdfrwt beam="2">  1       -2 0.24708845E+00 0.44873028E+04</pdfrwt>
<totfact> 0.72600327E-02</totfact>
</mgrwt>
</event>
<event>
 6    1  0.1528034E-005  0.5144018E+04  0.7818608E-02  0.7806667E-01
          2   -1    0    0  501    0  0.00000000000E+00  0.00000000000E+00  0.42620115511E+04  0.42620115511E+04  0.00000000000E+00 0. -1.
         -2   -1    0    0    0  501 -0.00000000000E+00 -0.00000000000E+00 -0.15521382447E+04  0.15521382447E+04  0.00000000000E+00 0.  1.
         23    2    1    2    0    0 -0.11646160211E+04 -0.21141503699E+04  0.35394575521E+03  0.24412642523E+04  0.92364974029E+02 0.  0.
         13    1    3    3    0    0 -0.83982964800E+03 -0.15249713373E+04  0.29703956894E+03  0.17660928409E+04  0.00000000000E+00 0. -1.
        -13    1    3    3    0    0 -0.32478637315E+03 -0.58917903267E+03  0.56906186273E+02  0.67517141139E+03  0.00000000000E+00 0.  1.
         22    1    1    2    0    0  0.11646160211E+04  0.21141503699E+04  0.23559275512E+04  0.33728855436E+04  0.00000000000E+00 0. -1.
<mgrwt>
<rscale>  0 0.51440183E+04</rscale>
<asrwt>0</asrwt>
<pdfrwt beam="1">  1        2 0.65569408E+00 0.51440183E+04</pdfrwt>
<pdfrwt beam="2">  1       -2 0.23879050E+00 0.51440183E+04</pdfrwt>
<totfact> 0.11047610E-02</totfact>
</mgrwt>
</event>
<event>
 6    1  0.1528034E-005  0.2910949E+04  0.7818608E-02  0.8269627E-01
          2   -1    0    0  501    0  0.00000000000E+00  0.00000000000E+00  0.20435278472E+04  0.20435278472E+04  0.00000000000E+00 0. -1.
         -2   -1    0    0    0  501 -0.00000000000E+00 -0.00000000000E+00 -0.10366415213E+04  0.10366415213E+04  0.00000000000E+00 0.  1.
         23    2    1    2    0    0  0.13203706143E+04  0.69663883242E+02 -0.13630755185E+03  0.13322781083E+04  0.90297249838E+02 0.  0.
         13    1    3    3    0    0  0.48189224470E+03  0.60319137496E+02 -0.23822348065E+02  0.48623660713E+03  0.00000000000E+00 0. -1.
        -13    1    3    3    0    0  0.83847836962E+03  0.93447457462E+01 -0.11248520378E+03  0.84604150115E+03  0.00000000000E+00 0.  1.
         22    1    1    2    0    0 -0.13203706143E+04 -0.69663883242E+02  0.11431938778E+04  0.17478912603E+04  0.00000000000E+00 0. -1.
<mgrwt>
<rscale>  0 0.29109489E+04</rscale>
<asrwt>0</asrwt>
<pdfrwt beam="1">  1        2 0.31438890E+00 0.29109489E+04</pdfrwt>
<pdfrwt beam="2">  1       -2 0.15948331E+00 0.29109489E+04</pdfrwt>
<totfact> 0.13846064E+00</totfact>
</mgrwt>
</event>
<event>
 6    1  0.1528034E-005  0.6071384E+04  0.7818608E-02  0.7681614E-01
         -2   -1    0    0    0  501 -0.00000000000E+00  0.00000000000E+00  0.21962611116E+04  0.21962611116E+04  0.00000000000E+00 0.  1.
          2   -1    0    0  501    0  0.00000000000E+00 -0.00000000000E+00 -0.41959613483E+04  0.41959613483E+04  0.00000000000E+00 0. -1.
         23    2    1    2    0    0 -0.45727900272E+03 -0.29783944712E+04 -0.61831589828E+03  0.30773830366E+04  0.89633093526E+02 0.  0.
         11    1    3    3    0    0 -0.20500732887E+03 -0.10570122657E+04 -0.21284969029E+03  0.10975463203E+04  0.00000000000E+00 0. -1.
        -11    1    3    3    0    0 -0.25227167386E+03 -0.19213822055E+04 -0.40546620798E+03  0.19798367162E+04  0.00000000000E+00 0.  1.
         22    1    1    2    0    0  0.45727900272E+03  0.29783944712E+04 -0.13813843384E+04  0.33148394233E+04  0.00000000000E+00 0.  1.
<mgrwt>
<rscale>  0 0.60713843E+04</rscale>
<asrwt>0</asrwt>
<pdfrwt beam="1">  1        2 0.64553251E+00 0.60713843E+04</pdfrwt>
<pdfrwt beam="2">  1       -2 0.33788633E+00 0.60713843E+04</pdfrwt>
<totfact> 0.28871019E-03</totfact>
</mgrwt>
</event>
<event>
 6    1  0.1528034E-005  0.1439670E+04  0.7818608E-02  0.8925594E-01
         -1   -1    0    0    0  501 -0.00000000000E+00  0.00000000000E+00  0.46205651749E+03  0.46205651749E+03  0.00000000000E+00 0.  1.
          1   -1    0    0  501    0  0.00000000000E+00 -0.00000000000E+00 -0.11214266145E+04  0.11214266145E+04  0.00000000000E+00 0. -1.
         23    2    1    2    0    0 -0.29486903113E+03 -0.88932636503E+02  0.38106440909E+03  0.49842058963E+03  0.91412476958E+02 0.  0.
         11    1    3    3    0    0 -0.21647188754E+03 -0.98711805364E+02  0.24799297295E+03  0.34366351748E+03  0.00000000000E+00 0. -1.
        -11    1    3    3    0    0 -0.78397143591E+02  0.97791688612E+01  0.13307143613E+03  0.15475707215E+03  0.00000000000E+00 0.  1.
         22    1    1    2    0    0  0.29486903113E+03  0.88932636503E+02 -0.10404345061E+04  0.10850625423E+04  0.00000000000E+00 0. -1.
<mgrwt>
<rscale>  0 0.14396701E+04</rscale>
<asrwt>0</asrwt>
<pdfrwt beam="1">  1        1 0.17252717E+00 0.14396701E+04</pdfrwt>
<pdfrwt beam="2">  1       -1 0.71085618E-01 0.14396701E+04</pdfrwt>
<totfact> 0.23739188E+01</totfact>
</mgrwt>
</event>
<event>
 6    1  0.1528034E-005  0.2640594E+04  0.7818608E-02  0.8354542E-01
         -1   -1    0    0    0  501 -0.00000000000E+00  0.00000000000E+00  0.20996282980E+04  0.20996282980E+04  0.00000000000E+00 0.  1.
          1   -1    0    0  501    0  0.00000000000E+00 -0.00000000000E+00 -0.83023477258E+03  0.83023477258E+03  0.00000000000E+00 0. -1.
         23    2    1    2    0    0 -0.99785020291E+03  0.68637764597E+03  0.12142710669E+04  0.17174861549E+04  0.92114970934E+02 0.  0.
         13    1    3    3    0    0 -0.29715087614E+03  0.15488542661E+03  0.34261621829E+03  0.47924316542E+03  0.00000000000E+00 0. -1.
        -13    1    3    3    0    0 -0.70069932677E+03  0.53149221936E+03  0.87165484863E+03  0.12382429894E+04  0.00000000000E+00 0.  1.
         22    1    1    2    0    0  0.99785020291E+03 -0.68637764597E+03  0.55122458507E+02  0.12123769157E+04  0.00000000000E+00 0. -1.
<mgrwt>
<rscale>  0 0.26405942E+04</rscale>
<asrwt>0</asrwt>
<pdfrwt beam="1">  1        1 0.12772843E+00 0.26405942E+04</pdfrwt>
<pdfrwt beam="2">  1       -1 0.32301974E+00 0.26405942E+04</pdfrwt>
<totfact> 0.42734324E-01</totfact>
</mgrwt>
</event>
<event>
 6    1  0.1528034E-005  0.3134655E+04  0.7818608E-02  0.8206291E-01
         -1   -1    0    0    0  501 -0.00000000000E+00  0.00000000000E+00  0.13772597445E+04  0.13772597445E+04  0.00000000000E+00 0.  1.
          1   -1    0    0  501    0  0.00000000000E+00 -0.00000000000E+00 -0.17836253834E+04  0.17836253834E+04  0.00000000000E+00 0. -1.
         23    2    1    2    0    0  0.94015172485E+03  0.90273175788E+03 -0.10787003011E+04  0.16943095961E+04  0.90998766033E+02 0.  0.
         11    1    3    3    0    0  0.45056120038E+03  0.48232271419E+03 -0.50908235718E+03  0.83354990391E+03  0.00000000000E+00 0.  1.
        -11    1    3    3    0    0  0.48959052447E+03  0.42040904369E+03 -0.56961794395E+03  0.86075969222E+03  0.00000000000E+00 0. -1.
         22    1    1    2    0    0 -0.94015172485E+03 -0.90273175788E+03  0.67233466226E+03  0.14665755318E+04  0.00000000000E+00 0. -1.
<mgrwt>
<rscale>  0 0.31346550E+04</rscale>
<asrwt>0</asrwt>
<pdfrwt beam="1">  1        1 0.27440391E+00 0.31346550E+04</pdfrwt>
<pdfrwt beam="2">  1       -1 0.21188611E+00 0.31346550E+04</pdfrwt>
<totfact> 0.43899239E-01</totfact>
</mgrwt>
</event>
<event>
 6    1  0.1528034E-005  0.3236097E+04  0.7818608E-02  0.8179349E-01
          4   -1    0    0  501    0  0.00000000000E+00  0.00000000000E+00  0.23014621176E+04  0.23014621176E+04  0.00000000000E+00 0.  1.
         -4   -1    0    0    0  501 -0.00000000000E+00 -0.00000000000E+00 -0.11375729412E+04  0.11375729412E+04  0.00000000000E+00 0. -1.
         23    2    1    2    0    0 -0.14840608375E+04 -0.27095039017E+03  0.12002165353E+04  0.19300054500E+04  0.92469574558E+02 0.  0.
         13    1    3    3    0    0 -0.83984818498E+03 -0.10738798372E+03  0.68256265434E+03  0.10875518056E+04  0.00000000000E+00 0.  1.
        -13    1    3    3    0    0 -0.64421265249E+03 -0.16356240645E+03  0.51765388094E+03  0.84245364436E+03  0.00000000000E+00 0. -1.
         22    1    1    2    0    0  0.14840608375E+04  0.27095039017E+03 -0.36327358849E+02  0.15090296088E+04  0.00000000000E+00 0. -1.
<mgrwt>
<rscale>  0 0.32360971E+04</rscale>
<asrwt>0</asrwt>
<pdfrwt beam="1">  1        4 0.35407109E+00 0.32360971E+04</pdfrwt>
<pdfrwt beam="2">  1       -4 0.17501122E+00 0.32360971E+04</pdfrwt>
<totfact> 0.45123690E-03</totfact>
</mgrwt>
</event>
<event>
 6    1  0.1528034E-005  0.2274008E+04  0.7818608E-02  0.8488241E-01
          2   -1    0    0  501    0  0.00000000000E+00  0.00000000000E+00  0.37909438930E+04  0.37909438930E+04  0.00000000000E+00 0.  1.
         -2   -1    0    0    0  501 -0.00000000000E+00 -0.00000000000E+00 -0.34101733275E+03  0.34101733275E+03  0.00000000000E+00 0. -1.
         23    2    1    2    0    0 -0.38463989124E+03 -0.54887807164E+03  0.33922208977E+04  0.34592466303E+04  0.10004822371E+03 0.  0.
         11    1    3    3    0    0 -0.19830818328E+03 -0.21076551511E+03  0.15931635966E+04  0.16192339187E+04  0.00000000000E+00 0.  1.
        -11    1    3    3    0    0 -0.18633170796E+03 -0.33811255653E+03  0.17990573011E+04  0.18400127116E+04  0.00000000000E+00 0. -1.
         22    1    1    2    0    0  0.38463989124E+03  0.54887807164E+03  0.57705662574E+02  0.67271459547E+03  0.00000000000E+00 0. -1.
<mgrwt>
<rscale>  0 0.22740075E+04</rscale>
<asrwt>0</asrwt>
<pdfrwt beam="1">  1        2 0.58322211E+00 0.22740075E+04</pdfrwt>
<pdfrwt beam="2">  1       -2 0.52464208E-01 0.22740075E+04</pdfrwt>
<totfact> 0.15614055E+00</totfact>
</mgrwt>
</event>
<event>
 6    1  0.1830652E-005  0.3129735E+04  0.7818608E-02  0.8207624E-01
         -2   -1    0    0    0  501 -0.00000000000E+00  0.00000000000E+00  0.10178228655E+04  0.10178228655E+04  0.00000000000E+00 0.  1.
          2   -1    0    0  501    0  0.00000000000E+00 -0.00000000000E+00 -0.24059300911E+04  0.24059300911E+04  0.00000000000E+00 0. -1.
         23    2    1    2    0    0  0.54896231930E+03  0.80741844881E+03 -0.20305519761E+04  0.22549846147E+04  0.92358569954E+02 0.  0.
         13    1    3    3    0    0  0.28561825519E+03  0.41461401161E+03 -0.94087892300E+03  0.10671156048E+04  0.00000000000E+00 0. -1.
        -13    1    3    3    0    0  0.26334406412E+03  0.39280443721E+03 -0.10896730531E+04  0.11878690099E+04  0.00000000000E+00 0.  1.
         22    1    1    2    0    0 -0.54896231930E+03 -0.80741844881E+03  0.64244475050E+03  0.11687683419E+04  0.00000000000E+00 0.  1.
<mgrwt>
<rscale>  0 0.31297352E+04</rscale>
<asrwt>0</asrwt>
<pdfrwt beam="1">  1        2 0.37014309E+00 0.31297352E+04</pdfrwt>
<pdfrwt beam="2">  1       -2 0.15658813E+00 0.31297352E+04</pdfrwt>
<totfact> 0.89211342E-01</totfact>
</mgrwt>
</event>
<event>
 6    1  0.1528034E-005  0.1616995E+04  0.7818608E-02  0.8810175E-01
          2   -1    0    0  501    0  0.00000000000E+00  0.00000000000E+00  0.96080856952E+03  0.96080856952E+03  0.00000000000E+00 0. -1.
         -2   -1    0    0    0  501 -0.00000000000E+00 -0.00000000000E+00 -0.68033172182E+03  0.68033172182E+03  0.00000000000E+00 0.  1.
         23    2    1    2    0    0  0.32144031437E+03 -0.72458740195E+03  0.28825354395E+03  0.84841634457E+03  0.91484476111E+02 0.  0.
         11    1    3    3    0    0  0.49312906302E+02 -0.10079969975E+03  0.75976403186E+02  0.13551662643E+03  0.00000000000E+00 0.  1.
        -11    1    3    3    0    0  0.27212740807E+03 -0.62378770219E+03  0.21227714077E+03  0.71289971814E+03  0.00000000000E+00 0. -1.
         22    1    1    2    0    0 -0.32144031437E+03  0.72458740195E+03 -0.77766962489E+01  0.79272394676E+03  0.00000000000E+00 0.  1.
<mgrwt>
<rscale>  0 0.16169954E+04</rscale>
<asrwt>0</asrwt>
<pdfrwt beam="1">  1        2 0.14781670E+00 0.16169954E+04</pdfrwt>
<pdfrwt beam="2">  1       -2 0.10466642E+00 0.16169954E+04</pdfrwt>
<totfact> 0.18950097E+01</totfact>
</mgrwt>
</event>
<event>
 6    1  0.1528034E-005  0.2775410E+04  0.7818608E-02  0.8310943E-01
         -1   -1    0    0    0  501 -0.00000000000E+00  0.00000000000E+00  0.11673316659E+04  0.11673316659E+04  0.00000000000E+00 0.  1.
          1   -1    0    0  501    0  0.00000000000E+00 -0.00000000000E+00 -0.16496811978E+04  0.16496811978E+04  0.00000000000E+00 0. -1.
         23    2    1    2    0    0  0.48660767094E+03 -0.32199730572E+03 -0.15177257831E+04  0.16285376759E+04  0.90410832889E+02 0.  0.
         11    1    3    3    0    0  0.17926986740E+03 -0.13710166633E+03 -0.70351299458E+03  0.73882683073E+03  0.00000000000E+00 0.  1.
        -11    1    3    3    0    0  0.30733780354E+03 -0.18489563938E+03 -0.81421278856E+03  0.88971084516E+03  0.00000000000E+00 0. -1.
         22    1    1    2    0    0 -0.48660767094E+03  0.32199730572E+03  0.10353762512E+04  0.11884751877E+04  0.00000000000E+00 0.  1.
<mgrwt>
<rscale>  0 0.27754100E+04</rscale>
<asrwt>0</asrwt>
<pdfrwt beam="1">  1        1 0.25379711E+00 0.27754100E+04</pdfrwt>
<pdfrwt beam="2">  1       -1 0.17958949E+00 0.27754100E+04</pdfrwt>
<totfact> 0.93782070E-01</totfact>
</mgrwt>
</event>
<event>
 6    1  0.1980830E-005  0.2859407E+04  0.7818608E-02  0.8285059E-01
         -1   -1    0    0    0  501 -0.00000000000E+00  0.00000000000E+00  0.75297510140E+03  0.75297510140E+03  0.00000000000E+00 0.  1.
          1   -1    0    0  501    0  0.00000000000E+00 -0.00000000000E+00 -0.27146340186E+04  0.27146340186E+04  0.00000000000E+00 0. -1.
         23    2    1    2    0    0  0.57484579690E+03 -0.89892154713E+03  0.17071960539E+03  0.10831708629E+04  0.74875206587E+02 0.  0.
         11    1    3    3    0    0  0.35456745427E+03 -0.49326758338E+03  0.79791429013E+02  0.61269703817E+03  0.00000000000E+00 0. -1.
        -11    1    3    3    0    0  0.22027834263E+03 -0.40565396375E+03  0.90928176377E+02  0.47047382477E+03  0.00000000000E+00 0.  1.
         22    1    1    2    0    0 -0.57484579690E+03  0.89892154713E+03 -0.21323785226E+04  0.23844382570E+04  0.00000000000E+00 0. -1.
<mgrwt>
<rscale>  0 0.28594068E+04</rscale>
<asrwt>0</asrwt>
<pdfrwt beam="1">  1        1 0.41763601E+00 0.28594068E+04</pdfrwt>
<pdfrwt beam="2">  1       -1 0.11584232E+00 0.28594068E+04</pdfrwt>
<totfact> 0.55639502E-01</totfact>
</mgrwt>
</event>
<event>
 6    1  0.1528034E-005  0.3901848E+04  0.7818608E-02  0.8024645E-01
         -1   -1    0    0    0  501 -0.00000000000E+00  0.00000000000E+00  0.21428502659E+04  0.21428502659E+04  0.00000000000E+00 0.  1.
          1   -1    0    0  501    0  0.00000000000E+00 -0.00000000000E+00 -0.17761875991E+04  0.17761875991E+04  0.00000000000E+00 0. -1.
         23    2    1    2    0    0  0.15554770109E+04  0.23378103592E+02 -0.99739861582E+03  0.18500481478E+04  0.88424448154E+02 0.  0.
         13    1    3    3    0    0  0.23971958245E+03  0.20637899833E+02 -0.12283997773E+03  0.27015007171E+03  0.00000000000E+00 0. -1.
        -13    1    3    3    0    0  0.13157574285E+04  0.27402037590E+01 -0.87455863808E+03  0.15798980761E+04  0.00000000000E+00 0.  1.
         22    1    1    2    0    0 -0.15554770109E+04 -0.23378103592E+02  0.13640612826E+04  0.20689897172E+04  0.00000000000E+00 0.  1.
<mgrwt>
<rscale>  0 0.39018478E+04</rscale>
<asrwt>0</asrwt>
<pdfrwt beam="1">  1        1 0.27325963E+00 0.39018478E+04</pdfrwt>
<pdfrwt beam="2">  1       -1 0.32966927E+00 0.39018478E+04</pdfrwt>
<totfact> 0.70570361E-02</totfact>
</mgrwt>
</event>
<event>
 6    1  0.1528034E-005  0.1852142E+04  0.7818608E-02  0.8679052E-01
         -1   -1    0    0    0  501 -0.00000000000E+00  0.00000000000E+00  0.50485742915E+03  0.50485742915E+03  0.00000000000E+00 0.  1.
          1   -1    0    0  501    0  0.00000000000E+00 -0.00000000000E+00 -0.16987129472E+04  0.16987129472E+04  0.00000000000E+00 0. -1.
         23    2    1    2    0    0 -0.48580091847E+03 -0.41565548265E+03 -0.13916308276E+04  0.15343267094E+04  0.93541852383E+02 0.  0.
         13    1    3    3    0    0 -0.16327953954E+03 -0.19036186353E+03 -0.48464327216E+03  0.54568942483E+03  0.00000000000E+00 0.  1.
        -13    1    3    3    0    0 -0.32252137893E+03 -0.22529361912E+03 -0.90698755547E+03  0.98863728458E+03  0.00000000000E+00 0. -1.
         22    1    1    2    0    0  0.48580091847E+03  0.41565548265E+03  0.19777530959E+03  0.66924366693E+03  0.00000000000E+00 0.  1.
<mgrwt>
<rscale>  0 0.18521424E+04</rscale>
<asrwt>0</asrwt>
<pdfrwt beam="1">  1        1 0.26134045E+00 0.18521424E+04</pdfrwt>
<pdfrwt beam="2">  1       -1 0.77670374E-01 0.18521424E+04</pdfrwt>
<totfact> 0.74510094E+00</totfact>
</mgrwt>
</event>
<event>
 6    1  0.1528034E-005  0.6753752E+03  0.7818608E-02  0.9760296E-01
         -4   -1    0    0    0  501 -0.00000000000E+00  0.00000000000E+00  0.21679164666E+03  0.21679164666E+03  0.00000000000E+00 0. -1.
          4   -1    0    0  501    0  0.00000000000E+00 -0.00000000000E+00 -0.52600228017E+03  0.52600228017E+03  0.00000000000E+00 0.  1.
         23    2    1    2    0    0 -0.10637359889E+03 -0.19396628813E+03  0.11396345124E+03  0.26528521541E+03  0.91925588514E+02 0.  0.
         11    1    3    3    0    0 -0.11597634178E+03 -0.15862600156E+03  0.11673254429E+03  0.22855897952E+03  0.00000000000E+00 0. -1.
        -11    1    3    3    0    0  0.96027428891E+01 -0.35340286578E+02 -0.27690930524E+01  0.36726235891E+02  0.00000000000E+00 0.  1.
         22    1    1    2    0    0  0.10637359889E+03  0.19396628813E+03 -0.42317408475E+03  0.47750871142E+03  0.00000000000E+00 0.  1.
<mgrwt>
<rscale>  0 0.67537516E+03</rscale>
<asrwt>0</asrwt>
<pdfrwt beam="1">  1        4 0.80923427E-01 0.67537516E+03</pdfrwt>
<pdfrwt beam="2">  1       -4 0.33352561E-01 0.67537516E+03</pdfrwt>
<totfact> 0.23447098E+01</totfact>
</mgrwt>
</event>
<event>
 6    1  0.1528034E-005  0.1825334E+04  0.7818608E-02  0.8692942E-01
         -1   -1    0    0    0  501 -0.00000000000E+00  0.00000000000E+00  0.10173246065E+04  0.10173246065E+04  0.00000000000E+00 0.  1.
          1   -1    0    0  501    0  0.00000000000E+00 -0.00000000000E+00 -0.81877623049E+03  0.81877623049E+03  0.00000000000E+00 0. -1.
         23    2    1    2    0    0  0.73413707426E+01  0.58413347433E+03 -0.60365945946E+03  0.84372831477E+03  0.78783974231E+02 0.  0.
         13    1    3    3    0    0  0.41897587051E+02  0.24549517662E+03 -0.25901158526E+03  0.35931920467E+03  0.00000000000E+00 0. -1.
        -13    1    3    3    0    0 -0.34556216308E+02  0.33863829771E+03 -0.34464787420E+03  0.48440911011E+03  0.00000000000E+00 0.  1.
         22    1    1    2    0    0 -0.73413707426E+01 -0.58413347433E+03  0.80220783548E+03  0.99237252222E+03  0.00000000000E+00 0.  1.
<mgrwt>
<rscale>  0 0.18253342E+04</rscale>
<asrwt>0</asrwt>
<pdfrwt beam="1">  1        1 0.12596557E+00 0.18253342E+04</pdfrwt>
<pdfrwt beam="2">  1       -1 0.15651148E+00 0.18253342E+04</pdfrwt>
<totfact> 0.62302194E+00</totfact>
</mgrwt>
</event>
<event>
 6    1  0.1528034E-005  0.1809874E+04  0.7818608E-02  0.8701066E-01
         -2   -1    0    0    0  501 -0.00000000000E+00  0.00000000000E+00  0.44772788005E+03  0.44772788005E+03  0.00000000000E+00 0.  1.
          2   -1    0    0  501    0  0.00000000000E+00 -0.00000000000E+00 -0.18290372848E+04  0.18290372848E+04  0.00000000000E+00 0. -1.
         23    2    1    2    0    0 -0.42276870128E+03 -0.31479774777E+03  0.22940151370E+03  0.58200245001E+03  0.90943941735E+02 0.  0.
         11    1    3    3    0    0 -0.10391027966E+03 -0.12889607353E+03  0.63237237520E+02  0.17723005445E+03  0.00000000000E+00 0. -1.
        -11    1    3    3    0    0 -0.31885842163E+03 -0.18590167423E+03  0.16616427618E+03  0.40477239556E+03  0.00000000000E+00 0.  1.
         22    1    1    2    0    0  0.42276870128E+03  0.31479774777E+03 -0.16107109185E+04  0.16947627149E+04  0.00000000000E+00 0. -1.
<mgrwt>
<rscale>  0 0.18098740E+04</rscale>
<asrwt>0</asrwt>
<pdfrwt beam="1">  1        2 0.28139036E+00 0.18098740E+04</pdfrwt>
<pdfrwt beam="2">  1       -2 0.68881211E-01 0.18098740E+04</pdfrwt>
<totfact> 0.15100160E+01</totfact>
</mgrwt>
</event>
<event>
 6    1  0.1528034E-005  0.1671371E+04  0.7818608E-02  0.8777863E-01
         -2   -1    0    0    0  501 -0.00000000000E+00  0.00000000000E+00  0.63588583229E+03  0.63588583229E+03  0.00000000000E+00 0.  1.
          2   -1    0    0  501    0  0.00000000000E+00 -0.00000000000E+00 -0.10982634094E+04  0.10982634094E+04  0.00000000000E+00 0. -1.
         23    2    1    2    0    0 -0.42837720374E+03  0.69852194997E+03 -0.73499981992E+02  0.82714002053E+03  0.85547781624E+02 0.  0.
         13    1    3    3    0    0 -0.26995790049E+03  0.37829931026E+03 -0.69047825999E+02  0.46984597311E+03  0.00000000000E+00 0. -1.
        -13    1    3    3    0    0 -0.15841930325E+03  0.32022263971E+03 -0.44521559934E+01  0.35729404742E+03  0.00000000000E+00 0.  1.
         22    1    1    2    0    0  0.42837720374E+03 -0.69852194997E+03 -0.38887759512E+03  0.90700922115E+03  0.00000000000E+00 0. -1.
<mgrwt>
<rscale>  0 0.16713709E+04</rscale>
<asrwt>0</asrwt>
<pdfrwt beam="1">  1        2 0.16896360E+00 0.16713709E+04</pdfrwt>
<pdfrwt beam="2">  1       -2 0.97828590E-01 0.16713709E+04</pdfrwt>
<totfact> 0.18123601E+01</totfact>
</mgrwt>
</event>
<event>
 6    1  0.1528034E-005  0.6806903E+03  0.7818608E-02  0.9750836E-01
          1   -1    0    0  501    0  0.00000000000E+00  0.00000000000E+00  0.10551348075E+04  0.10551348075E+04  0.00000000000E+00 0. -1.
         -1   -1    0    0    0  501 -0.00000000000E+00 -0.00000000000E+00 -0.10978200265E+03  0.10978200265E+03  0.00000000000E+00 0.  1.
         23    2    1    2    0    0  0.43522337028E+02  0.25182571391E+03  0.84977652097E+03  0.89207031478E+03  0.91427167304E+02 0.  0.
         11    1    3    3    0    0  0.51254868079E+02  0.15269338086E+03  0.39550725004E+03  0.42704603370E+03  0.00000000000E+00 0.  1.
        -11    1    3    3    0    0 -0.77325310510E+01  0.99132333052E+02  0.45426927092E+03  0.46502428108E+03  0.00000000000E+00 0. -1.
         22    1    1    2    0    0 -0.43522337028E+02 -0.25182571391E+03  0.95576283906E+02  0.27284649540E+03  0.00000000000E+00 0.  1.
<mgrwt>
<rscale>  0 0.68069027E+03</rscale>
<asrwt>0</asrwt>
<pdfrwt beam="1">  1        1 0.16232843E+00 0.68069027E+03</pdfrwt>
<pdfrwt beam="2">  1       -1 0.16889540E-01 0.68069027E+03</pdfrwt>
<totfact> 0.37655787E+02</totfact>
</mgrwt>
</event>
<event>
 6    1  0.1528034E-005  0.1066933E+04  0.7818608E-02  0.9238034E-01
         -1   -1    0    0    0  501 -0.00000000000E+00  0.00000000000E+00  0.32258668169E+03  0.32258668169E+03  0.00000000000E+00 0.  1.
          1   -1    0    0  501    0  0.00000000000E+00 -0.00000000000E+00 -0.88220197011E+03  0.88220197011E+03  0.00000000000E+00 0. -1.
         23    2    1    2    0    0  0.44348237226E+03  0.11916303967E+03  0.15881550422E+02  0.46853254416E+03  0.91619194285E+02 0.  0.
         11    1    3    3    0    0  0.32422962757E+03  0.11925394007E+03  0.36939823055E+02  0.34743474804E+03  0.00000000000E+00 0. -1.
        -11    1    3    3    0    0  0.11925274469E+03 -0.90900395008E-01 -0.21058272634E+02  0.12109779612E+03  0.00000000000E+00 0.  1.
         22    1    1    2    0    0 -0.44348237226E+03 -0.11916303967E+03 -0.57549683885E+03  0.73625610765E+03  0.00000000000E+00 0. -1.
<mgrwt>
<rscale>  0 0.10669332E+04</rscale>
<asrwt>0</asrwt>
<pdfrwt beam="1">  1        1 0.13572338E+00 0.10669332E+04</pdfrwt>
<pdfrwt beam="2">  1       -1 0.49628721E-01 0.10669332E+04</pdfrwt>
<totfact> 0.76495744E+01</totfact>
</mgrwt>
</event>
<event>
 6    1  0.1725447E-005  0.3359093E+04  0.7818608E-02  0.8148020E-01
         -2   -1    0    0    0  501 -0.00000000000E+00  0.00000000000E+00  0.15105189145E+04  0.15105189145E+04  0.00000000000E+00 0.  1.
          2   -1    0    0  501    0  0.00000000000E+00 -0.00000000000E+00 -0.18674887809E+04  0.18674887809E+04  0.00000000000E+00 0. -1.
         23    2    1    2    0    0 -0.12393405800E+04  0.41885908635E+03  0.87867130667E+03  0.15785030091E+04  0.90556485599E+02 0.  0.
         11    1    3    3    0    0 -0.58811646968E+03  0.24535558099E+03  0.41498275829E+03  0.76045449089E+03  0.00000000000E+00 0. -1.
        -11    1    3    3    0    0 -0.65122411027E+03  0.17350350536E+03  0.46368854838E+03  0.81804851816E+03  0.00000000000E+00 0.  1.
         22    1    1    2    0    0  0.12393405800E+04 -0.41885908635E+03 -0.12356411731E+04  0.17995046863E+04  0.00000000000E+00 0. -1.
<mgrwt>
<rscale>  0 0.33590934E+04</rscale>
<asrwt>0</asrwt>
<pdfrwt beam="1">  1        2 0.28730597E+00 0.33590934E+04</pdfrwt>
<pdfrwt beam="2">  1       -2 0.23238752E+00 0.33590934E+04</pdfrwt>
<totfact> 0.54356411E-01</totfact>
</mgrwt>
</event>
<event>
 6    1  0.1528034E-005  0.1726640E+04  0.7818608E-02  0.8746315E-01
         -2   -1    0    0    0  501 -0.00000000000E+00  0.00000000000E+00  0.88468416092E+03  0.88468416092E+03  0.00000000000E+00 0.  1.
          2   -1    0    0  501    0  0.00000000000E+00 -0.00000000000E+00 -0.84247168532E+03  0.84247168532E+03  0.00000000000E+00 0. -1.
         23    2    1    2    0    0 -0.21245510014E+03  0.18091256483E+03  0.83539723396E+03  0.88631781988E+03  0.99016229164E+02 0.  0.
         13    1    3    3    0    0  0.11624156001E+01  0.40157055460E+02  0.10580195850E+03  0.11317241155E+03  0.00000000000E+00 0.  1.
        -13    1    3    3    0    0 -0.21361751574E+03  0.14075550937E+03  0.72959527545E+03  0.77314540832E+03  0.00000000000E+00 0. -1.
         22    1    1    2    0    0  0.21245510014E+03 -0.18091256483E+03 -0.79318475836E+03  0.84083802636E+03  0.00000000000E+00 0. -1.
<mgrwt>
<rscale>  0 0.17266399E+04</rscale>
<asrwt>0</asrwt>
<pdfrwt beam="1">  1        2 0.12961103E+00 0.17266399E+04</pdfrwt>
<pdfrwt beam="2">  1       -2 0.13610526E+00 0.17266399E+04</pdfrwt>
<totfact> 0.11784026E+01</totfact>
</mgrwt>
</event>
<event>
 6    1  0.1528034E-005  0.1063411E+04  0.7818608E-02  0.9241607E-01
          1   -1    0    0  501    0  0.00000000000E+00  0.00000000000E+00  0.92627427939E+03  0.92627427939E+03  0.00000000000E+00 0. -1.
         -1   -1    0    0    0  501 -0.00000000000E+00 -0.00000000000E+00 -0.30521250177E+03  0.30521250177E+03  0.00000000000E+00 0.  1.
         23    2    1    2    0    0 -0.21616224508E+03 -0.14875000423E+03 -0.21683298220E+03  0.35346610458E+03  0.95231638472E+02 0.  0.
         13    1    3    3    0    0 -0.88720090590E+02 -0.50488388820E+02 -0.14477603286E+03  0.17714522734E+03  0.00000000000E+00 0.  1.
        -13    1    3    3    0    0 -0.12744215449E+03 -0.98261615411E+02 -0.72056949339E+02  0.17632087724E+03  0.00000000000E+00 0. -1.
         22    1    1    2    0    0  0.21616224508E+03  0.14875000423E+03  0.83789475982E+03  0.87802067657E+03  0.00000000000E+00 0. -1.
<mgrwt>
<rscale>  0 0.10634105E+04</rscale>
<asrwt>0</asrwt>
<pdfrwt beam="1">  1        1 0.14250373E+00 0.10634105E+04</pdfrwt>
<pdfrwt beam="2">  1       -1 0.46955770E-01 0.10634105E+04</pdfrwt>
<totfact> 0.78180184E+01</totfact>
</mgrwt>
</event>
<event>
 6    1  0.1528034E-005  0.3337348E+04  0.7818608E-02  0.8153457E-01
          2   -1    0    0  501    0  0.00000000000E+00  0.00000000000E+00  0.21600206854E+04  0.21600206854E+04  0.00000000000E+00 0. -1.
         -2   -1    0    0    0  501 -0.00000000000E+00 -0.00000000000E+00 -0.12890954692E+04  0.12890954692E+04  0.00000000000E+00 0.  1.
         23    2    1    2    0    0 -0.12000044948E+04 -0.67975572239E+03  0.14042817578E+04  0.19704181361E+04  0.91987748986E+02 0.  0.
         13    1    3    3    0    0 -0.39785891373E+03 -0.18062749000E+03  0.41905146617E+03  0.60541071734E+03  0.00000000000E+00 0.  1.
        -13    1    3    3    0    0 -0.80214558107E+03 -0.49912823239E+03  0.98523029165E+03  0.13650074187E+04  0.00000000000E+00 0. -1.
         22    1    1    2    0    0  0.12000044948E+04  0.67975572239E+03 -0.53335654164E+03  0.14786980186E+04  0.00000000000E+00 0.  1.
<mgrwt>
<rscale>  0 0.33373480E+04</rscale>
<asrwt>0</asrwt>
<pdfrwt beam="1">  1        2 0.33231088E+00 0.33373480E+04</pdfrwt>
<pdfrwt beam="2">  1       -2 0.19832238E+00 0.33373480E+04</pdfrwt>
<totfact> 0.61777757E-01</totfact>
</mgrwt>
</event>
<event>
 6    1  0.1528034E-005  0.2602188E+04  0.7818608E-02  0.8367459E-01
         -2   -1    0    0    0  501 -0.00000000000E+00  0.00000000000E+00  0.46880731509E+03  0.46880731509E+03  0.00000000000E+00 0.  1.
          2   -1    0    0  501    0  0.00000000000E+00 -0.00000000000E+00 -0.36109611986E+04  0.36109611986E+04  0.00000000000E+00 0. -1.
         23    2    1    2    0    0 -0.90552902397E+03 -0.92425867006E+03 -0.13833252260E+04  0.18962586903E+04  0.89282905175E+02 0.  0.
         13    1    3    3    0    0 -0.47454495438E+03 -0.54763648760E+03 -0.77590093343E+03  0.10616595004E+04  0.00000000000E+00 0. -1.
        -13    1    3    3    0    0 -0.43098406959E+03 -0.37662218246E+03 -0.60742429253E+03  0.83459918986E+03  0.00000000000E+00 0.  1.
         22    1    1    2    0    0  0.90552902397E+03  0.92425867006E+03 -0.17588286576E+04  0.21835098235E+04  0.00000000000E+00 0. -1.
<mgrwt>
<rscale>  0 0.26021876E+04</rscale>
<asrwt>0</asrwt>
<pdfrwt beam="1">  1        2 0.55553246E+00 0.26021876E+04</pdfrwt>
<pdfrwt beam="2">  1       -2 0.72124206E-01 0.26021876E+04</pdfrwt>
<totfact> 0.10448796E+00</totfact>
</mgrwt>
</event>
<event>
 6    1  0.1528034E-005  0.2254779E+04  0.7818608E-02  0.8495968E-01
         -2   -1    0    0    0  501 -0.00000000000E+00  0.00000000000E+00  0.68623362189E+03  0.68623362189E+03  0.00000000000E+00 0.  1.
          2   -1    0    0  501    0  0.00000000000E+00 -0.00000000000E+00 -0.18521492225E+04  0.18521492225E+04  0.00000000000E+00 0. -1.
         23    2    1    2    0    0 -0.50724641152E+02  0.10516277768E+04 -0.13568949665E+03  0.10653384474E+04  0.89668265827E+02 0.  0.
         13    1    3    3    0    0 -0.43260679306E+02  0.39653240859E+03 -0.87930956410E+02  0.40846210416E+03  0.00000000000E+00 0. -1.
        -13    1    3    3    0    0 -0.74639618458E+01  0.65509536821E+03 -0.47758540241E+02  0.65687634327E+03  0.00000000000E+00 0.  1.
         22    1    1    2    0    0  0.50724641152E+02 -0.10516277768E+04 -0.10302261040E+04  0.14730443970E+04  0.00000000000E+00 0. -1.
<mgrwt>
<rscale>  0 0.22547790E+04</rscale>
<asrwt>0</asrwt>
<pdfrwt beam="1">  1        2 0.28494603E+00 0.22547790E+04</pdfrwt>
<pdfrwt beam="2">  1       -2 0.10557440E+00 0.22547790E+04</pdfrwt>
<totfact> 0.53292643E+00</totfact>
</mgrwt>
</event>
<event>
 6    1  0.1528034E-005  0.1234348E+04  0.7818608E-02  0.9083312E-01
         -2   -1    0    0    0  501 -0.00000000000E+00  0.00000000000E+00  0.25416633231E+03  0.25416633231E+03  0.00000000000E+00 0.  1.
          2   -1    0    0  501    0  0.00000000000E+00 -0.00000000000E+00 -0.14986385456E+04  0.14986385456E+04  0.00000000000E+00 0. -1.
         23    2    1    2    0    0  0.21677339928E+03 -0.31500632729E+03 -0.13071052939E+04  0.13653224968E+04  0.96755248419E+02 0.  0.
         13    1    3    3    0    0  0.35336616651E+02 -0.10465133699E+02 -0.18195561579E+03  0.18565032081E+03  0.00000000000E+00 0. -1.
        -13    1    3    3    0    0  0.18143678263E+03 -0.30454119359E+03 -0.11251496781E+04  0.11796721760E+04  0.00000000000E+00 0.  1.
         22    1    1    2    0    0 -0.21677339928E+03  0.31500632729E+03  0.62633080609E+02  0.38748238109E+03  0.00000000000E+00 0.  1.
<mgrwt>
<rscale>  0 0.12343475E+04</rscale>
<asrwt>0</asrwt>
<pdfrwt beam="1">  1        2 0.23055978E+00 0.12343475E+04</pdfrwt>
<pdfrwt beam="2">  1       -2 0.39102512E-01 0.12343475E+04</pdfrwt>
<totfact> 0.77366861E+01</totfact>
</mgrwt>
</event>
<event>
 6    1  0.1528034E-005  0.4573915E+04  0.7818608E-02  0.7897823E-01
          2   -1    0    0  501    0  0.00000000000E+00  0.00000000000E+00  0.59147728361E+04  0.59147728361E+04  0.00000000000E+00 0. -1.
         -2   -1    0    0    0  501 -0.00000000000E+00 -0.00000000000E+00 -0.88425610426E+03  0.88425610426E+03  0.00000000000E+00 0.  1.
         23    2    1    2    0    0  0.14333240075E+04  0.12500362776E+04  0.63055256129E+03  0.20056279444E+04  0.89098333723E+02 0.  0.
         13    1    3    3    0    0  0.31892434524E+03  0.23761101675E+03  0.15236669069E+03  0.42589592825E+03  0.00000000000E+00 0. -1.
        -13    1    3    3    0    0  0.11143996623E+04  0.10124252609E+04  0.47818587059E+03  0.15797320162E+04  0.00000000000E+00 0.  1.
         22    1    1    2    0    0 -0.14333240075E+04 -0.12500362776E+04  0.43999641706E+04  0.47934009960E+04  0.00000000000E+00 0. -1.
<mgrwt>
<rscale>  0 0.45739147E+04</rscale>
<asrwt>0</asrwt>
<pdfrwt beam="1">  1        2 0.90996503E+00 0.45739147E+04</pdfrwt>
<pdfrwt beam="2">  1       -2 0.13603940E+00 0.45739147E+04</pdfrwt>
<totfact> 0.17795406E-04</totfact>
</mgrwt>
</event>
<event>
 6    1  0.1528034E-005  0.2580547E+04  0.7818608E-02  0.8374839E-01
          2   -1    0    0  501    0  0.00000000000E+00  0.00000000000E+00  0.25536052279E+04  0.25536052279E+04  0.00000000000E+00 0. -1.
         -2   -1    0    0    0  501 -0.00000000000E+00 -0.00000000000E+00 -0.65194328068E+03  0.65194328068E+03  0.00000000000E+00 0.  1.
         23    2    1    2    0    0 -0.10744318319E+04  0.70933823175E+03  0.10168390824E+04  0.16433462200E+04  0.95187136586E+02 0.  0.
         11    1    3    3    0    0 -0.25609239164E+03  0.20181403947E+03  0.29754368232E+03  0.44141189662E+03  0.00000000000E+00 0.  1.
        -11    1    3    3    0    0 -0.81833944023E+03  0.50752419228E+03  0.71929540009E+03  0.12019343234E+04  0.00000000000E+00 0. -1.
         22    1    1    2    0    0  0.10744318319E+04 -0.70933823175E+03  0.88482286484E+03  0.15622022886E+04  0.00000000000E+00 0.  1.
<mgrwt>
<rscale>  0 0.25805471E+04</rscale>
<asrwt>0</asrwt>
<pdfrwt beam="1">  1        2 0.39286234E+00 0.25805471E+04</pdfrwt>
<pdfrwt beam="2">  1       -2 0.10029897E+00 0.25805471E+04</pdfrwt>
<totfact> 0.23537193E+00</totfact>
</mgrwt>
</event>
<event>
 6    1  0.1528034E-005  0.6324771E+03  0.7818608E-02  0.9840227E-01
         -1   -1    0    0    0  501 -0.00000000000E+00  0.00000000000E+00  0.10413163989E+03  0.10413163989E+03  0.00000000000E+00 0.  1.
          1   -1    0    0  501    0  0.00000000000E+00 -0.00000000000E+00 -0.96038845710E+03  0.96038845710E+03  0.00000000000E+00 0. -1.
         23    2    1    2    0    0  0.71746116625E+02 -0.57535220738E+02 -0.93472936896E+03  0.94362448808E+03  0.90831571852E+02 0.  0.
         11    1    3    3    0    0  0.10551862798E+02 -0.27284946519E+02 -0.65706104324E+02  0.71924281439E+02  0.00000000000E+00 0. -1.
        -11    1    3    3    0    0  0.61194253826E+02 -0.30250274219E+02 -0.86902326463E+03  0.87170020665E+03  0.00000000000E+00 0.  1.
         22    1    1    2    0    0 -0.71746116625E+02  0.57535220738E+02  0.78472551748E+02  0.12089560891E+03  0.00000000000E+00 0.  1.
<mgrwt>
<rscale>  0 0.63247711E+03</rscale>
<asrwt>0</asrwt>
<pdfrwt beam="1">  1        1 0.14775207E+00 0.63247711E+03</pdfrwt>
<pdfrwt beam="2">  1       -1 0.16020253E-01 0.63247711E+03</pdfrwt>
<totfact> 0.48678914E+02</totfact>
</mgrwt>
</event>
<event>
 6    1  0.1528034E-005  0.6285789E+03  0.7818608E-02  0.9847826E-01
         -2   -1    0    0    0  501 -0.00000000000E+00  0.00000000000E+00  0.13153274450E+03  0.13153274450E+03  0.00000000000E+00 0.  1.
          2   -1    0    0  501    0  0.00000000000E+00 -0.00000000000E+00 -0.75097539114E+03  0.75097539114E+03  0.00000000000E+00 0. -1.
         23    2    1    2    0    0 -0.14492985289E+03  0.52358787426E+02  0.57724319490E+02  0.18802904676E+03  0.90976483139E+02 0.  0.
         13    1    3    3    0    0 -0.82777644062E+02  0.66547019943E+02  0.67861303221E+01  0.10642695046E+03  0.00000000000E+00 0. -1.
        -13    1    3    3    0    0 -0.62152208826E+02 -0.14188232517E+02  0.50938189168E+02  0.81602096294E+02  0.00000000000E+00 0.  1.
         22    1    1    2    0    0  0.14492985289E+03 -0.52358787426E+02 -0.67716696613E+03  0.69447908889E+03  0.00000000000E+00 0. -1.
<mgrwt>
<rscale>  0 0.62857889E+03</rscale>
<asrwt>0</asrwt>
<pdfrwt beam="1">  1        2 0.11553467E+00 0.62857889E+03</pdfrwt>
<pdfrwt beam="2">  1       -2 0.20235807E-01 0.62857889E+03</pdfrwt>
<totfact> 0.78690671E+02</totfact>
</mgrwt>
</event>
<event>
 6    1  0.1528034E-005  0.1546852E+04  0.7818608E-02  0.8853881E-01
          2   -1    0    0  501    0  0.00000000000E+00  0.00000000000E+00  0.30603557260E+04  0.30603557260E+04  0.00000000000E+00 0. -1.
         -2   -1    0    0    0  501 -0.00000000000E+00 -0.00000000000E+00 -0.19546344876E+03  0.19546344876E+03  0.00000000000E+00 0.  1.
         23    2    1    2    0    0  0.63297301600E+03  0.43129694211E+03  0.16189893671E+04  0.17933056012E+04  0.90258059932E+02 0.  0.
         11    1    3    3    0    0  0.36281334792E+03  0.26369566907E+03  0.84726261658E+03  0.95865680656E+03  0.00000000000E+00 0. -1.
        -11    1    3    3    0    0  0.27015966808E+03  0.16760127304E+03  0.77172675049E+03  0.83464879465E+03  0.00000000000E+00 0.  1.
         22    1    1    2    0    0 -0.63297301600E+03 -0.43129694211E+03  0.12459029102E+04  0.14625135736E+04  0.00000000000E+00 0.  1.
<mgrwt>
<rscale>  0 0.15468519E+04</rscale>
<asrwt>0</asrwt>
<pdfrwt beam="1">  1        2 0.47082393E+00 0.15468519E+04</pdfrwt>
<pdfrwt beam="2">  1       -2 0.30071302E-01 0.15468519E+04</pdfrwt>
<totfact> 0.15792322E+01</totfact>
</mgrwt>
</event>
<event>
 6    1  0.1528034E-005  0.3049937E+04  0.7818608E-02  0.8229613E-01
         -1   -1    0    0    0  501 -0.00000000000E+00  0.00000000000E+00  0.18200439166E+04  0.18200439166E+04  0.00000000000E+00 0.  1.
          1   -1    0    0  501    0  0.00000000000E+00 -0.00000000000E+00 -0.12777324843E+04  0.12777324843E+04  0.00000000000E+00 0. -1.
         23    2    1    2    0    0 -0.63337650462E+03  0.49044569095E+03  0.15879335965E+04  0.17805716018E+04  0.84848983107E+02 0.  0.
         13    1    3    3    0    0 -0.56369695664E+03  0.46423336738E+03  0.14159703268E+04  0.15931851257E+04  0.00000000000E+00 0.  1.
        -13    1    3    3    0    0 -0.69679547985E+02  0.26212323566E+02  0.17196326965E+03  0.18738647609E+03  0.00000000000E+00 0. -1.
         22    1    1    2    0    0  0.63337650462E+03 -0.49044569095E+03 -0.10456221642E+04  0.13172047990E+04  0.00000000000E+00 0. -1.
<mgrwt>
<rscale>  0 0.30499372E+04</rscale>
<asrwt>0</asrwt>
<pdfrwt beam="1">  1        1 0.19657423E+00 0.30499372E+04</pdfrwt>
<pdfrwt beam="2">  1       -1 0.28000675E+00 0.30499372E+04</pdfrwt>
<totfact> 0.35389012E-01</totfact>
</mgrwt>
</event>
<event>
 6    1  0.1528034E-005  0.3042930E+04  0.7818608E-02  0.8231577E-01
          2   -1    0    0  501    0  0.00000000000E+00  0.00000000000E+00  0.14437809336E+04  0.14437809336E+04  0.00000000000E+00 0. -1.
         -2   -1    0    0    0  501 -0.00000000000E+00 -0.00000000000E+00 -0.16033292558E+04  0.16033292558E+04  0.00000000000E+00 0.  1.
         23    2    1    2    0    0  0.39550049248E+03  0.32865591411E+03 -0.15122900380E+04  0.15999248180E+04  0.91120332219E+02 0.  0.
         13    1    3    3    0    0  0.23285177219E+03  0.19463500553E+03 -0.75101997258E+03  0.81002082221E+03  0.00000000000E+00 0. -1.
        -13    1    3    3    0    0  0.16264872029E+03  0.13402090858E+03 -0.76127006538E+03  0.78990399581E+03  0.00000000000E+00 0.  1.
         22    1    1    2    0    0 -0.39550049248E+03 -0.32865591411E+03  0.13527417158E+04  0.14471853714E+04  0.00000000000E+00 0. -1.
<mgrwt>
<rscale>  0 0.30429303E+04</rscale>
<asrwt>0</asrwt>
<pdfrwt beam="1">  1        2 0.22212014E+00 0.30429303E+04</pdfrwt>
<pdfrwt beam="2">  1       -2 0.24666604E+00 0.30429303E+04</pdfrwt>
<totfact> 0.78512926E-01</totfact>
</mgrwt>
</event>
<event>
 6    1  0.1528034E-005  0.3872794E+04  0.7818608E-02  0.8030711E-01
         -2   -1    0    0    0  501 -0.00000000000E+00  0.00000000000E+00  0.30814567493E+04  0.30814567493E+04  0.00000000000E+00 0. -1.
          2   -1    0    0  501    0  0.00000000000E+00 -0.00000000000E+00 -0.12168378232E+04  0.12168378232E+04  0.00000000000E+00 0.  1.
         23    2    1    2    0    0 -0.31763556712E+02 -0.94652710769E+03 -0.94048778668E+03  0.13376280665E+04  0.88368989770E+02 0.  0.
         13    1    3    3    0    0 -0.34216242030E+02 -0.60885856218E+03 -0.66056193510E+03  0.89901144045E+03  0.00000000000E+00 0. -1.
        -13    1    3    3    0    0  0.24526853182E+01 -0.33766854550E+03 -0.27992585158E+03  0.43861662607E+03  0.00000000000E+00 0.  1.
         22    1    1    2    0    0  0.31763556712E+02  0.94652710769E+03  0.28051067128E+04  0.29606665060E+04  0.00000000000E+00 0. -1.
<mgrwt>
<rscale>  0 0.38727939E+04</rscale>
<asrwt>0</asrwt>
<pdfrwt beam="1">  1        2 0.18720582E+00 0.38727939E+04</pdfrwt>
<pdfrwt beam="2">  1       -2 0.47407027E+00 0.38727939E+04</pdfrwt>
<totfact> 0.35585689E-02</totfact>
</mgrwt>
</event>
<event>
 6    1  0.1528034E-005  0.3181775E+04  0.7818608E-02  0.8193647E-01
          1   -1    0    0  501    0  0.00000000000E+00  0.00000000000E+00  0.24945851452E+04  0.24945851452E+04  0.00000000000E+00 0. -1.
         -1   -1    0    0    0  501 -0.00000000000E+00 -0.00000000000E+00 -0.10145666909E+04  0.10145666909E+04  0.00000000000E+00 0.  1.
         23    2    1    2    0    0  0.37843600075E+03 -0.26577784818E+03  0.24179318005E+04  0.24634304984E+04  0.90796241867E+02 0.  0.
         13    1    3    3    0    0  0.30778783646E+03 -0.18072670602E+03  0.19685991621E+04  0.20006944183E+04  0.00000000000E+00 0. -1.
        -13    1    3    3    0    0  0.70648164293E+02 -0.85051142158E+02  0.44933263843E+03  0.46273608013E+03  0.00000000000E+00 0.  1.
         22    1    1    2    0    0 -0.37843600075E+03  0.26577784818E+03 -0.93791334612E+03  0.10457213377E+04  0.00000000000E+00 0.  1.
<mgrwt>
<rscale>  0 0.31817750E+04</rscale>
<asrwt>0</asrwt>
<pdfrwt beam="1">  1        1 0.38378233E+00 0.31817750E+04</pdfrwt>
<pdfrwt beam="2">  1       -1 0.15608718E+00 0.31817750E+04</pdfrwt>
<totfact> 0.35834033E-01</totfact>
</mgrwt>
</event>
<event>
 6    1  0.1528034E-005  0.4118790E+04  0.7818608E-02  0.7981002E-01
         -2   -1    0    0    0  501 -0.00000000000E+00  0.00000000000E+00  0.28354973512E+04  0.28354973512E+04  0.00000000000E+00 0.  1.
          2   -1    0    0  501    0  0.00000000000E+00 -0.00000000000E+00 -0.14957191797E+04  0.14957191797E+04  0.00000000000E+00 0. -1.
         23    2    1    2    0    0  0.19137299366E+04 -0.14279267838E+03  0.14531199316E+04  0.24088226135E+04  0.90093442320E+02 0.  0.
         11    1    3    3    0    0  0.69838834327E+03 -0.55580174550E+02  0.58513908294E+03  0.91281059383E+03  0.00000000000E+00 0.  1.
        -11    1    3    3    0    0  0.12153415933E+04 -0.87212503833E+02  0.86798084870E+03  0.14960120197E+04  0.00000000000E+00 0. -1.
         22    1    1    2    0    0 -0.19137299366E+04  0.14279267838E+03 -0.11334176009E+03  0.19223939174E+04  0.00000000000E+00 0. -1.
<mgrwt>
<rscale>  0 0.41187900E+04</rscale>
<asrwt>0</asrwt>
<pdfrwt beam="1">  1        2 0.23011064E+00 0.41187900E+04</pdfrwt>
<pdfrwt beam="2">  1       -2 0.43623036E+00 0.41187900E+04</pdfrwt>
<totfact> 0.42704076E-02</totfact>
</mgrwt>
</event>
<event>
 6    1  0.1528034E-005  0.1009157E+04  0.7818608E-02  0.9298559E-01
          2   -1    0    0  501    0  0.00000000000E+00  0.00000000000E+00  0.59368374587E+03  0.59368374587E+03  0.00000000000E+00 0. -1.
         -2   -1    0    0    0  501 -0.00000000000E+00 -0.00000000000E+00 -0.42884662421E+03  0.42884662421E+03  0.00000000000E+00 0.  1.
         23    2    1    2    0    0  0.38180474469E+03 -0.10182547323E+03  0.39392888961E+03  0.56577405845E+03  0.93685778412E+02 0.  0.
         13    1    3    3    0    0  0.16667393768E+03 -0.65258562019E+02  0.23696026227E+03  0.29696640772E+03  0.00000000000E+00 0.  1.
        -13    1    3    3    0    0  0.21513080702E+03 -0.36566911215E+02  0.15696862733E+03  0.26880765073E+03  0.00000000000E+00 0. -1.
         22    1    1    2    0    0 -0.38180474469E+03  0.10182547323E+03 -0.22909176795E+03  0.45675631163E+03  0.00000000000E+00 0.  1.
<mgrwt>
<rscale>  0 0.10091566E+04</rscale>
<asrwt>0</asrwt>
<pdfrwt beam="1">  1        2 0.91335961E-01 0.10091566E+04</pdfrwt>
<pdfrwt beam="2">  1       -2 0.65976404E-01 0.10091566E+04</pdfrwt>
<totfact> 0.10605759E+02</totfact>
</mgrwt>
</event>
<event>
 6    1  0.1528034E-005  0.3634677E+04  0.7818608E-02  0.8082594E-01
         -2   -1    0    0    0  501 -0.00000000000E+00  0.00000000000E+00  0.17345722565E+04  0.17345722565E+04  0.00000000000E+00 0.  1.
          2   -1    0    0  501    0  0.00000000000E+00 -0.00000000000E+00 -0.19040535764E+04  0.19040535764E+04  0.00000000000E+00 0. -1.
         23    2    1    2    0    0  0.17393377085E+04 -0.49159537110E+03 -0.26263442805E+03  0.18287531372E+04  0.91648900585E+02 0.  0.
         13    1    3    3    0    0  0.82558171021E+03 -0.19979361809E+03 -0.15610130758E+03  0.86363781083E+03  0.00000000000E+00 0. -1.
        -13    1    3    3    0    0  0.91375599830E+03 -0.29180175301E+03 -0.10653312047E+03  0.96511532640E+03  0.00000000000E+00 0.  1.
         22    1    1    2    0    0 -0.17393377085E+04  0.49159537110E+03  0.93153108166E+02  0.18098726957E+04  0.00000000000E+00 0.  1.
<mgrwt>
<rscale>  0 0.36346766E+04</rscale>
<asrwt>0</asrwt>
<pdfrwt beam="1">  1        2 0.29293132E+00 0.36346766E+04</pdfrwt>
<pdfrwt beam="2">  1       -2 0.26685727E+00 0.36346766E+04</pdfrwt>
<totfact> 0.31103168E-01</totfact>
</mgrwt>
</event>
<event>
 6    1  0.1528034E-005  0.1586429E+04  0.7818608E-02  0.8828929E-01
         -1   -1    0    0    0  501 -0.00000000000E+00  0.00000000000E+00  0.96286635198E+03  0.96286635198E+03  0.00000000000E+00 0.  1.
          1   -1    0    0  501    0  0.00000000000E+00 -0.00000000000E+00 -0.65345404686E+03  0.65345404686E+03  0.00000000000E+00 0. -1.
         23    2    1    2    0    0 -0.54821948049E+02  0.42247837473E+03  0.83376293864E+03  0.94071917772E+03  0.91096160058E+02 0.  0.
         13    1    3    3    0    0 -0.32330663521E+02  0.40712174782E+03  0.78343143511E+03  0.88349205026E+03  0.00000000000E+00 0.  1.
        -13    1    3    3    0    0 -0.22491284529E+02  0.15356626909E+02  0.50331503524E+02  0.57227127455E+02  0.00000000000E+00 0. -1.
         22    1    1    2    0    0  0.54821948049E+02 -0.42247837473E+03 -0.52435063352E+03  0.67560122112E+03  0.00000000000E+00 0. -1.
<mgrwt>
<rscale>  0 0.15864286E+04</rscale>
<asrwt>0</asrwt>
<pdfrwt beam="1">  1        1 0.10053139E+00 0.15864286E+04</pdfrwt>
<pdfrwt beam="2">  1       -1 0.14813328E+00 0.15864286E+04</pdfrwt>
<totfact> 0.10475718E+01</totfact>
</mgrwt>
</event>
<event>
 6    1  0.1528034E-005  0.4866527E+04  0.7818608E-02  0.7849433E-01
          2   -1    0    0  501    0  0.00000000000E+00  0.00000000000E+00  0.25437659742E+04  0.25437659742E+04  0.00000000000E+00 0. -1.
         -2   -1    0    0    0  501 -0.00000000000E+00 -0.00000000000E+00 -0.23275608380E+04  0.23275608380E+04  0.00000000000E+00 0.  1.
         23    2    1    2    0    0  0.92203481180E+03 -0.13168476041E+04 -0.17190411893E+04  0.23554941177E+04  0.94942726849E+02 0.  0.
         13    1    3    3    0    0  0.21500181891E+03 -0.36067496131E+03 -0.40805607115E+03  0.58551000594E+03  0.00000000000E+00 0. -1.
        -13    1    3    3    0    0  0.70703299289E+03 -0.95617264280E+03 -0.13109851182E+04  0.17699841118E+04  0.00000000000E+00 0.  1.
         22    1    1    2    0    0 -0.92203481180E+03  0.13168476041E+04  0.19352463255E+04  0.25158326946E+04  0.00000000000E+00 0. -1.
<mgrwt>
<rscale>  0 0.48665265E+04</rscale>
<asrwt>0</asrwt>
<pdfrwt beam="1">  1        2 0.39134861E+00 0.48665265E+04</pdfrwt>
<pdfrwt beam="2">  1       -2 0.35808628E+00 0.48665265E+04</pdfrwt>
<totfact> 0.33407568E-02</totfact>
</mgrwt>
</event>
<event>
 6    1  0.1528034E-005  0.1171957E+04  0.7818608E-02  0.9137763E-01
         -2   -1    0    0    0  501 -0.00000000000E+00  0.00000000000E+00  0.19800741046E+03  0.19800741046E+03  0.00000000000E+00 0.  1.
          2   -1    0    0  501    0  0.00000000000E+00 -0.00000000000E+00 -0.17341322476E+04  0.17341322476E+04  0.00000000000E+00 0. -1.
         23    2    1    2    0    0 -0.58128372272E+03  0.29320433854E+02 -0.80680939108E+03  0.99905259139E+03  0.91729126715E+02 0.  0.
         11    1    3    3    0    0 -0.15502877961E+03  0.24890299507E+02 -0.28369969021E+03  0.32425138973E+03  0.00000000000E+00 0. -1.
        -11    1    3    3    0    0 -0.42625494312E+03  0.44301343471E+01 -0.52310970087E+03  0.67480120166E+03  0.00000000000E+00 0.  1.
         22    1    1    2    0    0  0.58128372272E+03 -0.29320433854E+02 -0.72931544609E+03  0.93308706671E+03  0.00000000000E+00 0.  1.
<mgrwt>
<rscale>  0 0.11719574E+04</rscale>
<asrwt>0</asrwt>
<pdfrwt beam="1">  1        2 0.26678957E+00 0.11719574E+04</pdfrwt>
<pdfrwt beam="2">  1       -2 0.30462679E-01 0.11719574E+04</pdfrwt>
<totfact> 0.92470974E+01</totfact>
</mgrwt>
</event>
<event>
 6    1  0.1528034E-005  0.1763805E+04  0.7818608E-02  0.8725788E-01
         -2   -1    0    0    0  501 -0.00000000000E+00  0.00000000000E+00  0.73676757602E+03  0.73676757602E+03  0.00000000000E+00 0.  1.
          2   -1    0    0  501    0  0.00000000000E+00 -0.00000000000E+00 -0.10556269928E+04  0.10556269928E+04  0.00000000000E+00 0. -1.
         23    2    1    2    0    0  0.70745466544E+03  0.45711090908E+02  0.36907234896E+03  0.80455261697E+03  0.92243738097E+02 0.  0.
         13    1    3    3    0    0  0.29885761350E+03 -0.18616666471E+01  0.20109659932E+03  0.36022101717E+03  0.00000000000E+00 0. -1.
        -13    1    3    3    0    0  0.40859705194E+03  0.47572757555E+02  0.16797574964E+03  0.44433159980E+03  0.00000000000E+00 0.  1.
         22    1    1    2    0    0 -0.70745466544E+03 -0.45711090908E+02 -0.68793176570E+03  0.98784195181E+03  0.00000000000E+00 0. -1.
<mgrwt>
<rscale>  0 0.17638047E+04</rscale>
<asrwt>0</asrwt>
<pdfrwt beam="1">  1        2 0.16240415E+00 0.17638047E+04</pdfrwt>
<pdfrwt beam="2">  1       -2 0.11334886E+00 0.17638047E+04</pdfrwt>
<totfact> 0.13429550E+01</totfact>
</mgrwt>
</event>
<event>
 6    1  0.1528034E-005  0.9898389E+03  0.7818608E-02  0.9319760E-01
          1   -1    0    0  501    0  0.00000000000E+00  0.00000000000E+00  0.13016159620E+04  0.13016159620E+04  0.00000000000E+00 0. -1.
         -1   -1    0    0    0  501 -0.00000000000E+00 -0.00000000000E+00 -0.18818550362E+03  0.18818550362E+03  0.00000000000E+00 0.  1.
         23    2    1    2    0    0  0.15497622339E+03  0.39630863588E+03  0.19362160638E+03  0.47632897518E+03  0.91223908288E+02 0.  0.
         13    1    3    3    0    0  0.15590897334E+03  0.29590128372E+03  0.15661704212E+03  0.36931568551E+03  0.00000000000E+00 0. -1.
        -13    1    3    3    0    0 -0.93274995092E+00  0.10040735216E+03  0.37004564259E+02  0.10701328967E+03  0.00000000000E+00 0.  1.
         22    1    1    2    0    0 -0.15497622339E+03 -0.39630863588E+03  0.91980885201E+03  0.10134724905E+04  0.00000000000E+00 0. -1.
<mgrwt>
<rscale>  0 0.98983889E+03</rscale>
<asrwt>0</asrwt>
<pdfrwt beam="1">  1        1 0.20024860E+00 0.98983889E+03</pdfrwt>
<pdfrwt beam="2">  1       -1 0.28951617E-01 0.98983889E+03</pdfrwt>
<totfact> 0.98208084E+01</totfact>
</mgrwt>
</event>
<event>
 6    1  0.1528034E-005  0.4584077E+03  0.7818608E-02  0.1025244E+00
          2   -1    0    0  501    0  0.00000000000E+00  0.00000000000E+00  0.67814816413E+03  0.67814816413E+03  0.00000000000E+00 0. -1.
         -2   -1    0    0    0  501 -0.00000000000E+00 -0.00000000000E+00 -0.77467432507E+02  0.77467432507E+02  0.00000000000E+00 0.  1.
         23    2    1    2    0    0 -0.14606882567E+03  0.13748868729E+03  0.46110616977E+03  0.51123822600E+03  0.92230054521E+02 0.  0.
         13    1    3    3    0    0 -0.70199161333E+02  0.98837624092E+02  0.35537577775E+03  0.37548467558E+03  0.00000000000E+00 0. -1.
        -13    1    3    3    0    0 -0.75869664339E+02  0.38651063194E+02  0.10573039202E+03  0.13575355041E+03  0.00000000000E+00 0.  1.
         22    1    1    2    0    0  0.14606882567E+03 -0.13748868729E+03  0.13957456186E+03  0.24437737064E+03  0.00000000000E+00 0.  1.
<mgrwt>
<rscale>  0 0.45840767E+03</rscale>
<asrwt>0</asrwt>
<pdfrwt beam="1">  1        2 0.10433048E+00 0.45840767E+03</pdfrwt>
<pdfrwt beam="2">  1       -2 0.11918067E-01 0.45840767E+03</pdfrwt>
<totfact> 0.21899298E+03</totfact>
</mgrwt>
</event>
<event>
 6    1  0.1528034E-005  0.1513035E+04  0.7818608E-02  0.8875830E-01
          2   -1    0    0  501    0  0.00000000000E+00  0.00000000000E+00  0.98356726489E+03  0.98356726489E+03  0.00000000000E+00 0. -1.
         -2   -1    0    0    0  501 -0.00000000000E+00 -0.00000000000E+00 -0.58188098945E+03  0.58188098945E+03  0.00000000000E+00 0.  1.
         23    2    1    2    0    0 -0.69817702346E+03 -0.22456116598E+03  0.22606165141E+02  0.73986930392E+03  0.94956173158E+02 0.  0.
         13    1    3    3    0    0 -0.46569830345E+03 -0.17766566275E+03  0.50883341040E+02  0.50102805506E+03  0.00000000000E+00 0. -1.
        -13    1    3    3    0    0 -0.23247872001E+03 -0.46895503230E+02 -0.28277175899E+02  0.23884124886E+03  0.00000000000E+00 0.  1.
         22    1    1    2    0    0  0.69817702346E+03  0.22456116598E+03  0.37908011029E+03  0.82557895042E+03  0.00000000000E+00 0. -1.
<mgrwt>
<rscale>  0 0.15130355E+04</rscale>
<asrwt>0</asrwt>
<pdfrwt beam="1">  1        2 0.15131804E+00 0.15130355E+04</pdfrwt>
<pdfrwt beam="2">  1       -2 0.89520152E-01 0.15130355E+04</pdfrwt>
<totfact> 0.26663731E+01</totfact>
</mgrwt>
</event>
<event>
 6    1  0.1528034E-005  0.2495036E+04  0.7818608E-02  0.8404756E-01
         -4   -1    0    0    0  501 -0.00000000000E+00  0.00000000000E+00  0.25254417142E+04  0.25254417142E+04  0.00000000000E+00 0.  1.
          4   -1    0    0  501    0  0.00000000000E+00 -0.00000000000E+00 -0.61624915459E+03  0.61624915459E+03  0.00000000000E+00 0. -1.
         23    2    1    2    0    0 -0.61827686545E+03 -0.70374229370E+03  0.19901732298E+04  0.22014369843E+04  0.89531071172E+02 0.  0.
         13    1    3    3    0    0 -0.44956882887E+03 -0.56476023490E+03  0.14938031302E+04  0.16590702356E+04  0.00000000000E+00 0.  1.
        -13    1    3    3    0    0 -0.16870803658E+03 -0.13898205880E+03  0.49637009961E+03  0.54236674867E+03  0.00000000000E+00 0. -1.
         22    1    1    2    0    0  0.61827686545E+03  0.70374229370E+03 -0.80980670278E+02  0.94025388446E+03  0.00000000000E+00 0. -1.
<mgrwt>
<rscale>  0 0.24950361E+04</rscale>
<asrwt>0</asrwt>
<pdfrwt beam="1">  1        4 0.94807563E-01 0.24950361E+04</pdfrwt>
<pdfrwt beam="2">  1       -4 0.38852949E+00 0.24950361E+04</pdfrwt>
<totfact> 0.13659170E-02</totfact>
</mgrwt>
</event>
<event>
 6    1  0.1528034E-005  0.5500341E+04  0.7818608E-02  0.7755642E-01
         -1   -1    0    0    0  501 -0.00000000000E+00  0.00000000000E+00  0.24502945331E+04  0.24502945331E+04  0.00000000000E+00 0.  1.
          1   -1    0    0  501    0  0.00000000000E+00 -0.00000000000E+00 -0.30867462548E+04  0.30867462548E+04  0.00000000000E+00 0. -1.
         23    2    1    2    0    0 -0.11738668472E+04  0.23105754724E+04  0.60541465972E+03  0.26632011095E+04  0.96906402771E+02 0.  0.
         13    1    3    3    0    0 -0.37888532212E+03  0.65753784582E+03  0.15809851814E+03  0.77518078372E+03  0.00000000000E+00 0. -1.
        -13    1    3    3    0    0 -0.79498152505E+03  0.16530376266E+04  0.44731614158E+03  0.18880203258E+04  0.00000000000E+00 0.  1.
         22    1    1    2    0    0  0.11738668472E+04 -0.23105754724E+04 -0.12418663814E+04  0.28738396785E+04  0.00000000000E+00 0. -1.
<mgrwt>
<rscale>  0 0.55003409E+04</rscale>
<asrwt>0</asrwt>
<pdfrwt beam="1">  1        1 0.47488404E+00 0.55003409E+04</pdfrwt>
<pdfrwt beam="2">  1       -1 0.37696839E+00 0.55003409E+04</pdfrwt>
<totfact> 0.36753434E-03</totfact>
</mgrwt>
</event>
<event>
 6    1  0.1528034E-005  0.5901184E+04  0.7818608E-02  0.7702776E-01
         -1   -1    0    0    0  501 -0.00000000000E+00  0.00000000000E+00  0.31365119495E+04  0.31365119495E+04  0.00000000000E+00 0.  1.
          1   -1    0    0  501    0  0.00000000000E+00 -0.00000000000E+00 -0.27756922113E+04  0.27756922113E+04  0.00000000000E+00 0. -1.
         23    2    1    2    0    0  0.23302048601E+04  0.21981636456E+03 -0.16183661750E+04  0.28470205116E+04  0.90789827240E+02 0.  0.
         11    1    3    3    0    0  0.15254701423E+04  0.17229041163E+03 -0.11005432030E+04  0.18888987487E+04  0.00000000000E+00 0.  1.
        -11    1    3    3    0    0  0.80473471782E+03  0.47525952926E+02 -0.51782297196E+03  0.95812176290E+03  0.00000000000E+00 0. -1.
         22    1    1    2    0    0 -0.23302048601E+04 -0.21981636456E+03  0.19791859132E+04  0.30651836492E+04  0.00000000000E+00 0.  1.
<mgrwt>
<rscale>  0 0.59011835E+04</rscale>
<asrwt>0</asrwt>
<pdfrwt beam="1">  1        1 0.42702957E+00 0.59011835E+04</pdfrwt>
<pdfrwt beam="2">  1       -1 0.48254030E+00 0.59011835E+04</pdfrwt>
<totfact> 0.11421045E-03</totfact>
</mgrwt>
</event>
<event>
 6    1  0.1528034E-005  0.1249330E+04  0.7818608E-02  0.9070741E-01
          1   -1    0    0  501    0  0.00000000000E+00  0.00000000000E+00  0.68184698741E+03  0.68184698741E+03  0.00000000000E+00 0. -1.
         -1   -1    0    0    0  501 -0.00000000000E+00 -0.00000000000E+00 -0.57227819523E+03  0.57227819523E+03  0.00000000000E+00 0.  1.
         23    2    1    2    0    0  0.56719717234E+03 -0.20406232148E+03 -0.96323137383E+02  0.61714358949E+03  0.90741390204E+02 0.  0.
         11    1    3    3    0    0  0.20046235145E+03 -0.96753716375E+02 -0.73260046257E+02  0.23433623356E+03  0.00000000000E+00 0.  1.
        -11    1    3    3    0    0  0.36673482089E+03 -0.10730860510E+03 -0.23063091126E+02  0.38280735593E+03  0.00000000000E+00 0. -1.
         22    1    1    2    0    0 -0.56719717234E+03  0.20406232148E+03  0.20589192956E+03  0.63698159315E+03  0.00000000000E+00 0. -1.
<mgrwt>
<rscale>  0 0.12493297E+04</rscale>
<asrwt>0</asrwt>
<pdfrwt beam="1">  1        1 0.10489954E+00 0.12493297E+04</pdfrwt>
<pdfrwt beam="2">  1       -1 0.88042799E-01 0.12493297E+04</pdfrwt>
<totfact> 0.35469255E+01</totfact>
</mgrwt>
</event>
<event>
 6    1  0.1528034E-005  0.1045429E+04  0.7818608E-02  0.9260076E-01
          4   -1    0    0  501    0  0.00000000000E+00  0.00000000000E+00  0.91862217739E+02  0.91862217739E+02  0.00000000000E+00 0. -1.
         -4   -1    0    0    0  501 -0.00000000000E+00 -0.00000000000E+00 -0.29743517334E+04  0.29743517334E+04  0.00000000000E+00 0.  1.
         23    2    1    2    0    0  0.50086286822E+03  0.13107066414E+03 -0.15491125139E+04  0.16358512836E+04  0.90646068206E+02 0.  0.
         11    1    3    3    0    0  0.19134793441E+03  0.69337759844E+02 -0.73640642604E+03  0.76401320752E+03  0.00000000000E+00 0.  1.
        -11    1    3    3    0    0  0.30951493382E+03  0.61732904299E+02 -0.81270608785E+03  0.87183807611E+03  0.00000000000E+00 0. -1.
         22    1    1    2    0    0 -0.50086286822E+03 -0.13107066414E+03 -0.13333770018E+04  0.14303626675E+04  0.00000000000E+00 0. -1.
<mgrwt>
<rscale>  0 0.10454292E+04</rscale>
<asrwt>0</asrwt>
<pdfrwt beam="1">  1        4 0.14132650E-01 0.10454292E+04</pdfrwt>
<pdfrwt beam="2">  1       -4 0.45759254E+00 0.10454292E+04</pdfrwt>
<totfact> 0.23374828E-01</totfact>
</mgrwt>
</event>
<event>
 6    1  0.1528034E-005  0.4609262E+04  0.7818608E-02  0.7891783E-01
          2   -1    0    0  501    0  0.00000000000E+00  0.00000000000E+00  0.43450857319E+04  0.43450857319E+04  0.00000000000E+00 0.  1.
         -2   -1    0    0    0  501 -0.00000000000E+00 -0.00000000000E+00 -0.12223747597E+04  0.12223747597E+04  0.00000000000E+00 0. -1.
         23    2    1    2    0    0 -0.17741220728E+04 -0.13732851528E+04  0.21940419267E+04  0.31393238735E+04  0.90073114978E+02 0.  0.
         13    1    3    3    0    0 -0.64738521857E+03 -0.53890972647E+03  0.77926537110E+03  0.11475128902E+04  0.00000000000E+00 0. -1.
        -13    1    3    3    0    0 -0.11267368543E+04 -0.83437542630E+03  0.14147765556E+04  0.19918109833E+04  0.00000000000E+00 0.  1.
         22    1    1    2    0    0  0.17741220728E+04  0.13732851528E+04  0.92866904543E+03  0.24281366181E+04  0.00000000000E+00 0. -1.
<mgrwt>
<rscale>  0 0.46092616E+04</rscale>
<asrwt>0</asrwt>
<pdfrwt beam="1">  1        2 0.66847472E+00 0.46092616E+04</pdfrwt>
<pdfrwt beam="2">  1       -2 0.18805766E+00 0.46092616E+04</pdfrwt>
<totfact> 0.20557004E-02</totfact>
</mgrwt>
</event>
<event>
 6    1  0.1528034E-005  0.8822514E+03  0.7818608E-02  0.9448044E-01
          1   -1    0    0  501    0  0.00000000000E+00  0.00000000000E+00  0.53981348363E+03  0.53981348363E+03  0.00000000000E+00 0.  1.
         -1   -1    0    0    0  501 -0.00000000000E+00 -0.00000000000E+00 -0.36047985899E+03  0.36047985899E+03  0.00000000000E+00 0. -1.
         23    2    1    2    0    0  0.35647947884E+03 -0.81102263174E+02  0.33356264732E+03  0.50350399377E+03  0.92720203487E+02 0.  0.
         11    1    3    3    0    0  0.19489306411E+03 -0.18830860067E+02  0.12447820229E+03  0.23201881513E+03  0.00000000000E+00 0.  1.
        -11    1    3    3    0    0  0.16158641473E+03 -0.62271403108E+02  0.20908444503E+03  0.27148517864E+03  0.00000000000E+00 0. -1.
         22    1    1    2    0    0 -0.35647947884E+03  0.81102263174E+02 -0.15422902267E+03  0.39678934885E+03  0.00000000000E+00 0. -1.
<mgrwt>
<rscale>  0 0.88225141E+03</rscale>
<asrwt>0</asrwt>
<pdfrwt beam="1">  1        1 0.83048228E-01 0.88225141E+03</pdfrwt>
<pdfrwt beam="2">  1       -1 0.55458440E-01 0.88225141E+03</pdfrwt>
<totfact> 0.13207452E+02</totfact>
</mgrwt>
</event>
<event>
 6    1  0.1528034E-005  0.4016354E+04  0.7818608E-02  0.8001256E-01
         -1   -1    0    0    0  501 -0.00000000000E+00  0.00000000000E+00  0.26675198417E+04  0.26675198417E+04  0.00000000000E+00 0.  1.
          1   -1    0    0  501    0  0.00000000000E+00 -0.00000000000E+00 -0.15118068172E+04  0.15118068172E+04  0.00000000000E+00 0. -1.
         23    2    1    2    0    0 -0.10323119813E+04  0.72053621200E+03 -0.10485552000E+04  0.16408942951E+04  0.90695208053E+02 0.  0.
         13    1    3    3    0    0 -0.66318864332E+03  0.49155776430E+03 -0.73343215843E+03  0.11042513044E+04  0.00000000000E+00 0. -1.
        -13    1    3    3    0    0 -0.36912333793E+03  0.22897844770E+03 -0.31512304161E+03  0.53664299071E+03  0.00000000000E+00 0.  1.
         22    1    1    2    0    0  0.10323119813E+04 -0.72053621200E+03  0.22042682245E+04  0.25384323637E+04  0.00000000000E+00 0.  1.
<mgrwt>
<rscale>  0 0.40163539E+04</rscale>
<asrwt>0</asrwt>
<pdfrwt beam="1">  1        1 0.23258566E+00 0.40163539E+04</pdfrwt>
<pdfrwt beam="2">  1       -1 0.41038767E+00 0.40163539E+04</pdfrwt>
<totfact> 0.30446563E-02</totfact>
</mgrwt>
</event>
<event>
 6    1  0.1528034E-005  0.3215512E+04  0.7818608E-02  0.8184732E-01
         -2   -1    0    0    0  501 -0.00000000000E+00  0.00000000000E+00  0.13381881004E+04  0.13381881004E+04  0.00000000000E+00 0.  1.
          2   -1    0    0  501    0  0.00000000000E+00 -0.00000000000E+00 -0.19316264351E+04  0.19316264351E+04  0.00000000000E+00 0. -1.
         23    2    1    2    0    0  0.11381370694E+04 -0.34707123910E+03 -0.13946568755E+04  0.18353231330E+04  0.86768476088E+02 0.  0.
         11    1    3    3    0    0  0.44108630712E+03 -0.17854741122E+03 -0.56478017610E+03  0.73852078894E+03  0.00000000000E+00 0. -1.
        -11    1    3    3    0    0  0.69705076224E+03 -0.16852382788E+03 -0.82987669941E+03  0.10968023441E+04  0.00000000000E+00 0.  1.
         22    1    1    2    0    0 -0.11381370694E+04  0.34707123910E+03  0.80121854087E+03  0.14344914025E+04  0.00000000000E+00 0.  1.
<mgrwt>
<rscale>  0 0.32155121E+04</rscale>
<asrwt>0</asrwt>
<pdfrwt beam="1">  1        2 0.29717329E+00 0.32155121E+04</pdfrwt>
<pdfrwt beam="2">  1       -2 0.20587509E+00 0.32155121E+04</pdfrwt>
<totfact> 0.74677891E-01</totfact>
</mgrwt>
</event>
<event>
 6    1  0.1528034E-005  0.2145826E+04  0.7818608E-02  0.8541321E-01
         -2   -1    0    0    0  501 -0.00000000000E+00  0.00000000000E+00  0.12278683940E+04  0.12278683940E+04  0.00000000000E+00 0. -1.
          2   -1    0    0  501    0  0.00000000000E+00 -0.00000000000E+00 -0.93751287681E+03  0.93751287681E+03  0.00000000000E+00 0.  1.
         23    2    1    2    0    0  0.71454053931E+03 -0.44458763173E+03 -0.52293286657E+03  0.99505467547E+03  0.91916699495E+02 0.  0.
         11    1    3    3    0    0  0.13159093155E+03 -0.10168474940E+03 -0.66395743759E+02  0.17906522922E+03  0.00000000000E+00 0.  1.
        -11    1    3    3    0    0  0.58294960776E+03 -0.34290288233E+03 -0.45653712281E+03  0.81598944626E+03  0.00000000000E+00 0. -1.
         22    1    1    2    0    0 -0.71454053931E+03  0.44458763173E+03  0.81328838374E+03  0.11703265953E+04  0.00000000000E+00 0. -1.
<mgrwt>
<rscale>  0 0.21458261E+04</rscale>
<asrwt>0</asrwt>
<pdfrwt beam="1">  1        2 0.14423275E+00 0.21458261E+04</pdfrwt>
<pdfrwt beam="2">  1       -2 0.18890283E+00 0.21458261E+04</pdfrwt>
<totfact> 0.40040916E+00</totfact>
</mgrwt>
</event>
<event>
 6    1  0.1528034E-005  0.1536968E+04  0.7818608E-02  0.8860235E-01
          1   -1    0    0  501    0  0.00000000000E+00  0.00000000000E+00  0.18798483711E+04  0.18798483711E+04  0.00000000000E+00 0. -1.
         -1   -1    0    0    0  501 -0.00000000000E+00 -0.00000000000E+00 -0.31415686861E+03  0.31415686861E+03  0.00000000000E+00 0.  1.
         23    2    1    2    0    0  0.48152326202E+03  0.47163982341E+03  0.13046054897E+04  0.14711811387E+04  0.89831420719E+02 0.  0.
         13    1    3    3    0    0  0.26601214639E+03  0.26242372330E+03  0.81857909221E+03  0.89983354171E+03  0.00000000000E+00 0.  1.
        -13    1    3    3    0    0  0.21551111564E+03  0.20921610012E+03  0.48602639752E+03  0.57134759700E+03  0.00000000000E+00 0. -1.
         22    1    1    2    0    0 -0.48152326202E+03 -0.47163982341E+03  0.26108601271E+03  0.72282410096E+03  0.00000000000E+00 0.  1.
<mgrwt>
<rscale>  0 0.15369675E+04</rscale>
<asrwt>0</asrwt>
<pdfrwt beam="1">  1        1 0.28920743E+00 0.15369675E+04</pdfrwt>
<pdfrwt beam="2">  1       -1 0.48331827E-01 0.15369675E+04</pdfrwt>
<totfact> 0.14851060E+01</totfact>
</mgrwt>
</event>
<event>
 6    1  0.1528034E-005  0.1635432E+04  0.7818608E-02  0.8799071E-01
          2   -1    0    0  501    0  0.00000000000E+00  0.00000000000E+00  0.10739075646E+04  0.10739075646E+04  0.00000000000E+00 0.  1.
         -2   -1    0    0    0  501 -0.00000000000E+00 -0.00000000000E+00 -0.62264179492E+03  0.62264179492E+03  0.00000000000E+00 0. -1.
         23    2    1    2    0    0 -0.74940931387E+03  0.28569558174E+03  0.75405024611E+02  0.81082503172E+03  0.92276915786E+02 0.  0.
         13    1    3    3    0    0 -0.27344451535E+03  0.12744284349E+03  0.67673017842E+02  0.30918153029E+03  0.00000000000E+00 0.  1.
        -13    1    3    3    0    0 -0.47596479852E+03  0.15825273825E+03  0.77320067688E+01  0.50164350143E+03  0.00000000000E+00 0. -1.
         22    1    1    2    0    0  0.74940931387E+03 -0.28569558174E+03  0.37586074504E+03  0.88572432777E+03  0.00000000000E+00 0. -1.
<mgrwt>
<rscale>  0 0.16354323E+04</rscale>
<asrwt>0</asrwt>
<pdfrwt beam="1">  1        2 0.16521655E+00 0.16354323E+04</pdfrwt>
<pdfrwt beam="2">  1       -2 0.95791045E-01 0.16354323E+04</pdfrwt>
<totfact> 0.19772551E+01</totfact>
</mgrwt>
</event>
<event>
 6    1  0.1528034E-005  0.1945985E+04  0.7818608E-02  0.8632299E-01
         -2   -1    0    0    0  501 -0.00000000000E+00  0.00000000000E+00  0.53517342331E+03  0.53517342331E+03  0.00000000000E+00 0.  1.
          2   -1    0    0  501    0  0.00000000000E+00 -0.00000000000E+00 -0.17689869345E+04  0.17689869345E+04  0.00000000000E+00 0. -1.
         23    2    1    2    0    0  0.96164864399E+03 -0.67827777247E+02 -0.48389180383E+03  0.10827876510E+04  0.94388015404E+02 0.  0.
         13    1    3    3    0    0  0.73634030568E+03 -0.54576764509E+02 -0.41405388145E+03  0.84653191655E+03  0.00000000000E+00 0.  1.
        -13    1    3    3    0    0  0.22530833831E+03 -0.13251012738E+02 -0.69837922386E+02  0.23625573443E+03  0.00000000000E+00 0. -1.
         22    1    1    2    0    0 -0.96164864399E+03  0.67827777247E+02 -0.74992170741E+03  0.12213727069E+04  0.00000000000E+00 0. -1.
<mgrwt>
<rscale>  0 0.19459854E+04</rscale>
<asrwt>0</asrwt>
<pdfrwt beam="1">  1        2 0.27215184E+00 0.19459854E+04</pdfrwt>
<pdfrwt beam="2">  1       -2 0.82334371E-01 0.19459854E+04</pdfrwt>
<totfact> 0.10851099E+01</totfact>
</mgrwt>
</event>
<event>
 6    1  0.1528034E-005  0.2780231E+04  0.7818608E-02  0.8309432E-01
          1   -1    0    0  501    0  0.00000000000E+00  0.00000000000E+00  0.16890923490E+04  0.16890923490E+04  0.00000000000E+00 0. -1.
         -1   -1    0    0    0  501 -0.00000000000E+00 -0.00000000000E+00 -0.11440586225E+04  0.11440586225E+04  0.00000000000E+00 0.  1.
         23    2    1    2    0    0  0.38761504080E+03 -0.13321394965E+04  0.21388231964E+03  0.14067911598E+04  0.92057930830E+02 0.  0.
         11    1    3    3    0    0  0.18710999675E+03 -0.80423118893E+03  0.13104806773E+03  0.83604518550E+03  0.00000000000E+00 0. -1.
        -11    1    3    3    0    0  0.20050504405E+03 -0.52790830761E+03  0.82834251906E+02  0.57074597434E+03  0.00000000000E+00 0.  1.
         22    1    1    2    0    0 -0.38761504080E+03  0.13321394965E+04  0.33115140690E+03  0.14263598117E+04  0.00000000000E+00 0. -1.
<mgrwt>
<rscale>  0 0.27802307E+04</rscale>
<asrwt>0</asrwt>
<pdfrwt beam="1">  1        1 0.25986036E+00 0.27802307E+04</pdfrwt>
<pdfrwt beam="2">  1       -1 0.17600902E+00 0.27802307E+04</pdfrwt>
<totfact> 0.93511768E-01</totfact>
</mgrwt>
</event>
<event>
 6    1  0.1528034E-005  0.3125505E+04  0.7818608E-02  0.8208773E-01
         -1   -1    0    0    0  501 -0.00000000000E+00  0.00000000000E+00  0.12146717161E+04  0.12146717161E+04  0.00000000000E+00 0.  1.
          1   -1    0    0  501    0  0.00000000000E+00 -0.00000000000E+00 -0.20105805026E+04  0.20105805026E+04  0.00000000000E+00 0. -1.
         23    2    1    2    0    0 -0.10135691920E+04 -0.86764030599E+03  0.43864992842E+03  0.14074905654E+04  0.92161404644E+02 0.  0.
         13    1    3    3    0    0 -0.54652902429E+03 -0.52051280728E+03  0.22443018902E+03  0.78739854374E+03  0.00000000000E+00 0. -1.
        -13    1    3    3    0    0 -0.46704016766E+03 -0.34712749871E+03  0.21421973940E+03  0.62009202165E+03  0.00000000000E+00 0.  1.
         22    1    1    2    0    0  0.10135691920E+04  0.86764030599E+03 -0.12345587149E+04  0.18177616533E+04  0.00000000000E+00 0. -1.
<mgrwt>
<rscale>  0 0.31255049E+04</rscale>
<asrwt>0</asrwt>
<pdfrwt beam="1">  1        1 0.30932008E+00 0.31255049E+04</pdfrwt>
<pdfrwt beam="2">  1       -1 0.18687257E+00 0.31255049E+04</pdfrwt>
<totfact> 0.45880376E-01</totfact>
</mgrwt>
</event>
<event>
 6    1  0.1624684E-005  0.3325648E+04  0.7818608E-02  0.8156400E-01
          2   -1    0    0  501    0  0.00000000000E+00  0.00000000000E+00  0.31358572520E+04  0.31358572520E+04  0.00000000000E+00 0.  1.
         -2   -1    0    0    0  501 -0.00000000000E+00 -0.00000000000E+00 -0.88173121578E+03  0.88173121578E+03  0.00000000000E+00 0. -1.
         23    2    1    2    0    0 -0.14567543145E+04 -0.28664357389E+03  0.20291363694E+04  0.25159500221E+04  0.91172565237E+02 0.  0.
         13    1    3    3    0    0 -0.27749100639E+03 -0.90817711474E+02  0.38692796740E+03  0.48472916903E+03  0.00000000000E+00 0. -1.
        -13    1    3    3    0    0 -0.11792633081E+04 -0.19582586242E+03  0.16422084020E+04  0.20312208531E+04  0.00000000000E+00 0.  1.
         22    1    1    2    0    0  0.14567543145E+04  0.28664357389E+03  0.22498966674E+03  0.15016384456E+04  0.00000000000E+00 0. -1.
<mgrwt>
<rscale>  0 0.33256477E+04</rscale>
<asrwt>0</asrwt>
<pdfrwt beam="1">  1        2 0.48243957E+00 0.33256477E+04</pdfrwt>
<pdfrwt beam="2">  1       -2 0.13565096E+00 0.33256477E+04</pdfrwt>
<totfact> 0.46310516E-01</totfact>
</mgrwt>
</event>
<event>
 6    1  0.1528034E-005  0.1644660E+04  0.7818608E-02  0.8793572E-01
          2   -1    0    0  501    0  0.00000000000E+00  0.00000000000E+00  0.16684116948E+04  0.16684116948E+04  0.00000000000E+00 0.  1.
         -2   -1    0    0    0  501 -0.00000000000E+00 -0.00000000000E+00 -0.40531181993E+03  0.40531181993E+03  0.00000000000E+00 0. -1.
         23    2    1    2    0    0 -0.43609860884E+03 -0.15267617848E+03 -0.22026323250E+03  0.52006392510E+03  0.91970552289E+02 0.  0.
         13    1    3    3    0    0 -0.27917458757E+03 -0.63342151037E+02 -0.10055465186E+03  0.30341706684E+03  0.00000000000E+00 0.  1.
        -13    1    3    3    0    0 -0.15692402128E+03 -0.89334027443E+02 -0.11970858065E+03  0.21664685826E+03  0.00000000000E+00 0. -1.
         22    1    1    2    0    0  0.43609860884E+03  0.15267617848E+03  0.14833631074E+04  0.15536595896E+04  0.00000000000E+00 0.  1.
<mgrwt>
<rscale>  0 0.16446604E+04</rscale>
<asrwt>0</asrwt>
<pdfrwt beam="1">  1        2 0.25667872E+00 0.16446604E+04</pdfrwt>
<pdfrwt beam="2">  1       -2 0.62355665E-01 0.16446604E+04</pdfrwt>
<totfact> 0.23287316E+01</totfact>
</mgrwt>
</event>
<event>
 6    1  0.1528034E-005  0.1811522E+04  0.7818608E-02  0.8700196E-01
         -2   -1    0    0    0  501 -0.00000000000E+00  0.00000000000E+00  0.11193106445E+04  0.11193106445E+04  0.00000000000E+00 0.  1.
          2   -1    0    0  501    0  0.00000000000E+00 -0.00000000000E+00 -0.73295373535E+03  0.73295373535E+03  0.00000000000E+00 0. -1.
         23    2    1    2    0    0  0.16006470204E+03  0.64419786335E+03  0.82027639501E+03  0.10592336641E+04  0.92255053975E+02 0.  0.
         11    1    3    3    0    0  0.12840489981E+03  0.34825301868E+03  0.48858993534E+03  0.61358626796E+03  0.00000000000E+00 0. -1.
        -11    1    3    3    0    0  0.31659802235E+02  0.29594484467E+03  0.33168645967E+03  0.44564739614E+03  0.00000000000E+00 0.  1.
         22    1    1    2    0    0 -0.16006470204E+03 -0.64419786335E+03 -0.43391948582E+03  0.79303071577E+03  0.00000000000E+00 0. -1.
<mgrwt>
<rscale>  0 0.18115219E+04</rscale>
<asrwt>0</asrwt>
<pdfrwt beam="1">  1        2 0.11276211E+00 0.18115219E+04</pdfrwt>
<pdfrwt beam="2">  1       -2 0.17220164E+00 0.18115219E+04</pdfrwt>
<totfact> 0.74871438E+00</totfact>
</mgrwt>
</event>
<event>
 6    1  0.1528034E-005  0.8438180E+03  0.7818608E-02  0.9498672E-01
         -2   -1    0    0    0  501 -0.00000000000E+00  0.00000000000E+00  0.96441403350E+02  0.96441403350E+02  0.00000000000E+00 0.  1.
          2   -1    0    0  501    0  0.00000000000E+00 -0.00000000000E+00 -0.18457548837E+04  0.18457548837E+04  0.00000000000E+00 0. -1.
         23    2    1    2    0    0 -0.95691793940E+02  0.13150872123E+03 -0.17687328057E+04  0.17784019850E+04  0.88580014068E+02 0.  0.
         13    1    3    3    0    0  0.15692179522E+02  0.21627742351E+02 -0.36489329734E+03  0.36587036253E+03  0.00000000000E+00 0.  1.
        -13    1    3    3    0    0 -0.11138397346E+03  0.10988097888E+03 -0.14038395084E+04  0.14125316224E+04  0.00000000000E+00 0. -1.
         22    1    1    2    0    0  0.95691793940E+02 -0.13150872123E+03  0.19419325401E+02  0.16379430206E+03  0.00000000000E+00 0.  1.
<mgrwt>
<rscale>  0 0.84381797E+03</rscale>
<asrwt>0</asrwt>
<pdfrwt beam="1">  1        2 0.28396228E+00 0.84381797E+03</pdfrwt>
<pdfrwt beam="2">  1       -2 0.14837140E-01 0.84381797E+03</pdfrwt>
<totfact> 0.29425084E+02</totfact>
</mgrwt>
</event>
<event>
 6    1  0.1528034E-005  0.1059235E+04  0.7818608E-02  0.9245861E-01
         -2   -1    0    0    0  501 -0.00000000000E+00  0.00000000000E+00  0.28266214750E+03  0.28266214750E+03  0.00000000000E+00 0.  1.
          2   -1    0    0  501    0  0.00000000000E+00 -0.00000000000E+00 -0.99233220672E+03  0.99233220672E+03  0.00000000000E+00 0. -1.
         23    2    1    2    0    0  0.49986285245E+03 -0.92114453309E+02 -0.19924755744E+03  0.55466174070E+03  0.97990375426E+02 0.  0.
         11    1    3    3    0    0  0.27796536488E+03 -0.62397800517E+02 -0.60377599228E+02  0.29121072108E+03  0.00000000000E+00 0.  1.
        -11    1    3    3    0    0  0.22189748758E+03 -0.29716652792E+02 -0.13886995821E+03  0.26345101962E+03  0.00000000000E+00 0. -1.
         22    1    1    2    0    0 -0.49986285245E+03  0.92114453309E+02 -0.51042250178E+03  0.72033261352E+03  0.00000000000E+00 0.  1.
<mgrwt>
<rscale>  0 0.10592351E+04</rscale>
<asrwt>0</asrwt>
<pdfrwt beam="1">  1        2 0.15266649E+00 0.10592351E+04</pdfrwt>
<pdfrwt beam="2">  1       -2 0.43486484E-01 0.10592351E+04</pdfrwt>
<totfact> 0.12706128E+02</totfact>
</mgrwt>
</event>
<event>
 6    1  0.1528034E-005  0.4234830E+04  0.7818608E-02  0.7958780E-01
         -1   -1    0    0    0  501 -0.00000000000E+00  0.00000000000E+00  0.14042326410E+04  0.14042326410E+04  0.00000000000E+00 0.  1.
          1   -1    0    0  501    0  0.00000000000E+00 -0.00000000000E+00 -0.31928094390E+04  0.31928094390E+04  0.00000000000E+00 0. -1.
         23    2    1    2    0    0 -0.13386976098E+04 -0.12139513457E+04  0.30123517241E+03  0.18342349511E+04  0.88803528471E+02 0.  0.
         13    1    3    3    0    0 -0.72620823128E+03 -0.65791921107E+03  0.20816234940E+03  0.10017822354E+04  0.00000000000E+00 0. -1.
        -13    1    3    3    0    0 -0.61248937854E+03 -0.55603213460E+03  0.93072823006E+02  0.83245271572E+03  0.00000000000E+00 0.  1.
         22    1    1    2    0    0  0.13386976098E+04  0.12139513457E+04 -0.20898119704E+04  0.27628071290E+04  0.00000000000E+00 0. -1.
<mgrwt>
<rscale>  0 0.42348304E+04</rscale>
<asrwt>0</asrwt>
<pdfrwt beam="1">  1        1 0.49120145E+00 0.42348304E+04</pdfrwt>
<pdfrwt beam="2">  1       -1 0.21603579E+00 0.42348304E+04</pdfrwt>
<totfact> 0.38640314E-02</totfact>
</mgrwt>
</event>
<event>
 6    1  0.1528034E-005  0.5081100E+04  0.7818608E-02  0.7816117E-01
          2   -1    0    0  501    0  0.00000000000E+00  0.00000000000E+00  0.30413396092E+04  0.30413396092E+04  0.00000000000E+00 0. -1.
         -2   -1    0    0    0  501 -0.00000000000E+00 -0.00000000000E+00 -0.21222207428E+04  0.21222207428E+04  0.00000000000E+00 0.  1.
         23    2    1    2    0    0 -0.24185432224E+04 -0.77370489976E+03  0.50968718090E+03  0.25914785307E+04  0.89495038051E+02 0.  0.
         13    1    3    3    0    0 -0.35904044397E+03 -0.13004349712E+03  0.10592759124E+03  0.39628525854E+03  0.00000000000E+00 0.  1.
        -13    1    3    3    0    0 -0.20595027785E+04 -0.64366140264E+03  0.40375958966E+03  0.21951932721E+04  0.00000000000E+00 0. -1.
         22    1    1    2    0    0  0.24185432224E+04  0.77370489976E+03  0.40943168543E+03  0.25720818214E+04  0.00000000000E+00 0.  1.
<mgrwt>
<rscale>  0 0.50810999E+04</rscale>
<asrwt>0</asrwt>
<pdfrwt beam="1">  1        2 0.46789840E+00 0.50810999E+04</pdfrwt>
<pdfrwt beam="2">  1       -2 0.32649550E+00 0.50810999E+04</pdfrwt>
<totfact> 0.25875225E-02</totfact>
</mgrwt>
</event>
<event>
 6    1  0.1528034E-005  0.2289471E+04  0.7818608E-02  0.8482084E-01
         -2   -1    0    0    0  501 -0.00000000000E+00  0.00000000000E+00  0.56832399909E+03  0.56832399909E+03  0.00000000000E+00 0.  1.
          2   -1    0    0  501    0  0.00000000000E+00 -0.00000000000E+00 -0.23057605245E+04  0.23057605245E+04  0.00000000000E+00 0. -1.
         23    2    1    2    0    0 -0.99731058545E+03 -0.21929818420E+03 -0.22498690034E+03  0.10491943993E+04  0.86427337744E+02 0.  0.
         13    1    3    3    0    0 -0.51066249860E+03 -0.13440662375E+03 -0.77931535508E+02  0.53377397108E+03  0.00000000000E+00 0.  1.
        -13    1    3    3    0    0 -0.48664808685E+03 -0.84891560444E+02 -0.14705536483E+03  0.51542042819E+03  0.00000000000E+00 0. -1.
         22    1    1    2    0    0  0.99731058545E+03  0.21929818420E+03 -0.15124496251E+04  0.18248901243E+04  0.00000000000E+00 0.  1.
<mgrwt>
<rscale>  0 0.22894707E+04</rscale>
<asrwt>0</asrwt>
<pdfrwt beam="1">  1        2 0.35473239E+00 0.22894707E+04</pdfrwt>
<pdfrwt beam="2">  1       -2 0.87434462E-01 0.22894707E+04</pdfrwt>
<totfact> 0.46112948E+00</totfact>
</mgrwt>
</event>
<event>
 6    1  0.1528034E-005  0.2270469E+04  0.7818608E-02  0.8489657E-01
          2   -1    0    0  501    0  0.00000000000E+00  0.00000000000E+00  0.22415395533E+04  0.22415395533E+04  0.00000000000E+00 0. -1.
         -2   -1    0    0    0  501 -0.00000000000E+00 -0.00000000000E+00 -0.57494305475E+03  0.57494305475E+03  0.00000000000E+00 0.  1.
         23    2    1    2    0    0  0.18243121312E+03  0.69179493807E+03  0.19253514619E+04  0.20556833474E+04  0.83632464067E+02 0.  0.
         11    1    3    3    0    0  0.44826562636E+02  0.79700912700E+02  0.29227185047E+03  0.30624253588E+03  0.00000000000E+00 0. -1.
        -11    1    3    3    0    0  0.13760465049E+03  0.61209402537E+03  0.16330796114E+04  0.17494408115E+04  0.00000000000E+00 0.  1.
         22    1    1    2    0    0 -0.18243121312E+03 -0.69179493807E+03 -0.25875496340E+03  0.76079926061E+03  0.00000000000E+00 0.  1.
<mgrwt>
<rscale>  0 0.22704692E+04</rscale>
<asrwt>0</asrwt>
<pdfrwt beam="1">  1        2 0.34485223E+00 0.22704692E+04</pdfrwt>
<pdfrwt beam="2">  1       -2 0.88452779E-01 0.22704692E+04</pdfrwt>
<totfact> 0.48900711E+00</totfact>
</mgrwt>
</event>
<event>
 6    1  0.1528034E-005  0.2259150E+04  0.7818608E-02  0.8494204E-01
          1   -1    0    0  501    0  0.00000000000E+00  0.00000000000E+00  0.22624293852E+04  0.22624293852E+04  0.00000000000E+00 0. -1.
         -1   -1    0    0    0  501 -0.00000000000E+00 -0.00000000000E+00 -0.56396886073E+03  0.56396886073E+03  0.00000000000E+00 0.  1.
         23    2    1    2    0    0 -0.26647260749E+03 -0.50830938092E+03  0.20650484735E+04  0.21453895810E+04  0.94261228290E+02 0.  0.
         13    1    3    3    0    0 -0.64977412432E+02 -0.16155991974E+03  0.78062769651E+03  0.79981452372E+03  0.00000000000E+00 0.  1.
        -13    1    3    3    0    0 -0.20149519506E+03 -0.34674946119E+03  0.12844207770E+04  0.13455750573E+04  0.00000000000E+00 0. -1.
         22    1    1    2    0    0  0.26647260749E+03  0.50830938092E+03 -0.36658794904E+03  0.68100866490E+03  0.00000000000E+00 0.  1.
<mgrwt>
<rscale>  0 0.22591500E+04</rscale>
<asrwt>0</asrwt>
<pdfrwt beam="1">  1        1 0.34806605E+00 0.22591500E+04</pdfrwt>
<pdfrwt beam="2">  1       -1 0.86764441E-01 0.22591500E+04</pdfrwt>
<totfact> 0.23445972E+00</totfact>
</mgrwt>
</event>
<event>
 6    1  0.1528034E-005  0.2178246E+04  0.7818608E-02  0.8527537E-01
         -2   -1    0    0    0  501 -0.00000000000E+00  0.00000000000E+00  0.54837985189E+03  0.54837985189E+03  0.00000000000E+00 0.  1.
          2   -1    0    0  501    0  0.00000000000E+00 -0.00000000000E+00 -0.21630790650E+04  0.21630790650E+04  0.00000000000E+00 0. -1.
         23    2    1    2    0    0 -0.47834534967E+02 -0.94094218758E+03 -0.13316639424E+03  0.95572549849E+03  0.89541034152E+02 0.  0.
         11    1    3    3    0    0 -0.38193155648E+02 -0.31587874740E+03 -0.85865592403E+01  0.31829519191E+03  0.00000000000E+00 0. -1.
        -11    1    3    3    0    0 -0.96413793191E+01 -0.62506344019E+03 -0.12457983500E+03  0.63743030658E+03  0.00000000000E+00 0.  1.
         22    1    1    2    0    0  0.47834534967E+02  0.94094218758E+03 -0.14815328189E+04  0.17557334184E+04  0.00000000000E+00 0. -1.
<mgrwt>
<rscale>  0 0.21782461E+04</rscale>
<asrwt>0</asrwt>
<pdfrwt beam="1">  1        2 0.33278140E+00 0.21782461E+04</pdfrwt>
<pdfrwt beam="2">  1       -2 0.84366130E-01 0.21782461E+04</pdfrwt>
<totfact> 0.60782582E+00</totfact>
</mgrwt>
</event>
<event>
 6    1  0.1528034E-005  0.1430783E+04  0.7818608E-02  0.8931833E-01
          2   -1    0    0  501    0  0.00000000000E+00  0.00000000000E+00  0.81786015815E+03  0.81786015815E+03  0.00000000000E+00 0. -1.
         -2   -1    0    0    0  501 -0.00000000000E+00 -0.00000000000E+00 -0.62576066260E+03  0.62576066260E+03  0.00000000000E+00 0.  1.
         23    2    1    2    0    0 -0.10868757320E+03 -0.70274699714E+03  0.10192071649E+03  0.72682339975E+03  0.11053547585E+03 0.  0.
         11    1    3    3    0    0 -0.11851385922E+03 -0.44536153799E+03  0.85525368773E+02  0.46872915746E+03  0.00000000000E+00 0. -1.
        -11    1    3    3    0    0  0.98262860204E+01 -0.25738545915E+03  0.16395347714E+02  0.25809424229E+03  0.00000000000E+00 0.  1.
         22    1    1    2    0    0  0.10868757320E+03  0.70274699714E+03  0.90178779068E+02  0.71679742100E+03  0.00000000000E+00 0. -1.
<mgrwt>
<rscale>  0 0.14307826E+04</rscale>
<asrwt>0</asrwt>
<pdfrwt beam="1">  1        2 0.12582464E+00 0.14307826E+04</pdfrwt>
<pdfrwt beam="2">  1       -2 0.96270871E-01 0.14307826E+04</pdfrwt>
<totfact> 0.29348955E+01</totfact>
</mgrwt>
</event>
<event>
 6    1  0.1528034E-005  0.2721282E+04  0.7818608E-02  0.8328133E-01
         -1   -1    0    0    0  501 -0.00000000000E+00  0.00000000000E+00  0.10517496632E+04  0.10517496632E+04  0.00000000000E+00 0.  1.
          1   -1    0    0  501    0  0.00000000000E+00 -0.00000000000E+00 -0.17602514427E+04  0.17602514427E+04  0.00000000000E+00 0. -1.
         23    2    1    2    0    0 -0.99381279966E+01  0.42490976946E+03  0.97929383849E+03  0.10715123451E+04  0.92060876362E+02 0.  0.
         11    1    3    3    0    0  0.40282687059E+02  0.21644396432E+03  0.47648148875E+03  0.52488598161E+03  0.00000000000E+00 0.  1.
        -11    1    3    3    0    0 -0.50220815056E+02  0.20846580514E+03  0.50281234974E+03  0.54662636346E+03  0.00000000000E+00 0. -1.
         22    1    1    2    0    0  0.99381279966E+01 -0.42490976946E+03 -0.16877956180E+04  0.17404887609E+04  0.00000000000E+00 0. -1.
<mgrwt>
<rscale>  0 0.27212819E+04</rscale>
<asrwt>0</asrwt>
<pdfrwt beam="1">  1        1 0.27080791E+00 0.27212819E+04</pdfrwt>
<pdfrwt beam="2">  1       -1 0.16180764E+00 0.27212819E+04</pdfrwt>
<totfact> 0.10701470E+00</totfact>
</mgrwt>
</event>
<event>
 6    1  0.1528034E-005  0.1414260E+04  0.7818608E-02  0.8943561E-01
         -1   -1    0    0    0  501 -0.00000000000E+00  0.00000000000E+00  0.27780493541E+03  0.27780493541E+03  0.00000000000E+00 0.  1.
          1   -1    0    0  501    0  0.00000000000E+00 -0.00000000000E+00 -0.17999421620E+04  0.17999421620E+04  0.00000000000E+00 0. -1.
         23    2    1    2    0    0 -0.54712586983E+03 -0.36780050241E+02 -0.14131720453E+04  0.15186649029E+04  0.92673448692E+02 0.  0.
         11    1    3    3    0    0 -0.87149456288E+02 -0.19150458150E+02 -0.32753527352E+03  0.33947182973E+03  0.00000000000E+00 0. -1.
        -11    1    3    3    0    0 -0.45997641354E+03 -0.17629592091E+02 -0.10856367718E+04  0.11791930731E+04  0.00000000000E+00 0.  1.
         22    1    1    2    0    0  0.54712586983E+03  0.36780050241E+02 -0.10896518131E+03  0.55908219455E+03  0.00000000000E+00 0.  1.
<mgrwt>
<rscale>  0 0.14142600E+04</rscale>
<asrwt>0</asrwt>
<pdfrwt beam="1">  1        1 0.27691418E+00 0.14142600E+04</pdfrwt>
<pdfrwt beam="2">  1       -1 0.42739220E-01 0.14142600E+04</pdfrwt>
<totfact> 0.21399210E+01</totfact>
</mgrwt>
</event>
<event>
 6    1  0.1528034E-005  0.2096141E+04  0.7818608E-02  0.8562945E-01
         -1   -1    0    0    0  501 -0.00000000000E+00  0.00000000000E+00  0.14575960681E+04  0.14575960681E+04  0.00000000000E+00 0.  1.
          1   -1    0    0  501    0  0.00000000000E+00 -0.00000000000E+00 -0.75360486557E+03  0.75360486557E+03  0.00000000000E+00 0. -1.
         23    2    1    2    0    0 -0.55119185809E+03 -0.59817186608E+03 -0.34132080829E+03  0.88670131277E+03  0.90095938336E+02 0.  0.
         13    1    3    3    0    0 -0.15800705217E+03 -0.21671002222E+03 -0.14412912367E+03  0.30447112598E+03  0.00000000000E+00 0.  1.
        -13    1    3    3    0    0 -0.39318480592E+03 -0.38146184386E+03 -0.19719168462E+03  0.58223018679E+03  0.00000000000E+00 0. -1.
         22    1    1    2    0    0  0.55119185809E+03  0.59817186608E+03  0.10453120108E+04  0.13244996209E+04  0.00000000000E+00 0.  1.
<mgrwt>
<rscale>  0 0.20961407E+04</rscale>
<asrwt>0</asrwt>
<pdfrwt beam="1">  1        1 0.11593921E+00 0.20961407E+04</pdfrwt>
<pdfrwt beam="2">  1       -1 0.22424555E+00 0.20961407E+04</pdfrwt>
<totfact> 0.23052000E+00</totfact>
</mgrwt>
</event>
<event>
 6    1  0.1528034E-005  0.2035109E+04  0.7818608E-02  0.8590380E-01
          1   -1    0    0  501    0  0.00000000000E+00  0.00000000000E+00  0.66639575854E+03  0.66639575854E+03  0.00000000000E+00 0. -1.
         -1   -1    0    0    0  501 -0.00000000000E+00 -0.00000000000E+00 -0.15537576742E+04  0.15537576742E+04  0.00000000000E+00 0.  1.
         23    2    1    2    0    0 -0.72708685722E+02 -0.85683904761E+02 -0.15457057999E+04  0.15522874624E+04  0.88100293353E+02 0.  0.
         13    1    3    3    0    0 -0.37338874290E+02 -0.79340572206E+02 -0.65330954377E+03  0.65916801948E+03  0.00000000000E+00 0. -1.
        -13    1    3    3    0    0 -0.35369811432E+02 -0.63433325555E+01 -0.89239625611E+03  0.89311944294E+03  0.00000000000E+00 0.  1.
         22    1    1    2    0    0  0.72708685722E+02  0.85683904761E+02  0.65834388419E+03  0.66786597036E+03  0.00000000000E+00 0. -1.
<mgrwt>
<rscale>  0 0.20351094E+04</rscale>
<asrwt>0</asrwt>
<pdfrwt beam="1">  1        1 0.10252243E+00 0.20351094E+04</pdfrwt>
<pdfrwt beam="2">  1       -1 0.23903964E+00 0.20351094E+04</pdfrwt>
<totfact> 0.22324350E+00</totfact>
</mgrwt>
</event>
<event>
 6    1  0.1528034E-005  0.1999570E+04  0.7818608E-02  0.8606822E-01
          2   -1    0    0  501    0  0.00000000000E+00  0.00000000000E+00  0.24723291881E+04  0.24723291881E+04  0.00000000000E+00 0. -1.
         -2   -1    0    0    0  501 -0.00000000000E+00 -0.00000000000E+00 -0.40430291830E+03  0.40430291830E+03  0.00000000000E+00 0.  1.
         23    2    1    2    0    0 -0.88639967793E+03 -0.23595595457E+03  0.47159180162E+03  0.10354415642E+04  0.91437432082E+02 0.  0.
         13    1    3    3    0    0 -0.51280671212E+03 -0.11707598261E+03  0.31614353012E+03  0.61369719026E+03  0.00000000000E+00 0.  1.
        -13    1    3    3    0    0 -0.37359296581E+03 -0.11887997195E+03  0.15544827150E+03  0.42174437394E+03  0.00000000000E+00 0. -1.
         22    1    1    2    0    0  0.88639967793E+03  0.23595595457E+03  0.15964344682E+04  0.18411905422E+04  0.00000000000E+00 0. -1.
<mgrwt>
<rscale>  0 0.19995699E+04</rscale>
<asrwt>0</asrwt>
<pdfrwt beam="1">  1        2 0.38035833E+00 0.19995699E+04</pdfrwt>
<pdfrwt beam="2">  1       -2 0.62200450E-01 0.19995699E+04</pdfrwt>
<totfact> 0.80549916E+00</totfact>
</mgrwt>
</event>
<event>
 6    1  0.1528034E-005  0.1494922E+04  0.7818608E-02  0.8887837E-01
          2   -1    0    0  501    0  0.00000000000E+00  0.00000000000E+00  0.42420184491E+03  0.42420184491E+03  0.00000000000E+00 0. -1.
         -2   -1    0    0    0  501 -0.00000000000E+00 -0.00000000000E+00 -0.13170572513E+04  0.13170572513E+04  0.00000000000E+00 0.  1.
         23    2    1    2    0    0  0.29646450739E+03  0.15240326237E+03  0.32758057617E+03  0.47611801868E+03  0.90892108071E+02 0.  0.
         13    1    3    3    0    0  0.91556438291E+02  0.54320953866E+02  0.16652728554E+03  0.19764787945E+03  0.00000000000E+00 0. -1.
        -13    1    3    3    0    0  0.20490806910E+03  0.98082308501E+02  0.16105329063E+03  0.27847013923E+03  0.00000000000E+00 0.  1.
         22    1    1    2    0    0 -0.29646450739E+03 -0.15240326237E+03 -0.12204359825E+04  0.12651410775E+04  0.00000000000E+00 0.  1.
<mgrwt>
<rscale>  0 0.14949222E+04</rscale>
<asrwt>0</asrwt>
<pdfrwt beam="1">  1        2 0.65261822E-01 0.14949222E+04</pdfrwt>
<pdfrwt beam="2">  1       -2 0.20262419E+00 0.14949222E+04</pdfrwt>
<totfact> 0.91835729E+00</totfact>
</mgrwt>
</event>
<event>
 6    1  0.1528034E-005  0.1739022E+04  0.7818608E-02  0.8739417E-01
         -1   -1    0    0    0  501 -0.00000000000E+00  0.00000000000E+00  0.32879123079E+03  0.32879123079E+03  0.00000000000E+00 0.  1.
          1   -1    0    0  501    0  0.00000000000E+00 -0.00000000000E+00 -0.22994809590E+04  0.22994809590E+04  0.00000000000E+00 0. -1.
         23    2    1    2    0    0 -0.53430538677E+03  0.17094808043E+03  0.11240840873E+02  0.56847747352E+03  0.91295064819E+02 0.  0.
         13    1    3    3    0    0 -0.16936398425E+02 -0.31255226733E+01 -0.13749013592E+02  0.22037374126E+02  0.00000000000E+00 0.  1.
        -13    1    3    3    0    0 -0.51736898835E+03  0.17407360311E+03  0.24989854465E+02  0.54644009940E+03  0.00000000000E+00 0. -1.
         22    1    1    2    0    0  0.53430538677E+03 -0.17094808043E+03 -0.19819305691E+04  0.20597947163E+04  0.00000000000E+00 0. -1.
<mgrwt>
<rscale>  0 0.17390218E+04</rscale>
<asrwt>0</asrwt>
<pdfrwt beam="1">  1        1 0.35376631E+00 0.17390218E+04</pdfrwt>
<pdfrwt beam="2">  1       -1 0.50583265E-01 0.17390218E+04</pdfrwt>
<totfact> 0.69416022E+00</totfact>
</mgrwt>
</event>
<event>
 6    1  0.1528034E-005  0.3538118E+04  0.7818608E-02  0.8104815E-01
         -1   -1    0    0    0  501 -0.00000000000E+00  0.00000000000E+00  0.11325131243E+04  0.11325131243E+04  0.00000000000E+00 0.  1.
          1   -1    0    0  501    0  0.00000000000E+00 -0.00000000000E+00 -0.27633852388E+04  0.27633852388E+04  0.00000000000E+00 0. -1.
         23    2    1    2    0    0 -0.10016915950E+04 -0.98066248479E+03  0.37003893278E+03  0.14527999247E+04  0.92810822433E+02 0.  0.
         13    1    3    3    0    0 -0.41038827232E+03 -0.45928088517E+03  0.14082294958E+03  0.63181371358E+03  0.00000000000E+00 0.  1.
        -13    1    3    3    0    0 -0.59130332267E+03 -0.52138159962E+03  0.22921598319E+03  0.82098621107E+03  0.00000000000E+00 0. -1.
         22    1    1    2    0    0  0.10016915950E+04  0.98066248479E+03 -0.20009110473E+04  0.24430984384E+04  0.00000000000E+00 0. -1.
<mgrwt>
<rscale>  0 0.35381182E+04</rscale>
<asrwt>0</asrwt>
<pdfrwt beam="1">  1        1 0.42513619E+00 0.35381182E+04</pdfrwt>
<pdfrwt beam="2">  1       -1 0.17423279E+00 0.35381182E+04</pdfrwt>
<totfact> 0.16482546E-01</totfact>
</mgrwt>
</event>
<event>
 6    1  0.1528034E-005  0.3504135E+04  0.7818608E-02  0.8112811E-01
         -2   -1    0    0    0  501 -0.00000000000E+00  0.00000000000E+00  0.11488229346E+04  0.11488229346E+04  0.00000000000E+00 0.  1.
          2   -1    0    0  501    0  0.00000000000E+00 -0.00000000000E+00 -0.26720748148E+04  0.26720748148E+04  0.00000000000E+00 0. -1.
         23    2    1    2    0    0 -0.67812080307E+03 -0.10476368440E+04 -0.21012348740E+04  0.24455959202E+04  0.91436473189E+02 0.  0.
         11    1    3    3    0    0 -0.56593391149E+03 -0.80548216290E+03 -0.16536113123E+04  0.19244513709E+04  0.00000000000E+00 0. -1.
        -11    1    3    3    0    0 -0.11218689158E+03 -0.24215468108E+03 -0.44762356172E+03  0.52114454925E+03  0.00000000000E+00 0.  1.
         22    1    1    2    0    0  0.67812080307E+03  0.10476368440E+04  0.57798299372E+03  0.13753018292E+04  0.00000000000E+00 0. -1.
<mgrwt>
<rscale>  0 0.35041352E+04</rscale>
<asrwt>0</asrwt>
<pdfrwt beam="1">  1        2 0.41108842E+00 0.35041352E+04</pdfrwt>
<pdfrwt beam="2">  1       -2 0.17674199E+00 0.35041352E+04</pdfrwt>
<totfact> 0.43283995E-01</totfact>
</mgrwt>
</event>
<event>
 6    1  0.1528034E-005  0.4218860E+04  0.7818608E-02  0.7961794E-01
          1   -1    0    0  501    0  0.00000000000E+00  0.00000000000E+00  0.29525486383E+04  0.29525486383E+04  0.00000000000E+00 0. -1.
         -1   -1    0    0    0  501 -0.00000000000E+00 -0.00000000000E+00 -0.15070691134E+04  0.15070691134E+04  0.00000000000E+00 0.  1.
         23    2    1    2    0    0 -0.30893786328E+03  0.36764675863E+03  0.28932729049E+04  0.29342612644E+04  0.90853304044E+02 0.  0.
         13    1    3    3    0    0 -0.98896016702E+02  0.13337088588E+03  0.76136723369E+03  0.77926136813E+03  0.00000000000E+00 0.  1.
        -13    1    3    3    0    0 -0.21004184657E+03  0.23427587275E+03  0.21319056712E+04  0.21549998962E+04  0.00000000000E+00 0. -1.
         22    1    1    2    0    0  0.30893786328E+03 -0.36764675863E+03 -0.14477933800E+04  0.15253564874E+04  0.00000000000E+00 0.  1.
<mgrwt>
<rscale>  0 0.42188600E+04</rscale>
<asrwt>0</asrwt>
<pdfrwt beam="1">  1        1 0.45423825E+00 0.42188600E+04</pdfrwt>
<pdfrwt beam="2">  1       -1 0.23185679E+00 0.42188600E+04</pdfrwt>
<totfact> 0.45642140E-02</totfact>
</mgrwt>
</event>
<event>
 6    1  0.1528034E-005  0.1747599E+04  0.7818608E-02  0.8734673E-01
          2   -1    0    0  501    0  0.00000000000E+00  0.00000000000E+00  0.58186572699E+03  0.58186572699E+03  0.00000000000E+00 0. -1.
         -2   -1    0    0    0  501 -0.00000000000E+00 -0.00000000000E+00 -0.13122016973E+04  0.13122016973E+04  0.00000000000E+00 0.  1.
         23    2    1    2    0    0 -0.35687928095E+03 -0.66452837806E+03  0.10666355382E+03  0.76733365369E+03  0.91994760446E+02 0.  0.
         13    1    3    3    0    0 -0.19133531352E+03 -0.38764362777E+03  0.17530753360E+02  0.43264779170E+03  0.00000000000E+00 0.  1.
        -13    1    3    3    0    0 -0.16554396743E+03 -0.27688475029E+03  0.89132800462E+02  0.33468586199E+03  0.00000000000E+00 0. -1.
         22    1    1    2    0    0  0.35687928095E+03  0.66452837806E+03 -0.83699952409E+03  0.11267337706E+04  0.00000000000E+00 0.  1.
<mgrwt>
<rscale>  0 0.17475986E+04</rscale>
<asrwt>0</asrwt>
<pdfrwt beam="1">  1        2 0.89517803E-01 0.17475986E+04</pdfrwt>
<pdfrwt beam="2">  1       -2 0.20187719E+00 0.17475986E+04</pdfrwt>
<totfact> 0.63025503E+00</totfact>
</mgrwt>
</event>
<event>
 6    1  0.1528034E-005  0.2313735E+04  0.7818608E-02  0.8472525E-01
         -2   -1    0    0    0  501 -0.00000000000E+00  0.00000000000E+00  0.68205086311E+03  0.68205086311E+03  0.00000000000E+00 0.  1.
          2   -1    0    0  501    0  0.00000000000E+00 -0.00000000000E+00 -0.19622321810E+04  0.19622321810E+04  0.00000000000E+00 0. -1.
         23    2    1    2    0    0  0.21421308213E+03 -0.16748699410E+03 -0.19241165625E+04  0.19452896699E+04  0.89376820363E+02 0.  0.
         13    1    3    3    0    0  0.13604199409E+03 -0.64885028404E+02 -0.82765250162E+03  0.84126461622E+03  0.00000000000E+00 0.  1.
        -13    1    3    3    0    0  0.78171088046E+02 -0.10260196569E+03 -0.10964640609E+04  0.11040250537E+04  0.00000000000E+00 0. -1.
         22    1    1    2    0    0 -0.21421308213E+03  0.16748699410E+03  0.64393524468E+03  0.69899337414E+03  0.00000000000E+00 0.  1.
<mgrwt>
<rscale>  0 0.23137348E+04</rscale>
<asrwt>0</asrwt>
<pdfrwt beam="1">  1        2 0.30188187E+00 0.23137348E+04</pdfrwt>
<pdfrwt beam="2">  1       -2 0.10493090E+00 0.23137348E+04</pdfrwt>
<totfact> 0.46752746E+00</totfact>
</mgrwt>
</event>
<event>
 6    1  0.1528034E-005  0.3465644E+04  0.7818608E-02  0.8121980E-01
          1   -1    0    0  501    0  0.00000000000E+00  0.00000000000E+00  0.15938822539E+04  0.15938822539E+04  0.00000000000E+00 0. -1.
         -1   -1    0    0    0  501 -0.00000000000E+00 -0.00000000000E+00 -0.18838734933E+04  0.18838734933E+04  0.00000000000E+00 0.  1.
         23    2    1    2    0    0  0.15750739736E+04  0.62499625065E+03  0.21381753528E+03  0.17099034861E+04  0.81078096307E+02 0.  0.
         13    1    3    3    0    0  0.14648283901E+04  0.57210533344E+03  0.21759495371E+03  0.15875686722E+04  0.00000000000E+00 0.  1.
        -13    1    3    3    0    0  0.11024558346E+03  0.52890917211E+02 -0.37774184286E+01  0.12233481388E+03  0.00000000000E+00 0. -1.
         22    1    1    2    0    0 -0.15750739736E+04 -0.62499625065E+03 -0.50380877472E+03  0.17678522611E+04  0.00000000000E+00 0.  1.
<mgrwt>
<rscale>  0 0.34656443E+04</rscale>
<asrwt>0</asrwt>
<pdfrwt beam="1">  1        1 0.24521266E+00 0.34656443E+04</pdfrwt>
<pdfrwt beam="2">  1       -1 0.28982669E+00 0.34656443E+04</pdfrwt>
<totfact> 0.17719263E-01</totfact>
</mgrwt>
</event>
<event>
 6    1  0.1528034E-005  0.5759450E+04  0.7818608E-02  0.7720964E-01
         -2   -1    0    0    0  501 -0.00000000000E+00  0.00000000000E+00  0.22158306947E+04  0.22158306947E+04  0.00000000000E+00 0.  1.
          2   -1    0    0  501    0  0.00000000000E+00 -0.00000000000E+00 -0.37425313288E+04  0.37425313288E+04  0.00000000000E+00 0. -1.
         23    2    1    2    0    0  0.25951593407E+04  0.11075827679E+04 -0.17178363264E+03  0.28282834826E+04  0.89923580135E+02 0.  0.
         11    1    3    3    0    0  0.79323124198E+03  0.37322731096E+03 -0.26604387070E+02  0.87705314679E+03  0.00000000000E+00 0.  1.
        -11    1    3    3    0    0  0.18019280987E+04  0.73435545694E+03 -0.14517924557E+03  0.19512303358E+04  0.00000000000E+00 0. -1.
         22    1    1    2    0    0 -0.25951593407E+04 -0.11075827679E+04 -0.13549170014E+04  0.31300785409E+04  0.00000000000E+00 0. -1.
<mgrwt>
<rscale>  0 0.57594499E+04</rscale>
<asrwt>0</asrwt>
<pdfrwt beam="1">  1        2 0.57577405E+00 0.57594499E+04</pdfrwt>
<pdfrwt beam="2">  1       -2 0.34089703E+00 0.57594499E+04</pdfrwt>
<totfact> 0.65831645E-03</totfact>
</mgrwt>
</event>
<event>
 6    1  0.1528034E-005  0.3711776E+04  0.7818608E-02  0.8065357E-01
          1   -1    0    0  501    0  0.00000000000E+00  0.00000000000E+00  0.16706569976E+04  0.16706569976E+04  0.00000000000E+00 0. -1.
         -1   -1    0    0    0  501 -0.00000000000E+00 -0.00000000000E+00 -0.20616557080E+04  0.20616557080E+04  0.00000000000E+00 0.  1.
         23    2    1    2    0    0 -0.16847595763E+04  0.77359653127E+03 -0.25839852855E+03  0.18736978365E+04  0.84305159100E+02 0.  0.
         13    1    3    3    0    0 -0.12511319654E+04  0.61417976026E+03 -0.18883834725E+03  0.14064877867E+04  0.00000000000E+00 0.  1.
        -13    1    3    3    0    0 -0.43362761090E+03  0.15941677100E+03 -0.69560181304E+02  0.46721004980E+03  0.00000000000E+00 0. -1.
         22    1    1    2    0    0  0.16847595763E+04 -0.77359653127E+03 -0.13260018187E+03  0.18586148690E+04  0.00000000000E+00 0.  1.
<mgrwt>
<rscale>  0 0.37117756E+04</rscale>
<asrwt>0</asrwt>
<pdfrwt beam="1">  1        1 0.25702415E+00 0.37117756E+04</pdfrwt>
<pdfrwt beam="2">  1       -1 0.31717780E+00 0.37117756E+04</pdfrwt>
<totfact> 0.10213731E-01</totfact>
</mgrwt>
</event>
<event>
 6    1  0.1528034E-005  0.1989427E+04  0.7818608E-02  0.8611580E-01
          1   -1    0    0  501    0  0.00000000000E+00  0.00000000000E+00  0.84481848507E+03  0.84481848507E+03  0.00000000000E+00 0. -1.
         -1   -1    0    0    0  501 -0.00000000000E+00 -0.00000000000E+00 -0.11712046873E+04  0.11712046873E+04  0.00000000000E+00 0.  1.
         23    2    1    2    0    0  0.27879045697E+03 -0.15736611556E+03 -0.11157771146E+04  0.11641862010E+04  0.88784727795E+02 0.  0.
         11    1    3    3    0    0  0.58781497169E+02  0.29642959342E+01 -0.16396681327E+03  0.17421012403E+03  0.00000000000E+00 0.  1.
        -11    1    3    3    0    0  0.22000895980E+03 -0.16033041150E+03 -0.95181030131E+03  0.98997607694E+03  0.00000000000E+00 0. -1.
         22    1    1    2    0    0 -0.27879045697E+03  0.15736611556E+03  0.78939091238E+03  0.85183697136E+03  0.00000000000E+00 0. -1.
<mgrwt>
<rscale>  0 0.19894274E+04</rscale>
<asrwt>0</asrwt>
<pdfrwt beam="1">  1        1 0.12997207E+00 0.19894274E+04</pdfrwt>
<pdfrwt beam="2">  1       -1 0.18018534E+00 0.19894274E+04</pdfrwt>
<totfact> 0.38970862E+00</totfact>
</mgrwt>
</event>
<event>
 6    1  0.1528034E-005  0.2483843E+04  0.7818608E-02  0.8408764E-01
          3   -1    0    0  501    0  0.00000000000E+00  0.00000000000E+00  0.12909258951E+04  0.12909258951E+04  0.00000000000E+00 0. -1.
         -3   -1    0    0    0  501 -0.00000000000E+00 -0.00000000000E+00 -0.11947776361E+04  0.11947776361E+04  0.00000000000E+00 0.  1.
         23    2    1    2    0    0  0.72206186600E+03  0.29460344808E+03 -0.91711209792E+03  0.12070866689E+04  0.88312490786E+02 0.  0.
         13    1    3    3    0    0  0.65709627706E+03  0.24874551027E+03 -0.79087157754E+03  0.10578883204E+04  0.00000000000E+00 0. -1.
        -13    1    3    3    0    0  0.64965588937E+02  0.45857937816E+02 -0.12624052038E+03  0.14919834849E+03  0.00000000000E+00 0.  1.
         22    1    1    2    0    0 -0.72206186600E+03 -0.29460344808E+03  0.10132603569E+04  0.12786168624E+04  0.00000000000E+00 0. -1.
<mgrwt>
<rscale>  0 0.24838433E+04</rscale>
<asrwt>0</asrwt>
<pdfrwt beam="1">  1        3 0.19860399E+00 0.24838433E+04</pdfrwt>
<pdfrwt beam="2">  1       -3 0.18381194E+00 0.24838433E+04</pdfrwt>
<totfact> 0.65175353E-02</totfact>
</mgrwt>
</event>
<event>
 6    1  0.1528034E-005  0.2844724E+04  0.7818608E-02  0.8289516E-01
          2   -1    0    0  501    0  0.00000000000E+00  0.00000000000E+00  0.22264139308E+04  0.22264139308E+04  0.00000000000E+00 0.  1.
         -2   -1    0    0    0  501 -0.00000000000E+00 -0.00000000000E+00 -0.90868691332E+03  0.90868691332E+03  0.00000000000E+00 0. -1.
         23    2    1    2    0    0 -0.18613011083E+03  0.13227092538E+04  0.12565750084E+03  0.13447841345E+04  0.91925907904E+02 0.  0.
         13    1    3    3    0    0 -0.16518487763E+03  0.11957749595E+04  0.14050261056E+03  0.12152797131E+04  0.00000000000E+00 0. -1.
        -13    1    3    3    0    0 -0.20945233198E+02  0.12693429432E+03 -0.14845109720E+02  0.12950442136E+03  0.00000000000E+00 0.  1.
         22    1    1    2    0    0  0.18613011083E+03 -0.13227092538E+04  0.11920695167E+04  0.17903167097E+04  0.00000000000E+00 0.  1.
<mgrwt>
<rscale>  0 0.28447237E+04</rscale>
<asrwt>0</asrwt>
<pdfrwt beam="1">  1        2 0.34252522E+00 0.28447237E+04</pdfrwt>
<pdfrwt beam="2">  1       -2 0.13979799E+00 0.28447237E+04</pdfrwt>
<totfact> 0.15595137E+00</totfact>
</mgrwt>
</event>
<event>
 6    1  0.1528034E-005  0.2977600E+04  0.7818608E-02  0.8250156E-01
          1   -1    0    0  501    0  0.00000000000E+00  0.00000000000E+00  0.27086238087E+04  0.27086238087E+04  0.00000000000E+00 0. -1.
         -1   -1    0    0    0  501 -0.00000000000E+00 -0.00000000000E+00 -0.81832185372E+03  0.81832185372E+03  0.00000000000E+00 0.  1.
         23    2    1    2    0    0  0.11581372430E+03  0.11555451286E+04  0.20469346556E+04  0.23550961986E+04  0.88539579295E+02 0.  0.
         11    1    3    3    0    0  0.65416820129E+02  0.70946141874E+03  0.13408384960E+04  0.15183750319E+04  0.00000000000E+00 0. -1.
        -11    1    3    3    0    0  0.50396904174E+02  0.44608370991E+03  0.70609615961E+03  0.83672116671E+03  0.00000000000E+00 0.  1.
         22    1    1    2    0    0 -0.11581372430E+03 -0.11555451286E+04 -0.15663270061E+03  0.11718494639E+04  0.00000000000E+00 0.  1.
<mgrwt>
<rscale>  0 0.29776004E+04</rscale>
<asrwt>0</asrwt>
<pdfrwt beam="1">  1        1 0.41671135E+00 0.29776004E+04</pdfrwt>
<pdfrwt beam="2">  1       -1 0.12589567E+00 0.29776004E+04</pdfrwt>
<totfact> 0.45336758E-01</totfact>
</mgrwt>
</event>
<event>
 6    1  0.1528034E-005  0.1710321E+04  0.7818608E-02  0.8755500E-01
         -2   -1    0    0    0  501 -0.00000000000E+00  0.00000000000E+00  0.24845687988E+03  0.24845687988E+03  0.00000000000E+00 0. -1.
          2   -1    0    0  501    0  0.00000000000E+00 -0.00000000000E+00 -0.29433660328E+04  0.29433660328E+04  0.00000000000E+00 0.  1.
         23    2    1    2    0    0  0.82664348404E+03 -0.42054753398E+01 -0.96114488410E+03  0.12710689785E+04  0.91976759050E+02 0.  0.
         13    1    3    3    0    0  0.59946846379E+03  0.38037486481E+02 -0.69719066569E+03  0.92026306770E+03  0.00000000000E+00 0. -1.
        -13    1    3    3    0    0  0.22717502026E+03 -0.42242961821E+02 -0.26395421841E+03  0.35080591082E+03  0.00000000000E+00 0.  1.
         22    1    1    2    0    0 -0.82664348404E+03  0.42054753398E+01 -0.17337642688E+04  0.19207539341E+04  0.00000000000E+00 0.  1.
<mgrwt>
<rscale>  0 0.17103211E+04</rscale>
<asrwt>0</asrwt>
<pdfrwt beam="1">  1        2 0.45282555E+00 0.17103211E+04</pdfrwt>
<pdfrwt beam="2">  1       -2 0.38224135E-01 0.17103211E+04</pdfrwt>
<totfact> 0.11655579E+01</totfact>
</mgrwt>
</event>
<event>
 6    1  0.1528034E-005  0.2219376E+04  0.7818608E-02  0.8510407E-01
          1   -1    0    0  501    0  0.00000000000E+00  0.00000000000E+00  0.81171180212E+03  0.81171180212E+03  0.00000000000E+00 0. -1.
         -1   -1    0    0    0  501 -0.00000000000E+00 -0.00000000000E+00 -0.15170495066E+04  0.15170495066E+04  0.00000000000E+00 0.  1.
         23    2    1    2    0    0 -0.73084312361E+03  0.51666663273E+03 -0.10384122704E+04  0.13737666767E+04  0.88649637274E+02 0.  0.
         11    1    3    3    0    0 -0.41136863811E+03  0.29396480435E+03 -0.65296429848E+03  0.82583402552E+03  0.00000000000E+00 0. -1.
        -11    1    3    3    0    0 -0.31947448549E+03  0.22270182839E+03 -0.38544797188E+03  0.54793265122E+03  0.00000000000E+00 0.  1.
         22    1    1    2    0    0  0.73084312361E+03 -0.51666663273E+03  0.33307456587E+03  0.95499463199E+03  0.00000000000E+00 0. -1.
<mgrwt>
<rscale>  0 0.22193756E+04</rscale>
<asrwt>0</asrwt>
<pdfrwt beam="1">  1        1 0.12487874E+00 0.22193756E+04</pdfrwt>
<pdfrwt beam="2">  1       -1 0.23339223E+00 0.22193756E+04</pdfrwt>
<totfact> 0.17617374E+00</totfact>
</mgrwt>
</event>
<event>
 6    1  0.1528034E-005  0.1864648E+04  0.7818608E-02  0.8672656E-01
          2   -1    0    0  501    0  0.00000000000E+00  0.00000000000E+00  0.12117054785E+04  0.12117054785E+04  0.00000000000E+00 0. -1.
         -2   -1    0    0    0  501 -0.00000000000E+00 -0.00000000000E+00 -0.71735943384E+03  0.71735943384E+03  0.00000000000E+00 0.  1.
         23    2    1    2    0    0 -0.11560612928E+03 -0.75782427511E+03 -0.29707726408E+03  0.82724221213E+03  0.91718960000E+02 0.  0.
         13    1    3    3    0    0 -0.12381343008E+03 -0.54739861945E+03 -0.20666117076E+03  0.59806676345E+03  0.00000000000E+00 0. -1.
        -13    1    3    3    0    0  0.82073007977E+01 -0.21042565566E+03 -0.90416093325E+02  0.22917544868E+03  0.00000000000E+00 0.  1.
         22    1    1    2    0    0  0.11560612928E+03  0.75782427511E+03  0.79142330875E+03  0.11018227002E+04  0.00000000000E+00 0. -1.
<mgrwt>
<rscale>  0 0.18646483E+04</rscale>
<asrwt>0</asrwt>
<pdfrwt beam="1">  1        2 0.18641623E+00 0.18646483E+04</pdfrwt>
<pdfrwt beam="2">  1       -2 0.11036299E+00 0.18646483E+04</pdfrwt>
<totfact> 0.11411758E+01</totfact>
</mgrwt>
</event>
<event>
 6    1  0.1528034E-005  0.8822147E+03  0.7818608E-02  0.9448091E-01
          3   -1    0    0  501    0  0.00000000000E+00  0.00000000000E+00  0.13225254436E+03  0.13225254436E+03  0.00000000000E+00 0. -1.
         -3   -1    0    0    0  501 -0.00000000000E+00 -0.00000000000E+00 -0.14712433716E+04  0.14712433716E+04  0.00000000000E+00 0.  1.
         23    2    1    2    0    0  0.30685578029E+03 -0.28948346501E+03 -0.47400337549E+03  0.64112154073E+03  0.91632328376E+02 0.  0.
         13    1    3    3    0    0  0.14769597795E+03 -0.19238580094E+03 -0.30316857870E+03  0.38824938560E+03  0.00000000000E+00 0. -1.
        -13    1    3    3    0    0  0.15915980233E+03 -0.97097664068E+02 -0.17083479679E+03  0.25287215513E+03  0.00000000000E+00 0.  1.
         22    1    1    2    0    0 -0.30685578029E+03  0.28948346501E+03 -0.86498745174E+03  0.96237437522E+03  0.00000000000E+00 0.  1.
<mgrwt>
<rscale>  0 0.88221467E+03</rscale>
<asrwt>0</asrwt>
<pdfrwt beam="1">  1        3 0.20346544E-01 0.88221467E+03</pdfrwt>
<pdfrwt beam="2">  1       -3 0.22634514E+00 0.88221467E+03</pdfrwt>
<totfact> 0.59463263E+00</totfact>
</mgrwt>
</event>
<event>
 6    1  0.1528034E-005  0.1356063E+04  0.7818608E-02  0.8986251E-01
          3   -1    0    0  501    0  0.00000000000E+00  0.00000000000E+00  0.11423614579E+04  0.11423614579E+04  0.00000000000E+00 0. -1.
         -3   -1    0    0    0  501 -0.00000000000E+00 -0.00000000000E+00 -0.40243520045E+03  0.40243520045E+03  0.00000000000E+00 0.  1.
         23    2    1    2    0    0 -0.49383287884E+03  0.35297449122E+03  0.35293831787E+02  0.61475969191E+03  0.90674806644E+02 0.  0.
         11    1    3    3    0    0 -0.14119426220E+03  0.54214607969E+02  0.17262033831E+02  0.15222687413E+03  0.00000000000E+00 0.  1.
        -11    1    3    3    0    0 -0.35263861663E+03  0.29875988325E+03  0.18031797955E+02  0.46253281777E+03  0.00000000000E+00 0. -1.
         22    1    1    2    0    0  0.49383287884E+03 -0.35297449122E+03  0.70463242571E+03  0.93003696649E+03  0.00000000000E+00 0. -1.
<mgrwt>
<rscale>  0 0.13560626E+04</rscale>
<asrwt>0</asrwt>
<pdfrwt beam="1">  1        3 0.17574792E+00 0.13560626E+04</pdfrwt>
<pdfrwt beam="2">  1       -3 0.61913108E-01 0.13560626E+04</pdfrwt>
<totfact> 0.13792427E+00</totfact>
</mgrwt>
</event>
<event>
 6    1  0.1528034E-005  0.1893052E+04  0.7818608E-02  0.8658322E-01
         -2   -1    0    0    0  501 -0.00000000000E+00  0.00000000000E+00  0.28263820414E+03  0.28263820414E+03  0.00000000000E+00 0. -1.
          2   -1    0    0  501    0  0.00000000000E+00 -0.00000000000E+00 -0.31698185463E+04  0.31698185463E+04  0.00000000000E+00 0.  1.
         23    2    1    2    0    0 -0.82098223850E+03  0.31993778717E+03 -0.20662678296E+04  0.22481854451E+04  0.92211866585E+02 0.  0.
         11    1    3    3    0    0 -0.48177690621E+03  0.23608930783E+03 -0.12485169355E+04  0.13589119497E+04  0.00000000000E+00 0.  1.
        -11    1    3    3    0    0 -0.33920533229E+03  0.83848479348E+02 -0.81775089403E+03  0.88927349541E+03  0.00000000000E+00 0. -1.
         22    1    1    2    0    0  0.82098223850E+03 -0.31993778717E+03 -0.82091251258E+03  0.12042713054E+04  0.00000000000E+00 0. -1.
<mgrwt>
<rscale>  0 0.18930524E+04</rscale>
<asrwt>0</asrwt>
<pdfrwt beam="1">  1        2 0.48766438E+00 0.18930524E+04</pdfrwt>
<pdfrwt beam="2">  1       -2 0.43482802E-01 0.18930524E+04</pdfrwt>
<totfact> 0.64032882E+00</totfact>
</mgrwt>
</event>
<event>
 6    1  0.1528034E-005  0.1430405E+04  0.7818608E-02  0.8932099E-01
          1   -1    0    0  501    0  0.00000000000E+00  0.00000000000E+00  0.18491976997E+04  0.18491976997E+04  0.00000000000E+00 0. -1.
         -1   -1    0    0    0  501 -0.00000000000E+00 -0.00000000000E+00 -0.27661453691E+03  0.27661453691E+03  0.00000000000E+00 0.  1.
         23    2    1    2    0    0 -0.21028486574E+03  0.58855929632E+03  0.28157329469E+03  0.69147327753E+03  0.90719365132E+02 0.  0.
         13    1    3    3    0    0 -0.15924592085E+03  0.46604331733E+03  0.18006945666E+03  0.52438597059E+03  0.00000000000E+00 0. -1.
        -13    1    3    3    0    0 -0.51038944886E+02  0.12251597899E+03  0.10150383803E+03  0.16708730694E+03  0.00000000000E+00 0.  1.
         22    1    1    2    0    0  0.21028486574E+03 -0.58855929632E+03  0.12910098681E+04  0.14343389591E+04  0.00000000000E+00 0. -1.
<mgrwt>
<rscale>  0 0.14304055E+04</rscale>
<asrwt>0</asrwt>
<pdfrwt beam="1">  1        1 0.28449195E+00 0.14304055E+04</pdfrwt>
<pdfrwt beam="2">  1       -1 0.42556084E-01 0.14304055E+04</pdfrwt>
<totfact> 0.19946372E+01</totfact>
</mgrwt>
</event>
<event>
 6    1  0.1528034E-005  0.2485415E+04  0.7818608E-02  0.8408200E-01
         -2   -1    0    0    0  501 -0.00000000000E+00  0.00000000000E+00  0.12243036305E+04  0.12243036305E+04  0.00000000000E+00 0.  1.
          2   -1    0    0  501    0  0.00000000000E+00 -0.00000000000E+00 -0.12613880923E+04  0.12613880923E+04  0.00000000000E+00 0. -1.
         23    2    1    2    0    0 -0.10470838209E+04  0.39000591444E+03  0.52168629403E+03  0.12364063675E+04  0.89749512047E+02 0.  0.
         13    1    3    3    0    0 -0.33599156274E+03  0.81508777001E+02  0.15360357114E+03  0.37832270355E+03  0.00000000000E+00 0.  1.
        -13    1    3    3    0    0 -0.71109225814E+03  0.30849713744E+03  0.36808272290E+03  0.85808366392E+03  0.00000000000E+00 0. -1.
         22    1    1    2    0    0  0.10470838209E+04 -0.39000591444E+03 -0.55877075585E+03  0.12492853552E+04  0.00000000000E+00 0. -1.
<mgrwt>
<rscale>  0 0.24854151E+04</rscale>
<asrwt>0</asrwt>
<pdfrwt beam="1">  1        2 0.19405971E+00 0.24854151E+04</pdfrwt>
<pdfrwt beam="2">  1       -2 0.18835440E+00 0.24854151E+04</pdfrwt>
<totfact> 0.24728860E+00</totfact>
</mgrwt>
</event>
<event>
 6    1  0.1528034E-005  0.1627045E+04  0.7818608E-02  0.8804103E-01
         -1   -1    0    0    0  501 -0.00000000000E+00  0.00000000000E+00  0.44030672047E+03  0.44030672047E+03  0.00000000000E+00 0.  1.
          1   -1    0    0  501    0  0.00000000000E+00 -0.00000000000E+00 -0.15030868052E+04  0.15030868052E+04  0.00000000000E+00 0. -1.
         23    2    1    2    0    0  0.11978260695E+03  0.78126252707E+03 -0.75292585577E+03  0.10944361343E+04  0.78575432822E+02 0.  0.
         13    1    3    3    0    0  0.10854832114E+03  0.49627591716E+03 -0.50919254276E+03  0.71927016453E+03  0.00000000000E+00 0. -1.
        -13    1    3    3    0    0  0.11234285813E+02  0.28498660991E+03 -0.24373331301E+03  0.37516596977E+03  0.00000000000E+00 0.  1.
         22    1    1    2    0    0 -0.11978260695E+03 -0.78126252707E+03 -0.30985422894E+03  0.84895739135E+03  0.00000000000E+00 0. -1.
<mgrwt>
<rscale>  0 0.16270454E+04</rscale>
<asrwt>0</asrwt>
<pdfrwt beam="1">  1        1 0.23124412E+00 0.16270454E+04</pdfrwt>
<pdfrwt beam="2">  1       -1 0.67739495E-01 0.16270454E+04</pdfrwt>
<totfact> 0.13752385E+01</totfact>
</mgrwt>
</event>
<event>
 6    1  0.1528034E-005  0.1724819E+04  0.7818608E-02  0.8747335E-01
         -2   -1    0    0    0  501 -0.00000000000E+00  0.00000000000E+00  0.32979624694E+03  0.32979624694E+03  0.00000000000E+00 0.  1.
          2   -1    0    0  501    0  0.00000000000E+00 -0.00000000000E+00 -0.22551803324E+04  0.22551803324E+04  0.00000000000E+00 0. -1.
         23    2    1    2    0    0 -0.20112681180E+03  0.39569259770E+03  0.13849960187E+03  0.47390090539E+03  0.91516676703E+02 0.  0.
         11    1    3    3    0    0 -0.26946828041E+02  0.74558161578E+02  0.62010239997E+02  0.10064949510E+03  0.00000000000E+00 0.  1.
        -11    1    3    3    0    0 -0.17417998376E+03  0.32113443612E+03  0.76489361868E+02  0.37325141029E+03  0.00000000000E+00 0. -1.
         22    1    1    2    0    0  0.20112681180E+03 -0.39569259770E+03 -0.20638836874E+04  0.21110756740E+04  0.00000000000E+00 0. -1.
<mgrwt>
<rscale>  0 0.17248188E+04</rscale>
<asrwt>0</asrwt>
<pdfrwt beam="1">  1        2 0.34695082E+00 0.17248188E+04</pdfrwt>
<pdfrwt beam="2">  1       -2 0.50737884E-01 0.17248188E+04</pdfrwt>
<totfact> 0.16774596E+01</totfact>
</mgrwt>
</event>
<event>
 6    1  0.1528034E-005  0.2531596E+04  0.7818608E-02  0.8391815E-01
          2   -1    0    0  501    0  0.00000000000E+00  0.00000000000E+00  0.22181095919E+04  0.22181095919E+04  0.00000000000E+00 0. -1.
         -2   -1    0    0    0  501 -0.00000000000E+00 -0.00000000000E+00 -0.72234691801E+03  0.72234691801E+03  0.00000000000E+00 0.  1.
         23    2    1    2    0    0 -0.32284008481E+03  0.11202472000E+04  0.13164925228E+04  0.17609153718E+04  0.92145942346E+02 0.  0.
         13    1    3    3    0    0 -0.12368430189E+03  0.29957279537E+03  0.39613321993E+03  0.51182340137E+03  0.00000000000E+00 0. -1.
        -13    1    3    3    0    0 -0.19915578292E+03  0.82067440461E+03  0.92035930291E+03  0.12490919705E+04  0.00000000000E+00 0.  1.
         22    1    1    2    0    0  0.32284008481E+03 -0.11202472000E+04  0.17927015109E+03  0.11795411381E+04  0.00000000000E+00 0. -1.
<mgrwt>
<rscale>  0 0.25315960E+04</rscale>
<asrwt>0</asrwt>
<pdfrwt beam="1">  1        2 0.34124763E+00 0.25315960E+04</pdfrwt>
<pdfrwt beam="2">  1       -2 0.11113030E+00 0.25315960E+04</pdfrwt>
<totfact> 0.28753980E+00</totfact>
</mgrwt>
</event>
<event>
 6    1  0.1528034E-005  0.3111006E+04  0.7818608E-02  0.8212724E-01
          2   -1    0    0  501    0  0.00000000000E+00  0.00000000000E+00  0.21134093722E+04  0.21134093722E+04  0.00000000000E+00 0. -1.
         -2   -1    0    0    0  501 -0.00000000000E+00 -0.00000000000E+00 -0.11448750768E+04  0.11448750768E+04  0.00000000000E+00 0.  1.
         23    2    1    2    0    0  0.22103050999E+03 -0.14260169723E+04  0.10894900499E+04  0.18101790708E+04  0.85911629665E+02 0.  0.
         11    1    3    3    0    0  0.14529500031E+03 -0.97157935643E+03  0.79072139185E+03  0.12610778733E+04  0.00000000000E+00 0. -1.
        -11    1    3    3    0    0  0.75735509672E+02 -0.45443761585E+03  0.29876865800E+03  0.54910119753E+03  0.00000000000E+00 0.  1.
         22    1    1    2    0    0 -0.22103050999E+03  0.14260169723E+04 -0.12095575443E+03  0.14481053781E+04  0.00000000000E+00 0. -1.
<mgrwt>
<rscale>  0 0.31110061E+04</rscale>
<asrwt>0</asrwt>
<pdfrwt beam="1">  1        2 0.32513990E+00 0.31110061E+04</pdfrwt>
<pdfrwt beam="2">  1       -2 0.17613463E+00 0.31110061E+04</pdfrwt>
<totfact> 0.94508047E-01</totfact>
</mgrwt>
</event>
<event>
 6    1  0.1528034E-005  0.1769246E+04  0.7818608E-02  0.8722827E-01
         -2   -1    0    0    0  501 -0.00000000000E+00  0.00000000000E+00  0.93043337390E+03  0.93043337390E+03  0.00000000000E+00 0.  1.
          2   -1    0    0  501    0  0.00000000000E+00 -0.00000000000E+00 -0.84106853298E+03  0.84106853298E+03  0.00000000000E+00 0. -1.
         23    2    1    2    0    0  0.18713149581E+03 -0.84083646469E+03  0.23540010516E+03  0.89780261337E+03  0.92801756351E+02 0.  0.
         11    1    3    3    0    0  0.14201846165E+02 -0.13782084698E+03  0.72827345229E+01  0.13874190614E+03  0.00000000000E+00 0.  1.
        -11    1    3    3    0    0  0.17292964965E+03 -0.70301561771E+03  0.22811737064E+03  0.75906070723E+03  0.00000000000E+00 0. -1.
         22    1    1    2    0    0 -0.18713149581E+03  0.84083646469E+03 -0.14603526424E+03  0.87369929351E+03  0.00000000000E+00 0. -1.
<mgrwt>
<rscale>  0 0.17692464E+04</rscale>
<asrwt>0</asrwt>
<pdfrwt beam="1">  1        2 0.12939516E+00 0.17692464E+04</pdfrwt>
<pdfrwt beam="2">  1       -2 0.14314360E+00 0.17692464E+04</pdfrwt>
<totfact> 0.10325724E+01</totfact>
</mgrwt>
</event>
<event>
 6    1  0.1528034E-005  0.4825098E+04  0.7818608E-02  0.7856069E-01
         -2   -1    0    0    0  501 -0.00000000000E+00  0.00000000000E+00  0.24834293210E+04  0.24834293210E+04  0.00000000000E+00 0.  1.
          2   -1    0    0  501    0  0.00000000000E+00 -0.00000000000E+00 -0.23436913709E+04  0.23436913709E+04  0.00000000000E+00 0. -1.
         23    2    1    2    0    0  0.12814022911E+04  0.16684602505E+04  0.12495683553E+04  0.24485759757E+04  0.91388154350E+02 0.  0.
         11    1    3    3    0    0  0.65370555710E+03  0.91552080874E+03  0.64064636009E+03  0.12945798798E+04  0.00000000000E+00 0. -1.
        -11    1    3    3    0    0  0.62769673403E+03  0.75293944176E+03  0.60892199523E+03  0.11539960958E+04  0.00000000000E+00 0.  1.
         22    1    1    2    0    0 -0.12814022911E+04 -0.16684602505E+04 -0.11098304052E+04  0.23785447163E+04  0.00000000000E+00 0. -1.
<mgrwt>
<rscale>  0 0.48250977E+04</rscale>
<asrwt>0</asrwt>
<pdfrwt beam="1">  1        2 0.36056791E+00 0.48250977E+04</pdfrwt>
<pdfrwt beam="2">  1       -2 0.38206605E+00 0.48250977E+04</pdfrwt>
<totfact> 0.30694681E-02</totfact>
</mgrwt>
</event>
<event>
 6    1  0.1528034E-005  0.2710834E+04  0.7818608E-02  0.8331498E-01
         -1   -1    0    0    0  501 -0.00000000000E+00  0.00000000000E+00  0.21935159710E+04  0.21935159710E+04  0.00000000000E+00 0.  1.
          1   -1    0    0  501    0  0.00000000000E+00 -0.00000000000E+00 -0.83753879379E+03  0.83753879379E+03  0.00000000000E+00 0. -1.
         23    2    1    2    0    0  0.10547208221E+04 -0.21472328286E+03  0.15970345315E+04  0.19280358398E+04  0.90888964798E+02 0.  0.
         13    1    3    3    0    0  0.76934221942E+03 -0.13424518999E+03  0.10947480584E+04  0.13447611435E+04  0.00000000000E+00 0.  1.
        -13    1    3    3    0    0  0.28537860268E+03 -0.80478092876E+02  0.50228647316E+03  0.58327469636E+03  0.00000000000E+00 0. -1.
         22    1    1    2    0    0 -0.10547208221E+04  0.21472328286E+03 -0.24105735432E+03  0.11030189250E+04  0.00000000000E+00 0. -1.
<mgrwt>
<rscale>  0 0.27108336E+04</rscale>
<asrwt>0</asrwt>
<pdfrwt beam="1">  1        1 0.12885212E+00 0.27108336E+04</pdfrwt>
<pdfrwt beam="2">  1       -1 0.33746399E+00 0.27108336E+04</pdfrwt>
<totfact> 0.33661091E-01</totfact>
</mgrwt>
</event>
<event>
 6    1  0.1528034E-005  0.9482456E+03  0.7818608E-02  0.9367204E-01
          2   -1    0    0  501    0  0.00000000000E+00  0.00000000000E+00  0.97250374779E+03  0.97250374779E+03  0.00000000000E+00 0. -1.
         -2   -1    0    0    0  501 -0.00000000000E+00 -0.00000000000E+00 -0.23114812059E+03  0.23114812059E+03  0.00000000000E+00 0.  1.
         23    2    1    2    0    0  0.29161559131E+03 -0.21242632217E+03  0.75575974973E+03  0.84258113543E+03  0.92766238633E+02 0.  0.
         11    1    3    3    0    0  0.94630228376E+02 -0.19995388855E+02  0.17927940425E+03  0.20370518031E+03  0.00000000000E+00 0. -1.
        -11    1    3    3    0    0  0.19698536293E+03 -0.19243093331E+03  0.57648034548E+03  0.63887595512E+03  0.00000000000E+00 0.  1.
         22    1    1    2    0    0 -0.29161559131E+03  0.21242632217E+03 -0.14404122532E+02  0.36107073295E+03  0.00000000000E+00 0.  1.
<mgrwt>
<rscale>  0 0.94824557E+03</rscale>
<asrwt>0</asrwt>
<pdfrwt beam="1">  1        2 0.14961596E+00 0.94824557E+03</pdfrwt>
<pdfrwt beam="2">  1       -2 0.35561250E-01 0.94824557E+03</pdfrwt>
<totfact> 0.19492311E+02</totfact>
</mgrwt>
</event>
<event>
 6    1  0.1528034E-005  0.1707123E+04  0.7818608E-02  0.8757312E-01
         -3   -1    0    0    0  501 -0.00000000000E+00  0.00000000000E+00  0.35632122958E+04  0.35632122958E+04  0.00000000000E+00 0.  1.
          3   -1    0    0  501    0  0.00000000000E+00 -0.00000000000E+00 -0.20446924289E+03  0.20446924289E+03  0.00000000000E+00 0. -1.
         23    2    1    2    0    0  0.75785244423E+03 -0.23530178386E+03  0.23632447683E+04  0.24946049144E+04  0.91763757408E+02 0.  0.
         13    1    3    3    0    0  0.54868369517E+03 -0.19657514432E+03  0.18267781781E+04  0.19175020461E+04  0.00000000000E+00 0. -1.
        -13    1    3    3    0    0  0.20916874905E+03 -0.38726639541E+02  0.53646659021E+03  0.57710286830E+03  0.00000000000E+00 0.  1.
         22    1    1    2    0    0 -0.75785244423E+03  0.23530178386E+03  0.99549828455E+03  0.12730766243E+04  0.00000000000E+00 0. -1.
<mgrwt>
<rscale>  0 0.17071231E+04</rscale>
<asrwt>0</asrwt>
<pdfrwt beam="1">  1        3 0.31456809E-01 0.17071231E+04</pdfrwt>
<pdfrwt beam="2">  1       -3 0.54818646E+00 0.17071231E+04</pdfrwt>
<totfact> 0.42356871E-02</totfact>
</mgrwt>
</event>
<event>
 6    1  0.1528034E-005  0.1219694E+04  0.7818608E-02  0.9095791E-01
          1   -1    0    0  501    0  0.00000000000E+00  0.00000000000E+00  0.32321583424E+03  0.32321583424E+03  0.00000000000E+00 0. -1.
         -1   -1    0    0    0  501 -0.00000000000E+00 -0.00000000000E+00 -0.11506659018E+04  0.11506659018E+04  0.00000000000E+00 0.  1.
         23    2    1    2    0    0 -0.15313325446E+01 -0.34241253974E+03  0.18934829366E+03  0.40097558929E+03  0.87635349824E+02 0.  0.
         11    1    3    3    0    0  0.11751142135E+02 -0.14961080683E+03  0.13071734161E+03  0.19901885905E+03  0.00000000000E+00 0.  1.
        -11    1    3    3    0    0 -0.13282474679E+02 -0.19280173291E+03  0.58630952054E+02  0.20195673023E+03  0.00000000000E+00 0. -1.
         22    1    1    2    0    0  0.15313325446E+01  0.34241253974E+03 -0.10167983612E+04  0.10729061468E+04  0.00000000000E+00 0.  1.
<mgrwt>
<rscale>  0 0.12196941E+04</rscale>
<asrwt>0</asrwt>
<pdfrwt beam="1">  1        1 0.49725511E-01 0.12196941E+04</pdfrwt>
<pdfrwt beam="2">  1       -1 0.17702553E+00 0.12196941E+04</pdfrwt>
<totfact> 0.17185058E+01</totfact>
</mgrwt>
</event>
<event>
 6    1  0.1528034E-005  0.2355292E+04  0.7818608E-02  0.8456434E-01
          1   -1    0    0  501    0  0.00000000000E+00  0.00000000000E+00  0.26953967599E+04  0.26953967599E+04  0.00000000000E+00 0. -1.
         -1   -1    0    0    0  501 -0.00000000000E+00 -0.00000000000E+00 -0.51452551324E+03  0.51452551324E+03  0.00000000000E+00 0.  1.
         23    2    1    2    0    0  0.50861400304E+03 -0.14090735020E+03 -0.34004678987E+03  0.63435033037E+03  0.90694194474E+02 0.  0.
         11    1    3    3    0    0  0.33983657911E+03 -0.13092094923E+03 -0.25877167225E+03  0.44675717544E+03  0.00000000000E+00 0.  1.
        -11    1    3    3    0    0  0.16877742393E+03 -0.99864009779E+01 -0.81275117616E+02  0.18759315493E+03  0.00000000000E+00 0. -1.
         22    1    1    2    0    0 -0.50861400304E+03  0.14090735020E+03  0.25209180365E+04  0.25755719428E+04  0.00000000000E+00 0. -1.
<mgrwt>
<rscale>  0 0.23552923E+04</rscale>
<asrwt>0</asrwt>
<pdfrwt beam="1">  1        1 0.41467642E+00 0.23552923E+04</pdfrwt>
<pdfrwt beam="2">  1       -1 0.79157773E-01 0.23552923E+04</pdfrwt>
<totfact> 0.14190667E+00</totfact>
</mgrwt>
</event>
<event>
 6    1  0.1528034E-005  0.2712927E+04  0.7818608E-02  0.8330823E-01
         -2   -1    0    0    0  501 -0.00000000000E+00  0.00000000000E+00  0.73698484080E+03  0.73698484080E+03  0.00000000000E+00 0.  1.
          2   -1    0    0  501    0  0.00000000000E+00 -0.00000000000E+00 -0.24966493325E+04  0.24966493325E+04  0.00000000000E+00 0. -1.
         23    2    1    2    0    0  0.51742557137E+03 -0.11135561298E+04 -0.19803542609E+03  0.12470738761E+04  0.90767540132E+02 0.  0.
         13    1    3    3    0    0  0.15866615530E+03 -0.25533091503E+03 -0.34040216944E+02  0.30253522337E+03  0.00000000000E+00 0. -1.
        -13    1    3    3    0    0  0.35875941607E+03 -0.85822521473E+03 -0.16399520915E+03  0.94453865270E+03  0.00000000000E+00 0.  1.
         22    1    1    2    0    0 -0.51742557137E+03  0.11135561298E+04 -0.15616290657E+04  0.19865602973E+04  0.00000000000E+00 0. -1.
<mgrwt>
<rscale>  0 0.27129266E+04</rscale>
<asrwt>0</asrwt>
<pdfrwt beam="1">  1        2 0.38409990E+00 0.27129266E+04</pdfrwt>
<pdfrwt beam="2">  1       -2 0.11338228E+00 0.27129266E+04</pdfrwt>
<totfact> 0.18700652E+00</totfact>
</mgrwt>
</event>
<event>
 6    1  0.1528034E-005  0.1542163E+04  0.7818608E-02  0.8856889E-01
          1   -1    0    0  501    0  0.00000000000E+00  0.00000000000E+00  0.12732822405E+04  0.12732822405E+04  0.00000000000E+00 0. -1.
         -1   -1    0    0    0  501 -0.00000000000E+00 -0.00000000000E+00 -0.46695574046E+03  0.46695574046E+03  0.00000000000E+00 0.  1.
         23    2    1    2    0    0 -0.74566211248E+02 -0.60816450262E+02  0.12648273139E+04  0.12717491799E+04  0.91099297985E+02 0.  0.
         13    1    3    3    0    0 -0.72758725592E+02 -0.16277027317E+02  0.48990500068E+03  0.49554584396E+03  0.00000000000E+00 0. -1.
        -13    1    3    3    0    0 -0.18074856561E+01 -0.44539422945E+02  0.77492231322E+03  0.77620333595E+03  0.00000000000E+00 0.  1.
         22    1    1    2    0    0  0.74566211248E+02  0.60816450262E+02 -0.45850081382E+03  0.46848880110E+03  0.00000000000E+00 0.  1.
<mgrwt>
<rscale>  0 0.15421627E+04</rscale>
<asrwt>0</asrwt>
<pdfrwt beam="1">  1        1 0.19588957E+00 0.15421627E+04</pdfrwt>
<pdfrwt beam="2">  1       -1 0.71839346E-01 0.15421627E+04</pdfrwt>
<totfact> 0.17824694E+01</totfact>
</mgrwt>
</event>
<event>
 6    1  0.1528034E-005  0.2014653E+04  0.7818608E-02  0.8599801E-01
          1   -1    0    0  501    0  0.00000000000E+00  0.00000000000E+00  0.17887892109E+04  0.17887892109E+04  0.00000000000E+00 0. -1.
         -1   -1    0    0    0  501 -0.00000000000E+00 -0.00000000000E+00 -0.56725876847E+03  0.56725876847E+03  0.00000000000E+00 0.  1.
         23    2    1    2    0    0 -0.57950478425E+02 -0.83814369842E+03  0.12576077818E+04  0.15151290228E+04  0.90529031753E+02 0.  0.
         13    1    3    3    0    0 -0.38585007060E+02 -0.78264968275E+03  0.11972051208E+04  0.14308491989E+04  0.00000000000E+00 0. -1.
        -13    1    3    3    0    0 -0.19365471365E+02 -0.55494015673E+02  0.60402661061E+02  0.84279823920E+02  0.00000000000E+00 0.  1.
         22    1    1    2    0    0  0.57950478425E+02  0.83814369842E+03 -0.36077339402E+02  0.84091895660E+03  0.00000000000E+00 0.  1.
<mgrwt>
<rscale>  0 0.20146527E+04</rscale>
<asrwt>0</asrwt>
<pdfrwt beam="1">  1        1 0.27519834E+00 0.20146527E+04</pdfrwt>
<pdfrwt beam="2">  1       -1 0.87270581E-01 0.20146527E+04</pdfrwt>
<totfact> 0.49648256E+00</totfact>
</mgrwt>
</event>
<event>
 6    1  0.1528034E-005  0.2638196E+04  0.7818608E-02  0.8355342E-01
          2   -1    0    0  501    0  0.00000000000E+00  0.00000000000E+00  0.14352049839E+04  0.14352049839E+04  0.00000000000E+00 0. -1.
         -2   -1    0    0    0  501 -0.00000000000E+00 -0.00000000000E+00 -0.12123837009E+04  0.12123837009E+04  0.00000000000E+00 0.  1.
         23    2    1    2    0    0  0.10358433856E+04  0.38700253781E+03  0.83045757337E+03  0.13858579904E+04  0.90554429519E+02 0.  0.
         11    1    3    3    0    0  0.49747356371E+03  0.18382358389E+03  0.34195312521E+03  0.63103327679E+03  0.00000000000E+00 0. -1.
        -11    1    3    3    0    0  0.53836982189E+03  0.20317895393E+03  0.48850444816E+03  0.75482471364E+03  0.00000000000E+00 0.  1.
         22    1    1    2    0    0 -0.10358433856E+04 -0.38700253781E+03 -0.60763629040E+03  0.12617306944E+04  0.00000000000E+00 0.  1.
<mgrwt>
<rscale>  0 0.26381957E+04</rscale>
<asrwt>0</asrwt>
<pdfrwt beam="1">  1        2 0.22080077E+00 0.26381957E+04</pdfrwt>
<pdfrwt beam="2">  1       -2 0.18652057E+00 0.26381957E+04</pdfrwt>
<totfact> 0.19933836E+00</totfact>
</mgrwt>
</event>
<event>
 6    1  0.1528034E-005  0.6924874E+03  0.7818608E-02  0.9730167E-01
         -1   -1    0    0    0  501 -0.00000000000E+00  0.00000000000E+00  0.21354310713E+03  0.21354310713E+03  0.00000000000E+00 0.  1.
          1   -1    0    0  501    0  0.00000000000E+00 -0.00000000000E+00 -0.56140743961E+03  0.56140743961E+03  0.00000000000E+00 0. -1.
         23    2    1    2    0    0 -0.16434847443E+03  0.11236604939E+03  0.13174826699E+03  0.25565795516E+03  0.91470400019E+02 0.  0.
         11    1    3    3    0    0 -0.90765626717E+02  0.11323859528E+03  0.94489186648E+02  0.17317501219E+03  0.00000000000E+00 0.  1.
        -11    1    3    3    0    0 -0.73582847710E+02 -0.87254588173E+00  0.37259080339E+02  0.82482942971E+02  0.00000000000E+00 0. -1.
         22    1    1    2    0    0  0.16434847443E+03 -0.11236604939E+03 -0.47961259946E+03  0.51929259158E+03  0.00000000000E+00 0. -1.
<mgrwt>
<rscale>  0 0.69248737E+03</rscale>
<asrwt>0</asrwt>
<pdfrwt beam="1">  1        1 0.86370374E-01 0.69248737E+03</pdfrwt>
<pdfrwt beam="2">  1       -1 0.32852786E-01 0.69248737E+03</pdfrwt>
<totfact> 0.33124944E+02</totfact>
</mgrwt>
</event>
<event>
 6    1  0.1528034E-005  0.3417877E+04  0.7818608E-02  0.8133533E-01
          1   -1    0    0  501    0  0.00000000000E+00  0.00000000000E+00  0.29609505795E+04  0.29609505795E+04  0.00000000000E+00 0. -1.
         -1   -1    0    0    0  501 -0.00000000000E+00 -0.00000000000E+00 -0.98632855533E+03  0.98632855533E+03  0.00000000000E+00 0.  1.
         23    2    1    2    0    0 -0.78886684571E+03 -0.86003992338E+02 -0.75836564487E+03  0.11014173697E+04  0.91072411083E+02 0.  0.
         13    1    3    3    0    0 -0.48198140862E+03 -0.78438667070E+01 -0.46173498581E+03  0.66750790379E+03  0.00000000000E+00 0. -1.
        -13    1    3    3    0    0 -0.30688543709E+03 -0.78160125631E+02 -0.29663065906E+03  0.43390946593E+03  0.00000000000E+00 0.  1.
         22    1    1    2    0    0  0.78886684571E+03  0.86003992338E+02  0.27329876690E+04  0.28458617651E+04  0.00000000000E+00 0. -1.
<mgrwt>
<rscale>  0 0.34178766E+04</rscale>
<asrwt>0</asrwt>
<pdfrwt beam="1">  1        1 0.45553086E+00 0.34178766E+04</pdfrwt>
<pdfrwt beam="2">  1       -1 0.15174286E+00 0.34178766E+04</pdfrwt>
<totfact> 0.17715515E-01</totfact>
</mgrwt>
</event>
<event>
 6    1  0.1528034E-005  0.3209207E+04  0.7818608E-02  0.8186390E-01
         -2   -1    0    0    0  501 -0.00000000000E+00  0.00000000000E+00  0.97377577749E+03  0.97377577749E+03  0.00000000000E+00 0. -1.
          2   -1    0    0  501    0  0.00000000000E+00 -0.00000000000E+00 -0.26440923960E+04  0.26440923960E+04  0.00000000000E+00 0.  1.
         23    2    1    2    0    0  0.18108035368E+03  0.13982733531E+04  0.24267271247E+02  0.14134242472E+04  0.96024671860E+02 0.  0.
         11    1    3    3    0    0  0.35399097229E+02  0.55809886999E+03  0.39083156062E+02  0.56058446095E+03  0.00000000000E+00 0. -1.
        -11    1    3    3    0    0  0.14568125646E+03  0.84017448315E+03 -0.14815884814E+02  0.85283978628E+03  0.00000000000E+00 0.  1.
         22    1    1    2    0    0 -0.18108035368E+03 -0.13982733531E+04 -0.16945838897E+04  0.22044439262E+04  0.00000000000E+00 0.  1.
<mgrwt>
<rscale>  0 0.32092075E+04</rscale>
<asrwt>0</asrwt>
<pdfrwt beam="1">  1        2 0.40678345E+00 0.32092075E+04</pdfrwt>
<pdfrwt beam="2">  1       -2 0.14981165E+00 0.32092075E+04</pdfrwt>
<totfact> 0.72482419E-01</totfact>
</mgrwt>
</event>
<event>
 6    1  0.1528034E-005  0.6829585E+03  0.7818608E-02  0.9746828E-01
         -1   -1    0    0    0  501 -0.00000000000E+00  0.00000000000E+00  0.47289639818E+03  0.47289639818E+03  0.00000000000E+00 0.  1.
          1   -1    0    0  501    0  0.00000000000E+00 -0.00000000000E+00 -0.24658272399E+03  0.24658272399E+03  0.00000000000E+00 0. -1.
         23    2    1    2    0    0  0.27969112164E+03  0.69732197294E+02 -0.65704771213E+02  0.30915671806E+03  0.90393896376E+02 0.  0.
         11    1    3    3    0    0  0.25890510169E+03  0.35033494399E+02 -0.51538432718E+02  0.26629946950E+03  0.00000000000E+00 0.  1.
        -11    1    3    3    0    0  0.20786019946E+02  0.34698702894E+02 -0.14166338495E+02  0.42857248559E+02  0.00000000000E+00 0. -1.
         22    1    1    2    0    0 -0.27969112164E+03 -0.69732197294E+02  0.29201844541E+03  0.41032240411E+03  0.00000000000E+00 0.  1.
<mgrwt>
<rscale>  0 0.68295851E+03</rscale>
<asrwt>0</asrwt>
<pdfrwt beam="1">  1        1 0.37935804E-01 0.68295851E+03</pdfrwt>
<pdfrwt beam="2">  1       -1 0.72753292E-01 0.68295851E+03</pdfrwt>
<totfact> 0.21890501E+02</totfact>
</mgrwt>
</event>
<event>
 6    1  0.1528034E-005  0.3113185E+04  0.7818608E-02  0.8212129E-01
         -2   -1    0    0    0  501 -0.00000000000E+00  0.00000000000E+00  0.10359523079E+04  0.10359523079E+04  0.00000000000E+00 0.  1.
          2   -1    0    0  501    0  0.00000000000E+00 -0.00000000000E+00 -0.23388911553E+04  0.23388911553E+04  0.00000000000E+00 0. -1.
         23    2    1    2    0    0 -0.63577378996E+03  0.86856375872E+03 -0.18690144816E+04  0.21586802592E+04  0.89855517180E+02 0.  0.
         11    1    3    3    0    0 -0.26450366092E+03  0.29227680546E+03 -0.65385330344E+03  0.76348677792E+03  0.00000000000E+00 0. -1.
        -11    1    3    3    0    0 -0.37127012905E+03  0.57628695327E+03 -0.12151611782E+04  0.13951934813E+04  0.00000000000E+00 0.  1.
         22    1    1    2    0    0  0.63577378996E+03 -0.86856375872E+03  0.56607563430E+03  0.12161632040E+04  0.00000000000E+00 0.  1.
<mgrwt>
<rscale>  0 0.31131847E+04</rscale>
<asrwt>0</asrwt>
<pdfrwt beam="1">  1        2 0.35982941E+00 0.31131847E+04</pdfrwt>
<pdfrwt beam="2">  1       -2 0.15937728E+00 0.31131847E+04</pdfrwt>
<totfact> 0.93016010E-01</totfact>
</mgrwt>
</event>
<event>
 6    1  0.1528034E-005  0.1093150E+04  0.7818608E-02  0.9211894E-01
          2   -1    0    0  501    0  0.00000000000E+00  0.00000000000E+00  0.23460199704E+04  0.23460199704E+04  0.00000000000E+00 0.  1.
         -2   -1    0    0    0  501 -0.00000000000E+00 -0.00000000000E+00 -0.12734081457E+03  0.12734081457E+03  0.00000000000E+00 0. -1.
         23    2    1    2    0    0 -0.35795115632E+03  0.43601939981E+02  0.19960553736E+03  0.42233946955E+03  0.92185126328E+02 0.  0.
         13    1    3    3    0    0 -0.29384188716E+03  0.10720554626E+02  0.12777363038E+03  0.32059957199E+03  0.00000000000E+00 0.  1.
        -13    1    3    3    0    0 -0.64109269161E+02  0.32881385355E+02  0.71831906981E+02  0.10173989756E+03  0.00000000000E+00 0. -1.
         22    1    1    2    0    0  0.35795115632E+03 -0.43601939981E+02  0.20190736185E+04  0.20510213155E+04  0.00000000000E+00 0.  1.
<mgrwt>
<rscale>  0 0.10931498E+04</rscale>
<asrwt>0</asrwt>
<pdfrwt beam="1">  1        2 0.36092612E+00 0.10931498E+04</pdfrwt>
<pdfrwt beam="2">  1       -2 0.19590896E-01 0.10931498E+04</pdfrwt>
<totfact> 0.94587984E+01</totfact>
</mgrwt>
</event>
<event>
 6    1  0.1528034E-005  0.2408251E+04  0.7818608E-02  0.8436421E-01
          1   -1    0    0  501    0  0.00000000000E+00  0.00000000000E+00  0.10365103289E+04  0.10365103289E+04  0.00000000000E+00 0. -1.
         -1   -1    0    0    0  501 -0.00000000000E+00 -0.00000000000E+00 -0.13988460661E+04  0.13988460661E+04  0.00000000000E+00 0.  1.
         23    2    1    2    0    0  0.85039080902E+03 -0.83714711589E+03 -0.33141967385E+03  0.12416497206E+04  0.88742360944E+02 0.  0.
         13    1    3    3    0    0  0.79302923673E+03 -0.80610603027E+03 -0.30439168750E+03  0.11710493592E+04  0.00000000000E+00 0.  1.
        -13    1    3    3    0    0  0.57361572292E+02 -0.31041085621E+02 -0.27027986351E+02  0.70600361320E+02  0.00000000000E+00 0. -1.
         22    1    1    2    0    0 -0.85039080902E+03  0.83714711589E+03 -0.30916063332E+02  0.11937066745E+04  0.00000000000E+00 0. -1.
<mgrwt>
<rscale>  0 0.24082511E+04</rscale>
<asrwt>0</asrwt>
<pdfrwt beam="1">  1        1 0.15946313E+00 0.24082511E+04</pdfrwt>
<pdfrwt beam="2">  1       -1 0.21520709E+00 0.24082511E+04</pdfrwt>
<totfact> 0.15044205E+00</totfact>
</mgrwt>
</event>
<event>
 6    1  0.1528034E-005  0.1235208E+04  0.7818608E-02  0.9082586E-01
          2   -1    0    0  501    0  0.00000000000E+00  0.00000000000E+00  0.92111664894E+03  0.92111664894E+03  0.00000000000E+00 0.  1.
         -2   -1    0    0    0  501 -0.00000000000E+00 -0.00000000000E+00 -0.41410008922E+03  0.41410008922E+03  0.00000000000E+00 0. -1.
         23    2    1    2    0    0 -0.29431171141E+03 -0.35980454369E+02 -0.32645803367E+03  0.45057337816E+03  0.92344706349E+02 0.  0.
         11    1    3    3    0    0 -0.15416141995E+03 -0.65072157282E+02 -0.17083997536E+03  0.23913683580E+03  0.00000000000E+00 0.  1.
        -11    1    3    3    0    0 -0.14015029146E+03  0.29091702913E+02 -0.15561805831E+03  0.21143654236E+03  0.00000000000E+00 0. -1.
         22    1    1    2    0    0  0.29431171141E+03  0.35980454369E+02  0.83347459339E+03  0.88464336000E+03  0.00000000000E+00 0.  1.
<mgrwt>
<rscale>  0 0.12352077E+04</rscale>
<asrwt>0</asrwt>
<pdfrwt beam="1">  1        2 0.14171025E+00 0.12352077E+04</pdfrwt>
<pdfrwt beam="2">  1       -2 0.63707706E-01 0.12352077E+04</pdfrwt>
<totfact> 0.63693078E+01</totfact>
</mgrwt>
</event>
<event>
 6    1  0.1528034E-005  0.1835504E+04  0.7818608E-02  0.8687644E-01
         -2   -1    0    0    0  501 -0.00000000000E+00  0.00000000000E+00  0.30921829537E+03  0.30921829537E+03  0.00000000000E+00 0.  1.
          2   -1    0    0  501    0  0.00000000000E+00 -0.00000000000E+00 -0.27238636077E+04  0.27238636077E+04  0.00000000000E+00 0. -1.
         23    2    1    2    0    0 -0.52619272972E+03  0.54270341641E+03 -0.35540630414E+03  0.83948415512E+03  0.83750932449E+02 0.  0.
         11    1    3    3    0    0 -0.32600634012E+03  0.28072848340E+03 -0.18444222011E+03  0.46808925190E+03  0.00000000000E+00 0.  1.
        -11    1    3    3    0    0 -0.20018638960E+03  0.26197493301E+03 -0.17096408404E+03  0.37139490322E+03  0.00000000000E+00 0. -1.
         22    1    1    2    0    0  0.52619272972E+03 -0.54270341641E+03 -0.20592390082E+04  0.21935977480E+04  0.00000000000E+00 0. -1.
<mgrwt>
<rscale>  0 0.18355037E+04</rscale>
<asrwt>0</asrwt>
<pdfrwt beam="1">  1        2 0.41905595E+00 0.18355037E+04</pdfrwt>
<pdfrwt beam="2">  1       -2 0.47572044E-01 0.18355037E+04</pdfrwt>
<totfact> 0.10149916E+01</totfact>
</mgrwt>
</event>
<event>
 6    1  0.1528034E-005  0.6950310E+03  0.7818608E-02  0.9725768E-01
         -2   -1    0    0    0  501 -0.00000000000E+00  0.00000000000E+00  0.93461893083E+03  0.93461893083E+03  0.00000000000E+00 0.  1.
          2   -1    0    0  501    0  0.00000000000E+00 -0.00000000000E+00 -0.12921525121E+03  0.12921525121E+03  0.00000000000E+00 0. -1.
         23    2    1    2    0    0 -0.16445271214E+03 -0.24586093756E+03  0.67055465429E+03  0.73875487668E+03  0.92859723689E+02 0.  0.
         11    1    3    3    0    0 -0.35794869656E+02 -0.13259982374E+03  0.26539768806E+03  0.29883092005E+03  0.00000000000E+00 0. -1.
        -11    1    3    3    0    0 -0.12865784248E+03 -0.11326111382E+03  0.40515696623E+03  0.43992395663E+03  0.00000000000E+00 0.  1.
         22    1    1    2    0    0  0.16445271214E+03  0.24586093756E+03  0.13484902533E+03  0.32507930537E+03  0.00000000000E+00 0. -1.
<mgrwt>
<rscale>  0 0.69503099E+03</rscale>
<asrwt>0</asrwt>
<pdfrwt beam="1">  1        2 0.19879270E-01 0.69503099E+03</pdfrwt>
<pdfrwt beam="2">  1       -2 0.14378752E+00 0.69503099E+03</pdfrwt>
<totfact> 0.97090152E+01</totfact>
</mgrwt>
</event>
<event>
 6    1  0.1528034E-005  0.3091565E+04  0.7818608E-02  0.8218057E-01
         -2   -1    0    0    0  501 -0.00000000000E+00  0.00000000000E+00  0.12768661124E+04  0.12768661124E+04  0.00000000000E+00 0.  1.
          2   -1    0    0  501    0  0.00000000000E+00 -0.00000000000E+00 -0.18713340095E+04  0.18713340095E+04  0.00000000000E+00 0. -1.
         23    2    1    2    0    0  0.97625841106E+03  0.90220400344E+03 -0.10982943231E+04  0.17266187432E+04  0.88934330686E+02 0.  0.
         11    1    3    3    0    0  0.53873990549E+03  0.43741214566E+03 -0.57016361530E+03  0.89814064553E+03  0.00000000000E+00 0.  1.
        -11    1    3    3    0    0  0.43751850556E+03  0.46479185778E+03 -0.52813070776E+03  0.82847809763E+03  0.00000000000E+00 0. -1.
         22    1    1    2    0    0 -0.97625841106E+03 -0.90220400344E+03  0.50382642591E+03  0.14215813788E+04  0.00000000000E+00 0.  1.
<mgrwt>
<rscale>  0 0.30915646E+04</rscale>
<asrwt>0</asrwt>
<pdfrwt beam="1">  1        2 0.28789754E+00 0.30915646E+04</pdfrwt>
<pdfrwt beam="2">  1       -2 0.19644094E+00 0.30915646E+04</pdfrwt>
<totfact> 0.93962749E-01</totfact>
</mgrwt>
</event>
<event>
 6    1  0.1528034E-005  0.1815907E+04  0.7818608E-02  0.8697886E-01
          2   -1    0    0  501    0  0.00000000000E+00  0.00000000000E+00  0.10075447911E+04  0.10075447911E+04  0.00000000000E+00 0. -1.
         -2   -1    0    0    0  501 -0.00000000000E+00 -0.00000000000E+00 -0.81820655010E+03  0.81820655010E+03  0.00000000000E+00 0.  1.
         23    2    1    2    0    0 -0.53451257670E+03  0.16200670414E+03 -0.62193771400E+03  0.84080538230E+03  0.90538963884E+02 0.  0.
         11    1    3    3    0    0 -0.37479731797E+03  0.69342629642E+02 -0.41692972380E+03  0.56489983575E+03  0.00000000000E+00 0.  1.
        -11    1    3    3    0    0 -0.15971525873E+03  0.92664074496E+02 -0.20500799020E+03  0.27590554655E+03  0.00000000000E+00 0. -1.
         22    1    1    2    0    0  0.53451257670E+03 -0.16200670414E+03  0.81127595503E+03  0.98494595894E+03  0.00000000000E+00 0. -1.
<mgrwt>
<rscale>  0 0.18159072E+04</rscale>
<asrwt>0</asrwt>
<pdfrwt beam="1">  1        2 0.15500689E+00 0.18159072E+04</pdfrwt>
<pdfrwt beam="2">  1       -2 0.12587793E+00 0.18159072E+04</pdfrwt>
<totfact> 0.11065028E+01</totfact>
</mgrwt>
</event>
<event>
 6    1  0.1528034E-005  0.2803221E+04  0.7818608E-02  0.8302269E-01
         -2   -1    0    0    0  501 -0.00000000000E+00  0.00000000000E+00  0.81534228784E+03  0.81534228784E+03  0.00000000000E+00 0.  1.
          2   -1    0    0  501    0  0.00000000000E+00 -0.00000000000E+00 -0.24094321809E+04  0.24094321809E+04  0.00000000000E+00 0. -1.
         23    2    1    2    0    0  0.53240291995E+03 -0.12495165719E+04 -0.11890385285E+04  0.18074491213E+04  0.91187558575E+02 0.  0.
         11    1    3    3    0    0  0.22750700560E+03 -0.59550558176E+03 -0.50661917616E+03  0.81427840764E+03  0.00000000000E+00 0. -1.
        -11    1    3    3    0    0  0.30489591435E+03 -0.65401099019E+03 -0.68241935239E+03  0.99317071362E+03  0.00000000000E+00 0.  1.
         22    1    1    2    0    0 -0.53240291995E+03  0.12495165719E+04 -0.40505136453E+03  0.14173253475E+04  0.00000000000E+00 0.  1.
<mgrwt>
<rscale>  0 0.28032210E+04</rscale>
<asrwt>0</asrwt>
<pdfrwt beam="1">  1        2 0.37068187E+00 0.28032210E+04</pdfrwt>
<pdfrwt beam="2">  1       -2 0.12543728E+00 0.28032210E+04</pdfrwt>
<totfact> 0.16230991E+00</totfact>
</mgrwt>
</event>
<event>
 6    1  0.1528034E-005  0.1657084E+04  0.7818608E-02  0.8786226E-01
         -2   -1    0    0    0  501 -0.00000000000E+00  0.00000000000E+00  0.13944785048E+04  0.13944785048E+04  0.00000000000E+00 0. -1.
          2   -1    0    0  501    0  0.00000000000E+00 -0.00000000000E+00 -0.49228589162E+03  0.49228589162E+03  0.00000000000E+00 0.  1.
         23    2    1    2    0    0 -0.15873825790E+03 -0.46043662223E+03 -0.30717613512E+03  0.58301116556E+03  0.91351647841E+02 0.  0.
         13    1    3    3    0    0 -0.38325199947E+02 -0.14159833535E+03 -0.14243045003E+03  0.20446354839E+03  0.00000000000E+00 0. -1.
        -13    1    3    3    0    0 -0.12041305795E+03 -0.31883828688E+03 -0.16474568510E+03  0.37854761717E+03  0.00000000000E+00 0.  1.
         22    1    1    2    0    0  0.15873825790E+03  0.46043662223E+03  0.12093687484E+04  0.13037532309E+04  0.00000000000E+00 0. -1.
<mgrwt>
<rscale>  0 0.16570843E+04</rscale>
<asrwt>0</asrwt>
<pdfrwt beam="1">  1        2 0.75736292E-01 0.16570843E+04</pdfrwt>
<pdfrwt beam="2">  1       -2 0.21453515E+00 0.16570843E+04</pdfrwt>
<totfact> 0.64053722E+00</totfact>
</mgrwt>
</event>
<event>
 6    1  0.1528034E-005  0.2578905E+04  0.7818608E-02  0.8375402E-01
         -2   -1    0    0    0  501 -0.00000000000E+00  0.00000000000E+00  0.68114857214E+03  0.68114857214E+03  0.00000000000E+00 0.  1.
          2   -1    0    0  501    0  0.00000000000E+00 -0.00000000000E+00 -0.24410058371E+04  0.24410058371E+04  0.00000000000E+00 0. -1.
         23    2    1    2    0    0  0.29855448401E+03 -0.77520062110E+03 -0.20724234515E+04  0.22345912262E+04  0.91587132729E+02 0.  0.
         11    1    3    3    0    0  0.18755965416E+03 -0.56919903342E+03 -0.14112045462E+04  0.15331876711E+04  0.00000000000E+00 0.  1.
        -11    1    3    3    0    0  0.11099482985E+03 -0.20600158768E+03 -0.66121890528E+03  0.70140355508E+03  0.00000000000E+00 0. -1.
         22    1    1    2    0    0 -0.29855448401E+03  0.77520062110E+03  0.31256618657E+03  0.88756318303E+03  0.00000000000E+00 0.  1.
<mgrwt>
<rscale>  0 0.25789049E+04</rscale>
<asrwt>0</asrwt>
<pdfrwt beam="1">  1        2 0.37553936E+00 0.25789049E+04</pdfrwt>
<pdfrwt beam="2">  1       -2 0.10479209E+00 0.25789049E+04</pdfrwt>
<totfact> 0.24638971E+00</totfact>
</mgrwt>
</event>
<event>
 6    1  0.1528034E-005  0.2240846E+04  0.7818608E-02  0.8501617E-01
          2   -1    0    0  501    0  0.00000000000E+00  0.00000000000E+00  0.19122285576E+04  0.19122285576E+04  0.00000000000E+00 0. -1.
         -2   -1    0    0    0  501 -0.00000000000E+00 -0.00000000000E+00 -0.65648440012E+03  0.65648440012E+03  0.00000000000E+00 0.  1.
         23    2    1    2    0    0 -0.68188829165E+03 -0.44749080342E+03 -0.24853235653E+03  0.85755326557E+03  0.91703923621E+02 0.  0.
         11    1    3    3    0    0 -0.41837427482E+03 -0.31024868562E+03 -0.12409139773E+03  0.53543436176E+03  0.00000000000E+00 0.  1.
        -11    1    3    3    0    0 -0.26351401682E+03 -0.13724211780E+03 -0.12444095881E+03  0.32211890380E+03  0.00000000000E+00 0. -1.
         22    1    1    2    0    0  0.68188829165E+03  0.44749080342E+03  0.15042765140E+04  0.17111596921E+04  0.00000000000E+00 0. -1.
<mgrwt>
<rscale>  0 0.22408465E+04</rscale>
<asrwt>0</asrwt>
<pdfrwt beam="1">  1        2 0.29418901E+00 0.22408465E+04</pdfrwt>
<pdfrwt beam="2">  1       -2 0.10099760E+00 0.22408465E+04</pdfrwt>
<totfact> 0.54938523E+00</totfact>
</mgrwt>
</event>
<event>
 6    1  0.1528034E-005  0.5760967E+04  0.7818608E-02  0.7720766E-01
         -2   -1    0    0    0  501 -0.00000000000E+00  0.00000000000E+00  0.25726319250E+04  0.25726319250E+04  0.00000000000E+00 0. -1.
          2   -1    0    0  501    0  0.00000000000E+00 -0.00000000000E+00 -0.32251742871E+04  0.32251742871E+04  0.00000000000E+00 0.  1.
         23    2    1    2    0    0 -0.10928524484E+04 -0.25509856481E+04  0.44748645997E+03  0.28125226979E+04  0.90473992603E+02 0.  0.
         13    1    3    3    0    0 -0.22121723315E+03 -0.44276455110E+03  0.60644344920E+02  0.49865343529E+03  0.00000000000E+00 0.  1.
        -13    1    3    3    0    0 -0.87163521521E+03 -0.21082210970E+04  0.38684211505E+03  0.23138692626E+04  0.00000000000E+00 0. -1.
         22    1    1    2    0    0  0.10928524484E+04  0.25509856481E+04 -0.11000288221E+04  0.29852835142E+04  0.00000000000E+00 0.  1.
<mgrwt>
<rscale>  0 0.57609674E+04</rscale>
<asrwt>0</asrwt>
<pdfrwt beam="1">  1        2 0.49618066E+00 0.57609674E+04</pdfrwt>
<pdfrwt beam="2">  1       -2 0.39578953E+00 0.57609674E+04</pdfrwt>
<totfact> 0.67689920E-03</totfact>
</mgrwt>
</event>
<event>
 6    1  0.1528034E-005  0.3147354E+04  0.7818608E-02  0.8202861E-01
          1   -1    0    0  501    0  0.00000000000E+00  0.00000000000E+00  0.16546561035E+04  0.16546561035E+04  0.00000000000E+00 0. -1.
         -1   -1    0    0    0  501 -0.00000000000E+00 -0.00000000000E+00 -0.14966605638E+04  0.14966605638E+04  0.00000000000E+00 0.  1.
         23    2    1    2    0    0 -0.33947463964E+03 -0.33869364587E+03 -0.14202617899E+04  0.15018159503E+04  0.91384790979E+02 0.  0.
         13    1    3    3    0    0 -0.20705555162E+03 -0.18048188071E+03 -0.93515134506E+03  0.97465570787E+03  0.00000000000E+00 0. -1.
        -13    1    3    3    0    0 -0.13241908802E+03 -0.15821176516E+03 -0.48511044486E+03  0.52716024245E+03  0.00000000000E+00 0.  1.
         22    1    1    2    0    0  0.33947463964E+03  0.33869364587E+03  0.15782573296E+04  0.16495007170E+04  0.00000000000E+00 0. -1.
<mgrwt>
<rscale>  0 0.31473535E+04</rscale>
<asrwt>0</asrwt>
<pdfrwt beam="1">  1        1 0.25456248E+00 0.31473535E+04</pdfrwt>
<pdfrwt beam="2">  1       -1 0.23025547E+00 0.31473535E+04</pdfrwt>
<totfact> 0.40449422E-01</totfact>
</mgrwt>
</event>
<event>
 6    1  0.1528034E-005  0.5544295E+04  0.7818608E-02  0.7749623E-01
         -2   -1    0    0    0  501 -0.00000000000E+00  0.00000000000E+00  0.30603187081E+04  0.30603187081E+04  0.00000000000E+00 0.  1.
          2   -1    0    0  501    0  0.00000000000E+00 -0.00000000000E+00 -0.25111117703E+04  0.25111117703E+04  0.00000000000E+00 0. -1.
         23    2    1    2    0    0 -0.56422239672E+03  0.99462761125E+03 -0.22621725030E+04  0.25363875860E+04  0.90590039400E+02 0.  0.
         13    1    3    3    0    0 -0.41712438069E+03  0.71777374310E+03 -0.15516830188E+04  0.17598045591E+04  0.00000000000E+00 0. -1.
        -13    1    3    3    0    0 -0.14709801603E+03  0.27685386814E+03 -0.71048948418E+03  0.77658302696E+03  0.00000000000E+00 0.  1.
         22    1    1    2    0    0  0.56422239672E+03 -0.99462761125E+03  0.28113794409E+04  0.30350428924E+04  0.00000000000E+00 0.  1.
<mgrwt>
<rscale>  0 0.55442952E+04</rscale>
<asrwt>0</asrwt>
<pdfrwt beam="1">  1        2 0.38632489E+00 0.55442952E+04</pdfrwt>
<pdfrwt beam="2">  1       -2 0.47081826E+00 0.55442952E+04</pdfrwt>
<totfact> 0.60945461E-03</totfact>
</mgrwt>
</event>
<event>
 6    1  0.1528034E-005  0.6719441E+03  0.7818608E-02  0.9766452E-01
         -2   -1    0    0    0  501 -0.00000000000E+00  0.00000000000E+00  0.13670729576E+04  0.13670729576E+04  0.00000000000E+00 0.  1.
          2   -1    0    0  501    0  0.00000000000E+00 -0.00000000000E+00 -0.82568528712E+02  0.82568528712E+02  0.00000000000E+00 0. -1.
         23    2    1    2    0    0 -0.97524278347E+02  0.30838286615E+03  0.79293478625E+03  0.86120993501E+03  0.91246917267E+02 0.  0.
         13    1    3    3    0    0 -0.56715953876E+02  0.15658264825E+03  0.52263224241E+03  0.54852464481E+03  0.00000000000E+00 0. -1.
        -13    1    3    3    0    0 -0.40808324470E+02  0.15180021790E+03  0.27030254385E+03  0.31268529021E+03  0.00000000000E+00 0.  1.
         22    1    1    2    0    0  0.97524278347E+02 -0.30838286615E+03  0.49156964263E+03  0.58843155130E+03  0.00000000000E+00 0. -1.
<mgrwt>
<rscale>  0 0.67194405E+03</rscale>
<asrwt>0</asrwt>
<pdfrwt beam="1">  1        2 0.12702852E-01 0.67194405E+03</pdfrwt>
<pdfrwt beam="2">  1       -2 0.21031890E+00 0.67194405E+03</pdfrwt>
<totfact> 0.57416328E+01</totfact>
</mgrwt>
</event>
<event>
 6    1  0.1528034E-005  0.2267258E+04  0.7818608E-02  0.8490944E-01
         -2   -1    0    0    0  501 -0.00000000000E+00  0.00000000000E+00  0.48495556958E+03  0.48495556958E+03  0.00000000000E+00 0. -1.
          2   -1    0    0  501    0  0.00000000000E+00 -0.00000000000E+00 -0.26499632192E+04  0.26499632192E+04  0.00000000000E+00 0.  1.
         23    2    1    2    0    0  0.38668978612E+03 -0.27387055126E+03 -0.25054919759E+04  0.25514261615E+04  0.88041735094E+02 0.  0.
         11    1    3    3    0    0  0.30953352580E+03 -0.18073300993E+03 -0.17520275183E+04  0.17883164847E+04  0.00000000000E+00 0. -1.
        -11    1    3    3    0    0  0.77156260326E+02 -0.93137541328E+02 -0.75346445757E+03  0.76310967687E+03  0.00000000000E+00 0.  1.
         22    1    1    2    0    0 -0.38668978612E+03  0.27387055126E+03  0.34048432629E+03  0.58349262719E+03  0.00000000000E+00 0. -1.
<mgrwt>
<rscale>  0 0.22672577E+04</rscale>
<asrwt>0</asrwt>
<pdfrwt beam="1">  1        2 0.40768665E+00 0.22672577E+04</pdfrwt>
<pdfrwt beam="2">  1       -2 0.74608550E-01 0.22672577E+04</pdfrwt>
<totfact> 0.41766326E+00</totfact>
</mgrwt>
</event>
<event>
 6    1  0.1528034E-005  0.3059174E+04  0.7818608E-02  0.8227032E-01
          2   -1    0    0  501    0  0.00000000000E+00  0.00000000000E+00  0.42355738136E+04  0.42355738136E+04  0.00000000000E+00 0. -1.
         -2   -1    0    0    0  501 -0.00000000000E+00 -0.00000000000E+00 -0.55237761261E+03  0.55237761261E+03  0.00000000000E+00 0.  1.
         23    2    1    2    0    0 -0.51968616348E+03  0.52619653542E+03  0.39362857403E+04  0.40062796169E+04  0.94733507630E+02 0.  0.
         11    1    3    3    0    0 -0.34253012167E+03  0.29069028077E+03  0.25057543439E+04  0.25457086548E+04  0.00000000000E+00 0. -1.
        -11    1    3    3    0    0 -0.17715604181E+03  0.23550625465E+03  0.14305313964E+04  0.14605709621E+04  0.00000000000E+00 0.  1.
         22    1    1    2    0    0  0.51968616348E+03 -0.52619653542E+03 -0.25308953935E+03  0.78167180922E+03  0.00000000000E+00 0.  1.
<mgrwt>
<rscale>  0 0.30591738E+04</rscale>
<asrwt>0</asrwt>
<pdfrwt beam="1">  1        2 0.65162672E+00 0.30591738E+04</pdfrwt>
<pdfrwt beam="2">  1       -2 0.84981174E-01 0.30591738E+04</pdfrwt>
<totfact> 0.22206142E-01</totfact>
</mgrwt>
</event>
<event>
 6    1  0.1528034E-005  0.1581881E+04  0.7818608E-02  0.8831757E-01
          2   -1    0    0  501    0  0.00000000000E+00  0.00000000000E+00  0.98896093310E+03  0.98896093310E+03  0.00000000000E+00 0.  1.
         -2   -1    0    0    0  501 -0.00000000000E+00 -0.00000000000E+00 -0.63257009703E+03  0.63257009703E+03  0.00000000000E+00 0. -1.
         23    2    1    2    0    0 -0.16753119674E+03  0.66535592136E+03  0.57708606937E+03  0.90078725460E+03  0.87316336508E+02 0.  0.
         11    1    3    3    0    0 -0.29705474226E+02  0.19802199517E+03  0.21455240139E+03  0.29347548230E+03  0.00000000000E+00 0.  1.
        -11    1    3    3    0    0 -0.13782572251E+03  0.46733392619E+03  0.36253366798E+03  0.60731177229E+03  0.00000000000E+00 0. -1.
         22    1    1    2    0    0  0.16753119674E+03 -0.66535592136E+03 -0.22069523329E+03  0.72074377553E+03  0.00000000000E+00 0.  1.
<mgrwt>
<rscale>  0 0.15818813E+04</rscale>
<asrwt>0</asrwt>
<pdfrwt beam="1">  1        2 0.15214784E+00 0.15818813E+04</pdfrwt>
<pdfrwt beam="2">  1       -2 0.97318477E-01 0.15818813E+04</pdfrwt>
<totfact> 0.21659853E+01</totfact>
</mgrwt>
</event>
<event>
 6    1  0.1528034E-005  0.2693824E+04  0.7818608E-02  0.8337011E-01
          3   -1    0    0  501    0  0.00000000000E+00  0.00000000000E+00  0.88318945466E+03  0.88318945466E+03  0.00000000000E+00 0. -1.
         -3   -1    0    0    0  501 -0.00000000000E+00 -0.00000000000E+00 -0.20541148637E+04  0.20541148637E+04  0.00000000000E+00 0.  1.
         23    2    1    2    0    0 -0.86009544327E+03  0.86293018514E+03 -0.12083636156E+04  0.17183644940E+04  0.90671004282E+02 0.  0.
         13    1    3    3    0    0 -0.21825339101E+03  0.23429435004E+03 -0.37303873257E+03  0.49161598952E+03  0.00000000000E+00 0. -1.
        -13    1    3    3    0    0 -0.64184205226E+03  0.62863583509E+03 -0.83532488299E+03  0.12267485045E+04  0.00000000000E+00 0.  1.
         22    1    1    2    0    0  0.86009544327E+03 -0.86293018514E+03  0.37438206538E+02  0.12189398243E+04  0.00000000000E+00 0. -1.
<mgrwt>
<rscale>  0 0.26938245E+04</rscale>
<asrwt>0</asrwt>
<pdfrwt beam="1">  1        3 0.13587530E+00 0.26938245E+04</pdfrwt>
<pdfrwt beam="2">  1       -3 0.31601767E+00 0.26938245E+04</pdfrwt>
<totfact> 0.29402703E-02</totfact>
</mgrwt>
</event>
<event>
 6    1  0.1528034E-005  0.1900568E+04  0.7818608E-02  0.8654574E-01
         -2   -1    0    0    0  501 -0.00000000000E+00  0.00000000000E+00  0.24954130706E+03  0.24954130706E+03  0.00000000000E+00 0.  1.
          2   -1    0    0  501    0  0.00000000000E+00 -0.00000000000E+00 -0.36187990412E+04  0.36187990412E+04  0.00000000000E+00 0. -1.
         23    2    1    2    0    0  0.47003017687E+03  0.79533320494E+03 -0.12564965210E+04  0.15624255151E+04  0.94375361671E+02 0.  0.
         11    1    3    3    0    0  0.18093306604E+03  0.36047750305E+03 -0.48457784239E+03  0.63047322697E+03  0.00000000000E+00 0. -1.
        -11    1    3    3    0    0  0.28909711083E+03  0.43485570189E+03 -0.77191867857E+03  0.93195228809E+03  0.00000000000E+00 0.  1.
         22    1    1    2    0    0 -0.47003017687E+03 -0.79533320494E+03 -0.21127612132E+04  0.23059148332E+04  0.00000000000E+00 0. -1.
<mgrwt>
<rscale>  0 0.19005682E+04</rscale>
<asrwt>0</asrwt>
<pdfrwt beam="1">  1        2 0.55673834E+00 0.19005682E+04</pdfrwt>
<pdfrwt beam="2">  1       -2 0.38390969E-01 0.19005682E+04</pdfrwt>
<totfact> 0.40482128E+00</totfact>
</mgrwt>
</event>
<event>
 6    1  0.1528034E-005  0.2058181E+04  0.7818608E-02  0.8579892E-01
          1   -1    0    0  501    0  0.00000000000E+00  0.00000000000E+00  0.78452055112E+03  0.78452055112E+03  0.00000000000E+00 0. -1.
         -1   -1    0    0    0  501 -0.00000000000E+00 -0.00000000000E+00 -0.13499042521E+04  0.13499042521E+04  0.00000000000E+00 0.  1.
         23    2    1    2    0    0  0.37924344422E+03  0.93870288123E+03 -0.46256261566E+03  0.11167996931E+04  0.91042252873E+02 0.  0.
         13    1    3    3    0    0  0.43523420238E+02  0.20494682838E+03 -0.10081674271E+03  0.23251130334E+03  0.00000000000E+00 0. -1.
        -13    1    3    3    0    0  0.33572002399E+03  0.73375605285E+03 -0.36174587295E+03  0.88428838972E+03  0.00000000000E+00 0.  1.
         22    1    1    2    0    0 -0.37924344422E+03 -0.93870288123E+03 -0.10282108531E+03  0.10176251101E+04  0.00000000000E+00 0.  1.
<mgrwt>
<rscale>  0 0.20581814E+04</rscale>
<asrwt>0</asrwt>
<pdfrwt beam="1">  1        1 0.12069547E+00 0.20581814E+04</pdfrwt>
<pdfrwt beam="2">  1       -1 0.20767757E+00 0.20581814E+04</pdfrwt>
<totfact> 0.28069015E+00</totfact>
</mgrwt>
</event>
<event>
 6    1  0.1528034E-005  0.1019880E+04  0.7818608E-02  0.9287005E-01
          1   -1    0    0  501    0  0.00000000000E+00  0.00000000000E+00  0.33105415827E+03  0.33105415827E+03  0.00000000000E+00 0. -1.
         -1   -1    0    0    0  501 -0.00000000000E+00 -0.00000000000E+00 -0.78548775694E+03  0.78548775694E+03  0.00000000000E+00 0.  1.
         23    2    1    2    0    0 -0.45837450240E+03  0.20721412779E+03 -0.28566755016E+03  0.58595086898E+03  0.93207255283E+02 0.  0.
         11    1    3    3    0    0 -0.21912923965E+03  0.87940576514E+02 -0.82260753936E+02  0.25003599802E+03  0.00000000000E+00 0. -1.
        -11    1    3    3    0    0 -0.23924526275E+03  0.11927355128E+03 -0.20340679623E+03  0.33591487097E+03  0.00000000000E+00 0.  1.
         22    1    1    2    0    0  0.45837450240E+03 -0.20721412779E+03 -0.16876604851E+03  0.53059104623E+03  0.00000000000E+00 0. -1.
<mgrwt>
<rscale>  0 0.10198804E+04</rscale>
<asrwt>0</asrwt>
<pdfrwt beam="1">  1        1 0.50931410E-01 0.10198804E+04</pdfrwt>
<pdfrwt beam="2">  1       -1 0.12084427E+00 0.10198804E+04</pdfrwt>
<totfact> 0.46978183E+01</totfact>
</mgrwt>
</event>
<event>
 6    1  0.1528034E-005  0.2571024E+04  0.7818608E-02  0.8378111E-01
          1   -1    0    0  501    0  0.00000000000E+00  0.00000000000E+00  0.26091603611E+04  0.26091603611E+04  0.00000000000E+00 0. -1.
         -1   -1    0    0    0  501 -0.00000000000E+00 -0.00000000000E+00 -0.63336122335E+03  0.63336122335E+03  0.00000000000E+00 0.  1.
         23    2    1    2    0    0 -0.12443535565E+03 -0.52625071139E+03  0.24577001557E+04  0.25181925432E+04  0.92626456207E+02 0.  0.
         13    1    3    3    0    0 -0.57649081765E+02 -0.38495661481E+03  0.18688163652E+04  0.19089236807E+04  0.00000000000E+00 0.  1.
        -13    1    3    3    0    0 -0.66786273884E+02 -0.14129409658E+03  0.58888379045E+03  0.60926886246E+03  0.00000000000E+00 0. -1.
         22    1    1    2    0    0  0.12443535565E+03  0.52625071139E+03 -0.48190101790E+03  0.72432904127E+03  0.00000000000E+00 0.  1.
<mgrwt>
<rscale>  0 0.25710239E+04</rscale>
<asrwt>0</asrwt>
<pdfrwt beam="1">  1        1 0.40140928E+00 0.25710239E+04</pdfrwt>
<pdfrwt beam="2">  1       -1 0.97440190E-01 0.25710239E+04</pdfrwt>
<totfact> 0.10146657E+00</totfact>
</mgrwt>
</event>
<event>
 6    1  0.1528034E-005  0.1734236E+04  0.7818608E-02  0.8742076E-01
         -1   -1    0    0    0  501 -0.00000000000E+00  0.00000000000E+00  0.25205127866E+03  0.25205127866E+03  0.00000000000E+00 0.  1.
          1   -1    0    0  501    0  0.00000000000E+00 -0.00000000000E+00 -0.29830982376E+04  0.29830982376E+04  0.00000000000E+00 0. -1.
         23    2    1    2    0    0  0.48607514747E+03  0.53615588663E+03 -0.48791397072E+03  0.87816462310E+03  0.96854936288E+02 0.  0.
         13    1    3    3    0    0  0.24258244678E+03  0.22631881783E+03 -0.17575710392E+03  0.37544241951E+03  0.00000000000E+00 0.  1.
        -13    1    3    3    0    0  0.24349270070E+03  0.30983706880E+03 -0.31215686680E+03  0.50272220359E+03  0.00000000000E+00 0. -1.
         22    1    1    2    0    0 -0.48607514747E+03 -0.53615588663E+03 -0.22431329882E+04  0.23569848931E+04  0.00000000000E+00 0. -1.
<mgrwt>
<rscale>  0 0.17342361E+04</rscale>
<asrwt>0</asrwt>
<pdfrwt beam="1">  1        1 0.45893819E+00 0.17342361E+04</pdfrwt>
<pdfrwt beam="2">  1       -1 0.38777120E-01 0.17342361E+04</pdfrwt>
<totfact> 0.37753559E+00</totfact>
</mgrwt>
</event>
<event>
 6    1  0.1528034E-005  0.7119748E+03  0.7818608E-02  0.9696970E-01
         -1   -1    0    0    0  501 -0.00000000000E+00  0.00000000000E+00  0.22107024551E+03  0.22107024551E+03  0.00000000000E+00 0.  1.
          1   -1    0    0  501    0  0.00000000000E+00 -0.00000000000E+00 -0.57324332949E+03  0.57324332949E+03  0.00000000000E+00 0. -1.
         23    2    1    2    0    0  0.20987554596E+03  0.24851534524E+03 -0.35540851615E+02  0.34037129652E+03  0.93711502793E+02 0.  0.
         13    1    3    3    0    0  0.12448172096E+03  0.11744302523E+03  0.24351102280E+02  0.17286277566E+03  0.00000000000E+00 0.  1.
        -13    1    3    3    0    0  0.85393824998E+02  0.13107232000E+03 -0.59891953895E+02  0.16750852086E+03  0.00000000000E+00 0. -1.
         22    1    1    2    0    0 -0.20987554596E+03 -0.24851534524E+03 -0.31663223237E+03  0.45394227847E+03  0.00000000000E+00 0. -1.
<mgrwt>
<rscale>  0 0.71197484E+03</rscale>
<asrwt>0</asrwt>
<pdfrwt beam="1">  1        1 0.88191280E-01 0.71197484E+03</pdfrwt>
<pdfrwt beam="2">  1       -1 0.34010807E-01 0.71197484E+03</pdfrwt>
<totfact> 0.30227391E+02</totfact>
</mgrwt>
</event>
<event>
 6    1  0.1528034E-005  0.7094584E+04  0.7818608E-02  0.7567759E-01
         -1   -1    0    0    0  501 -0.00000000000E+00  0.00000000000E+00  0.36429762494E+04  0.36429762494E+04  0.00000000000E+00 0.  1.
          1   -1    0    0  501    0  0.00000000000E+00 -0.00000000000E+00 -0.34541209735E+04  0.34541209735E+04  0.00000000000E+00 0. -1.
         23    2    1    2    0    0  0.97512609206E+03  0.21862587545E+04 -0.25234660353E+04  0.34794619273E+04  0.90422536871E+02 0.  0.
         11    1    3    3    0    0  0.67958824626E+03  0.15978123811E+04 -0.17903414495E+04  0.24940262820E+04  0.00000000000E+00 0. -1.
        -11    1    3    3    0    0  0.29553784580E+03  0.58844637341E+03 -0.73312458580E+03  0.98543564528E+03  0.00000000000E+00 0.  1.
         22    1    1    2    0    0 -0.97512609206E+03 -0.21862587545E+04  0.27123213112E+04  0.36176352956E+04  0.00000000000E+00 0.  1.
<mgrwt>
<rscale>  0 0.70945840E+04</rscale>
<asrwt>0</asrwt>
<pdfrwt beam="1">  1        1 0.53140323E+00 0.70945840E+04</pdfrwt>
<pdfrwt beam="2">  1       -1 0.56045788E+00 0.70945840E+04</pdfrwt>
<totfact> 0.11353522E-04</totfact>
</mgrwt>
</event>
<event>
 6    1  0.1528034E-005  0.1116924E+04  0.7818608E-02  0.9188851E-01
          1   -1    0    0  501    0  0.00000000000E+00  0.00000000000E+00  0.16127774135E+04  0.16127774135E+04  0.00000000000E+00 0. -1.
         -1   -1    0    0    0  501 -0.00000000000E+00 -0.00000000000E+00 -0.19338071806E+03  0.19338071806E+03  0.00000000000E+00 0.  1.
         23    2    1    2    0    0  0.25369841660E+03 -0.45828858921E+03  0.10077901898E+04  0.11399665427E+04  0.97423478614E+02 0.  0.
         11    1    3    3    0    0  0.19819373348E+03 -0.41931112767E+03  0.90303036670E+03  0.10151681737E+04  0.00000000000E+00 0. -1.
        -11    1    3    3    0    0  0.55504683118E+02 -0.38977461549E+02  0.10475982314E+03  0.12479836898E+03  0.00000000000E+00 0.  1.
         22    1    1    2    0    0 -0.25369841660E+03  0.45828858921E+03  0.41160650557E+03  0.66619158882E+03  0.00000000000E+00 0.  1.
<mgrwt>
<rscale>  0 0.11169244E+04</rscale>
<asrwt>0</asrwt>
<pdfrwt beam="1">  1        1 0.24811959E+00 0.11169244E+04</pdfrwt>
<pdfrwt beam="2">  1       -1 0.29750881E-01 0.11169244E+04</pdfrwt>
<totfact> 0.56370696E+01</totfact>
</mgrwt>
</event>
<event>
 6    1  0.1528034E-005  0.2701081E+04  0.7818608E-02  0.8334654E-01
         -2   -1    0    0    0  501 -0.00000000000E+00  0.00000000000E+00  0.34173524839E+03  0.34173524839E+03  0.00000000000E+00 0.  1.
          2   -1    0    0  501    0  0.00000000000E+00 -0.00000000000E+00 -0.53373460729E+04  0.53373460729E+04  0.00000000000E+00 0. -1.
         23    2    1    2    0    0 -0.28857373253E+03  0.94610507397E+03 -0.44293773296E+04  0.45393401310E+04  0.88519413659E+02 0.  0.
         13    1    3    3    0    0 -0.22062714783E+03  0.66217129010E+03 -0.29516309012E+04  0.30330301899E+04  0.00000000000E+00 0. -1.
        -13    1    3    3    0    0 -0.67946584707E+02  0.28393378387E+03 -0.14777464284E+04  0.15063099411E+04  0.00000000000E+00 0.  1.
         22    1    1    2    0    0  0.28857373253E+03 -0.94610507397E+03 -0.56623349488E+03  0.11397411903E+04  0.00000000000E+00 0.  1.
<mgrwt>
<rscale>  0 0.27010807E+04</rscale>
<asrwt>0</asrwt>
<pdfrwt beam="1">  1        2 0.82113012E+00 0.27010807E+04</pdfrwt>
<pdfrwt beam="2">  1       -2 0.52574656E-01 0.27010807E+04</pdfrwt>
<totfact> 0.34349457E-02</totfact>
</mgrwt>
</event>
<event>
 6    1  0.1528034E-005  0.2091528E+04  0.7818608E-02  0.8564984E-01
         -2   -1    0    0    0  501 -0.00000000000E+00  0.00000000000E+00  0.52783589255E+03  0.52783589255E+03  0.00000000000E+00 0.  1.
          2   -1    0    0  501    0  0.00000000000E+00 -0.00000000000E+00 -0.20718992912E+04  0.20718992912E+04  0.00000000000E+00 0. -1.
         23    2    1    2    0    0 -0.53888215263E+03  0.55651001035E+03 -0.16430983347E+04  0.18187708539E+04  0.89765892255E+02 0.  0.
         11    1    3    3    0    0 -0.39020915640E+03  0.35823310144E+03 -0.10524690779E+04  0.11782551934E+04  0.00000000000E+00 0. -1.
        -11    1    3    3    0    0 -0.14867299623E+03  0.19827690891E+03 -0.59062925673E+03  0.64051566048E+03  0.00000000000E+00 0.  1.
         22    1    1    2    0    0  0.53888215263E+03 -0.55651001035E+03  0.99034935994E+02  0.78096432991E+03  0.00000000000E+00 0.  1.
<mgrwt>
<rscale>  0 0.20915284E+04</rscale>
<asrwt>0</asrwt>
<pdfrwt beam="1">  1        2 0.31875374E+00 0.20915284E+04</pdfrwt>
<pdfrwt beam="2">  1       -2 0.81205520E-01 0.20915284E+04</pdfrwt>
<totfact> 0.75077181E+00</totfact>
</mgrwt>
</event>
<event>
 6    1  0.1528034E-005  0.3413164E+04  0.7818608E-02  0.8134683E-01
         -1   -1    0    0    0  501 -0.00000000000E+00  0.00000000000E+00  0.90592953599E+03  0.90592953599E+03  0.00000000000E+00 0.  1.
          1   -1    0    0  501    0  0.00000000000E+00 -0.00000000000E+00 -0.32148448165E+04  0.32148448165E+04  0.00000000000E+00 0. -1.
         23    2    1    2    0    0  0.10040452369E+04 -0.13737771888E+04 -0.10177465278E+04  0.19847763773E+04  0.90325360360E+02 0.  0.
         13    1    3    3    0    0  0.76632869844E+03 -0.10610576989E+04 -0.82558036529E+03  0.15474773194E+04  0.00000000000E+00 0. -1.
        -13    1    3    3    0    0  0.23771653843E+03 -0.31271948991E+03 -0.19216616252E+03  0.43729905789E+03  0.00000000000E+00 0.  1.
         22    1    1    2    0    0 -0.10040452369E+04  0.13737771888E+04 -0.12911687527E+04  0.21359979752E+04  0.00000000000E+00 0. -1.
<mgrwt>
<rscale>  0 0.34131644E+04</rscale>
<asrwt>0</asrwt>
<pdfrwt beam="1">  1        1 0.49459151E+00 0.34131644E+04</pdfrwt>
<pdfrwt beam="2">  1       -1 0.13937378E+00 0.34131644E+04</pdfrwt>
<totfact> 0.14423771E-01</totfact>
</mgrwt>
</event>
<event>
 6    1  0.1528034E-005  0.2324355E+04  0.7818608E-02  0.8468380E-01
         -1   -1    0    0    0  501 -0.00000000000E+00  0.00000000000E+00  0.71339384287E+03  0.71339384287E+03  0.00000000000E+00 0.  1.
          1   -1    0    0  501    0  0.00000000000E+00 -0.00000000000E+00 -0.18932828908E+04  0.18932828908E+04  0.00000000000E+00 0. -1.
         23    2    1    2    0    0  0.55827170595E+03  0.88071318294E+03 -0.11619278583E+04  0.15637742394E+04  0.89389684648E+02 0.  0.
         11    1    3    3    0    0  0.21756284481E+03  0.29192370629E+03 -0.35716320064E+03  0.51001822872E+03  0.00000000000E+00 0. -1.
        -11    1    3    3    0    0  0.34070886113E+03  0.58878947665E+03 -0.80476465764E+03  0.10537560107E+04  0.00000000000E+00 0.  1.
         22    1    1    2    0    0 -0.55827170595E+03 -0.88071318294E+03 -0.17961189678E+02  0.10429024943E+04  0.00000000000E+00 0.  1.
<mgrwt>
<rscale>  0 0.23243548E+04</rscale>
<asrwt>0</asrwt>
<pdfrwt beam="1">  1        1 0.29127429E+00 0.23243548E+04</pdfrwt>
<pdfrwt beam="2">  1       -1 0.10975290E+00 0.23243548E+04</pdfrwt>
<totfact> 0.24362628E+00</totfact>
</mgrwt>
</event>
<event>
 6    1  0.1528034E-005  0.4263882E+03  0.7818608E-02  0.1035007E+00
          2   -1    0    0  501    0  0.00000000000E+00  0.00000000000E+00  0.46795503402E+03  0.46795503402E+03  0.00000000000E+00 0. -1.
         -2   -1    0    0    0  501 -0.00000000000E+00 -0.00000000000E+00 -0.97128421395E+02  0.97128421395E+02  0.00000000000E+00 0.  1.
         23    2    1    2    0    0 -0.49263598589E+02 -0.44462567235E+02  0.44857288494E+03  0.46286650531E+03  0.92865206653E+02 0.  0.
         13    1    3    3    0    0 -0.21629541800E+02 -0.14521671635E+02  0.21288671025E+02  0.33644071388E+02  0.00000000000E+00 0.  1.
        -13    1    3    3    0    0 -0.27634056789E+02 -0.29940895600E+02  0.42728421391E+03  0.42922243392E+03  0.00000000000E+00 0. -1.
         22    1    1    2    0    0  0.49263598589E+02  0.44462567235E+02 -0.77746272309E+02  0.10221695011E+03  0.00000000000E+00 0.  1.
<mgrwt>
<rscale>  0 0.42638824E+03</rscale>
<asrwt>0</asrwt>
<pdfrwt beam="1">  1        2 0.71993081E-01 0.42638824E+03</pdfrwt>
<pdfrwt beam="2">  1       -2 0.14942834E-01 0.42638824E+03</pdfrwt>
<totfact> 0.23253631E+03</totfact>
</mgrwt>
</event>
<event>
 6    1  0.1528034E-005  0.1586989E+04  0.7818608E-02  0.8828581E-01
         -1   -1    0    0    0  501 -0.00000000000E+00  0.00000000000E+00  0.45823883583E+03  0.45823883583E+03  0.00000000000E+00 0.  1.
          1   -1    0    0  501    0  0.00000000000E+00 -0.00000000000E+00 -0.13740293312E+04  0.13740293312E+04  0.00000000000E+00 0. -1.
         23    2    1    2    0    0  0.18761687733E+03 -0.57657117916E+03  0.12717365597E+03  0.62586498472E+03  0.88878698397E+02 0.  0.
         11    1    3    3    0    0  0.16580807750E+03 -0.50860339254E+03  0.81496815412E+02  0.54112055994E+03  0.00000000000E+00 0.  1.
        -11    1    3    3    0    0  0.21808799824E+02 -0.67967786623E+02  0.45676840556E+02  0.84744424781E+02  0.00000000000E+00 0. -1.
         22    1    1    2    0    0 -0.18761687733E+03  0.57657117916E+03 -0.10429641513E+04  0.12064031823E+04  0.00000000000E+00 0. -1.
<mgrwt>
<rscale>  0 0.15869891E+04</rscale>
<asrwt>0</asrwt>
<pdfrwt beam="1">  1        1 0.21138912E+00 0.15869891E+04</pdfrwt>
<pdfrwt beam="2">  1       -1 0.70498284E-01 0.15869891E+04</pdfrwt>
<totfact> 0.15650974E+01</totfact>
</mgrwt>
</event>
<event>
 6    1  0.1528034E-005  0.2237972E+04  0.7818608E-02  0.8502788E-01
          2   -1    0    0  501    0  0.00000000000E+00  0.00000000000E+00  0.22630897265E+04  0.22630897265E+04  0.00000000000E+00 0. -1.
         -2   -1    0    0    0  501 -0.00000000000E+00 -0.00000000000E+00 -0.55328324321E+03  0.55328324321E+03  0.00000000000E+00 0.  1.
         23    2    1    2    0    0 -0.60526427257E+03 -0.56930865273E+03 -0.81155393241E+02  0.84203722702E+03  0.10946831556E+03 0.  0.
         11    1    3    3    0    0 -0.14677514557E+03 -0.17695089676E+03  0.17523893153E+02  0.23056810285E+03  0.00000000000E+00 0. -1.
        -11    1    3    3    0    0 -0.45848912700E+03 -0.39235775597E+03 -0.98679286394E+02  0.61146912417E+03  0.00000000000E+00 0.  1.
         22    1    1    2    0    0  0.60526427257E+03  0.56930865273E+03  0.17909618765E+04  0.19743357427E+04  0.00000000000E+00 0. -1.
<mgrwt>
<rscale>  0 0.22379720E+04</rscale>
<asrwt>0</asrwt>
<pdfrwt beam="1">  1        2 0.34816764E+00 0.22379720E+04</pdfrwt>
<pdfrwt beam="2">  1       -2 0.85120501E-01 0.22379720E+04</pdfrwt>
<totfact> 0.52057259E+00</totfact>
</mgrwt>
</event>
<event>
 6    1  0.1528034E-005  0.2009332E+04  0.7818608E-02  0.8602270E-01
         -2   -1    0    0    0  501 -0.00000000000E+00  0.00000000000E+00  0.19868039394E+04  0.19868039394E+04  0.00000000000E+00 0.  1.
          2   -1    0    0  501    0  0.00000000000E+00 -0.00000000000E+00 -0.50802877928E+03  0.50802877928E+03  0.00000000000E+00 0. -1.
         23    2    1    2    0    0  0.31882736122E+03  0.71123817723E+03 -0.42406755124E+02  0.78559164432E+03  0.88573515957E+02 0.  0.
         13    1    3    3    0    0  0.93779266194E+02  0.30588997564E+03 -0.35532263772E+02  0.32190956764E+03  0.00000000000E+00 0. -1.
        -13    1    3    3    0    0  0.22504809502E+03  0.40534820159E+03 -0.68744913526E+01  0.46368207668E+03  0.00000000000E+00 0.  1.
         22    1    1    2    0    0 -0.31882736122E+03 -0.71123817723E+03  0.15211819153E+04  0.17092410744E+04  0.00000000000E+00 0.  1.
<mgrwt>
<rscale>  0 0.20093318E+04</rscale>
<asrwt>0</asrwt>
<pdfrwt beam="1">  1        2 0.78158275E-01 0.20093318E+04</pdfrwt>
<pdfrwt beam="2">  1       -2 0.30566214E+00 0.20093318E+04</pdfrwt>
<totfact> 0.16484561E+00</totfact>
</mgrwt>
</event>
<event>
 6    1  0.1528034E-005  0.3597309E+04  0.7818608E-02  0.8091108E-01
         -2   -1    0    0    0  501 -0.00000000000E+00  0.00000000000E+00  0.18197359796E+04  0.18197359796E+04  0.00000000000E+00 0.  1.
          2   -1    0    0  501    0  0.00000000000E+00 -0.00000000000E+00 -0.17778176147E+04  0.17778176147E+04  0.00000000000E+00 0. -1.
         23    2    1    2    0    0 -0.73873991839E+03  0.12495030150E+03 -0.16129607090E+04  0.17809705398E+04  0.94151844292E+02 0.  0.
         11    1    3    3    0    0 -0.57259478276E+03  0.12686500505E+03 -0.11939050900E+04  0.13301762585E+04  0.00000000000E+00 0.  1.
        -11    1    3    3    0    0 -0.16614513563E+03 -0.19147035508E+01 -0.41905561907E+03  0.45079428130E+03  0.00000000000E+00 0. -1.
         22    1    1    2    0    0  0.73873991839E+03 -0.12495030150E+03  0.16548790739E+04  0.18165830546E+04  0.00000000000E+00 0.  1.
<mgrwt>
<rscale>  0 0.35973094E+04</rscale>
<asrwt>0</asrwt>
<pdfrwt beam="1">  1        2 0.27351040E+00 0.35973094E+04</pdfrwt>
<pdfrwt beam="2">  1       -2 0.27995938E+00 0.35973094E+04</pdfrwt>
<totfact> 0.30492961E-01</totfact>
</mgrwt>
</event>
<event>
 6    1  0.1528034E-005  0.2397415E+04  0.7818608E-02  0.8440472E-01
          1   -1    0    0  501    0  0.00000000000E+00  0.00000000000E+00  0.16588988953E+04  0.16588988953E+04  0.00000000000E+00 0. -1.
         -1   -1    0    0    0  501 -0.00000000000E+00 -0.00000000000E+00 -0.86617694690E+03  0.86617694690E+03  0.00000000000E+00 0.  1.
         23    2    1    2    0    0  0.87261810679E+03  0.88097439602E+02 -0.46113879300E+03  0.99491562903E+03  0.89356607614E+02 0.  0.
         11    1    3    3    0    0  0.54533631983E+03  0.82325535391E+02 -0.25107548503E+03  0.60597697538E+03  0.00000000000E+00 0. -1.
        -11    1    3    3    0    0  0.32728178696E+03  0.57719042111E+01 -0.21006330797E+03  0.38893865365E+03  0.00000000000E+00 0.  1.
         22    1    1    2    0    0 -0.87261810679E+03 -0.88097439602E+02  0.12538607414E+04  0.15301602131E+04  0.00000000000E+00 0. -1.
<mgrwt>
<rscale>  0 0.23974153E+04</rscale>
<asrwt>0</asrwt>
<pdfrwt beam="1">  1        1 0.25521522E+00 0.23974153E+04</pdfrwt>
<pdfrwt beam="2">  1       -1 0.13325799E+00 0.23974153E+04</pdfrwt>
<totfact> 0.21702420E+00</totfact>
</mgrwt>
</event>
<event>
 6    1  0.1528034E-005  0.1084805E+04  0.7818608E-02  0.9220130E-01
         -2   -1    0    0    0  501 -0.00000000000E+00  0.00000000000E+00  0.78068494062E+03  0.78068494062E+03  0.00000000000E+00 0.  1.
          2   -1    0    0  501    0  0.00000000000E+00 -0.00000000000E+00 -0.37684908989E+03  0.37684908989E+03  0.00000000000E+00 0. -1.
         23    2    1    2    0    0  0.47891002561E+03 -0.16176558440E+03  0.52913650350E+01  0.51382553748E+03  0.92009605424E+02 0.  0.
         13    1    3    3    0    0  0.19373526801E+03 -0.66025485734E+02  0.47349877652E+02  0.21008267361E+03  0.00000000000E+00 0. -1.
        -13    1    3    3    0    0  0.28517475760E+03 -0.95740098661E+02 -0.42058512617E+02  0.30374286386E+03  0.00000000000E+00 0.  1.
         22    1    1    2    0    0 -0.47891002561E+03  0.16176558440E+03  0.39854448570E+03  0.64370849304E+03  0.00000000000E+00 0. -1.
<mgrwt>
<rscale>  0 0.10848049E+04</rscale>
<asrwt>0</asrwt>
<pdfrwt beam="1">  1        2 0.57976783E-01 0.10848049E+04</pdfrwt>
<pdfrwt beam="2">  1       -2 0.12010538E+00 0.10848049E+04</pdfrwt>
<totfact> 0.44761836E+01</totfact>
</mgrwt>
</event>
<event>
 6    1  0.1528034E-005  0.9963700E+03  0.7818608E-02  0.9312535E-01
          2   -1    0    0  501    0  0.00000000000E+00  0.00000000000E+00  0.96690864031E+03  0.96690864031E+03  0.00000000000E+00 0. -1.
         -2   -1    0    0    0  501 -0.00000000000E+00 -0.00000000000E+00 -0.25668225406E+03  0.25668225406E+03  0.00000000000E+00 0.  1.
         23    2    1    2    0    0  0.43919877462E+03 -0.13611395624E+03  0.57988580744E+03  0.74566701006E+03  0.91264272881E+02 0.  0.
         13    1    3    3    0    0  0.14284293119E+03 -0.84864718660E+02  0.23890159106E+03  0.29099844273E+03  0.00000000000E+00 0.  1.
        -13    1    3    3    0    0  0.29635584344E+03 -0.51249237585E+02  0.34098421638E+03  0.45466856732E+03  0.00000000000E+00 0. -1.
         22    1    1    2    0    0 -0.43919877462E+03  0.13611395624E+03  0.13034057881E+03  0.47792388431E+03  0.00000000000E+00 0.  1.
<mgrwt>
<rscale>  0 0.99636999E+03</rscale>
<asrwt>0</asrwt>
<pdfrwt beam="1">  1        2 0.14875517E+00 0.99636999E+03</pdfrwt>
<pdfrwt beam="2">  1       -2 0.39489578E-01 0.99636999E+03</pdfrwt>
<totfact> 0.16013082E+02</totfact>
</mgrwt>
</event>
<event>
 6    1  0.1528034E-005  0.9642309E+03  0.7818608E-02  0.9348670E-01
         -2   -1    0    0    0  501 -0.00000000000E+00  0.00000000000E+00  0.34560566662E+03  0.34560566662E+03  0.00000000000E+00 0.  1.
          2   -1    0    0  501    0  0.00000000000E+00 -0.00000000000E+00 -0.67254483328E+03  0.67254483328E+03  0.00000000000E+00 0. -1.
         23    2    1    2    0    0 -0.25651715977E+03  0.38799878592E+03 -0.28045154991E+03  0.55070509171E+03  0.90988543560E+02 0.  0.
         11    1    3    3    0    0 -0.74580930844E+02  0.49152098806E+02 -0.54949082265E+02  0.10486966055E+03  0.00000000000E+00 0. -1.
        -11    1    3    3    0    0 -0.18193622893E+03  0.33884668711E+03 -0.22550246765E+03  0.44583543116E+03  0.00000000000E+00 0.  1.
         22    1    1    2    0    0  0.25651715977E+03 -0.38799878592E+03 -0.46487616754E+02  0.46744540819E+03  0.00000000000E+00 0. -1.
<mgrwt>
<rscale>  0 0.96423090E+03</rscale>
<asrwt>0</asrwt>
<pdfrwt beam="1">  1        2 0.10346843E+00 0.96423090E+03</pdfrwt>
<pdfrwt beam="2">  1       -2 0.53170103E-01 0.96423090E+03</pdfrwt>
<totfact> 0.14378744E+02</totfact>
</mgrwt>
</event>
<event>
 6    1  0.1528034E-005  0.9111216E+03  0.7818608E-02  0.9411785E-01
          2   -1    0    0  501    0  0.00000000000E+00  0.00000000000E+00  0.16785147212E+04  0.16785147212E+04  0.00000000000E+00 0. -1.
         -2   -1    0    0    0  501 -0.00000000000E+00 -0.00000000000E+00 -0.12364243569E+03  0.12364243569E+03  0.00000000000E+00 0.  1.
         23    2    1    2    0    0  0.37173379233E+03 -0.10594088790E+03  0.12449043639E+04  0.13066880897E+04  0.90760148312E+02 0.  0.
         11    1    3    3    0    0  0.29215451382E+03 -0.99602287789E+02  0.10836774249E+04  0.11267793204E+04  0.00000000000E+00 0. -1.
        -11    1    3    3    0    0  0.79579278514E+02 -0.63386001073E+01  0.16122693897E+03  0.17990876929E+03  0.00000000000E+00 0.  1.
         22    1    1    2    0    0 -0.37173379233E+03  0.10594088790E+03  0.30996792163E+03  0.49546906717E+03  0.00000000000E+00 0.  1.
<mgrwt>
<rscale>  0 0.91112161E+03</rscale>
<asrwt>0</asrwt>
<pdfrwt beam="1">  1        2 0.25823302E+00 0.91112161E+03</pdfrwt>
<pdfrwt beam="2">  1       -2 0.19021914E-01 0.91112161E+03</pdfrwt>
<totfact> 0.23618188E+02</totfact>
</mgrwt>
</event>
<event>
 6    1  0.1528034E-005  0.6399005E+03  0.7818608E-02  0.9825917E-01
         -2   -1    0    0    0  501 -0.00000000000E+00  0.00000000000E+00  0.31696203551E+03  0.31696203551E+03  0.00000000000E+00 0.  1.
          2   -1    0    0  501    0  0.00000000000E+00 -0.00000000000E+00 -0.32296664086E+03  0.32296664086E+03  0.00000000000E+00 0. -1.
         23    2    1    2    0    0 -0.78520023785E+02 -0.27320763658E+03 -0.13498328637E+03  0.32776957113E+03  0.91676591014E+02 0.  0.
         13    1    3    3    0    0  0.14886580310E+02 -0.89533307543E+02 -0.24749733317E+02  0.94076419639E+02  0.00000000000E+00 0. -1.
        -13    1    3    3    0    0 -0.93406604095E+02 -0.18367432904E+03 -0.11023355305E+03  0.23369315149E+03  0.00000000000E+00 0.  1.
         22    1    1    2    0    0  0.78520023785E+02  0.27320763658E+03  0.12897868102E+03  0.31215910523E+03  0.00000000000E+00 0.  1.
<mgrwt>
<rscale>  0 0.63990050E+03</rscale>
<asrwt>0</asrwt>
<pdfrwt beam="1">  1        2 0.49687175E-01 0.63990050E+03</pdfrwt>
<pdfrwt beam="2">  1       -2 0.48763390E-01 0.63990050E+03</pdfrwt>
<totfact> 0.40636721E+02</totfact>
</mgrwt>
</event>
<event>
 6    1  0.1528034E-005  0.8219107E+03  0.7818608E-02  0.9528833E-01
          2   -1    0    0  501    0  0.00000000000E+00  0.00000000000E+00  0.29864147453E+03  0.29864147453E+03  0.00000000000E+00 0. -1.
         -2   -1    0    0    0  501 -0.00000000000E+00 -0.00000000000E+00 -0.56550853256E+03  0.56550853256E+03  0.00000000000E+00 0.  1.
         23    2    1    2    0    0  0.10514332551E+03 -0.33659869225E+02 -0.54567716604E+03  0.56427806438E+03  0.91967704661E+02 0.  0.
         11    1    3    3    0    0  0.67031248597E+02 -0.54980747529E+02 -0.23376061229E+03  0.24931926268E+03  0.00000000000E+00 0. -1.
        -11    1    3    3    0    0  0.38112076915E+02  0.21320878304E+02 -0.31191655375E+03  0.31495880169E+03  0.00000000000E+00 0.  1.
         22    1    1    2    0    0 -0.10514332551E+03  0.33659869225E+02  0.27881010801E+03  0.29987194271E+03  0.00000000000E+00 0. -1.
<mgrwt>
<rscale>  0 0.82191071E+03</rscale>
<asrwt>0</asrwt>
<pdfrwt beam="1">  1        2 0.45944842E-01 0.82191071E+03</pdfrwt>
<pdfrwt beam="2">  1       -2 0.87001313E-01 0.82191071E+03</pdfrwt>
<totfact> 0.12692274E+02</totfact>
</mgrwt>
</event>
<event>
 6    1  0.1528034E-005  0.1421421E+04  0.7818608E-02  0.8938457E-01
         -1   -1    0    0    0  501 -0.00000000000E+00  0.00000000000E+00  0.88949194396E+03  0.88949194396E+03  0.00000000000E+00 0.  1.
          1   -1    0    0  501    0  0.00000000000E+00 -0.00000000000E+00 -0.56786274546E+03  0.56786274546E+03  0.00000000000E+00 0. -1.
         23    2    1    2    0    0  0.23117406506E+03 -0.36615742005E+03  0.73558657389E+03  0.85829424735E+03  0.89825958045E+02 0.  0.
         11    1    3    3    0    0  0.48315934580E+02 -0.15778329825E+03  0.27452083837E+03  0.32029937471E+03  0.00000000000E+00 0. -1.
        -11    1    3    3    0    0  0.18285813048E+03 -0.20837412179E+03  0.46106573552E+03  0.53799487264E+03  0.00000000000E+00 0.  1.
         22    1    1    2    0    0 -0.23117406506E+03  0.36615742005E+03 -0.41395737539E+03  0.59906044206E+03  0.00000000000E+00 0. -1.
<mgrwt>
<rscale>  0 0.14214209E+04</rscale>
<asrwt>0</asrwt>
<pdfrwt beam="1">  1        1 0.87363499E-01 0.14214209E+04</pdfrwt>
<pdfrwt beam="2">  1       -1 0.13684491E+00 0.14214209E+04</pdfrwt>
<totfact> 0.16053748E+01</totfact>
</mgrwt>
</event>
<event>
 6    1  0.1528034E-005  0.2473828E+04  0.7818608E-02  0.8412369E-01
         -2   -1    0    0    0  501 -0.00000000000E+00  0.00000000000E+00  0.10171613028E+04  0.10171613028E+04  0.00000000000E+00 0.  1.
          2   -1    0    0  501    0  0.00000000000E+00 -0.00000000000E+00 -0.15041434072E+04  0.15041434072E+04  0.00000000000E+00 0. -1.
         23    2    1    2    0    0  0.18590281000E+03  0.27161279021E+03 -0.14574642784E+04  0.14965271670E+04  0.84012357696E+02 0.  0.
         13    1    3    3    0    0  0.34163781359E+02  0.11399612395E+03 -0.59143154156E+03  0.60328562770E+03  0.00000000000E+00 0.  1.
        -13    1    3    3    0    0  0.15173902864E+03  0.15761666626E+03 -0.86603273685E+03  0.89324153933E+03  0.00000000000E+00 0. -1.
         22    1    1    2    0    0 -0.18590281000E+03 -0.27161279021E+03  0.97048217398E+03  0.10247775430E+04  0.00000000000E+00 0.  1.
<mgrwt>
<rscale>  0 0.24738282E+04</rscale>
<asrwt>0</asrwt>
<pdfrwt beam="1">  1        2 0.23140668E+00 0.24738282E+04</pdfrwt>
<pdfrwt beam="2">  1       -2 0.15648635E+00 0.24738282E+04</pdfrwt>
<totfact> 0.30196617E+00</totfact>
</mgrwt>
</event>
<event>
 6    1  0.1528034E-005  0.1436414E+04  0.7818608E-02  0.8927874E-01
          1   -1    0    0  501    0  0.00000000000E+00  0.00000000000E+00  0.70635503401E+03  0.70635503401E+03  0.00000000000E+00 0. -1.
         -1   -1    0    0    0  501 -0.00000000000E+00 -0.00000000000E+00 -0.73025779398E+03  0.73025779398E+03  0.00000000000E+00 0.  1.
         23    2    1    2    0    0 -0.27540843318E+03 -0.32957666148E+03  0.56020257235E+03  0.71159584882E+03  0.89839574380E+02 0.  0.
         13    1    3    3    0    0 -0.14050016549E+03 -0.12109627340E+03  0.29338856323E+03  0.34710438339E+03  0.00000000000E+00 0.  1.
        -13    1    3    3    0    0 -0.13490826769E+03 -0.20848038808E+03  0.26681400912E+03  0.36449146543E+03  0.00000000000E+00 0. -1.
         22    1    1    2    0    0  0.27540843318E+03  0.32957666148E+03 -0.58410533232E+03  0.72501697918E+03  0.00000000000E+00 0.  1.
<mgrwt>
<rscale>  0 0.14364140E+04</rscale>
<asrwt>0</asrwt>
<pdfrwt beam="1">  1        1 0.10867001E+00 0.14364140E+04</pdfrwt>
<pdfrwt beam="2">  1       -1 0.11234735E+00 0.14364140E+04</pdfrwt>
<totfact> 0.18970561E+01</totfact>
</mgrwt>
</event>
<event>
 6    1  0.1528034E-005  0.2491379E+04  0.7818608E-02  0.8406063E-01
         -1   -1    0    0    0  501 -0.00000000000E+00  0.00000000000E+00  0.10206424951E+04  0.10206424951E+04  0.00000000000E+00 0.  1.
          1   -1    0    0  501    0  0.00000000000E+00 -0.00000000000E+00 -0.15203584577E+04  0.15203584577E+04  0.00000000000E+00 0. -1.
         23    2    1    2    0    0  0.87521080804E+03 -0.73993519479E+03 -0.74355770188E+03  0.13692685409E+04  0.92305092719E+02 0.  0.
         13    1    3    3    0    0  0.33755320927E+03 -0.24590672010E+03 -0.23205995856E+03  0.47776993255E+03  0.00000000000E+00 0. -1.
        -13    1    3    3    0    0  0.53765759878E+03 -0.49402847468E+03 -0.51149774332E+03  0.89149860838E+03  0.00000000000E+00 0.  1.
         22    1    1    2    0    0 -0.87521080804E+03  0.73993519479E+03  0.24384173929E+03  0.11717324118E+04  0.00000000000E+00 0.  1.
<mgrwt>
<rscale>  0 0.24913791E+04</rscale>
<asrwt>0</asrwt>
<pdfrwt beam="1">  1        1 0.23390130E+00 0.24913791E+04</pdfrwt>
<pdfrwt beam="2">  1       -1 0.15702192E+00 0.24913791E+04</pdfrwt>
<totfact> 0.17336567E+00</totfact>
</mgrwt>
</event>
<event>
 6    1  0.1528034E-005  0.1530176E+04  0.7818608E-02  0.8864631E-01
          1   -1    0    0  501    0  0.00000000000E+00  0.00000000000E+00  0.72242724005E+03  0.72242724005E+03  0.00000000000E+00 0. -1.
         -1   -1    0    0    0  501 -0.00000000000E+00 -0.00000000000E+00 -0.81026798608E+03  0.81026798608E+03  0.00000000000E+00 0.  1.
         23    2    1    2    0    0 -0.54962030034E+01  0.66790970583E+03 -0.41157858540E+03  0.79044205367E+03  0.96271100851E+02 0.  0.
         13    1    3    3    0    0 -0.14995077858E+02  0.60376883890E+03 -0.33698800779E+03  0.69160869036E+03  0.00000000000E+00 0. -1.
        -13    1    3    3    0    0  0.94988748544E+01  0.64140866922E+02 -0.74590577619E+02  0.98833363307E+02  0.00000000000E+00 0.  1.
         22    1    1    2    0    0  0.54962030034E+01 -0.66790970583E+03  0.32373783937E+03  0.74225317246E+03  0.00000000000E+00 0. -1.
<mgrwt>
<rscale>  0 0.15301760E+04</rscale>
<asrwt>0</asrwt>
<pdfrwt beam="1">  1        1 0.11114265E+00 0.15301760E+04</pdfrwt>
<pdfrwt beam="2">  1       -1 0.12465661E+00 0.15301760E+04</pdfrwt>
<totfact> 0.14119055E+01</totfact>
</mgrwt>
</event>
<event>
 6    1  0.1528034E-005  0.3059403E+04  0.7818608E-02  0.8226968E-01
          2   -1    0    0  501    0  0.00000000000E+00  0.00000000000E+00  0.35768922522E+04  0.35768922522E+04  0.00000000000E+00 0. -1.
         -2   -1    0    0    0  501 -0.00000000000E+00 -0.00000000000E+00 -0.65419567215E+03  0.65419567215E+03  0.00000000000E+00 0.  1.
         23    2    1    2    0    0 -0.94873183774E+03 -0.68965179218E+03  0.28177953974E+04  0.30534988821E+04  0.90403687061E+02 0.  0.
         11    1    3    3    0    0 -0.12472963675E+03 -0.11907565808E+03  0.47425280230E+03  0.50463077108E+03  0.00000000000E+00 0.  1.
        -11    1    3    3    0    0 -0.82400220099E+03 -0.57057613410E+03  0.23435425951E+04  0.25488681110E+04  0.00000000000E+00 0. -1.
         22    1    1    2    0    0  0.94873183774E+03  0.68965179218E+03  0.10490118264E+03  0.11775890423E+04  0.00000000000E+00 0.  1.
<mgrwt>
<rscale>  0 0.30594035E+04</rscale>
<asrwt>0</asrwt>
<pdfrwt beam="1">  1        2 0.55029110E+00 0.30594035E+04</pdfrwt>
<pdfrwt beam="2">  1       -2 0.10064549E+00 0.30594035E+04</pdfrwt>
<totfact> 0.49653462E-01</totfact>
</mgrwt>
</event>
<event>
 6    1  0.1528034E-005  0.1455251E+04  0.7818608E-02  0.8914768E-01
         -2   -1    0    0    0  501 -0.00000000000E+00  0.00000000000E+00  0.45598989464E+03  0.45598989464E+03  0.00000000000E+00 0.  1.
          2   -1    0    0  501    0  0.00000000000E+00 -0.00000000000E+00 -0.11610759245E+04  0.11610759245E+04  0.00000000000E+00 0. -1.
         23    2    1    2    0    0  0.36616516300E+03 -0.70754546573E+02 -0.10444677313E+04  0.11128207678E+04  0.91510037878E+02 0.  0.
         11    1    3    3    0    0  0.10623694649E+03 -0.18930208787E+02 -0.43558297330E+03  0.44875067492E+03  0.00000000000E+00 0.  1.
        -11    1    3    3    0    0  0.25992821651E+03 -0.51824337786E+02 -0.60888475800E+03  0.66407009287E+03  0.00000000000E+00 0. -1.
         22    1    1    2    0    0 -0.36616516300E+03  0.70754546573E+02  0.33938170148E+03  0.50424505130E+03  0.00000000000E+00 0.  1.
<mgrwt>
<rscale>  0 0.14552510E+04</rscale>
<asrwt>0</asrwt>
<pdfrwt beam="1">  1        2 0.17862706E+00 0.14552510E+04</pdfrwt>
<pdfrwt beam="2">  1       -2 0.70152292E-01 0.14552510E+04</pdfrwt>
<totfact> 0.35857535E+01</totfact>
</mgrwt>
</event>
<event>
 6    1  0.1528034E-005  0.1796408E+04  0.7818608E-02  0.8708212E-01
         -2   -1    0    0    0  501 -0.00000000000E+00  0.00000000000E+00  0.57264121438E+03  0.57264121438E+03  0.00000000000E+00 0.  1.
          2   -1    0    0  501    0  0.00000000000E+00 -0.00000000000E+00 -0.14088588539E+04  0.14088588539E+04  0.00000000000E+00 0. -1.
         23    2    1    2    0    0  0.86991504448E+03  0.13490819936E+03 -0.23592547383E+03  0.91599404245E+03  0.91825104099E+02 0.  0.
         13    1    3    3    0    0  0.28369658367E+03  0.43262185930E+02 -0.12192378785E+03  0.31180246690E+03  0.00000000000E+00 0.  1.
        -13    1    3    3    0    0  0.58621846080E+03  0.91646013428E+02 -0.11400168598E+03  0.60419157555E+03  0.00000000000E+00 0. -1.
         22    1    1    2    0    0 -0.86991504448E+03 -0.13490819936E+03 -0.60029216568E+03  0.10655060258E+04  0.00000000000E+00 0.  1.
<mgrwt>
<rscale>  0 0.17964082E+04</rscale>
<asrwt>0</asrwt>
<pdfrwt beam="1">  1        2 0.21674751E+00 0.17964082E+04</pdfrwt>
<pdfrwt beam="2">  1       -2 0.88098649E-01 0.17964082E+04</pdfrwt>
<totfact> 0.14994615E+01</totfact>
</mgrwt>
</event>
<event>
 6    1  0.1528034E-005  0.2127778E+04  0.7818608E-02  0.8549105E-01
          2   -1    0    0  501    0  0.00000000000E+00  0.00000000000E+00  0.16183629205E+04  0.16183629205E+04  0.00000000000E+00 0. -1.
         -2   -1    0    0    0  501 -0.00000000000E+00 -0.00000000000E+00 -0.69938537897E+03  0.69938537897E+03  0.00000000000E+00 0.  1.
         23    2    1    2    0    0  0.93422933064E+03  0.28832660173E+03  0.91162377859E+03  0.13400107328E+04  0.93027839321E+02 0.  0.
         13    1    3    3    0    0  0.62629966160E+03  0.23857250597E+03  0.62344638716E+03  0.91534338059E+03  0.00000000000E+00 0. -1.
        -13    1    3    3    0    0  0.30792966904E+03  0.49754095763E+02  0.28817739143E+03  0.42466735223E+03  0.00000000000E+00 0.  1.
         22    1    1    2    0    0 -0.93422933064E+03 -0.28832660173E+03  0.73537629848E+01  0.97773756669E+03  0.00000000000E+00 0.  1.
<mgrwt>
<rscale>  0 0.21277776E+04</rscale>
<asrwt>0</asrwt>
<pdfrwt beam="1">  1        2 0.24897891E+00 0.21277776E+04</pdfrwt>
<pdfrwt beam="2">  1       -2 0.10759775E+00 0.21277776E+04</pdfrwt>
<totfact> 0.69410568E+00</totfact>
</mgrwt>
</event>
<event>
 6    1  0.1528034E-005  0.9087182E+03  0.7818608E-02  0.9414748E-01
          2   -1    0    0  501    0  0.00000000000E+00  0.00000000000E+00  0.12481912319E+04  0.12481912319E+04  0.00000000000E+00 0. -1.
         -2   -1    0    0    0  501 -0.00000000000E+00 -0.00000000000E+00 -0.16539307983E+03  0.16539307983E+03  0.00000000000E+00 0.  1.
         23    2    1    2    0    0  0.43580792501E+03 -0.53380502545E+02  0.39475963418E+03  0.59738885252E+03  0.90885899827E+02 0.  0.
         11    1    3    3    0    0  0.25560278278E+03 -0.67318234295E+02  0.19830393827E+03  0.33043755713E+03  0.00000000000E+00 0.  1.
        -11    1    3    3    0    0  0.18020514223E+03  0.13937731749E+02  0.19645569591E+03  0.26695129539E+03  0.00000000000E+00 0. -1.
         22    1    1    2    0    0 -0.43580792501E+03  0.53380502545E+02  0.68803851788E+03  0.81619545921E+03  0.00000000000E+00 0.  1.
<mgrwt>
<rscale>  0 0.90871820E+03</rscale>
<asrwt>0</asrwt>
<pdfrwt beam="1">  1        2 0.19202941E+00 0.90871820E+03</pdfrwt>
<pdfrwt beam="2">  1       -2 0.25445090E-01 0.90871820E+03</pdfrwt>
<totfact> 0.24655206E+02</totfact>
</mgrwt>
</event>
<event>
 6    1  0.1528034E-005  0.2247622E+04  0.7818608E-02  0.8498864E-01
          1   -1    0    0  501    0  0.00000000000E+00  0.00000000000E+00  0.12361205398E+04  0.12361205398E+04  0.00000000000E+00 0. -1.
         -1   -1    0    0    0  501 -0.00000000000E+00 -0.00000000000E+00 -0.10217056865E+04  0.10217056865E+04  0.00000000000E+00 0.  1.
         23    2    1    2    0    0 -0.87797918439E+03 -0.11804180599E+03 -0.58432471879E+03  0.10650285820E+04  0.89828655742E+02 0.  0.
         11    1    3    3    0    0 -0.11241785884E+03 -0.34244626475E+02 -0.10724601177E+03  0.15909800900E+03  0.00000000000E+00 0.  1.
        -11    1    3    3    0    0 -0.76556132555E+03 -0.83797179518E+02 -0.47707870702E+03  0.90593057304E+03  0.00000000000E+00 0. -1.
         22    1    1    2    0    0  0.87797918439E+03  0.11804180599E+03  0.79873957213E+03  0.11927976443E+04  0.00000000000E+00 0. -1.
<mgrwt>
<rscale>  0 0.22476222E+04</rscale>
<asrwt>0</asrwt>
<pdfrwt beam="1">  1        1 0.19017239E+00 0.22476222E+04</pdfrwt>
<pdfrwt beam="2">  1       -1 0.15718549E+00 0.22476222E+04</pdfrwt>
<totfact> 0.28038690E+00</totfact>
</mgrwt>
</event>
<event>
 6    1  0.1528034E-005  0.3031753E+04  0.7818608E-02  0.8234721E-01
         -2   -1    0    0    0  501 -0.00000000000E+00  0.00000000000E+00  0.80369958101E+03  0.80369958101E+03  0.00000000000E+00 0.  1.
          2   -1    0    0  501    0  0.00000000000E+00 -0.00000000000E+00 -0.28591302899E+04  0.28591302899E+04  0.00000000000E+00 0. -1.
         23    2    1    2    0    0 -0.89770211682E+02  0.13056583667E+04 -0.19494144870E+04  0.23498021101E+04  0.92469741513E+02 0.  0.
         11    1    3    3    0    0 -0.67110248455E+02  0.68832516673E+03 -0.11041891597E+04  0.13028925593E+04  0.00000000000E+00 0. -1.
        -11    1    3    3    0    0 -0.22659963227E+02  0.61733319998E+03 -0.84522532724E+03  0.10469095508E+04  0.00000000000E+00 0.  1.
         22    1    1    2    0    0  0.89770211682E+02 -0.13056583667E+04 -0.10601622195E+03  0.13130277609E+04  0.00000000000E+00 0.  1.
<mgrwt>
<rscale>  0 0.30317532E+04</rscale>
<asrwt>0</asrwt>
<pdfrwt beam="1">  1        2 0.43986620E+00 0.30317532E+04</pdfrwt>
<pdfrwt beam="2">  1       -2 0.12364609E+00 0.30317532E+04</pdfrwt>
<totfact> 0.89505144E-01</totfact>
</mgrwt>
</event>
<event>
 6    1  0.1528034E-005  0.2128072E+04  0.7818608E-02  0.8548977E-01
          2   -1    0    0  501    0  0.00000000000E+00  0.00000000000E+00  0.10885830939E+04  0.10885830939E+04  0.00000000000E+00 0. -1.
         -2   -1    0    0    0  501 -0.00000000000E+00 -0.00000000000E+00 -0.10400419805E+04  0.10400419805E+04  0.00000000000E+00 0.  1.
         23    2    1    2    0    0  0.99321246143E+03  0.29925878126E+03  0.25180236081E+03  0.10715811082E+04  0.94100110953E+02 0.  0.
         13    1    3    3    0    0  0.43839376241E+03  0.15247797831E+03  0.15642514730E+03  0.48980348252E+03  0.00000000000E+00 0. -1.
        -13    1    3    3    0    0  0.55481869902E+03  0.14678080295E+03  0.95377213511E+02  0.58177762569E+03  0.00000000000E+00 0.  1.
         22    1    1    2    0    0 -0.99321246143E+03 -0.29925878126E+03 -0.20326124735E+03  0.10570439661E+04  0.00000000000E+00 0.  1.
<mgrwt>
<rscale>  0 0.21280715E+04</rscale>
<asrwt>0</asrwt>
<pdfrwt beam="1">  1        2 0.16747432E+00 0.21280715E+04</pdfrwt>
<pdfrwt beam="2">  1       -2 0.16000646E+00 0.21280715E+04</pdfrwt>
<totfact> 0.51276786E+00</totfact>
</mgrwt>
</event>
<event>
 6    1  0.1528034E-005  0.2643115E+04  0.7818608E-02  0.8353702E-01
         -1   -1    0    0    0  501 -0.00000000000E+00  0.00000000000E+00  0.15500565550E+04  0.15500565550E+04  0.00000000000E+00 0.  1.
          1   -1    0    0  501    0  0.00000000000E+00 -0.00000000000E+00 -0.11267426297E+04  0.11267426297E+04  0.00000000000E+00 0. -1.
         23    2    1    2    0    0  0.58276292684E+03 -0.66751565636E+03 -0.77899400009E+03  0.11832349484E+04  0.89574051007E+02 0.  0.
         13    1    3    3    0    0  0.55252538178E+03 -0.59775390792E+03 -0.72410599226E+03  0.10894601966E+04  0.00000000000E+00 0.  1.
        -13    1    3    3    0    0  0.30237545055E+02 -0.69761748438E+02 -0.54888007834E+02  0.93774751826E+02  0.00000000000E+00 0. -1.
         22    1    1    2    0    0 -0.58276292684E+03  0.66751565636E+03  0.12023079254E+04  0.14935642363E+04  0.00000000000E+00 0.  1.
<mgrwt>
<rscale>  0 0.26431154E+04</rscale>
<asrwt>0</asrwt>
<pdfrwt beam="1">  1        1 0.17334502E+00 0.26431154E+04</pdfrwt>
<pdfrwt beam="2">  1       -1 0.23847024E+00 0.26431154E+04</pdfrwt>
<totfact> 0.88135931E-01</totfact>
</mgrwt>
</event>
<event>
 6    1  0.1938337E-005  0.2985560E+04  0.7818608E-02  0.8247866E-01
          2   -1    0    0  501    0  0.00000000000E+00  0.00000000000E+00  0.16023300573E+04  0.16023300573E+04  0.00000000000E+00 0.  1.
         -2   -1    0    0    0  501 -0.00000000000E+00 -0.00000000000E+00 -0.13907194380E+04  0.13907194380E+04  0.00000000000E+00 0. -1.
         23    2    1    2    0    0  0.41286725714E+03  0.69177731503E+03  0.13641406288E+04  0.15868700442E+04  0.90893653640E+02 0.  0.
         11    1    3    3    0    0  0.32145957623E+03  0.48504524976E+03  0.92133836602E+03  0.10897107590E+04  0.00000000000E+00 0.  1.
        -11    1    3    3    0    0  0.91407680911E+02  0.20673206527E+03  0.44280226281E+03  0.49715928523E+03  0.00000000000E+00 0. -1.
         22    1    1    2    0    0 -0.41286725714E+03 -0.69177731503E+03 -0.11525300096E+04  0.14061794510E+04  0.00000000000E+00 0. -1.
<mgrwt>
<rscale>  0 0.29855596E+04</rscale>
<asrwt>0</asrwt>
<pdfrwt beam="1">  1        2 0.24651232E+00 0.29855596E+04</pdfrwt>
<pdfrwt beam="2">  1       -2 0.21395684E+00 0.29855596E+04</pdfrwt>
<totfact> 0.10291916E+00</totfact>
</mgrwt>
</event>
<event>
 6    1  0.1528034E-005  0.1418957E+04  0.7818608E-02  0.8940210E-01
         -2   -1    0    0    0  501 -0.00000000000E+00  0.00000000000E+00  0.30833543869E+03  0.30833543869E+03  0.00000000000E+00 0. -1.
          2   -1    0    0  501    0  0.00000000000E+00 -0.00000000000E+00 -0.16325070423E+04  0.16325070423E+04  0.00000000000E+00 0.  1.
         23    2    1    2    0    0 -0.14722887163E+03 -0.54654968860E+03 -0.85990296742E+02  0.57941460871E+03  0.89073311970E+02 0.  0.
         11    1    3    3    0    0  0.51123310122E+01 -0.96530438107E+02 -0.28888175880E+02  0.10088998025E+03  0.00000000000E+00 0.  1.
        -11    1    3    3    0    0 -0.15234120264E+03 -0.45001925050E+03 -0.57102120861E+02  0.47852462846E+03  0.00000000000E+00 0. -1.
         22    1    1    2    0    0  0.14722887163E+03  0.54654968860E+03 -0.12381813069E+04  0.13614278723E+04  0.00000000000E+00 0.  1.
<mgrwt>
<rscale>  0 0.14189570E+04</rscale>
<asrwt>0</asrwt>
<pdfrwt beam="1">  1        2 0.25115493E+00 0.14189570E+04</pdfrwt>
<pdfrwt beam="2">  1       -2 0.47436221E-01 0.14189570E+04</pdfrwt>
<totfact> 0.43772090E+01</totfact>
</mgrwt>
</event>
<event>
 6    1  0.1528034E-005  0.1331746E+04  0.7818608E-02  0.9004762E-01
          2   -1    0    0  501    0  0.00000000000E+00  0.00000000000E+00  0.27026194822E+04  0.27026194822E+04  0.00000000000E+00 0. -1.
         -2   -1    0    0    0  501 -0.00000000000E+00 -0.00000000000E+00 -0.16405815583E+03  0.16405815583E+03  0.00000000000E+00 0.  1.
         23    2    1    2    0    0 -0.33818689947E+03  0.39226519597E+03  0.38359810229E+03  0.65034985088E+03  0.86977362111E+02 0.  0.
         13    1    3    3    0    0 -0.31286553110E+03  0.37892770203E+03  0.38064243436E+03  0.62157839952E+03  0.00000000000E+00 0.  1.
        -13    1    3    3    0    0 -0.25321368367E+02  0.13337493939E+02  0.29556679362E+01  0.28771451362E+02  0.00000000000E+00 0. -1.
         22    1    1    2    0    0  0.33818689947E+03 -0.39226519597E+03  0.21549632241E+04  0.22163277872E+04  0.00000000000E+00 0. -1.
<mgrwt>
<rscale>  0 0.13317459E+04</rscale>
<asrwt>0</asrwt>
<pdfrwt beam="1">  1        2 0.41578758E+00 0.13317459E+04</pdfrwt>
<pdfrwt beam="2">  1       -2 0.25239718E-01 0.13317459E+04</pdfrwt>
<totfact> 0.36729042E+01</totfact>
</mgrwt>
</event>
<event>
 6    1  0.1528034E-005  0.3177376E+04  0.7818608E-02  0.8194818E-01
         -2   -1    0    0    0  501 -0.00000000000E+00  0.00000000000E+00  0.94309713002E+03  0.94309713002E+03  0.00000000000E+00 0.  1.
          2   -1    0    0  501    0  0.00000000000E+00 -0.00000000000E+00 -0.26762139703E+04  0.26762139703E+04  0.00000000000E+00 0. -1.
         23    2    1    2    0    0  0.11269052708E+04  0.11067471032E+04 -0.10475022147E+04  0.18974307170E+04  0.90431168103E+02 0.  0.
         13    1    3    3    0    0  0.85388203345E+03  0.78905282725E+03 -0.79204390433E+03  0.14067879860E+04  0.00000000000E+00 0.  1.
        -13    1    3    3    0    0  0.27302323730E+03  0.31769427599E+03 -0.25545831041E+03  0.49064273098E+03  0.00000000000E+00 0. -1.
         22    1    1    2    0    0 -0.11269052708E+04 -0.11067471032E+04 -0.68561462558E+03  0.17218803834E+04  0.00000000000E+00 0. -1.
<mgrwt>
<rscale>  0 0.31773761E+04</rscale>
<asrwt>0</asrwt>
<pdfrwt beam="1">  1        2 0.41172523E+00 0.31773761E+04</pdfrwt>
<pdfrwt beam="2">  1       -2 0.14509186E+00 0.31773761E+04</pdfrwt>
<totfact> 0.75687622E-01</totfact>
</mgrwt>
</event>
<event>
 6    1  0.1528034E-005  0.4315570E+04  0.7818608E-02  0.7943745E-01
         -2   -1    0    0    0  501 -0.00000000000E+00  0.00000000000E+00  0.12135735911E+04  0.12135735911E+04  0.00000000000E+00 0.  1.
          2   -1    0    0  501    0  0.00000000000E+00 -0.00000000000E+00 -0.38366321444E+04  0.38366321444E+04  0.00000000000E+00 0. -1.
         23    2    1    2    0    0  0.18664254159E+04 -0.20315429790E+03 -0.25545048572E+04  0.31715053573E+04  0.90197915395E+02 0.  0.
         13    1    3    3    0    0  0.33877313531E+03 -0.58030930890E+02 -0.42168940221E+03  0.54401909717E+03  0.00000000000E+00 0. -1.
        -13    1    3    3    0    0  0.15276522806E+04 -0.14512336701E+03 -0.21328154550E+04  0.26274862601E+04  0.00000000000E+00 0.  1.
         22    1    1    2    0    0 -0.18664254159E+04  0.20315429790E+03 -0.68553696052E+02  0.18787003782E+04  0.00000000000E+00 0.  1.
<mgrwt>
<rscale>  0 0.43155697E+04</rscale>
<asrwt>0</asrwt>
<pdfrwt beam="1">  1        2 0.59025108E+00 0.43155697E+04</pdfrwt>
<pdfrwt beam="2">  1       -2 0.18670364E+00 0.43155697E+04</pdfrwt>
<totfact> 0.57583654E-02</totfact>
</mgrwt>
</event>
<event>
 6    1  0.1528034E-005  0.2137765E+04  0.7818608E-02  0.8544788E-01
          2   -1    0    0  501    0  0.00000000000E+00  0.00000000000E+00  0.11109313117E+04  0.11109313117E+04  0.00000000000E+00 0. -1.
         -2   -1    0    0    0  501 -0.00000000000E+00 -0.00000000000E+00 -0.10284254250E+04  0.10284254250E+04  0.00000000000E+00 0.  1.
         23    2    1    2    0    0  0.76363173371E+03 -0.74374828408E+03 -0.27742035931E+01  0.10699795214E+04  0.92485378827E+02 0.  0.
         11    1    3    3    0    0  0.43043239961E+03 -0.35619322775E+03  0.83101561220E+01  0.55876177824E+03  0.00000000000E+00 0. -1.
        -11    1    3    3    0    0  0.33319933410E+03 -0.38755505633E+03 -0.11084359715E+02  0.51121774320E+03  0.00000000000E+00 0.  1.
         22    1    1    2    0    0 -0.76363173371E+03  0.74374828408E+03  0.85280090315E+02  0.10693772153E+04  0.00000000000E+00 0. -1.
<mgrwt>
<rscale>  0 0.21377652E+04</rscale>
<asrwt>0</asrwt>
<pdfrwt beam="1">  1        2 0.17091251E+00 0.21377652E+04</pdfrwt>
<pdfrwt beam="2">  1       -2 0.15821930E+00 0.21377652E+04</pdfrwt>
<totfact> 0.51173698E+00</totfact>
</mgrwt>
</event>
<event>
 6    1  0.1528034E-005  0.2905261E+04  0.7818608E-02  0.8271314E-01
         -1   -1    0    0    0  501 -0.00000000000E+00  0.00000000000E+00  0.19516518259E+04  0.19516518259E+04  0.00000000000E+00 0.  1.
          1   -1    0    0  501    0  0.00000000000E+00 -0.00000000000E+00 -0.10812047391E+04  0.10812047391E+04  0.00000000000E+00 0. -1.
         23    2    1    2    0    0 -0.74365595354E+03  0.11668763464E+04 -0.16045992317E+02  0.13895384083E+04  0.12623362903E+03 0.  0.
         11    1    3    3    0    0 -0.64762251012E+03  0.92851110668E+03 -0.36080647163E-03  0.11320546766E+04  0.00000000000E+00 0. -1.
        -11    1    3    3    0    0 -0.96033443413E+02  0.23836523977E+03 -0.16045631510E+02  0.25748373167E+03  0.00000000000E+00 0.  1.
         22    1    1    2    0    0  0.74365595354E+03 -0.11668763464E+04  0.88649307913E+03  0.16433181568E+04  0.00000000000E+00 0.  1.
<mgrwt>
<rscale>  0 0.29052609E+04</rscale>
<asrwt>0</asrwt>
<pdfrwt beam="1">  1        1 0.16633919E+00 0.29052609E+04</pdfrwt>
<pdfrwt beam="2">  1       -1 0.30025413E+00 0.29052609E+04</pdfrwt>
<totfact> 0.36976134E-01</totfact>
</mgrwt>
</event>
<event>
 6    1  0.1528034E-005  0.3633541E+03  0.7818608E-02  0.1057264E+00
         -3   -1    0    0    0  501 -0.00000000000E+00  0.00000000000E+00  0.58622912701E+03  0.58622912701E+03  0.00000000000E+00 0.  1.
          3   -1    0    0  501    0  0.00000000000E+00 -0.00000000000E+00 -0.56303166299E+02  0.56303166299E+02  0.00000000000E+00 0. -1.
         23    2    1    2    0    0  0.15071030688E+03  0.15394627326E+02  0.41063625980E+03  0.44970951485E+03  0.10327593492E+03 0.  0.
         13    1    3    3    0    0  0.65195858238E+02  0.35897424265E+02  0.87745871054E+02  0.11505851940E+03  0.00000000000E+00 0. -1.
        -13    1    3    3    0    0  0.85514448641E+02 -0.20502796939E+02  0.32289038874E+03  0.33465099544E+03  0.00000000000E+00 0.  1.
         22    1    1    2    0    0 -0.15071030688E+03 -0.15394627326E+02  0.11928970091E+03  0.19282277846E+03  0.00000000000E+00 0.  1.
<mgrwt>
<rscale>  0 0.36335413E+03</rscale>
<asrwt>0</asrwt>
<pdfrwt beam="1">  1        3 0.86620260E-02 0.36335413E+03</pdfrwt>
<pdfrwt beam="2">  1       -3 0.90189092E-01 0.36335413E+03</pdfrwt>
<totfact> 0.27690741E+02</totfact>
</mgrwt>
</event>
<event>
 6    1  0.1528034E-005  0.4864209E+04  0.7818608E-02  0.7849803E-01
          2   -1    0    0  501    0  0.00000000000E+00  0.00000000000E+00  0.40917075575E+04  0.40917075575E+04  0.00000000000E+00 0. -1.
         -2   -1    0    0    0  501 -0.00000000000E+00 -0.00000000000E+00 -0.14456389964E+04  0.14456389964E+04  0.00000000000E+00 0.  1.
         23    2    1    2    0    0  0.18908463210E+03 -0.15134231445E+04  0.34788741275E+04  0.37995986654E+04  0.90455570800E+02 0.  0.
         13    1    3    3    0    0  0.18648931375E+03 -0.13447270936E+04  0.30377174559E+04  0.33272806558E+04  0.00000000000E+00 0.  1.
        -13    1    3    3    0    0  0.25953183506E+01 -0.16869605089E+03  0.44115667162E+03  0.47231800959E+03  0.00000000000E+00 0. -1.
         22    1    1    2    0    0 -0.18908463210E+03  0.15134231445E+04 -0.83280556648E+03  0.17377478885E+04  0.00000000000E+00 0.  1.
<mgrwt>
<rscale>  0 0.48642089E+04</rscale>
<asrwt>0</asrwt>
<pdfrwt beam="1">  1        2 0.62949346E+00 0.48642089E+04</pdfrwt>
<pdfrwt beam="2">  1       -2 0.22240600E+00 0.48642089E+04</pdfrwt>
<totfact> 0.20088937E-02</totfact>
</mgrwt>
</event>
<event>
 6    1  0.1528034E-005  0.4636100E+04  0.7818608E-02  0.7887234E-01
          2   -1    0    0  501    0  0.00000000000E+00  0.00000000000E+00  0.35212411185E+04  0.35212411185E+04  0.00000000000E+00 0. -1.
         -2   -1    0    0    0  501 -0.00000000000E+00 -0.00000000000E+00 -0.15259832366E+04  0.15259832366E+04  0.00000000000E+00 0.  1.
         23    2    1    2    0    0 -0.11899109549E+04 -0.13544974465E+04 -0.58664289915E+03  0.18981351127E+04  0.90639956498E+02 0.  0.
         11    1    3    3    0    0 -0.67021059674E+03 -0.72528018389E+03 -0.28155202347E+03  0.10268812643E+04  0.00000000000E+00 0.  1.
        -11    1    3    3    0    0 -0.51970035819E+03 -0.62921726262E+03 -0.30509087567E+03  0.87125384837E+03  0.00000000000E+00 0. -1.
         22    1    1    2    0    0  0.11899109549E+04  0.13544974465E+04  0.25819007811E+04  0.31490892424E+04  0.00000000000E+00 0. -1.
<mgrwt>
<rscale>  0 0.46360996E+04</rscale>
<asrwt>0</asrwt>
<pdfrwt beam="1">  1        2 0.54172940E+00 0.46360996E+04</pdfrwt>
<pdfrwt beam="2">  1       -2 0.23476665E+00 0.46360996E+04</pdfrwt>
<totfact> 0.46902677E-02</totfact>
</mgrwt>
</event>
<event>
 6    1  0.1528034E-005  0.1713389E+04  0.7818608E-02  0.8753765E-01
          1   -1    0    0  501    0  0.00000000000E+00  0.00000000000E+00  0.53974765165E+03  0.53974765165E+03  0.00000000000E+00 0. -1.
         -1   -1    0    0    0  501 -0.00000000000E+00 -0.00000000000E+00 -0.13597561688E+04  0.13597561688E+04  0.00000000000E+00 0.  1.
         23    2    1    2    0    0  0.75710854594E+03  0.31902510659E+03 -0.15201026991E+03  0.84063082180E+03  0.92534790398E+02 0.  0.
         11    1    3    3    0    0  0.64497352368E+03  0.24322823977E+03 -0.10451545651E+03  0.69719029218E+03  0.00000000000E+00 0.  1.
        -11    1    3    3    0    0  0.11213502227E+03  0.75796866815E+02 -0.47494813396E+02  0.14344052962E+03  0.00000000000E+00 0. -1.
         22    1    1    2    0    0 -0.75710854594E+03 -0.31902510659E+03 -0.66799824725E+03  0.10588729987E+04  0.00000000000E+00 0. -1.
<mgrwt>
<rscale>  0 0.17133887E+04</rscale>
<asrwt>0</asrwt>
<pdfrwt beam="1">  1        1 0.83038101E-01 0.17133887E+04</pdfrwt>
<pdfrwt beam="2">  1       -1 0.20919325E+00 0.17133887E+04</pdfrwt>
<totfact> 0.49288940E+00</totfact>
</mgrwt>
</event>
<event>
 6    1  0.1528034E-005  0.1993044E+04  0.7818608E-02  0.8609880E-01
          1   -1    0    0  501    0  0.00000000000E+00  0.00000000000E+00  0.11365032344E+04  0.11365032344E+04  0.00000000000E+00 0. -1.
         -1   -1    0    0    0  501 -0.00000000000E+00 -0.00000000000E+00 -0.87378220854E+03  0.87378220854E+03  0.00000000000E+00 0.  1.
         23    2    1    2    0    0  0.86093332141E+03  0.56237431298E+02 -0.36788150187E+03  0.94162816367E+03  0.83414426865E+02 0.  0.
         11    1    3    3    0    0  0.61098631390E+03  0.77299706560E+02 -0.25485838228E+03  0.66650755091E+03  0.00000000000E+00 0. -1.
        -11    1    3    3    0    0  0.24994700752E+03 -0.21062275262E+02 -0.11302311959E+03  0.27512061276E+03  0.00000000000E+00 0.  1.
         22    1    1    2    0    0 -0.86093332141E+03 -0.56237431298E+02  0.63060252778E+03  0.10686572793E+04  0.00000000000E+00 0. -1.
<mgrwt>
<rscale>  0 0.19930442E+04</rscale>
<asrwt>0</asrwt>
<pdfrwt beam="1">  1        1 0.17484665E+00 0.19930442E+04</pdfrwt>
<pdfrwt beam="2">  1       -1 0.13442803E+00 0.19930442E+04</pdfrwt>
<totfact> 0.51462283E+00</totfact>
</mgrwt>
</event>
<event>
 6    1  0.1528034E-005  0.5728979E+03  0.7818608E-02  0.9963286E-01
          2   -1    0    0  501    0  0.00000000000E+00  0.00000000000E+00  0.11235532191E+04  0.11235532191E+04  0.00000000000E+00 0. -1.
         -2   -1    0    0    0  501 -0.00000000000E+00 -0.00000000000E+00 -0.73029913461E+02  0.73029913461E+02  0.00000000000E+00 0.  1.
         23    2    1    2    0    0  0.25294346381E+03  0.50863313567E+02  0.28521018217E+03  0.38894976926E+03  0.58048276873E+02 0.  0.
         13    1    3    3    0    0  0.11643596528E+03  0.46477313164E+02  0.16331884722E+03  0.20588958329E+03  0.00000000000E+00 0.  1.
        -13    1    3    3    0    0  0.13650749852E+03  0.43860004037E+01  0.12189133494E+03  0.18306018597E+03  0.00000000000E+00 0. -1.
         22    1    1    2    0    0 -0.25294346381E+03 -0.50863313567E+02  0.76531312345E+03  0.80763336328E+03  0.00000000000E+00 0. -1.
<mgrwt>
<rscale>  0 0.57289788E+03</rscale>
<asrwt>0</asrwt>
<pdfrwt beam="1">  1        2 0.17285433E+00 0.57289788E+03</pdfrwt>
<pdfrwt beam="2">  1       -2 0.11235372E-01 0.57289788E+03</pdfrwt>
<totfact> 0.12076851E+03</totfact>
</mgrwt>
</event>
<event>
 6    1  0.1528034E-005  0.1698874E+04  0.7818608E-02  0.8762007E-01
         -2   -1    0    0    0  501 -0.00000000000E+00  0.00000000000E+00  0.12300785282E+04  0.12300785282E+04  0.00000000000E+00 0. -1.
          2   -1    0    0  501    0  0.00000000000E+00 -0.00000000000E+00 -0.58658335244E+03  0.58658335244E+03  0.00000000000E+00 0.  1.
         23    2    1    2    0    0 -0.21390463812E+03  0.25721348502E+03 -0.50939439313E+03  0.61621682603E+03  0.91249974458E+02 0.  0.
         11    1    3    3    0    0 -0.11419169727E+03  0.11522247907E+03 -0.16962192346E+03  0.23470739299E+03  0.00000000000E+00 0.  1.
        -11    1    3    3    0    0 -0.99712940846E+02  0.14199100595E+03 -0.33977246968E+03  0.38150943303E+03  0.00000000000E+00 0. -1.
         22    1    1    2    0    0  0.21390463812E+03 -0.25721348502E+03  0.11528895689E+04  0.12004450546E+04  0.00000000000E+00 0. -1.
<mgrwt>
<rscale>  0 0.16988744E+04</rscale>
<asrwt>0</asrwt>
<pdfrwt beam="1">  1        2 0.90243593E-01 0.16988744E+04</pdfrwt>
<pdfrwt beam="2">  1       -2 0.18924285E+00 0.16988744E+04</pdfrwt>
<totfact> 0.75999596E+00</totfact>
</mgrwt>
</event>
<event>
 6    1  0.1528034E-005  0.2221643E+04  0.7818608E-02  0.8509473E-01
          2   -1    0    0  501    0  0.00000000000E+00  0.00000000000E+00  0.10486300136E+04  0.10486300136E+04  0.00000000000E+00 0.  1.
         -2   -1    0    0    0  501 -0.00000000000E+00 -0.00000000000E+00 -0.11767015366E+04  0.11767015366E+04  0.00000000000E+00 0. -1.
         23    2    1    2    0    0 -0.72827549263E+03  0.81593417683E+01 -0.90189956208E+03  0.11626643389E+04  0.88959410621E+02 0.  0.
         11    1    3    3    0    0 -0.32130837160E+03  0.38715450112E+02 -0.44165922741E+03  0.54754070981E+03  0.00000000000E+00 0. -1.
        -11    1    3    3    0    0 -0.40696712103E+03 -0.30556108343E+02 -0.46024033467E+03  0.61512362905E+03  0.00000000000E+00 0.  1.
         22    1    1    2    0    0  0.72827549263E+03 -0.81593417683E+01  0.77382803905E+03  0.10626672113E+04  0.00000000000E+00 0.  1.
<mgrwt>
<rscale>  0 0.22216431E+04</rscale>
<asrwt>0</asrwt>
<pdfrwt beam="1">  1        2 0.16132770E+00 0.22216431E+04</pdfrwt>
<pdfrwt beam="2">  1       -2 0.18103100E+00 0.22216431E+04</pdfrwt>
<totfact> 0.38168933E+00</totfact>
</mgrwt>
</event>
<event>
 6    1  0.1528034E-005  0.2397416E+04  0.7818608E-02  0.8440472E-01
          2   -1    0    0  501    0  0.00000000000E+00  0.00000000000E+00  0.92781749099E+03  0.92781749099E+03  0.00000000000E+00 0. -1.
         -2   -1    0    0    0  501 -0.00000000000E+00 -0.00000000000E+00 -0.15486886831E+04  0.15486886831E+04  0.00000000000E+00 0.  1.
         23    2    1    2    0    0 -0.82141550912E+03 -0.37479859878E+03  0.50102305471E+03  0.10364214095E+04  0.89150481459E+02 0.  0.
         11    1    3    3    0    0 -0.49707349549E+03 -0.27234338289E+03  0.32685199194E+03  0.65428220422E+03  0.00000000000E+00 0.  1.
        -11    1    3    3    0    0 -0.32434201363E+03 -0.10245521590E+03  0.17417106277E+03  0.38213920523E+03  0.00000000000E+00 0. -1.
         22    1    1    2    0    0  0.82141550912E+03  0.37479859878E+03 -0.11218942468E+04  0.14400847646E+04  0.00000000000E+00 0.  1.
<mgrwt>
<rscale>  0 0.23974156E+04</rscale>
<asrwt>0</asrwt>
<pdfrwt beam="1">  1        2 0.14274115E+00 0.23974156E+04</pdfrwt>
<pdfrwt beam="2">  1       -2 0.23825980E+00 0.23974156E+04</pdfrwt>
<totfact> 0.19179021E+00</totfact>
</mgrwt>
</event>
<event>
 6    1  0.1528034E-005  0.5349179E+04  0.7818608E-02  0.7776790E-01
          1   -1    0    0  501    0  0.00000000000E+00  0.00000000000E+00  0.39693505462E+04  0.39693505462E+04  0.00000000000E+00 0. -1.
         -1   -1    0    0    0  501 -0.00000000000E+00 -0.00000000000E+00 -0.18021663165E+04  0.18021663165E+04  0.00000000000E+00 0.  1.
         23    2    1    2    0    0  0.39898539702E+03  0.25015159248E+04  0.16075635729E+03  0.25400274111E+04  0.95526821620E+02 0.  0.
         13    1    3    3    0    0  0.13853046213E+03  0.10005701982E+04  0.10609398587E+03  0.10156708839E+04  0.00000000000E+00 0.  1.
        -13    1    3    3    0    0  0.26045493489E+03  0.15009457266E+04  0.54662371415E+02  0.15243565272E+04  0.00000000000E+00 0. -1.
         22    1    1    2    0    0 -0.39898539702E+03 -0.25015159248E+04  0.20064278724E+04  0.32314894517E+04  0.00000000000E+00 0. -1.
<mgrwt>
<rscale>  0 0.53491793E+04</rscale>
<asrwt>0</asrwt>
<pdfrwt beam="1">  1        1 0.61066931E+00 0.53491793E+04</pdfrwt>
<pdfrwt beam="2">  1       -1 0.27725636E+00 0.53491793E+04</pdfrwt>
<totfact> 0.33133725E-03</totfact>
</mgrwt>
</event>
<event>
 6    1  0.1528034E-005  0.3677792E+04  0.7818608E-02  0.8072901E-01
         -2   -1    0    0    0  501 -0.00000000000E+00  0.00000000000E+00  0.25055732576E+04  0.25055732576E+04  0.00000000000E+00 0.  1.
          2   -1    0    0  501    0  0.00000000000E+00 -0.00000000000E+00 -0.13496067767E+04  0.13496067767E+04  0.00000000000E+00 0. -1.
         23    2    1    2    0    0 -0.15472177876E+04 -0.27203997121E+03 -0.42131111384E+03  0.16290413955E+04  0.91565198218E+02 0.  0.
         11    1    3    3    0    0 -0.44713638504E+03 -0.74304680775E+02 -0.16459475331E+03  0.48222771098E+03  0.00000000000E+00 0.  1.
        -11    1    3    3    0    0 -0.11000814025E+04 -0.19773529044E+03 -0.25671636053E+03  0.11468136845E+04  0.00000000000E+00 0. -1.
         22    1    1    2    0    0  0.15472177876E+04  0.27203997121E+03  0.15772775948E+04  0.22261386388E+04  0.00000000000E+00 0.  1.
<mgrwt>
<rscale>  0 0.36777921E+04</rscale>
<asrwt>0</asrwt>
<pdfrwt beam="1">  1        2 0.20763181E+00 0.36777921E+04</pdfrwt>
<pdfrwt beam="2">  1       -2 0.38547281E+00 0.36777921E+04</pdfrwt>
<totfact> 0.11554436E-01</totfact>
</mgrwt>
</event>
<event>
 6    1  0.1528034E-005  0.3522392E+04  0.7818608E-02  0.8108504E-01
          2   -1    0    0  501    0  0.00000000000E+00  0.00000000000E+00  0.16155603828E+04  0.16155603828E+04  0.00000000000E+00 0. -1.
         -2   -1    0    0    0  501 -0.00000000000E+00 -0.00000000000E+00 -0.19199602354E+04  0.19199602354E+04  0.00000000000E+00 0.  1.
         23    2    1    2    0    0 -0.68992830851E+02 -0.17521467879E+04 -0.30335396720E+03  0.17820157078E+04  0.93690856806E+02 0.  0.
         13    1    3    3    0    0 -0.60156853928E+02 -0.12649333699E+04 -0.17758896433E+03  0.12787545181E+04  0.00000000000E+00 0. -1.
        -13    1    3    3    0    0 -0.88359769224E+01 -0.48721341794E+03 -0.12576500287E+03  0.50326118970E+03  0.00000000000E+00 0.  1.
         22    1    1    2    0    0  0.68992830851E+02  0.17521467879E+04 -0.10458853573E+01  0.17535049104E+04  0.00000000000E+00 0.  1.
<mgrwt>
<rscale>  0 0.35223922E+04</rscale>
<asrwt>0</asrwt>
<pdfrwt beam="1">  1        2 0.24854775E+00 0.35223922E+04</pdfrwt>
<pdfrwt beam="2">  1       -2 0.29537850E+00 0.35223922E+04</pdfrwt>
<totfact> 0.30410206E-01</totfact>
</mgrwt>
</event>
<event>
 6    1  0.1528034E-005  0.3094491E+04  0.7818608E-02  0.8217251E-01
         -2   -1    0    0    0  501 -0.00000000000E+00  0.00000000000E+00  0.22131644444E+04  0.22131644444E+04  0.00000000000E+00 0.  1.
          2   -1    0    0  501    0  0.00000000000E+00 -0.00000000000E+00 -0.10816950458E+04  0.10816950458E+04  0.00000000000E+00 0. -1.
         23    2    1    2    0    0  0.68727895316E+03 -0.23024324855E+03 -0.88752582973E+03  0.11497007444E+04  0.93516791031E+02 0.  0.
         13    1    3    3    0    0  0.29202515027E+03 -0.98820528005E+02 -0.30584861572E+03  0.43426669327E+03  0.00000000000E+00 0.  1.
        -13    1    3    3    0    0  0.39525380289E+03 -0.13142272054E+03 -0.58167721401E+03  0.71543405110E+03  0.00000000000E+00 0. -1.
         22    1    1    2    0    0 -0.68727895316E+03  0.23024324855E+03  0.20189952284E+04  0.21451587459E+04  0.00000000000E+00 0.  1.
<mgrwt>
<rscale>  0 0.30944912E+04</rscale>
<asrwt>0</asrwt>
<pdfrwt beam="1">  1        2 0.16641462E+00 0.30944912E+04</pdfrwt>
<pdfrwt beam="2">  1       -2 0.34048684E+00 0.30944912E+04</pdfrwt>
<totfact> 0.33906782E-01</totfact>
</mgrwt>
</event>
<event>
 6    1  0.1528034E-005  0.6564369E+03  0.7818608E-02  0.9794775E-01
          1   -1    0    0  501    0  0.00000000000E+00  0.00000000000E+00  0.19099012514E+04  0.19099012514E+04  0.00000000000E+00 0. -1.
         -1   -1    0    0    0  501 -0.00000000000E+00 -0.00000000000E+00 -0.56404677452E+02  0.56404677452E+02  0.00000000000E+00 0.  1.
         23    2    1    2    0    0 -0.11192560710E+02  0.27109108891E+03  0.42210391089E+03  0.50942549183E+03  0.87903175392E+02 0.  0.
         13    1    3    3    0    0 -0.71675166934E+01  0.35988972606E+02  0.15726225912E+02  0.39923597360E+02  0.00000000000E+00 0. -1.
        -13    1    3    3    0    0 -0.40250440163E+01  0.23510211630E+03  0.40637768497E+03  0.46950189447E+03  0.00000000000E+00 0.  1.
         22    1    1    2    0    0  0.11192560710E+02 -0.27109108891E+03  0.14313926631E+04  0.14568804370E+04  0.00000000000E+00 0. -1.
<mgrwt>
<rscale>  0 0.65643694E+03</rscale>
<asrwt>0</asrwt>
<pdfrwt beam="1">  1        1 0.29383091E+00 0.65643694E+03</pdfrwt>
<pdfrwt beam="2">  1       -1 0.86776441E-02 0.65643694E+03</pdfrwt>
<totfact> 0.28016127E+02</totfact>
</mgrwt>
</event>
<event>
 6    1  0.1528034E-005  0.1272651E+04  0.7818608E-02  0.9051539E-01
         -1   -1    0    0    0  501 -0.00000000000E+00  0.00000000000E+00  0.36568967883E+03  0.36568967883E+03  0.00000000000E+00 0. -1.
          1   -1    0    0  501    0  0.00000000000E+00 -0.00000000000E+00 -0.11072503585E+04  0.11072503585E+04  0.00000000000E+00 0.  1.
         23    2    1    2    0    0 -0.15553316447E+03 -0.20546224672E+03 -0.10418579754E+04  0.10772333709E+04  0.92511591287E+02 0.  0.
         11    1    3    3    0    0 -0.87472888102E+02 -0.17849981113E+03 -0.70335647264E+03  0.73090629791E+03  0.00000000000E+00 0.  1.
        -11    1    3    3    0    0 -0.68060276367E+02 -0.26962435591E+02 -0.33850150272E+03  0.34632707301E+03  0.00000000000E+00 0. -1.
         22    1    1    2    0    0  0.15553316447E+03  0.20546224672E+03  0.30029729567E+03  0.39570666643E+03  0.00000000000E+00 0. -1.
<mgrwt>
<rscale>  0 0.12726508E+04</rscale>
<asrwt>0</asrwt>
<pdfrwt beam="1">  1        1 0.17034621E+00 0.12726508E+04</pdfrwt>
<pdfrwt beam="2">  1       -1 0.56259952E-01 0.12726508E+04</pdfrwt>
<totfact> 0.39401741E+01</totfact>
</mgrwt>
</event>
<event>
 6    1  0.1528034E-005  0.1500347E+04  0.7818608E-02  0.8884222E-01
         -2   -1    0    0    0  501 -0.00000000000E+00  0.00000000000E+00  0.34060752961E+03  0.34060752961E+03  0.00000000000E+00 0.  1.
          2   -1    0    0  501    0  0.00000000000E+00 -0.00000000000E+00 -0.16522243207E+04  0.16522243207E+04  0.00000000000E+00 0. -1.
         23    2    1    2    0    0  0.16970218761E+03  0.62262600840E+03 -0.15752899830E+03  0.67056840745E+03  0.91567597701E+02 0.  0.
         11    1    3    3    0    0  0.10896370826E+03  0.42960806421E+03 -0.64576552948E+02  0.44789095742E+03  0.00000000000E+00 0. -1.
        -11    1    3    3    0    0  0.60738479352E+02  0.19301794419E+03 -0.92952445351E+02  0.22267745003E+03  0.00000000000E+00 0.  1.
         22    1    1    2    0    0 -0.16970218761E+03 -0.62262600840E+03 -0.11540877927E+04  0.13222634428E+04  0.00000000000E+00 0. -1.
<mgrwt>
<rscale>  0 0.15003467E+04</rscale>
<asrwt>0</asrwt>
<pdfrwt beam="1">  1        2 0.25418836E+00 0.15003467E+04</pdfrwt>
<pdfrwt beam="2">  1       -2 0.52401158E-01 0.15003467E+04</pdfrwt>
<totfact> 0.34619055E+01</totfact>
</mgrwt>
</event>
<event>
 6    1  0.1528034E-005  0.2100990E+04  0.7818608E-02  0.8560807E-01
          2   -1    0    0  501    0  0.00000000000E+00  0.00000000000E+00  0.54903343675E+03  0.54903343675E+03  0.00000000000E+00 0. -1.
         -2   -1    0    0    0  501 -0.00000000000E+00 -0.00000000000E+00 -0.20099686963E+04  0.20099686963E+04  0.00000000000E+00 0.  1.
         23    2    1    2    0    0  0.18259490357E+03  0.17846377438E+03 -0.19704841146E+04  0.19890633177E+04  0.91515126536E+02 0.  0.
         11    1    3    3    0    0  0.10928859122E+03  0.62160543562E+02 -0.11836806046E+04  0.11903393227E+04  0.00000000000E+00 0. -1.
        -11    1    3    3    0    0  0.73306312351E+02  0.11630323082E+03 -0.78680351003E+03  0.79872399508E+03  0.00000000000E+00 0.  1.
         22    1    1    2    0    0 -0.18259490357E+03 -0.17846377438E+03  0.50954885504E+03  0.56993881536E+03  0.00000000000E+00 0. -1.
<mgrwt>
<rscale>  0 0.21009903E+04</rscale>
<asrwt>0</asrwt>
<pdfrwt beam="1">  1        2 0.84466681E-01 0.21009903E+04</pdfrwt>
<pdfrwt beam="2">  1       -2 0.30922596E+00 0.21009903E+04</pdfrwt>
<totfact> 0.14196618E+00</totfact>
</mgrwt>
</event>
<event>
 6    1  0.1528034E-005  0.1505661E+04  0.7818608E-02  0.8880697E-01
         -1   -1    0    0    0  501 -0.00000000000E+00  0.00000000000E+00  0.96480580130E+03  0.96480580130E+03  0.00000000000E+00 0.  1.
          1   -1    0    0  501    0  0.00000000000E+00 -0.00000000000E+00 -0.58742770566E+03  0.58742770566E+03  0.00000000000E+00 0. -1.
         23    2    1    2    0    0 -0.24729645901E+03  0.21870027275E+03  0.88369921018E+03  0.94779457789E+03  0.91678349939E+02 0.  0.
         13    1    3    3    0    0 -0.10929975654E+03  0.42404656642E+02  0.34706147781E+03  0.36632807846E+03  0.00000000000E+00 0.  1.
        -13    1    3    3    0    0 -0.13799670248E+03  0.17629561611E+03  0.53663773237E+03  0.58146649943E+03  0.00000000000E+00 0. -1.
         22    1    1    2    0    0  0.24729645901E+03 -0.21870027275E+03 -0.50632111455E+03  0.60443892908E+03  0.00000000000E+00 0. -1.
<mgrwt>
<rscale>  0 0.15056609E+04</rscale>
<asrwt>0</asrwt>
<pdfrwt beam="1">  1        1 0.90373493E-01 0.15056609E+04</pdfrwt>
<pdfrwt beam="2">  1       -1 0.14843166E+00 0.15056609E+04</pdfrwt>
<totfact> 0.12255825E+01</totfact>
</mgrwt>
</event>
<event>
 6    1  0.1528034E-005  0.2911832E+04  0.7818608E-02  0.8269366E-01
          2   -1    0    0  501    0  0.00000000000E+00  0.00000000000E+00  0.12000596025E+04  0.12000596025E+04  0.00000000000E+00 0. -1.
         -2   -1    0    0    0  501 -0.00000000000E+00 -0.00000000000E+00 -0.17663214685E+04  0.17663214685E+04  0.00000000000E+00 0.  1.
         23    2    1    2    0    0  0.44973590069E+03 -0.17081669754E+03  0.11149867696E+04  0.12176564787E+04  0.89727806009E+02 0.  0.
         13    1    3    3    0    0  0.86892476557E+02 -0.23520093758E+02  0.30442066470E+03  0.31745147407E+03  0.00000000000E+00 0.  1.
        -13    1    3    3    0    0  0.36284342413E+03 -0.14729660379E+03  0.81056610495E+03  0.90020500466E+03  0.00000000000E+00 0. -1.
         22    1    1    2    0    0 -0.44973590069E+03  0.17081669754E+03 -0.16812486357E+04  0.17487245922E+04  0.00000000000E+00 0.  1.
<mgrwt>
<rscale>  0 0.29118318E+04</rscale>
<asrwt>0</asrwt>
<pdfrwt beam="1">  1        2 0.18462455E+00 0.29118318E+04</pdfrwt>
<pdfrwt beam="2">  1       -2 0.27174176E+00 0.29118318E+04</pdfrwt>
<totfact> 0.77229296E-01</totfact>
</mgrwt>
</event>
<event>
 6    1  0.1528034E-005  0.2431196E+04  0.7818608E-02  0.8427916E-01
          2   -1    0    0  501    0  0.00000000000E+00  0.00000000000E+00  0.87414999236E+03  0.87414999236E+03  0.00000000000E+00 0.  1.
         -2   -1    0    0    0  501 -0.00000000000E+00 -0.00000000000E+00 -0.16904174546E+04  0.16904174546E+04  0.00000000000E+00 0. -1.
         23    2    1    2    0    0  0.75989432804E+03 -0.36244082494E+03  0.51362432597E+03  0.99058685315E+03  0.93003354929E+02 0.  0.
         11    1    3    3    0    0  0.63431670469E+03 -0.33918615161E+03  0.43504816721E+03  0.84063775497E+03  0.00000000000E+00 0. -1.
        -11    1    3    3    0    0  0.12557762335E+03 -0.23254673335E+02  0.78576158764E+02  0.14994909818E+03  0.00000000000E+00 0.  1.
         22    1    1    2    0    0 -0.75989432804E+03  0.36244082494E+03 -0.13298917882E+04  0.15739805938E+04  0.00000000000E+00 0.  1.
<mgrwt>
<rscale>  0 0.24311959E+04</rscale>
<asrwt>0</asrwt>
<pdfrwt beam="1">  1        2 0.13448461E+00 0.24311959E+04</pdfrwt>
<pdfrwt beam="2">  1       -2 0.26006422E+00 0.24311959E+04</pdfrwt>
<totfact> 0.15266727E+00</totfact>
</mgrwt>
</event>
<event>
 6    1  0.1528034E-005  0.3060704E+04  0.7818608E-02  0.8226606E-01
          1   -1    0    0  501    0  0.00000000000E+00  0.00000000000E+00  0.21665358432E+04  0.21665358432E+04  0.00000000000E+00 0. -1.
         -1   -1    0    0    0  501 -0.00000000000E+00 -0.00000000000E+00 -0.10809775192E+04  0.10809775192E+04  0.00000000000E+00 0.  1.
         23    2    1    2    0    0  0.14621482787E+04  0.37583490400E+03  0.28683874784E+03  0.15395665174E+04  0.94122953151E+02 0.  0.
         13    1    3    3    0    0  0.36955992047E+03  0.54814162912E+02  0.82562395061E+02  0.38261687933E+03  0.00000000000E+00 0.  1.
        -13    1    3    3    0    0  0.10925883583E+04  0.32102074108E+03  0.20427635278E+03  0.11569496381E+04  0.00000000000E+00 0. -1.
         22    1    1    2    0    0 -0.14621482787E+04 -0.37583490400E+03  0.79871957617E+03  0.17079468450E+04  0.00000000000E+00 0. -1.
<mgrwt>
<rscale>  0 0.30607035E+04</rscale>
<asrwt>0</asrwt>
<pdfrwt beam="1">  1        1 0.33331321E+00 0.30607035E+04</pdfrwt>
<pdfrwt beam="2">  1       -1 0.16630423E+00 0.30607035E+04</pdfrwt>
<totfact> 0.50937668E-01</totfact>
</mgrwt>
</event>
<event>
 6    1  0.1528034E-005  0.4959612E+04  0.7818608E-02  0.7834768E-01
          2   -1    0    0  501    0  0.00000000000E+00  0.00000000000E+00  0.24747789380E+04  0.24747789380E+04  0.00000000000E+00 0. -1.
         -2   -1    0    0    0  501 -0.00000000000E+00 -0.00000000000E+00 -0.24848437155E+04  0.24848437155E+04  0.00000000000E+00 0.  1.
         23    2    1    2    0    0  0.17916432067E+04  0.14399123926E+04 -0.93338715305E+03  0.24825563872E+04  0.92420559468E+02 0.  0.
         13    1    3    3    0    0  0.11806641351E+03  0.67529274896E+02 -0.59785207839E+02  0.14857372595E+03  0.00000000000E+00 0. -1.
        -13    1    3    3    0    0  0.16735767932E+04  0.13723831177E+04 -0.87360194521E+03  0.23339826613E+04  0.00000000000E+00 0.  1.
         22    1    1    2    0    0 -0.17916432067E+04 -0.14399123926E+04  0.92332237558E+03  0.24770662663E+04  0.00000000000E+00 0. -1.
<mgrwt>
<rscale>  0 0.49596124E+04</rscale>
<asrwt>0</asrwt>
<pdfrwt beam="1">  1        2 0.38073522E+00 0.49596124E+04</pdfrwt>
<pdfrwt beam="2">  1       -2 0.38228365E+00 0.49596124E+04</pdfrwt>
<totfact> 0.25456557E-02</totfact>
</mgrwt>
</event>
<event>
 6    1  0.1528034E-005  0.2107555E+04  0.7818608E-02  0.8557922E-01
          2   -1    0    0  501    0  0.00000000000E+00  0.00000000000E+00  0.25086220277E+04  0.25086220277E+04  0.00000000000E+00 0. -1.
         -2   -1    0    0    0  501 -0.00000000000E+00 -0.00000000000E+00 -0.44265233776E+03  0.44265233776E+03  0.00000000000E+00 0.  1.
         23    2    1    2    0    0  0.37803035895E+03  0.29006941566E+02  0.24087791969E+04  0.24401318090E+04  0.90981708083E+02 0.  0.
         11    1    3    3    0    0  0.20381493045E+03 -0.37099407386E+00  0.10203520592E+04  0.10405090044E+04  0.00000000000E+00 0.  1.
        -11    1    3    3    0    0  0.17421542850E+03  0.29377935640E+02  0.13884271377E+04  0.13996228047E+04  0.00000000000E+00 0. -1.
         22    1    1    2    0    0 -0.37803035895E+03 -0.29006941566E+02 -0.34280950693E+03  0.51114255642E+03  0.00000000000E+00 0.  1.
<mgrwt>
<rscale>  0 0.21075554E+04</rscale>
<asrwt>0</asrwt>
<pdfrwt beam="1">  1        2 0.38594184E+00 0.21075554E+04</pdfrwt>
<pdfrwt beam="2">  1       -2 0.68100361E-01 0.21075554E+04</pdfrwt>
<totfact> 0.62576114E+00</totfact>
</mgrwt>
</event>
<event>
 6    1  0.1528034E-005  0.2569629E+04  0.7818608E-02  0.8378591E-01
         -1   -1    0    0    0  501 -0.00000000000E+00  0.00000000000E+00  0.81536302316E+03  0.81536302316E+03  0.00000000000E+00 0.  1.
          1   -1    0    0  501    0  0.00000000000E+00 -0.00000000000E+00 -0.20245561953E+04  0.20245561953E+04  0.00000000000E+00 0. -1.
         23    2    1    2    0    0 -0.49395024451E+03 -0.11206308038E+04 -0.18193927042E+03  0.12414665851E+04  0.91307946698E+02 0.  0.
         11    1    3    3    0    0 -0.30546617785E+03 -0.79082195795E+03 -0.11048698199E+03  0.85493644686E+03  0.00000000000E+00 0.  1.
        -11    1    3    3    0    0 -0.18848406666E+03 -0.32980884590E+03 -0.71452288429E+02  0.38653013821E+03  0.00000000000E+00 0. -1.
         22    1    1    2    0    0  0.49395024451E+03  0.11206308038E+04 -0.10272539017E+04  0.15984526334E+04  0.00000000000E+00 0.  1.
<mgrwt>
<rscale>  0 0.25696290E+04</rscale>
<asrwt>0</asrwt>
<pdfrwt beam="1">  1        1 0.31147018E+00 0.25696290E+04</pdfrwt>
<pdfrwt beam="2">  1       -1 0.12544047E+00 0.25696290E+04</pdfrwt>
<totfact> 0.14045823E+00</totfact>
</mgrwt>
</event>
<event>
 6    1  0.1619059E-005  0.4166959E+04  0.7818608E-02  0.7971687E-01
         -2   -1    0    0    0  501 -0.00000000000E+00  0.00000000000E+00  0.27870955186E+04  0.27870955186E+04  0.00000000000E+00 0.  1.
          2   -1    0    0  501    0  0.00000000000E+00 -0.00000000000E+00 -0.15574951326E+04  0.15574951326E+04  0.00000000000E+00 0. -1.
         23    2    1    2    0    0 -0.81282684960E+03 -0.15945770250E+04 -0.49481796932E+03  0.18592371471E+04  0.92490921431E+02 0.  0.
         13    1    3    3    0    0 -0.63740160303E+03 -0.11614555173E+04 -0.36180368494E+03  0.13733759968E+04  0.00000000000E+00 0.  1.
        -13    1    3    3    0    0 -0.17542524658E+03 -0.43312150762E+03 -0.13301428439E+03  0.48586115028E+03  0.00000000000E+00 0. -1.
         22    1    1    2    0    0  0.81282684960E+03  0.15945770250E+04  0.17244183553E+04  0.24853535041E+04  0.00000000000E+00 0.  1.
<mgrwt>
<rscale>  0 0.41669594E+04</rscale>
<asrwt>0</asrwt>
<pdfrwt beam="1">  1        2 0.23961464E+00 0.41669594E+04</pdfrwt>
<pdfrwt beam="2">  1       -2 0.42878393E+00 0.41669594E+04</pdfrwt>
<totfact> 0.43982309E-02</totfact>
</mgrwt>
</event>
<event>
 6    1  0.1528034E-005  0.2351732E+04  0.7818608E-02  0.8457799E-01
          1   -1    0    0  501    0  0.00000000000E+00  0.00000000000E+00  0.91960819081E+03  0.91960819081E+03  0.00000000000E+00 0. -1.
         -1   -1    0    0    0  501 -0.00000000000E+00 -0.00000000000E+00 -0.15035319684E+04  0.15035319684E+04  0.00000000000E+00 0.  1.
         23    2    1    2    0    0 -0.57168343133E+03 -0.64895337687E+03  0.52577918595E+03  0.10162275470E+04  0.91171508484E+02 0.  0.
         13    1    3    3    0    0 -0.41155020268E+03 -0.42819897666E+03  0.39892291786E+03  0.71544910883E+03  0.00000000000E+00 0. -1.
        -13    1    3    3    0    0 -0.16013322865E+03 -0.22075440021E+03  0.12685626809E+03  0.30077843820E+03  0.00000000000E+00 0.  1.
         22    1    1    2    0    0  0.57168343133E+03  0.64895337687E+03 -0.11097029635E+04  0.14069126122E+04  0.00000000000E+00 0.  1.
<mgrwt>
<rscale>  0 0.23517315E+04</rscale>
<asrwt>0</asrwt>
<pdfrwt beam="1">  1        1 0.14147818E+00 0.23517315E+04</pdfrwt>
<pdfrwt beam="2">  1       -1 0.23131261E+00 0.23517315E+04</pdfrwt>
<totfact> 0.14599754E+00</totfact>
</mgrwt>
</event>
<event>
 6    1  0.1528034E-005  0.1911550E+04  0.7818608E-02  0.8649128E-01
         -2   -1    0    0    0  501 -0.00000000000E+00  0.00000000000E+00  0.74767195473E+03  0.74767195473E+03  0.00000000000E+00 0.  1.
          2   -1    0    0  501    0  0.00000000000E+00 -0.00000000000E+00 -0.12218007402E+04  0.12218007402E+04  0.00000000000E+00 0. -1.
         23    2    1    2    0    0 -0.43589333174E+03  0.29430639975E+03  0.58199459741E+03  0.78963548011E+03  0.90483293700E+02 0.  0.
         11    1    3    3    0    0 -0.31728845425E+03  0.16308982206E+03  0.39403713568E+03  0.53154070169E+03  0.00000000000E+00 0. -1.
        -11    1    3    3    0    0 -0.11860487749E+03  0.13121657769E+03  0.18795746173E+03  0.25809477841E+03  0.00000000000E+00 0.  1.
         22    1    1    2    0    0  0.43589333174E+03 -0.29430639975E+03 -0.10561233829E+04  0.11798372148E+04  0.00000000000E+00 0. -1.
<mgrwt>
<rscale>  0 0.19115503E+04</rscale>
<asrwt>0</asrwt>
<pdfrwt beam="1">  1        2 0.18796934E+00 0.19115503E+04</pdfrwt>
<pdfrwt beam="2">  1       -2 0.11502645E+00 0.19115503E+04</pdfrwt>
<totfact> 0.10137927E+01</totfact>
</mgrwt>
</event>
<event>
 6    1  0.1528034E-005  0.2417042E+04  0.7818608E-02  0.8433151E-01
          2   -1    0    0  501    0  0.00000000000E+00  0.00000000000E+00  0.14554040836E+04  0.14554040836E+04  0.00000000000E+00 0. -1.
         -2   -1    0    0    0  501 -0.00000000000E+00 -0.00000000000E+00 -0.10035169597E+04  0.10035169597E+04  0.00000000000E+00 0.  1.
         23    2    1    2    0    0  0.23816626838E+03  0.56603041909E+03 -0.83059694472E+03  0.10369931292E+04  0.91377560705E+02 0.  0.
         13    1    3    3    0    0  0.19879709362E+03  0.36770755450E+03 -0.58188577638E+03  0.71646366748E+03  0.00000000000E+00 0. -1.
        -13    1    3    3    0    0  0.39369174756E+02  0.19832286460E+03 -0.24871116834E+03  0.32052946167E+03  0.00000000000E+00 0.  1.
         22    1    1    2    0    0 -0.23816626838E+03 -0.56603041909E+03  0.12824840686E+04  0.14219279141E+04  0.00000000000E+00 0. -1.
<mgrwt>
<rscale>  0 0.24170417E+04</rscale>
<asrwt>0</asrwt>
<pdfrwt beam="1">  1        2 0.22390832E+00 0.24170417E+04</pdfrwt>
<pdfrwt beam="2">  1       -2 0.15438722E+00 0.24170417E+04</pdfrwt>
<totfact> 0.33527082E+00</totfact>
</mgrwt>
</event>
<event>
 6    1  0.1528034E-005  0.5988276E+03  0.7818608E-02  0.9907841E-01
          2   -1    0    0  501    0  0.00000000000E+00  0.00000000000E+00  0.44734914081E+03  0.44734914081E+03  0.00000000000E+00 0. -1.
         -2   -1    0    0    0  501 -0.00000000000E+00 -0.00000000000E+00 -0.20039964725E+03  0.20039964725E+03  0.00000000000E+00 0.  1.
         23    2    1    2    0    0 -0.24743200921E+03  0.97668571672E+02 -0.46987980112E+01  0.28156766932E+03  0.92176594808E+02 0.  0.
         13    1    3    3    0    0 -0.15420932935E+03  0.60142677743E+02  0.41980802323E+02  0.17076313042E+03  0.00000000000E+00 0. -1.
        -13    1    3    3    0    0 -0.93222679855E+02  0.37525893929E+02 -0.46679600334E+02  0.11080453890E+03  0.00000000000E+00 0.  1.
         22    1    1    2    0    0  0.24743200921E+03 -0.97668571672E+02  0.25164829157E+03  0.36618111874E+03  0.00000000000E+00 0. -1.
<mgrwt>
<rscale>  0 0.59882755E+03</rscale>
<asrwt>0</asrwt>
<pdfrwt beam="1">  1        2 0.68822944E-01 0.59882755E+03</pdfrwt>
<pdfrwt beam="2">  1       -2 0.30830715E-01 0.59882755E+03</pdfrwt>
<totfact> 0.68598555E+02</totfact>
</mgrwt>
</event>
<event>
 6    1  0.1528034E-005  0.7478307E+03  0.7818608E-02  0.9638760E-01
          2   -1    0    0  501    0  0.00000000000E+00  0.00000000000E+00  0.13989092738E+03  0.13989092738E+03  0.00000000000E+00 0. -1.
         -2   -1    0    0    0  501 -0.00000000000E+00 -0.00000000000E+00 -0.99944073899E+03  0.99944073899E+03  0.00000000000E+00 0.  1.
         23    2    1    2    0    0  0.31340659441E+03 -0.19024074486E+03 -0.37973000154E+03  0.53547548766E+03  0.90132621176E+02 0.  0.
         13    1    3    3    0    0  0.12726047174E+03 -0.59460393378E+02 -0.88885067244E+02  0.16622671634E+03  0.00000000000E+00 0. -1.
        -13    1    3    3    0    0  0.18614612267E+03 -0.13078035148E+03 -0.29084493429E+03  0.36924877132E+03  0.00000000000E+00 0.  1.
         22    1    1    2    0    0 -0.31340659441E+03  0.19024074486E+03 -0.47981981008E+03  0.60385617871E+03  0.00000000000E+00 0. -1.
<mgrwt>
<rscale>  0 0.74783071E+03</rscale>
<asrwt>0</asrwt>
<pdfrwt beam="1">  1        2 0.21521681E-01 0.74783071E+03</pdfrwt>
<pdfrwt beam="2">  1       -2 0.15376011E+00 0.74783071E+03</pdfrwt>
<totfact> 0.73959888E+01</totfact>
</mgrwt>
</event>
<event>
 6    1  0.1528034E-005  0.1414925E+04  0.7818608E-02  0.8943085E-01
          2   -1    0    0  501    0  0.00000000000E+00  0.00000000000E+00  0.91015192036E+03  0.91015192036E+03  0.00000000000E+00 0. -1.
         -2   -1    0    0    0  501 -0.00000000000E+00 -0.00000000000E+00 -0.54991179886E+03  0.54991179886E+03  0.00000000000E+00 0.  1.
         23    2    1    2    0    0  0.70287431711E+03  0.20536269184E+02  0.21658885503E+03  0.74236619912E+03  0.98705610164E+02 0.  0.
         11    1    3    3    0    0  0.16918903122E+03 -0.73355744554E+01  0.95453100206E+02  0.19439658762E+03  0.00000000000E+00 0.  1.
        -11    1    3    3    0    0  0.53368528588E+03  0.27871843639E+02  0.12113575483E+03  0.54796961151E+03  0.00000000000E+00 0. -1.
         22    1    1    2    0    0 -0.70287431711E+03 -0.20536269184E+02  0.14365126646E+03  0.71769752010E+03  0.00000000000E+00 0.  1.
<mgrwt>
<rscale>  0 0.14149251E+04</rscale>
<asrwt>0</asrwt>
<pdfrwt beam="1">  1        2 0.14002337E+00 0.14149251E+04</pdfrwt>
<pdfrwt beam="2">  1       -2 0.84601815E-01 0.14149251E+04</pdfrwt>
<totfact> 0.34185559E+01</totfact>
</mgrwt>
</event>
<event>
 6    1  0.1528034E-005  0.3081484E+04  0.7818608E-02  0.8220838E-01
         -2   -1    0    0    0  501 -0.00000000000E+00  0.00000000000E+00  0.13154772130E+04  0.13154772130E+04  0.00000000000E+00 0.  1.
          2   -1    0    0  501    0  0.00000000000E+00 -0.00000000000E+00 -0.18045820606E+04  0.18045820606E+04  0.00000000000E+00 0. -1.
         23    2    1    2    0    0  0.68987105642E+03  0.55754207824E+02 -0.16369975456E+04  0.17796532708E+04  0.91510620414E+02 0.  0.
         13    1    3    3    0    0  0.61405655927E+03  0.21509478771E+02 -0.14631578665E+04  0.15869338544E+04  0.00000000000E+00 0.  1.
        -13    1    3    3    0    0  0.75814497151E+02  0.34244729053E+02 -0.17383967905E+03  0.19271941640E+03  0.00000000000E+00 0. -1.
         22    1    1    2    0    0 -0.68987105642E+03 -0.55754207824E+02  0.11478926980E+04  0.13404060028E+04  0.00000000000E+00 0.  1.
<mgrwt>
<rscale>  0 0.30814844E+04</rscale>
<asrwt>0</asrwt>
<pdfrwt beam="1">  1        2 0.27762801E+00 0.30814844E+04</pdfrwt>
<pdfrwt beam="2">  1       -2 0.20238111E+00 0.30814844E+04</pdfrwt>
<totfact> 0.93599460E-01</totfact>
</mgrwt>
</event>
<event>
 6    1  0.1591466E-005  0.2896976E+04  0.7818608E-02  0.8273778E-01
          2   -1    0    0  501    0  0.00000000000E+00  0.00000000000E+00  0.18480351572E+04  0.18480351572E+04  0.00000000000E+00 0. -1.
         -2   -1    0    0    0  501 -0.00000000000E+00 -0.00000000000E+00 -0.11353232802E+04  0.11353232802E+04  0.00000000000E+00 0.  1.
         23    2    1    2    0    0  0.59601358120E+03  0.11342791877E+04  0.10492145689E+04  0.16585733506E+04  0.90514545231E+02 0.  0.
         11    1    3    3    0    0  0.24652975321E+03  0.55155557720E+03  0.46295752845E+03  0.76113083442E+03  0.00000000000E+00 0. -1.
        -11    1    3    3    0    0  0.34948382799E+03  0.58272361055E+03  0.58625704042E+03  0.89744251613E+03  0.00000000000E+00 0.  1.
         22    1    1    2    0    0 -0.59601358120E+03 -0.11342791877E+04 -0.33650269192E+03  0.13247850869E+04  0.00000000000E+00 0.  1.
<mgrwt>
<rscale>  0 0.28969759E+04</rscale>
<asrwt>0</asrwt>
<pdfrwt beam="1">  1        2 0.28431310E+00 0.28969759E+04</pdfrwt>
<pdfrwt beam="2">  1       -2 0.17466512E+00 0.28969759E+04</pdfrwt>
<totfact> 0.13840792E+00</totfact>
</mgrwt>
</event>
<event>
 6    1  0.1528034E-005  0.4408010E+03  0.7818608E-02  0.1030501E+00
         -2   -1    0    0    0  501 -0.00000000000E+00  0.00000000000E+00  0.70702129536E+02  0.70702129536E+02  0.00000000000E+00 0.  1.
          2   -1    0    0  501    0  0.00000000000E+00 -0.00000000000E+00 -0.68705671832E+03  0.68705671832E+03  0.00000000000E+00 0. -1.
         23    2    1    2    0    0 -0.12437388333E+01 -0.40609645221E+02 -0.67736789171E+03  0.68445596042E+03  0.89453959485E+02 0.  0.
         13    1    3    3    0    0  0.24892733621E+02 -0.60484374936E+02 -0.45479595804E+03  0.45947510405E+03  0.00000000000E+00 0. -1.
        -13    1    3    3    0    0 -0.26136472454E+02  0.19874729715E+02 -0.22257193367E+03  0.22498085637E+03  0.00000000000E+00 0.  1.
         22    1    1    2    0    0  0.12437388333E+01  0.40609645221E+02  0.61013302929E+02  0.73302887430E+02  0.00000000000E+00 0.  1.
<mgrwt>
<rscale>  0 0.44080097E+03</rscale>
<asrwt>0</asrwt>
<pdfrwt beam="1">  1        2 0.10570103E+00 0.44080097E+03</pdfrwt>
<pdfrwt beam="2">  1       -2 0.10877251E-01 0.44080097E+03</pdfrwt>
<totfact> 0.25002874E+03</totfact>
</mgrwt>
</event>
<event>
 6    1  0.1528034E-005  0.2213414E+04  0.7818608E-02  0.8512866E-01
         -1   -1    0    0    0  501 -0.00000000000E+00  0.00000000000E+00  0.99646789676E+03  0.99646789676E+03  0.00000000000E+00 0.  1.
          1   -1    0    0  501    0  0.00000000000E+00 -0.00000000000E+00 -0.12291417942E+04  0.12291417942E+04  0.00000000000E+00 0. -1.
         23    2    1    2    0    0  0.61407978054E+03 -0.77233788731E+03 -0.61622939845E+03  0.11669715982E+04  0.92109990934E+02 0.  0.
         11    1    3    3    0    0  0.36320834865E+03 -0.40441788996E+03 -0.37651873167E+03  0.66124162720E+03  0.00000000000E+00 0.  1.
        -11    1    3    3    0    0  0.25087143189E+03 -0.36791999735E+03 -0.23971066679E+03  0.50572997099E+03  0.00000000000E+00 0. -1.
         22    1    1    2    0    0 -0.61407978054E+03  0.77233788731E+03  0.38355550103E+03  0.10586380927E+04  0.00000000000E+00 0.  1.
<mgrwt>
<rscale>  0 0.22134140E+04</rscale>
<asrwt>0</asrwt>
<pdfrwt beam="1">  1        1 0.18909874E+00 0.22134140E+04</pdfrwt>
<pdfrwt beam="2">  1       -1 0.15330275E+00 0.22134140E+04</pdfrwt>
<totfact> 0.30476563E+00</totfact>
</mgrwt>
</event>
<event>
 6    1  0.1528034E-005  0.4637921E+04  0.7818608E-02  0.7886926E-01
          2   -1    0    0  501    0  0.00000000000E+00  0.00000000000E+00  0.34457760666E+04  0.34457760666E+04  0.00000000000E+00 0. -1.
         -2   -1    0    0    0  501 -0.00000000000E+00 -0.00000000000E+00 -0.15606291046E+04  0.15606291046E+04  0.00000000000E+00 0.  1.
         23    2    1    2    0    0 -0.21560919816E+04 -0.83645685483E+03  0.77144410989E+03  0.24395536472E+04  0.88900393143E+02 0.  0.
         11    1    3    3    0    0 -0.86643050145E+03 -0.36788236320E+03  0.34779081875E+03  0.10034927507E+04  0.00000000000E+00 0. -1.
        -11    1    3    3    0    0 -0.12896614802E+04 -0.46857449163E+03  0.42365329115E+03  0.14360608966E+04  0.00000000000E+00 0.  1.
         22    1    1    2    0    0  0.21560919816E+04  0.83645685483E+03  0.11137028522E+04  0.25668515240E+04  0.00000000000E+00 0. -1.
<mgrwt>
<rscale>  0 0.46379213E+04</rscale>
<asrwt>0</asrwt>
<pdfrwt beam="1">  1        2 0.53011940E+00 0.46379213E+04</pdfrwt>
<pdfrwt beam="2">  1       -2 0.24009678E+00 0.46379213E+04</pdfrwt>
<totfact> 0.49068257E-02</totfact>
</mgrwt>
</event>
<event>
 6    1  0.1528034E-005  0.2394535E+04  0.7818608E-02  0.8441552E-01
          1   -1    0    0  501    0  0.00000000000E+00  0.00000000000E+00  0.32127310321E+04  0.32127310321E+04  0.00000000000E+00 0. -1.
         -1   -1    0    0    0  501 -0.00000000000E+00 -0.00000000000E+00 -0.44617780723E+03  0.44617780723E+03  0.00000000000E+00 0.  1.
         23    2    1    2    0    0 -0.10197369490E+03 -0.55243211381E+03 -0.22756265709E+03  0.61254875073E+03  0.88607755332E+02 0.  0.
         13    1    3    3    0    0 -0.33066305512E+02 -0.25633975796E+03 -0.59663377589E+02  0.26526057132E+03  0.00000000000E+00 0.  1.
        -13    1    3    3    0    0 -0.68907389385E+02 -0.29609235585E+03 -0.16789927950E+03  0.34728817942E+03  0.00000000000E+00 0. -1.
         22    1    1    2    0    0  0.10197369490E+03  0.55243211381E+03  0.29941158819E+04  0.30463600886E+04  0.00000000000E+00 0. -1.
<mgrwt>
<rscale>  0 0.23945349E+04</rscale>
<asrwt>0</asrwt>
<pdfrwt beam="1">  1        1 0.49426630E+00 0.23945349E+04</pdfrwt>
<pdfrwt beam="2">  1       -1 0.68642741E-01 0.23945349E+04</pdfrwt>
<totfact> 0.80125681E-01</totfact>
</mgrwt>
</event>
<event>
 6    1  0.1528034E-005  0.1777065E+04  0.7818608E-02  0.8718592E-01
          2   -1    0    0  501    0  0.00000000000E+00  0.00000000000E+00  0.62303901271E+03  0.62303901271E+03  0.00000000000E+00 0.  1.
         -2   -1    0    0    0  501 -0.00000000000E+00 -0.00000000000E+00 -0.12671603144E+04  0.12671603144E+04  0.00000000000E+00 0. -1.
         23    2    1    2    0    0  0.78996350697E+03 -0.35182751136E+03 -0.52894854354E+03  0.10177947740E+04  0.91075244584E+02 0.  0.
         13    1    3    3    0    0  0.24912619475E+03 -0.12581906540E+03 -0.21880337997E+03  0.35463955958E+03  0.00000000000E+00 0. -1.
        -13    1    3    3    0    0  0.54083731222E+03 -0.22600844596E+03 -0.31014516357E+03  0.66315521442E+03  0.00000000000E+00 0.  1.
         22    1    1    2    0    0 -0.78996350697E+03  0.35182751136E+03 -0.11517275817E+03  0.87240455313E+03  0.00000000000E+00 0.  1.
<mgrwt>
<rscale>  0 0.17770653E+04</rscale>
<asrwt>0</asrwt>
<pdfrwt beam="1">  1        2 0.95852157E-01 0.17770653E+04</pdfrwt>
<pdfrwt beam="2">  1       -2 0.19494774E+00 0.17770653E+04</pdfrwt>
<totfact> 0.64298045E+00</totfact>
</mgrwt>
</event>
<event>
 6    1  0.1528034E-005  0.4698655E+04  0.7818608E-02  0.7876752E-01
          1   -1    0    0  501    0  0.00000000000E+00  0.00000000000E+00  0.30100813725E+04  0.30100813725E+04  0.00000000000E+00 0. -1.
         -1   -1    0    0    0  501 -0.00000000000E+00 -0.00000000000E+00 -0.18336180354E+04  0.18336180354E+04  0.00000000000E+00 0.  1.
         23    2    1    2    0    0 -0.27757283188E+03  0.14719253973E+04 -0.12761444041E+04  0.19698699446E+04  0.90730404263E+02 0.  0.
         11    1    3    3    0    0 -0.11268359165E+03  0.79681036018E+03 -0.65040602855E+03  0.10347136531E+04  0.00000000000E+00 0.  1.
        -11    1    3    3    0    0 -0.16488924023E+03  0.67511503712E+03 -0.62573837558E+03  0.93515629152E+03  0.00000000000E+00 0. -1.
         22    1    1    2    0    0  0.27757283188E+03 -0.14719253973E+04  0.24526077412E+04  0.28738294633E+04  0.00000000000E+00 0. -1.
<mgrwt>
<rscale>  0 0.46986549E+04</rscale>
<asrwt>0</asrwt>
<pdfrwt beam="1">  1        1 0.46308944E+00 0.46986549E+04</pdfrwt>
<pdfrwt beam="2">  1       -1 0.28209508E+00 0.46986549E+04</pdfrwt>
<totfact> 0.18742301E-02</totfact>
</mgrwt>
</event>
<event>
 6    1  0.1528034E-005  0.4734573E+04  0.7818608E-02  0.7870809E-01
         -2   -1    0    0    0  501 -0.00000000000E+00  0.00000000000E+00  0.29879118596E+04  0.29879118596E+04  0.00000000000E+00 0.  1.
          2   -1    0    0  501    0  0.00000000000E+00 -0.00000000000E+00 -0.18755725348E+04  0.18755725348E+04  0.00000000000E+00 0. -1.
         23    2    1    2    0    0  0.23280362963E+04  0.42100463428E+03  0.60965159477E+03  0.24448705655E+04  0.93376206616E+02 0.  0.
         13    1    3    3    0    0  0.17197027839E+04  0.35239526635E+03  0.45542223727E+03  0.18135516267E+04  0.00000000000E+00 0. -1.
        -13    1    3    3    0    0  0.60833351247E+03  0.68609367924E+02  0.15422935750E+03  0.63131893879E+03  0.00000000000E+00 0.  1.
         22    1    1    2    0    0 -0.23280362963E+04 -0.42100463428E+03  0.50268772999E+03  0.24186138288E+04  0.00000000000E+00 0. -1.
<mgrwt>
<rscale>  0 0.47345730E+04</rscale>
<asrwt>0</asrwt>
<pdfrwt beam="1">  1        2 0.28854962E+00 0.47345730E+04</pdfrwt>
<pdfrwt beam="2">  1       -2 0.45967875E+00 0.47345730E+04</pdfrwt>
<totfact> 0.17496614E-02</totfact>
</mgrwt>
</event>
<event>
 6    1  0.1528034E-005  0.3961215E+04  0.7818608E-02  0.8012417E-01
         -1   -1    0    0    0  501 -0.00000000000E+00  0.00000000000E+00  0.19775362378E+04  0.19775362378E+04  0.00000000000E+00 0.  1.
          1   -1    0    0  501    0  0.00000000000E+00 -0.00000000000E+00 -0.19836832478E+04  0.19836832478E+04  0.00000000000E+00 0. -1.
         23    2    1    2    0    0 -0.45978883749E+03  0.29753556143E+03  0.18992481414E+04  0.19786797337E+04  0.89982223597E+02 0.  0.
         13    1    3    3    0    0 -0.76003512502E+02  0.25647916743E+02  0.37647351192E+03  0.38492421946E+03  0.00000000000E+00 0. -1.
        -13    1    3    3    0    0 -0.38378532499E+03  0.27188764469E+03  0.15227746295E+04  0.15937555142E+04  0.00000000000E+00 0.  1.
         22    1    1    2    0    0  0.45978883749E+03 -0.29753556143E+03 -0.19053951513E+04  0.19825397520E+04  0.00000000000E+00 0. -1.
<mgrwt>
<rscale>  0 0.39612147E+04</rscale>
<asrwt>0</asrwt>
<pdfrwt beam="1">  1        1 0.30518204E+00 0.39612147E+04</pdfrwt>
<pdfrwt beam="2">  1       -1 0.30423634E+00 0.39612147E+04</pdfrwt>
<totfact> 0.74398054E-02</totfact>
</mgrwt>
</event>
<event>
 6    1  0.1528034E-005  0.2063272E+04  0.7818608E-02  0.8577597E-01
         -1   -1    0    0    0  501 -0.00000000000E+00  0.00000000000E+00  0.60983595578E+03  0.60983595578E+03  0.00000000000E+00 0.  1.
          1   -1    0    0  501    0  0.00000000000E+00 -0.00000000000E+00 -0.17451787524E+04  0.17451787524E+04  0.00000000000E+00 0. -1.
         23    2    1    2    0    0  0.45852057354E+03  0.56570357506E+03  0.26198781844E+03  0.77932612888E+03  0.91923592987E+02 0.  0.
         13    1    3    3    0    0  0.65739966995E+02  0.54267604688E+02  0.57486326975E+02  0.10281728438E+03  0.00000000000E+00 0. -1.
        -13    1    3    3    0    0  0.39278060655E+03  0.51143597037E+03  0.20450149146E+03  0.67650884449E+03  0.00000000000E+00 0.  1.
         22    1    1    2    0    0 -0.45852057354E+03 -0.56570357506E+03 -0.13973306151E+04  0.15756885794E+04  0.00000000000E+00 0. -1.
<mgrwt>
<rscale>  0 0.20632719E+04</rscale>
<asrwt>0</asrwt>
<pdfrwt beam="1">  1        1 0.26848903E+00 0.20632719E+04</pdfrwt>
<pdfrwt beam="2">  1       -1 0.93820919E-01 0.20632719E+04</pdfrwt>
<totfact> 0.45099632E+00</totfact>
</mgrwt>
</event>
<event>
 6    1  0.1528034E-005  0.1307003E+04  0.7818608E-02  0.9024030E-01
          1   -1    0    0  501    0  0.00000000000E+00  0.00000000000E+00  0.85020713969E+03  0.85020713969E+03  0.00000000000E+00 0. -1.
         -1   -1    0    0    0  501 -0.00000000000E+00 -0.00000000000E+00 -0.50230571875E+03  0.50230571875E+03  0.00000000000E+00 0.  1.
         23    2    1    2    0    0  0.43848943571E+03 -0.35226239383E+03  0.51282143731E+03  0.76637260976E+03  0.89327325513E+02 0.  0.
         13    1    3    3    0    0  0.30834243296E+03 -0.19381148720E+03  0.33927411885E+03  0.49773976761E+03  0.00000000000E+00 0.  1.
        -13    1    3    3    0    0  0.13014700274E+03 -0.15845090663E+03  0.17354731846E+03  0.26863284215E+03  0.00000000000E+00 0. -1.
         22    1    1    2    0    0 -0.43848943571E+03  0.35226239383E+03 -0.16492001637E+03  0.58614024869E+03  0.00000000000E+00 0.  1.
<mgrwt>
<rscale>  0 0.13070025E+04</rscale>
<asrwt>0</asrwt>
<pdfrwt beam="1">  1        1 0.13080110E+00 0.13070025E+04</pdfrwt>
<pdfrwt beam="2">  1       -1 0.77277803E-01 0.13070025E+04</pdfrwt>
<totfact> 0.33016929E+01</totfact>
</mgrwt>
</event>
<event>
 6    1  0.1528034E-005  0.3661606E+04  0.7818608E-02  0.8076524E-01
          2   -1    0    0  501    0  0.00000000000E+00  0.00000000000E+00  0.26582836346E+04  0.26582836346E+04  0.00000000000E+00 0. -1.
         -2   -1    0    0    0  501 -0.00000000000E+00 -0.00000000000E+00 -0.12609034662E+04  0.12609034662E+04  0.00000000000E+00 0.  1.
         23    2    1    2    0    0  0.38329047509E+03 -0.12381287083E+04 -0.68303443984E+03  0.14680650661E+04  0.93833392753E+02 0.  0.
         11    1    3    3    0    0  0.27877849642E+03 -0.99854116877E+03 -0.57215636712E+03  0.11841304085E+04  0.00000000000E+00 0. -1.
        -11    1    3    3    0    0  0.10451197867E+03 -0.23958753952E+03 -0.11087807271E+03  0.28393465761E+03  0.00000000000E+00 0.  1.
         22    1    1    2    0    0 -0.38329047509E+03  0.12381287083E+04  0.20804146083E+04  0.24511220347E+04  0.00000000000E+00 0. -1.
<mgrwt>
<rscale>  0 0.36616057E+04</rscale>
<asrwt>0</asrwt>
<pdfrwt beam="1">  1        2 0.40896671E+00 0.36616057E+04</pdfrwt>
<pdfrwt beam="2">  1       -2 0.19398515E+00 0.36616057E+04</pdfrwt>
<totfact> 0.33228115E-01</totfact>
</mgrwt>
</event>
<event>
 6    1  0.1528034E-005  0.2422751E+04  0.7818608E-02  0.8431035E-01
          2   -1    0    0  501    0  0.00000000000E+00  0.00000000000E+00  0.14756614973E+04  0.14756614973E+04  0.00000000000E+00 0. -1.
         -2   -1    0    0    0  501 -0.00000000000E+00 -0.00000000000E+00 -0.99442206213E+03  0.99442206213E+03  0.00000000000E+00 0.  1.
         23    2    1    2    0    0  0.76036937557E+03 -0.55928717761E+03  0.10122326677E+04  0.13870703797E+04  0.91572540895E+02 0.  0.
         11    1    3    3    0    0  0.21192262876E+03 -0.10780443601E+03  0.24159486526E+03  0.33897061218E+03  0.00000000000E+00 0. -1.
        -11    1    3    3    0    0  0.54844674681E+03 -0.45148274160E+03  0.77063780248E+03  0.10480997675E+04  0.00000000000E+00 0.  1.
         22    1    1    2    0    0 -0.76036937557E+03  0.55928717761E+03 -0.53099323260E+03  0.10830131797E+04  0.00000000000E+00 0.  1.
<mgrwt>
<rscale>  0 0.24227508E+04</rscale>
<asrwt>0</asrwt>
<pdfrwt beam="1">  1        2 0.22702485E+00 0.24227508E+04</pdfrwt>
<pdfrwt beam="2">  1       -2 0.15298801E+00 0.24227508E+04</pdfrwt>
<totfact> 0.33440140E+00</totfact>
</mgrwt>
</event>
<event>
 6    1  0.1528034E-005  0.2407247E+04  0.7818608E-02  0.8436795E-01
         -2   -1    0    0    0  501 -0.00000000000E+00  0.00000000000E+00  0.84488224329E+03  0.84488224329E+03  0.00000000000E+00 0.  1.
          2   -1    0    0  501    0  0.00000000000E+00 -0.00000000000E+00 -0.17146882832E+04  0.17146882832E+04  0.00000000000E+00 0. -1.
         23    2    1    2    0    0  0.30110229037E+03  0.92719124953E+03 -0.11828809868E+04  0.15356749630E+04  0.93509146465E+02 0.  0.
         11    1    3    3    0    0  0.84820984144E+02  0.37616108650E+03 -0.51215145440E+03  0.64108569988E+03  0.00000000000E+00 0. -1.
        -11    1    3    3    0    0  0.21628130622E+03  0.55103016304E+03 -0.67072953243E+03  0.89458926311E+03  0.00000000000E+00 0.  1.
         22    1    1    2    0    0 -0.30110229037E+03 -0.92719124953E+03  0.31307494695E+03  0.10238955635E+04  0.00000000000E+00 0.  1.
<mgrwt>
<rscale>  0 0.24072471E+04</rscale>
<asrwt>0</asrwt>
<pdfrwt beam="1">  1        2 0.26379819E+00 0.24072471E+04</pdfrwt>
<pdfrwt beam="2">  1       -2 0.12998189E+00 0.24072471E+04</pdfrwt>
<totfact> 0.37581354E+00</totfact>
</mgrwt>
</event>
<event>
 6    1  0.1528034E-005  0.2120758E+04  0.7818608E-02  0.8552154E-01
         -2   -1    0    0    0  501 -0.00000000000E+00  0.00000000000E+00  0.80206802917E+03  0.80206802917E+03  0.00000000000E+00 0.  1.
          2   -1    0    0  501    0  0.00000000000E+00 -0.00000000000E+00 -0.14018807068E+04  0.14018807068E+04  0.00000000000E+00 0. -1.
         23    2    1    2    0    0  0.21021225846E+03 -0.86864055916E+02  0.77321275881E+03  0.81221118638E+03  0.10047130475E+03 0.  0.
         11    1    3    3    0    0 -0.33291418558E+01 -0.26055180788E+02  0.96078400261E+02  0.99604290210E+02  0.00000000000E+00 0.  1.
        -11    1    3    3    0    0  0.21354140032E+03 -0.60808875128E+02  0.67713435855E+03  0.71260689617E+03  0.00000000000E+00 0. -1.
         22    1    1    2    0    0 -0.21021225846E+03  0.86864055916E+02 -0.13730254364E+04  0.13917375496E+04  0.00000000000E+00 0. -1.
<mgrwt>
<rscale>  0 0.21207581E+04</rscale>
<asrwt>0</asrwt>
<pdfrwt beam="1">  1        2 0.21567395E+00 0.21207581E+04</pdfrwt>
<pdfrwt beam="2">  1       -2 0.12339508E+00 0.21207581E+04</pdfrwt>
<totfact> 0.65784017E+00</totfact>
</mgrwt>
</event>
<event>
 6    1  0.1528034E-005  0.1762238E+04  0.7818608E-02  0.8726643E-01
         -2   -1    0    0    0  501 -0.00000000000E+00  0.00000000000E+00  0.21414937914E+04  0.21414937914E+04  0.00000000000E+00 0.  1.
          2   -1    0    0  501    0  0.00000000000E+00 -0.00000000000E+00 -0.36253696318E+03  0.36253696318E+03  0.00000000000E+00 0. -1.
         23    2    1    2    0    0  0.75574052236E+03 -0.42829479912E+03  0.10805203885E+04  0.13894036275E+04  0.91312419911E+02 0.  0.
         11    1    3    3    0    0  0.15997940101E+03 -0.12964583595E+03  0.28553938572E+03  0.35204288421E+03  0.00000000000E+00 0. -1.
        -11    1    3    3    0    0  0.59576112135E+03 -0.29864896317E+03  0.79498100276E+03  0.10373607433E+04  0.00000000000E+00 0.  1.
         22    1    1    2    0    0 -0.75574052236E+03  0.42829479912E+03  0.69843643971E+03  0.11146271271E+04  0.00000000000E+00 0. -1.
<mgrwt>
<rscale>  0 0.17622380E+04</rscale>
<asrwt>0</asrwt>
<pdfrwt beam="1">  1        2 0.55774918E-01 0.17622380E+04</pdfrwt>
<pdfrwt beam="2">  1       -2 0.32946058E+00 0.17622380E+04</pdfrwt>
<totfact> 0.17653047E+00</totfact>
</mgrwt>
</event>
<event>
 6    1  0.1528034E-005  0.2512128E+04  0.7818608E-02  0.8398678E-01
          1   -1    0    0  501    0  0.00000000000E+00  0.00000000000E+00  0.73520191142E+03  0.73520191142E+03  0.00000000000E+00 0. -1.
         -1   -1    0    0    0  501 -0.00000000000E+00 -0.00000000000E+00 -0.21459366360E+04  0.21459366360E+04  0.00000000000E+00 0.  1.
         23    2    1    2    0    0 -0.78940669513E+03  0.71709545399E+03 -0.14636491626E+04  0.18133423318E+04  0.92480921015E+02 0.  0.
         11    1    3    3    0    0 -0.59382502002E+03  0.53379257302E+03 -0.10254322811E+04  0.12996438084E+04  0.00000000000E+00 0. -1.
        -11    1    3    3    0    0 -0.19558167511E+03  0.18330288097E+03 -0.43821688141E+03  0.51369852342E+03  0.00000000000E+00 0.  1.
         22    1    1    2    0    0  0.78940669513E+03 -0.71709545399E+03  0.52914437946E+02  0.10677962157E+04  0.00000000000E+00 0.  1.
<mgrwt>
<rscale>  0 0.25121280E+04</rscale>
<asrwt>0</asrwt>
<pdfrwt beam="1">  1        1 0.11310799E+00 0.25121280E+04</pdfrwt>
<pdfrwt beam="2">  1       -1 0.33014409E+00 0.25121280E+04</pdfrwt>
<totfact> 0.47108282E-01</totfact>
</mgrwt>
</event>
<event>
 6    1  0.1528034E-005  0.1881756E+04  0.7818608E-02  0.8663991E-01
          2   -1    0    0  501    0  0.00000000000E+00  0.00000000000E+00  0.11847775324E+04  0.11847775324E+04  0.00000000000E+00 0. -1.
         -2   -1    0    0    0  501 -0.00000000000E+00 -0.00000000000E+00 -0.74718808178E+03  0.74718808178E+03  0.00000000000E+00 0.  1.
         23    2    1    2    0    0 -0.63874783186E+03 -0.18950961453E+03  0.89832734677E+03  0.11219087670E+04  0.88173537947E+02 0.  0.
         13    1    3    3    0    0 -0.39944829453E+03 -0.15954874381E+03  0.60116263118E+03  0.73919635469E+03  0.00000000000E+00 0.  1.
        -13    1    3    3    0    0 -0.23929953733E+03 -0.29960870713E+02  0.29716471559E+03  0.38271241231E+03  0.00000000000E+00 0. -1.
         22    1    1    2    0    0  0.63874783186E+03  0.18950961453E+03 -0.46073789616E+03  0.81005684718E+03  0.00000000000E+00 0.  1.
<mgrwt>
<rscale>  0 0.18817563E+04</rscale>
<asrwt>0</asrwt>
<pdfrwt beam="1">  1        2 0.18227347E+00 0.18817563E+04</pdfrwt>
<pdfrwt beam="2">  1       -2 0.11495201E+00 0.18817563E+04</pdfrwt>
<totfact> 0.10710502E+01</totfact>
</mgrwt>
</event>
<event>
 6    1  0.1528034E-005  0.1919357E+04  0.7818608E-02  0.8645281E-01
         -1   -1    0    0    0  501 -0.00000000000E+00  0.00000000000E+00  0.69835056623E+03  0.69835056623E+03  0.00000000000E+00 0.  1.
          1   -1    0    0  501    0  0.00000000000E+00 -0.00000000000E+00 -0.13187971488E+04  0.13187971488E+04  0.00000000000E+00 0. -1.
         23    2    1    2    0    0 -0.50949365075E+03  0.35294793367E+03 -0.10756926085E+04  0.12481191277E+04  0.12857194452E+03 0.  0.
         13    1    3    3    0    0 -0.39038771339E+03  0.30716480988E+03 -0.93075088389E+03  0.10550118459E+04  0.00000000000E+00 0. -1.
        -13    1    3    3    0    0 -0.11910593737E+03  0.45783123788E+02 -0.14494172459E+03  0.19310728176E+03  0.00000000000E+00 0.  1.
         22    1    1    2    0    0  0.50949365075E+03 -0.35294793367E+03  0.45524602592E+03  0.76902858734E+03  0.00000000000E+00 0.  1.
<mgrwt>
<rscale>  0 0.19193569E+04</rscale>
<asrwt>0</asrwt>
<pdfrwt beam="1">  1        1 0.20289186E+00 0.19193569E+04</pdfrwt>
<pdfrwt beam="2">  1       -1 0.10743855E+00 0.19193569E+04</pdfrwt>
<totfact> 0.66096632E+00</totfact>
</mgrwt>
</event>
<event>
 6    1  0.1528034E-005  0.2776254E+04  0.7818608E-02  0.8310679E-01
          2   -1    0    0  501    0  0.00000000000E+00  0.00000000000E+00  0.40598294593E+04  0.40598294593E+04  0.00000000000E+00 0. -1.
         -2   -1    0    0    0  501 -0.00000000000E+00 -0.00000000000E+00 -0.47462506630E+03  0.47462506630E+03  0.00000000000E+00 0.  1.
         23    2    1    2    0    0 -0.10795003848E+04 -0.72591628846E+03  0.25786834590E+04  0.28896566872E+04  0.90729541410E+02 0.  0.
         11    1    3    3    0    0 -0.76150868845E+03 -0.53488442803E+03  0.17610871317E+04  0.19918395315E+04  0.00000000000E+00 0. -1.
        -11    1    3    3    0    0 -0.31799169633E+03 -0.19103186043E+03  0.81759632730E+03  0.89781715569E+03  0.00000000000E+00 0.  1.
         22    1    1    2    0    0  0.10795003848E+04  0.72591628846E+03  0.10065209340E+04  0.16447978384E+04  0.00000000000E+00 0. -1.
<mgrwt>
<rscale>  0 0.27762542E+04</rscale>
<asrwt>0</asrwt>
<pdfrwt beam="1">  1        2 0.62458912E+00 0.27762542E+04</pdfrwt>
<pdfrwt beam="2">  1       -2 0.73019244E-01 0.27762542E+04</pdfrwt>
<totfact> 0.45193223E-01</totfact>
</mgrwt>
</event>
<event>
 6    1  0.1528034E-005  0.3255516E+04  0.7818608E-02  0.8174307E-01
         -2   -1    0    0    0  501 -0.00000000000E+00  0.00000000000E+00  0.13042582624E+04  0.13042582624E+04  0.00000000000E+00 0.  1.
          2   -1    0    0  501    0  0.00000000000E+00 -0.00000000000E+00 -0.20314964097E+04  0.20314964097E+04  0.00000000000E+00 0. -1.
         23    2    1    2    0    0  0.69055278275E+03  0.97351812884E+03  0.76827039955E+03  0.14223424043E+04  0.90652166105E+02 0.  0.
         11    1    3    3    0    0  0.46616564799E+03  0.59889669314E+03  0.52035741870E+03  0.92019536166E+03  0.00000000000E+00 0.  1.
        -11    1    3    3    0    0  0.22438713476E+03  0.37462143570E+03  0.24791298085E+03  0.50214704262E+03  0.00000000000E+00 0. -1.
         22    1    1    2    0    0 -0.69055278275E+03 -0.97351812884E+03 -0.14955085468E+04  0.19134122678E+04  0.00000000000E+00 0. -1.
<mgrwt>
<rscale>  0 0.32555159E+04</rscale>
<asrwt>0</asrwt>
<pdfrwt beam="1">  1        2 0.31253791E+00 0.32555159E+04</pdfrwt>
<pdfrwt beam="2">  1       -2 0.20065512E+00 0.32555159E+04</pdfrwt>
<totfact> 0.70836608E-01</totfact>
</mgrwt>
</event>
<event>
 6    1  0.1528034E-005  0.2342060E+04  0.7818608E-02  0.8461520E-01
          2   -1    0    0  501    0  0.00000000000E+00  0.00000000000E+00  0.25506300714E+04  0.25506300714E+04  0.00000000000E+00 0. -1.
         -2   -1    0    0    0  501 -0.00000000000E+00 -0.00000000000E+00 -0.53763608346E+03  0.53763608346E+03  0.00000000000E+00 0.  1.
         23    2    1    2    0    0  0.31140754620E+02 -0.38124183302E+03  0.24649235908E+04  0.24961889235E+04  0.93785668329E+02 0.  0.
         11    1    3    3    0    0  0.17538529552E+02 -0.18150162247E+02  0.29274408216E+03  0.29383009725E+03  0.00000000000E+00 0.  1.
        -11    1    3    3    0    0  0.13602225068E+02 -0.36309167077E+03  0.21721795087E+04  0.22023588263E+04  0.00000000000E+00 0. -1.
         22    1    1    2    0    0 -0.31140754620E+02  0.38124183302E+03 -0.45192960290E+03  0.59207723130E+03  0.00000000000E+00 0.  1.
<mgrwt>
<rscale>  0 0.23420596E+04</rscale>
<asrwt>0</asrwt>
<pdfrwt beam="1">  1        2 0.39240462E+00 0.23420596E+04</pdfrwt>
<pdfrwt beam="2">  1       -2 0.82713245E-01 0.23420596E+04</pdfrwt>
<totfact> 0.37674316E+00</totfact>
</mgrwt>
</event>
<event>
 6    1  0.1528034E-005  0.1876135E+04  0.7818608E-02  0.8666828E-01
          3   -1    0    0  501    0  0.00000000000E+00  0.00000000000E+00  0.17261536927E+04  0.17261536927E+04  0.00000000000E+00 0. -1.
         -3   -1    0    0    0  501 -0.00000000000E+00 -0.00000000000E+00 -0.50978689818E+03  0.50978689818E+03  0.00000000000E+00 0.  1.
         23    2    1    2    0    0  0.12274495593E+03  0.52039759565E+03  0.15254021627E+04  0.16183785773E+04  0.80109173860E+02 0.  0.
         13    1    3    3    0    0  0.67572583970E+02  0.41431411247E+03  0.12315709282E+04  0.13011491802E+04  0.00000000000E+00 0.  1.
        -13    1    3    3    0    0  0.55172371962E+02  0.10608348318E+03  0.29383123457E+03  0.31722939719E+03  0.00000000000E+00 0. -1.
         22    1    1    2    0    0 -0.12274495593E+03 -0.52039759565E+03 -0.30903536821E+03  0.61756201355E+03  0.00000000000E+00 0.  1.
<mgrwt>
<rscale>  0 0.18761349E+04</rscale>
<asrwt>0</asrwt>
<pdfrwt beam="1">  1        3 0.26556210E+00 0.18761349E+04</pdfrwt>
<pdfrwt beam="2">  1       -3 0.78428754E-01 0.18761349E+04</pdfrwt>
<totfact> 0.22478917E-01</totfact>
</mgrwt>
</event>
<event>
 6    1  0.1528034E-005  0.2882508E+04  0.7818608E-02  0.8278101E-01
         -2   -1    0    0    0  501 -0.00000000000E+00  0.00000000000E+00  0.12741576340E+04  0.12741576340E+04  0.00000000000E+00 0.  1.
          2   -1    0    0  501    0  0.00000000000E+00 -0.00000000000E+00 -0.16302640210E+04  0.16302640210E+04  0.00000000000E+00 0. -1.
         23    2    1    2    0    0 -0.29379053600E+03 -0.20761850615E+03  0.12265075359E+04  0.12814351633E+04  0.91307278523E+02 0.  0.
         11    1    3    3    0    0 -0.18604225637E+03 -0.75815611081E+02  0.66995439653E+03  0.69942735253E+03  0.00000000000E+00 0.  1.
        -11    1    3    3    0    0 -0.10774827964E+03 -0.13180289507E+03  0.55655313937E+03  0.58200781082E+03  0.00000000000E+00 0. -1.
         22    1    1    2    0    0  0.29379053600E+03  0.20761850615E+03 -0.15826139229E+04  0.16229864916E+04  0.00000000000E+00 0. -1.
<mgrwt>
<rscale>  0 0.28825082E+04</rscale>
<asrwt>0</asrwt>
<pdfrwt beam="1">  1        2 0.25080985E+00 0.28825082E+04</pdfrwt>
<pdfrwt beam="2">  1       -2 0.19602425E+00 0.28825082E+04</pdfrwt>
<totfact> 0.13099148E+00</totfact>
</mgrwt>
</event>
<event>
 6    1  0.1528034E-005  0.3081613E+04  0.7818608E-02  0.8220802E-01
         -2   -1    0    0    0  501 -0.00000000000E+00  0.00000000000E+00  0.19612065732E+04  0.19612065732E+04  0.00000000000E+00 0.  1.
          2   -1    0    0  501    0  0.00000000000E+00 -0.00000000000E+00 -0.12105224090E+04  0.12105224090E+04  0.00000000000E+00 0. -1.
         23    2    1    2    0    0  0.98573309050E+03  0.45451295212E+03  0.14991869999E+04  0.18532039562E+04  0.92474282936E+02 0.  0.
         11    1    3    3    0    0  0.68232884333E+03  0.31032917091E+03  0.96074501880E+03  0.12185679447E+04  0.00000000000E+00 0. -1.
        -11    1    3    3    0    0  0.30340424717E+03  0.14418378120E+03  0.53844198113E+03  0.63463601143E+03  0.00000000000E+00 0.  1.
         22    1    1    2    0    0 -0.98573309050E+03 -0.45451295212E+03 -0.74850283571E+03  0.13185250261E+04  0.00000000000E+00 0. -1.
<mgrwt>
<rscale>  0 0.30816129E+04</rscale>
<asrwt>0</asrwt>
<pdfrwt beam="1">  1        2 0.18623422E+00 0.30816129E+04</pdfrwt>
<pdfrwt beam="2">  1       -2 0.30172409E+00 0.30816129E+04</pdfrwt>
<totfact> 0.49236478E-01</totfact>
</mgrwt>
</event>
<event>
 6    1  0.1528034E-005  0.1215053E+04  0.7818608E-02  0.9099782E-01
         -2   -1    0    0    0  501 -0.00000000000E+00  0.00000000000E+00  0.13102447023E+03  0.13102447023E+03  0.00000000000E+00 0.  1.
          2   -1    0    0  501    0  0.00000000000E+00 -0.00000000000E+00 -0.28169405660E+04  0.28169405660E+04  0.00000000000E+00 0. -1.
         23    2    1    2    0    0 -0.60116458909E+03 -0.57632284456E+02 -0.12876329278E+04  0.14248379367E+04  0.86280043058E+02 0.  0.
         11    1    3    3    0    0 -0.32592201680E+03 -0.11186968823E+02 -0.78198300185E+03  0.84725894771E+03  0.00000000000E+00 0. -1.
        -11    1    3    3    0    0 -0.27524257229E+03 -0.46445315633E+02 -0.50564992593E+03  0.57757898900E+03  0.00000000000E+00 0.  1.
         22    1    1    2    0    0  0.60116458909E+03  0.57632284456E+02 -0.13982831680E+04  0.15231270995E+04  0.00000000000E+00 0.  1.
<mgrwt>
<rscale>  0 0.12150525E+04</rscale>
<asrwt>0</asrwt>
<pdfrwt beam="1">  1        2 0.43337543E+00 0.12150525E+04</pdfrwt>
<pdfrwt beam="2">  1       -2 0.20157613E-01 0.12150525E+04</pdfrwt>
<totfact> 0.47441155E+01</totfact>
</mgrwt>
</event>
<event>
 6    1  0.1784144E-005  0.4087575E+04  0.7818608E-02  0.7987109E-01
         -2   -1    0    0    0  501 -0.00000000000E+00  0.00000000000E+00  0.16633574196E+04  0.16633574196E+04  0.00000000000E+00 0.  1.
          2   -1    0    0  501    0  0.00000000000E+00 -0.00000000000E+00 -0.25112263865E+04  0.25112263865E+04  0.00000000000E+00 0. -1.
         23    2    1    2    0    0 -0.15800671408E+04 -0.10079538038E+04  0.40576340216E+03  0.19197718059E+04  0.91086816413E+02 0.  0.
         13    1    3    3    0    0 -0.90133115860E+03 -0.58215282856E+03  0.27791676394E+03  0.11083941090E+04  0.00000000000E+00 0. -1.
        -13    1    3    3    0    0 -0.67873598219E+03 -0.42580097520E+03  0.12784663821E+03  0.81137769682E+03  0.00000000000E+00 0.  1.
         22    1    1    2    0    0  0.15800671408E+04  0.10079538038E+04 -0.12536323690E+04  0.22548120003E+04  0.00000000000E+00 0. -1.
<mgrwt>
<rscale>  0 0.40875749E+04</rscale>
<asrwt>0</asrwt>
<pdfrwt beam="1">  1        2 0.38634252E+00 0.40875749E+04</pdfrwt>
<pdfrwt beam="2">  1       -2 0.25590114E+00 0.40875749E+04</pdfrwt>
<totfact> 0.15879688E-01</totfact>
</mgrwt>
</event>
<event>
 6    1  0.1528034E-005  0.4129383E+04  0.7818608E-02  0.7978943E-01
         -1   -1    0    0    0  501 -0.00000000000E+00  0.00000000000E+00  0.19006031048E+04  0.19006031048E+04  0.00000000000E+00 0.  1.
          1   -1    0    0  501    0  0.00000000000E+00 -0.00000000000E+00 -0.22429466280E+04  0.22429466280E+04  0.00000000000E+00 0. -1.
         23    2    1    2    0    0  0.14335500234E+04 -0.14237206233E+04  0.25063593170E+03  0.20379213903E+04  0.90879810437E+02 0.  0.
         11    1    3    3    0    0  0.10883621571E+04 -0.10480391725E+04  0.15517997668E+03  0.15188808766E+04  0.00000000000E+00 0. -1.
        -11    1    3    3    0    0  0.34518786628E+03 -0.37568145079E+03  0.95455955023E+02  0.51904051368E+03  0.00000000000E+00 0.  1.
         22    1    1    2    0    0 -0.14335500234E+04  0.14237206233E+04 -0.59297945495E+03  0.21056283425E+04  0.00000000000E+00 0. -1.
<mgrwt>
<rscale>  0 0.41293832E+04</rscale>
<asrwt>0</asrwt>
<pdfrwt beam="1">  1        1 0.34506871E+00 0.41293832E+04</pdfrwt>
<pdfrwt beam="2">  1       -1 0.29240048E+00 0.41293832E+04</pdfrwt>
<totfact> 0.58336131E-02</totfact>
</mgrwt>
</event>
<event>
 6    1  0.1528034E-005  0.2073007E+04  0.7818608E-02  0.8573228E-01
          2   -1    0    0  501    0  0.00000000000E+00  0.00000000000E+00  0.22414889270E+04  0.22414889270E+04  0.00000000000E+00 0. -1.
         -2   -1    0    0    0  501 -0.00000000000E+00 -0.00000000000E+00 -0.47929737292E+03  0.47929737292E+03  0.00000000000E+00 0.  1.
         23    2    1    2    0    0  0.88766097865E+03  0.51578868215E+03  0.71755467646E+03  0.12561204050E+04  0.94730039897E+02 0.  0.
         13    1    3    3    0    0  0.21850493811E+03  0.11685312064E+03  0.22294026412E+03  0.33331879807E+03  0.00000000000E+00 0. -1.
        -13    1    3    3    0    0  0.66915604055E+03  0.39893556151E+03  0.49461441234E+03  0.92280160692E+03  0.00000000000E+00 0.  1.
         22    1    1    2    0    0 -0.88766097865E+03 -0.51578868215E+03  0.10446368776E+04  0.14646658949E+04  0.00000000000E+00 0. -1.
<mgrwt>
<rscale>  0 0.20730072E+04</rscale>
<asrwt>0</asrwt>
<pdfrwt beam="1">  1        2 0.34484444E+00 0.20730072E+04</pdfrwt>
<pdfrwt beam="2">  1       -2 0.73738059E-01 0.20730072E+04</pdfrwt>
<totfact> 0.74924956E+00</totfact>
</mgrwt>
</event>
<event>
 6    1  0.1777508E-005  0.2367496E+04  0.7818608E-02  0.8451774E-01
          2   -1    0    0  501    0  0.00000000000E+00  0.00000000000E+00  0.19164198765E+04  0.19164198765E+04  0.00000000000E+00 0.  1.
         -2   -1    0    0    0  501 -0.00000000000E+00 -0.00000000000E+00 -0.73118618595E+03  0.73118618595E+03  0.00000000000E+00 0. -1.
         23    2    1    2    0    0 -0.29577164918E+03 -0.57020783861E+03  0.17030751524E+04  0.18225135662E+04  0.92048230009E+02 0.  0.
         13    1    3    3    0    0 -0.14590818305E+03 -0.20645551446E+03  0.74871903607E+03  0.79024886732E+03  0.00000000000E+00 0. -1.
        -13    1    3    3    0    0 -0.14986346613E+03 -0.36375232415E+03  0.95435611635E+03  0.10322646989E+04  0.00000000000E+00 0.  1.
         22    1    1    2    0    0  0.29577164918E+03  0.57020783861E+03 -0.51784146188E+03  0.82509249621E+03  0.00000000000E+00 0. -1.
<mgrwt>
<rscale>  0 0.23674963E+04</rscale>
<asrwt>0</asrwt>
<pdfrwt beam="1">  1        2 0.29483383E+00 0.23674963E+04</pdfrwt>
<pdfrwt beam="2">  1       -2 0.11249018E+00 0.23674963E+04</pdfrwt>
<totfact> 0.41717312E+00</totfact>
</mgrwt>
</event>
<event>
 6    1  0.1528034E-005  0.5131112E+04  0.7818608E-02  0.7808594E-01
          3   -1    0    0  501    0  0.00000000000E+00  0.00000000000E+00  0.37215888862E+04  0.37215888862E+04  0.00000000000E+00 0. -1.
         -3   -1    0    0    0  501 -0.00000000000E+00 -0.00000000000E+00 -0.17686201149E+04  0.17686201149E+04  0.00000000000E+00 0.  1.
         23    2    1    2    0    0 -0.42006847352E+03 -0.24078920926E+03  0.36716954626E+04  0.37045835070E+04  0.90301854330E+02 0.  0.
         11    1    3    3    0    0 -0.17068720968E+03 -0.14428137355E+03  0.15225757875E+04  0.15388918958E+04  0.00000000000E+00 0.  1.
        -11    1    3    3    0    0 -0.24938126384E+03 -0.96507835711E+02  0.21491196751E+04  0.21656916112E+04  0.00000000000E+00 0. -1.
         22    1    1    2    0    0  0.42006847352E+03  0.24078920926E+03 -0.17187266912E+04  0.17856254940E+04  0.00000000000E+00 0.  1.
<mgrwt>
<rscale>  0 0.51311118E+04</rscale>
<asrwt>0</asrwt>
<pdfrwt beam="1">  1        3 0.57255213E+00 0.51311118E+04</pdfrwt>
<pdfrwt beam="2">  1       -3 0.27209540E+00 0.51311118E+04</pdfrwt>
<totfact> 0.15473373E-04</totfact>
</mgrwt>
</event>
<event>
 6    1  0.1528034E-005  0.1074736E+04  0.7818608E-02  0.9230172E-01
          2   -1    0    0  501    0  0.00000000000E+00  0.00000000000E+00  0.98460229364E+03  0.98460229364E+03  0.00000000000E+00 0. -1.
         -2   -1    0    0    0  501 -0.00000000000E+00 -0.00000000000E+00 -0.29328003282E+03  0.29328003282E+03  0.00000000000E+00 0.  1.
         23    2    1    2    0    0  0.21458501877E+03 -0.11184567704E+03 -0.21715649636E+03  0.33772816994E+03  0.91362941619E+02 0.  0.
         13    1    3    3    0    0  0.33165304753E+02 -0.36397191941E+02 -0.93210256985E+02  0.10541747971E+03  0.00000000000E+00 0.  1.
        -13    1    3    3    0    0  0.18141971402E+03 -0.75448485100E+02 -0.12394623938E+03  0.23231069023E+03  0.00000000000E+00 0. -1.
         22    1    1    2    0    0 -0.21458501877E+03  0.11184567704E+03  0.90847875719E+03  0.94015415651E+03  0.00000000000E+00 0. -1.
<mgrwt>
<rscale>  0 0.10747357E+04</rscale>
<asrwt>0</asrwt>
<pdfrwt beam="1">  1        2 0.15147727E+00 0.10747357E+04</pdfrwt>
<pdfrwt beam="2">  1       -2 0.45120005E-01 0.10747357E+04</pdfrwt>
<totfact> 0.11931652E+02</totfact>
</mgrwt>
</event>
<event>
 6    1  0.1528034E-005  0.1578202E+04  0.7818608E-02  0.8834052E-01
         -1   -1    0    0    0  501 -0.00000000000E+00  0.00000000000E+00  0.63014617311E+03  0.63014617311E+03  0.00000000000E+00 0.  1.
          1   -1    0    0  501    0  0.00000000000E+00 -0.00000000000E+00 -0.98815268361E+03  0.98815268361E+03  0.00000000000E+00 0. -1.
         23    2    1    2    0    0  0.50893779957E+03 -0.59791362001E+03 -0.22491759086E+03  0.82191261792E+03  0.91837073082E+02 0.  0.
         11    1    3    3    0    0  0.30385748586E+02 -0.56754296405E+02 -0.41483679316E+02  0.76584851813E+02  0.00000000000E+00 0. -1.
        -11    1    3    3    0    0  0.47855205098E+03 -0.54115932360E+03 -0.18343391154E+03  0.74532776611E+03  0.00000000000E+00 0.  1.
         22    1    1    2    0    0 -0.50893779957E+03  0.59791362001E+03 -0.13308891964E+03  0.79638623880E+03  0.00000000000E+00 0. -1.
<mgrwt>
<rscale>  0 0.15782023E+04</rscale>
<asrwt>0</asrwt>
<pdfrwt beam="1">  1        1 0.15202349E+00 0.15782023E+04</pdfrwt>
<pdfrwt beam="2">  1       -1 0.96945565E-01 0.15782023E+04</pdfrwt>
<totfact> 0.15202953E+01</totfact>
</mgrwt>
</event>
<event>
 6    1  0.1528034E-005  0.2022350E+04  0.7818608E-02  0.8596242E-01
          2   -1    0    0  501    0  0.00000000000E+00  0.00000000000E+00  0.15721704740E+04  0.15721704740E+04  0.00000000000E+00 0. -1.
         -2   -1    0    0    0  501 -0.00000000000E+00 -0.00000000000E+00 -0.65035855931E+03  0.65035855931E+03  0.00000000000E+00 0.  1.
         23    2    1    2    0    0 -0.57983722235E+03  0.31394305052E+03  0.13013570299E+04  0.14617229228E+04  0.91281653240E+02 0.  0.
         13    1    3    3    0    0 -0.27238526571E+03  0.16748873526E+03  0.53809642958E+03  0.62593448294E+03  0.00000000000E+00 0.  1.
        -13    1    3    3    0    0 -0.30745195664E+03  0.14645431526E+03  0.76326060036E+03  0.83578843984E+03  0.00000000000E+00 0. -1.
         22    1    1    2    0    0  0.57983722235E+03 -0.31394305052E+03 -0.37954511522E+03  0.76080611057E+03  0.00000000000E+00 0.  1.
<mgrwt>
<rscale>  0 0.20223496E+04</rscale>
<asrwt>0</asrwt>
<pdfrwt beam="1">  1        2 0.24187238E+00 0.20223496E+04</pdfrwt>
<pdfrwt beam="2">  1       -2 0.10005516E+00 0.20223496E+04</pdfrwt>
<totfact> 0.88443643E+00</totfact>
</mgrwt>
</event>
<event>
 6    1  0.1528034E-005  0.2159997E+04  0.7818608E-02  0.8535265E-01
          1   -1    0    0  501    0  0.00000000000E+00  0.00000000000E+00  0.10915811054E+04  0.10915811054E+04  0.00000000000E+00 0. -1.
         -1   -1    0    0    0  501 -0.00000000000E+00 -0.00000000000E+00 -0.10685387914E+04  0.10685387914E+04  0.00000000000E+00 0.  1.
         23    2    1    2    0    0  0.47173037301E+03  0.59954155424E+03 -0.75024616537E+03  0.10738627024E+04  0.91280747729E+02 0.  0.
         11    1    3    3    0    0  0.29980311826E+03  0.42311715456E+03 -0.55469491526E+03  0.75933950590E+03  0.00000000000E+00 0.  1.
        -11    1    3    3    0    0  0.17192725475E+03  0.17642439969E+03 -0.19555125011E+03  0.31452319652E+03  0.00000000000E+00 0. -1.
         22    1    1    2    0    0 -0.47173037301E+03 -0.59954155424E+03  0.77328847939E+03  0.10862571944E+04  0.00000000000E+00 0. -1.
<mgrwt>
<rscale>  0 0.21599970E+04</rscale>
<asrwt>0</asrwt>
<pdfrwt beam="1">  1        1 0.16793555E+00 0.21599970E+04</pdfrwt>
<pdfrwt beam="2">  1       -1 0.16439058E+00 0.21599970E+04</pdfrwt>
<totfact> 0.31878840E+00</totfact>
</mgrwt>
</event>
<event>
 6    1  0.1528034E-005  0.1673166E+04  0.7818608E-02  0.8776819E-01
         -1   -1    0    0    0  501 -0.00000000000E+00  0.00000000000E+00  0.79964271541E+03  0.79964271541E+03  0.00000000000E+00 0.  1.
          1   -1    0    0  501    0  0.00000000000E+00 -0.00000000000E+00 -0.87522936477E+03  0.87522936477E+03  0.00000000000E+00 0. -1.
         23    2    1    2    0    0 -0.31260398549E+03  0.64296913013E+03  0.39199528828E+03  0.82061016341E+03  0.92791056809E+02 0.  0.
         11    1    3    3    0    0 -0.11808297205E+03  0.34773696735E+03  0.20772309642E+03  0.42191642719E+03  0.00000000000E+00 0. -1.
        -11    1    3    3    0    0 -0.19452101344E+03  0.29523216278E+03  0.18427219186E+03  0.39869373622E+03  0.00000000000E+00 0.  1.
         22    1    1    2    0    0  0.31260398549E+03 -0.64296913013E+03 -0.46758193763E+03  0.85426191677E+03  0.00000000000E+00 0. -1.
<mgrwt>
<rscale>  0 0.16731656E+04</rscale>
<asrwt>0</asrwt>
<pdfrwt beam="1">  1        1 0.13465067E+00 0.16731656E+04</pdfrwt>
<pdfrwt beam="2">  1       -1 0.12302196E+00 0.16731656E+04</pdfrwt>
<totfact> 0.10595347E+01</totfact>
</mgrwt>
</event>
<event>
 6    1  0.1707608E-005  0.3513475E+04  0.7818608E-02  0.8110604E-01
         -3   -1    0    0    0  501 -0.00000000000E+00  0.00000000000E+00  0.97477354212E+03  0.97477354212E+03  0.00000000000E+00 0.  1.
          3   -1    0    0  501    0  0.00000000000E+00 -0.00000000000E+00 -0.31659940055E+04  0.31659940055E+04  0.00000000000E+00 0. -1.
         23    2    1    2    0    0  0.11898131544E+04  0.28094677530E+03 -0.25814686016E+04  0.28574593063E+04  0.80666681460E+02 0.  0.
         11    1    3    3    0    0  0.75306241954E+03  0.21591270349E+03 -0.16247094119E+04  0.18037189294E+04  0.00000000000E+00 0.  1.
        -11    1    3    3    0    0  0.43675073484E+03  0.65034071809E+02 -0.95675918972E+03  0.10537403769E+04  0.00000000000E+00 0. -1.
         22    1    1    2    0    0 -0.11898131544E+04 -0.28094677530E+03  0.39024813818E+03  0.12833082413E+04  0.00000000000E+00 0.  1.
<mgrwt>
<rscale>  0 0.35134753E+04</rscale>
<asrwt>0</asrwt>
<pdfrwt beam="1">  1        3 0.48707600E+00 0.35134753E+04</pdfrwt>
<pdfrwt beam="2">  1       -3 0.14996516E+00 0.35134753E+04</pdfrwt>
<totfact> 0.27201322E-03</totfact>
</mgrwt>
</event>
<event>
 6    1  0.1528034E-005  0.3290783E+04  0.7818608E-02  0.8165245E-01
          2   -1    0    0  501    0  0.00000000000E+00  0.00000000000E+00  0.29220456129E+04  0.29220456129E+04  0.00000000000E+00 0.  1.
         -2   -1    0    0    0  501 -0.00000000000E+00 -0.00000000000E+00 -0.92651311201E+03  0.92651311201E+03  0.00000000000E+00 0. -1.
         23    2    1    2    0    0 -0.94128865631E+02 -0.94927181308E+03  0.25640426137E+04  0.27380719096E+04  0.11289835593E+03 0.  0.
         11    1    3    3    0    0 -0.70755105466E+02 -0.23042473588E+03  0.61364690714E+03  0.65929080875E+03  0.00000000000E+00 0. -1.
        -11    1    3    3    0    0 -0.23373760165E+02 -0.71884707720E+03  0.19503957066E+04  0.20787811009E+04  0.00000000000E+00 0.  1.
         22    1    1    2    0    0  0.94128865631E+02  0.94927181308E+03 -0.56851011287E+03  0.11104868153E+04  0.00000000000E+00 0. -1.
<mgrwt>
<rscale>  0 0.32907832E+04</rscale>
<asrwt>0</asrwt>
<pdfrwt beam="1">  1        2 0.44954547E+00 0.32907832E+04</pdfrwt>
<pdfrwt beam="2">  1       -2 0.14254048E+00 0.32907832E+04</pdfrwt>
<totfact> 0.55738556E-01</totfact>
</mgrwt>
</event>
<event>
 6    1  0.1528034E-005  0.3610488E+04  0.7818608E-02  0.8088094E-01
          1   -1    0    0  501    0  0.00000000000E+00  0.00000000000E+00  0.18527307316E+04  0.18527307316E+04  0.00000000000E+00 0. -1.
         -1   -1    0    0    0  501 -0.00000000000E+00 -0.00000000000E+00 -0.17589742362E+04  0.17589742362E+04  0.00000000000E+00 0.  1.
         23    2    1    2    0    0  0.11241010214E+04  0.14379123948E+03  0.14510971124E+04  0.18434706572E+04  0.91772583959E+02 0.  0.
         13    1    3    3    0    0  0.33935573480E+03  0.15954384007E+02  0.48743046376E+03  0.59414250320E+03  0.00000000000E+00 0.  1.
        -13    1    3    3    0    0  0.78474528663E+03  0.12783685547E+03  0.96366664867E+03  0.12493281540E+04  0.00000000000E+00 0. -1.
         22    1    1    2    0    0 -0.11241010214E+04 -0.14379123948E+03 -0.13573406170E+04  0.17682343107E+04  0.00000000000E+00 0.  1.
<mgrwt>
<rscale>  0 0.36104878E+04</rscale>
<asrwt>0</asrwt>
<pdfrwt beam="1">  1        1 0.28503550E+00 0.36104878E+04</pdfrwt>
<pdfrwt beam="2">  1       -1 0.27061142E+00 0.36104878E+04</pdfrwt>
<totfact> 0.15525848E-01</totfact>
</mgrwt>
</event>
<event>
 6    1  0.1528034E-005  0.1076477E+04  0.7818608E-02  0.9228428E-01
         -1   -1    0    0    0  501 -0.00000000000E+00  0.00000000000E+00  0.28654493855E+03  0.28654493855E+03  0.00000000000E+00 0.  1.
          1   -1    0    0  501    0  0.00000000000E+00 -0.00000000000E+00 -0.10110122717E+04  0.10110122717E+04  0.00000000000E+00 0. -1.
         23    2    1    2    0    0 -0.42462295092E+03  0.67192599221E+02 -0.74739446698E+03  0.86703990599E+03  0.91324769227E+02 0.  0.
         11    1    3    3    0    0 -0.21916886971E+03  0.79241620508E+02 -0.42013983944E+03  0.48044949011E+03  0.00000000000E+00 0. -1.
        -11    1    3    3    0    0 -0.20545408121E+03 -0.12049021288E+02 -0.32725462755E+03  0.38659041588E+03  0.00000000000E+00 0.  1.
         22    1    1    2    0    0  0.42462295092E+03 -0.67192599221E+02  0.22927133787E+02  0.43051730430E+03  0.00000000000E+00 0.  1.
<mgrwt>
<rscale>  0 0.10764766E+04</rscale>
<asrwt>0</asrwt>
<pdfrwt beam="1">  1        1 0.15554035E+00 0.10764766E+04</pdfrwt>
<pdfrwt beam="2">  1       -1 0.44083835E-01 0.10764766E+04</pdfrwt>
<totfact> 0.75294175E+01</totfact>
</mgrwt>
</event>
<event>
 6    1  0.1528034E-005  0.2366098E+04  0.7818608E-02  0.8452306E-01
          1   -1    0    0  501    0  0.00000000000E+00  0.00000000000E+00  0.81904023606E+03  0.81904023606E+03  0.00000000000E+00 0. -1.
         -1   -1    0    0    0  501 -0.00000000000E+00 -0.00000000000E+00 -0.17088355147E+04  0.17088355147E+04  0.00000000000E+00 0.  1.
         23    2    1    2    0    0 -0.10322191056E+04  0.57442602775E+03 -0.44912268097E+03  0.12670689132E+04  0.91164163511E+02 0.  0.
         11    1    3    3    0    0 -0.24298312594E+03  0.18067641489E+03 -0.11550858425E+03  0.32407869326E+03  0.00000000000E+00 0.  1.
        -11    1    3    3    0    0 -0.78923597971E+03  0.39374961285E+03 -0.33361409672E+03  0.94299021990E+03  0.00000000000E+00 0. -1.
         22    1    1    2    0    0  0.10322191056E+04 -0.57442602775E+03 -0.44067259765E+03  0.12608068376E+04  0.00000000000E+00 0.  1.
<mgrwt>
<rscale>  0 0.23660981E+04</rscale>
<asrwt>0</asrwt>
<pdfrwt beam="1">  1        1 0.12600619E+00 0.23660981E+04</pdfrwt>
<pdfrwt beam="2">  1       -1 0.26289777E+00 0.23660981E+04</pdfrwt>
<totfact> 0.10990633E+00</totfact>
</mgrwt>
</event>
<event>
 6    1  0.1528034E-005  0.1497900E+04  0.7818608E-02  0.8885850E-01
         -1   -1    0    0    0  501 -0.00000000000E+00  0.00000000000E+00  0.61456761910E+03  0.61456761910E+03  0.00000000000E+00 0.  1.
          1   -1    0    0  501    0  0.00000000000E+00 -0.00000000000E+00 -0.91271707841E+03  0.91271707841E+03  0.00000000000E+00 0. -1.
         23    2    1    2    0    0 -0.51518082153E+03 -0.27204120957E+03  0.32578072441E+03  0.67364157961E+03  0.90786556369E+02 0.  0.
         13    1    3    3    0    0 -0.16097584916E+03 -0.12346961134E+03  0.14340412945E+03  0.24844056287E+03  0.00000000000E+00 0.  1.
        -13    1    3    3    0    0 -0.35420497237E+03 -0.14857159823E+03  0.18237659495E+03  0.42520101674E+03  0.00000000000E+00 0. -1.
         22    1    1    2    0    0  0.51518082153E+03  0.27204120957E+03 -0.62393018372E+03  0.85364311789E+03  0.00000000000E+00 0. -1.
<mgrwt>
<rscale>  0 0.14979003E+04</rscale>
<asrwt>0</asrwt>
<pdfrwt beam="1">  1        1 0.14041801E+00 0.14979003E+04</pdfrwt>
<pdfrwt beam="2">  1       -1 0.94548865E-01 0.14979003E+04</pdfrwt>
<totfact> 0.18608499E+01</totfact>
</mgrwt>
</event>
<event>
 6    1  0.1528034E-005  0.1662242E+04  0.7818608E-02  0.8783197E-01
          2   -1    0    0  501    0  0.00000000000E+00  0.00000000000E+00  0.25362622406E+04  0.25362622406E+04  0.00000000000E+00 0. -1.
         -2   -1    0    0    0  501 -0.00000000000E+00 -0.00000000000E+00 -0.27235426521E+03  0.27235426521E+03  0.00000000000E+00 0.  1.
         23    2    1    2    0    0 -0.70312237748E+03 -0.43629192306E+03  0.10697476053E+04  0.13557742193E+04  0.95037229454E+02 0.  0.
         13    1    3    3    0    0 -0.48587537391E+03 -0.25033728551E+03  0.68254056324E+03  0.87441709496E+03  0.00000000000E+00 0.  1.
        -13    1    3    3    0    0 -0.21724700356E+03 -0.18595463755E+03  0.38720704202E+03  0.48135712436E+03  0.00000000000E+00 0. -1.
         22    1    1    2    0    0  0.70312237748E+03  0.43629192306E+03  0.11941603701E+04  0.14528422865E+04  0.00000000000E+00 0. -1.
<mgrwt>
<rscale>  0 0.16622417E+04</rscale>
<asrwt>0</asrwt>
<pdfrwt beam="1">  1        2 0.39019418E+00 0.16622417E+04</pdfrwt>
<pdfrwt beam="2">  1       -2 0.41900658E-01 0.16622417E+04</pdfrwt>
<totfact> 0.17116893E+01</totfact>
</mgrwt>
</event>
<event>
 6    1  0.1528034E-005  0.7857837E+03  0.7818608E-02  0.9580826E-01
          2   -1    0    0  501    0  0.00000000000E+00  0.00000000000E+00  0.12957556788E+04  0.12957556788E+04  0.00000000000E+00 0. -1.
         -2   -1    0    0    0  501 -0.00000000000E+00 -0.00000000000E+00 -0.11913049598E+03  0.11913049598E+03  0.00000000000E+00 0.  1.
         23    2    1    2    0    0  0.16060336624E+03 -0.35181454343E+03  0.54994845838E+03  0.67848232417E+03  0.91258112636E+02 0.  0.
         13    1    3    3    0    0  0.76981688336E+02 -0.15637327391E+03  0.17212181945E+03  0.24495857173E+03  0.00000000000E+00 0.  1.
        -13    1    3    3    0    0  0.83621677908E+02 -0.19544126951E+03  0.37782663892E+03  0.43352375244E+03  0.00000000000E+00 0. -1.
         22    1    1    2    0    0 -0.16060336624E+03  0.35181454343E+03  0.62667672440E+03  0.73640385056E+03  0.00000000000E+00 0. -1.
<mgrwt>
<rscale>  0 0.78578373E+03</rscale>
<asrwt>0</asrwt>
<pdfrwt beam="1">  1        2 0.19934702E+00 0.78578373E+03</pdfrwt>
<pdfrwt beam="2">  1       -2 0.18327770E-01 0.78578373E+03</pdfrwt>
<totfact> 0.41634227E+02</totfact>
</mgrwt>
</event>
<event>
 6    1  0.1528034E-005  0.1228648E+04  0.7818608E-02  0.9088144E-01
         -1   -1    0    0    0  501 -0.00000000000E+00  0.00000000000E+00  0.21326809257E+03  0.21326809257E+03  0.00000000000E+00 0.  1.
          1   -1    0    0  501    0  0.00000000000E+00 -0.00000000000E+00 -0.17695754126E+04  0.17695754126E+04  0.00000000000E+00 0. -1.
         23    2    1    2    0    0 -0.51129387629E+03  0.29012192909E+03 -0.10539622307E+04  0.12095759251E+04  0.81519157671E+02 0.  0.
         11    1    3    3    0    0 -0.20521145313E+03  0.10605843827E+03 -0.49501733532E+03  0.54626211207E+03  0.00000000000E+00 0. -1.
        -11    1    3    3    0    0 -0.30608242316E+03  0.18406349082E+03 -0.55894489541E+03  0.66331381301E+03  0.00000000000E+00 0.  1.
         22    1    1    2    0    0  0.51129387629E+03 -0.29012192909E+03 -0.50234508930E+03  0.77326758009E+03  0.00000000000E+00 0.  1.
<mgrwt>
<rscale>  0 0.12286480E+04</rscale>
<asrwt>0</asrwt>
<pdfrwt beam="1">  1        1 0.27224238E+00 0.12286480E+04</pdfrwt>
<pdfrwt beam="2">  1       -1 0.32810475E-01 0.12286480E+04</pdfrwt>
<totfact> 0.36776310E+01</totfact>
</mgrwt>
</event>
<event>
 6    1  0.1528034E-005  0.4852468E+04  0.7818608E-02  0.7851677E-01
          1   -1    0    0  501    0  0.00000000000E+00  0.00000000000E+00  0.35554971534E+04  0.35554971534E+04  0.00000000000E+00 0. -1.
         -1   -1    0    0    0  501 -0.00000000000E+00 -0.00000000000E+00 -0.16556368457E+04  0.16556368457E+04  0.00000000000E+00 0.  1.
         23    2    1    2    0    0 -0.52936727524E+03  0.22696344428E+04  0.22901965639E+03  0.23435254662E+04  0.90506307505E+02 0.  0.
         11    1    3    3    0    0 -0.44107252562E+03  0.17903602623E+04  0.15211073135E+03  0.18501547276E+04  0.00000000000E+00 0. -1.
        -11    1    3    3    0    0 -0.88294749627E+02  0.47927418049E+03  0.76908925045E+02  0.49337073854E+03  0.00000000000E+00 0.  1.
         22    1    1    2    0    0  0.52936727524E+03 -0.22696344428E+04  0.16708406514E+04  0.28676085329E+04  0.00000000000E+00 0. -1.
<mgrwt>
<rscale>  0 0.48524683E+04</rscale>
<asrwt>0</asrwt>
<pdfrwt beam="1">  1        1 0.54699956E+00 0.48524683E+04</pdfrwt>
<pdfrwt beam="2">  1       -1 0.25471336E+00 0.48524683E+04</pdfrwt>
<totfact> 0.10697942E-02</totfact>
</mgrwt>
</event>
<event>
 6    1  0.1528034E-005  0.1704851E+04  0.7818608E-02  0.8758603E-01
         -1   -1    0    0    0  501 -0.00000000000E+00  0.00000000000E+00  0.81410645141E+03  0.81410645141E+03  0.00000000000E+00 0.  1.
          1   -1    0    0  501    0  0.00000000000E+00 -0.00000000000E+00 -0.89254797384E+03  0.89254797384E+03  0.00000000000E+00 0. -1.
         23    2    1    2    0    0 -0.16791835626E+02  0.73507061712E+03 -0.46628972369E+03  0.87536806958E+03  0.90732424914E+02 0.  0.
         13    1    3    3    0    0 -0.34133809763E+02  0.14263630707E+03 -0.70924680748E+02  0.16291268644E+03  0.00000000000E+00 0. -1.
        -13    1    3    3    0    0  0.17341974136E+02  0.59243431005E+03 -0.39536504294E+03  0.71245538314E+03  0.00000000000E+00 0.  1.
         22    1    1    2    0    0  0.16791835626E+02 -0.73507061712E+03  0.38784820126E+03  0.83128635567E+03  0.00000000000E+00 0.  1.
<mgrwt>
<rscale>  0 0.17048508E+04</rscale>
<asrwt>0</asrwt>
<pdfrwt beam="1">  1        1 0.13731507E+00 0.17048508E+04</pdfrwt>
<pdfrwt beam="2">  1       -1 0.12524715E+00 0.17048508E+04</pdfrwt>
<totfact> 0.97781549E+00</totfact>
</mgrwt>
</event>
<event>
 6    1  0.1528034E-005  0.2595185E+04  0.7818608E-02  0.8369839E-01
          1   -1    0    0  501    0  0.00000000000E+00  0.00000000000E+00  0.10581014865E+04  0.10581014865E+04  0.00000000000E+00 0. -1.
         -1   -1    0    0    0  501 -0.00000000000E+00 -0.00000000000E+00 -0.15912895360E+04  0.15912895360E+04  0.00000000000E+00 0.  1.
         23    2    1    2    0    0 -0.96782732335E+03 -0.19500705401E+03 -0.11240516693E+04  0.14988097363E+04  0.90669682603E+02 0.  0.
         11    1    3    3    0    0 -0.57635992640E+03 -0.73817868399E+02 -0.68403724903E+03  0.89752259053E+03  0.00000000000E+00 0. -1.
        -11    1    3    3    0    0 -0.39146739695E+03 -0.12118918561E+03 -0.44001442027E+03  0.60128714574E+03  0.00000000000E+00 0.  1.
         22    1    1    2    0    0  0.96782732335E+03  0.19500705401E+03  0.59086361978E+03  0.11505812862E+04  0.00000000000E+00 0. -1.
<mgrwt>
<rscale>  0 0.25951846E+04</rscale>
<asrwt>0</asrwt>
<pdfrwt beam="1">  1        1 0.16278484E+00 0.25951846E+04</pdfrwt>
<pdfrwt beam="2">  1       -1 0.24481377E+00 0.25951846E+04</pdfrwt>
<totfact> 0.90615735E-01</totfact>
</mgrwt>
</event>
<event>
 6    1  0.1528034E-005  0.3442444E+04  0.7818608E-02  0.8127567E-01
         -2   -1    0    0    0  501 -0.00000000000E+00  0.00000000000E+00  0.88161819736E+03  0.88161819736E+03  0.00000000000E+00 0.  1.
          2   -1    0    0  501    0  0.00000000000E+00 -0.00000000000E+00 -0.33604166987E+04  0.33604166987E+04  0.00000000000E+00 0. -1.
         23    2    1    2    0    0  0.28387537643E+03 -0.15570768366E+04 -0.41054383141E+03  0.16376634011E+04  0.91223206180E+02 0.  0.
         11    1    3    3    0    0  0.76402418369E+02 -0.63171130702E+03 -0.14077169700E+03  0.65170021914E+03  0.00000000000E+00 0. -1.
        -11    1    3    3    0    0  0.20747295806E+03 -0.92536552955E+03 -0.26977213441E+03  0.98596318193E+03  0.00000000000E+00 0.  1.
         22    1    1    2    0    0 -0.28387537643E+03  0.15570768366E+04 -0.20682546700E+04  0.26043714950E+04  0.00000000000E+00 0.  1.
<mgrwt>
<rscale>  0 0.34424436E+04</rscale>
<asrwt>0</asrwt>
<pdfrwt beam="1">  1        2 0.51698718E+00 0.34424436E+04</pdfrwt>
<pdfrwt beam="2">  1       -2 0.13563357E+00 0.34424436E+04</pdfrwt>
<totfact> 0.32602682E-01</totfact>
</mgrwt>
</event>
<event>
 6    1  0.1528034E-005  0.2344297E+04  0.7818608E-02  0.8460657E-01
         -1   -1    0    0    0  501 -0.00000000000E+00  0.00000000000E+00  0.14349862017E+04  0.14349862017E+04  0.00000000000E+00 0.  1.
          1   -1    0    0  501    0  0.00000000000E+00 -0.00000000000E+00 -0.95745352990E+03  0.95745352990E+03  0.00000000000E+00 0. -1.
         23    2    1    2    0    0 -0.89279921797E+03 -0.32237788499E+03 -0.45963327295E+03  0.10585364546E+04  0.90657243544E+02 0.  0.
         11    1    3    3    0    0 -0.81323981651E+03 -0.29860592318E+03 -0.44599107252E+03  0.97438828671E+03  0.00000000000E+00 0. -1.
        -11    1    3    3    0    0 -0.79559401460E+02 -0.23771961818E+02 -0.13642200435E+02  0.84148167907E+02  0.00000000000E+00 0.  1.
         22    1    1    2    0    0  0.89279921797E+03  0.32237788499E+03  0.93716594478E+03  0.13339032770E+04  0.00000000000E+00 0.  1.
<mgrwt>
<rscale>  0 0.23442974E+04</rscale>
<asrwt>0</asrwt>
<pdfrwt beam="1">  1        1 0.14730054E+00 0.23442974E+04</pdfrwt>
<pdfrwt beam="2">  1       -1 0.22076711E+00 0.23442974E+04</pdfrwt>
<totfact> 0.16009260E+00</totfact>
</mgrwt>
</event>
<event>
 6    1  0.1528034E-005  0.3734172E+04  0.7818608E-02  0.8060431E-01
          2   -1    0    0  501    0  0.00000000000E+00  0.00000000000E+00  0.24036377957E+04  0.24036377957E+04  0.00000000000E+00 0. -1.
         -2   -1    0    0    0  501 -0.00000000000E+00 -0.00000000000E+00 -0.14503056964E+04  0.14503056964E+04  0.00000000000E+00 0.  1.
         23    2    1    2    0    0  0.14035013806E+04 -0.82131327604E+03 -0.46756325697E+03  0.16944724374E+04  0.90828515170E+02 0.  0.
         13    1    3    3    0    0  0.32665970950E+03 -0.19702163679E+03 -0.14977921292E+03  0.40982667532E+03  0.00000000000E+00 0.  1.
        -13    1    3    3    0    0  0.10768416711E+04 -0.62429163925E+03 -0.31778404404E+03  0.12846457621E+04  0.00000000000E+00 0. -1.
         22    1    1    2    0    0 -0.14035013806E+04  0.82131327604E+03  0.14208953562E+04  0.21594710547E+04  0.00000000000E+00 0.  1.
<mgrwt>
<rscale>  0 0.37341717E+04</rscale>
<asrwt>0</asrwt>
<pdfrwt beam="1">  1        2 0.36979043E+00 0.37341717E+04</pdfrwt>
<pdfrwt beam="2">  1       -2 0.22312395E+00 0.37341717E+04</pdfrwt>
<totfact> 0.30121182E-01</totfact>
</mgrwt>
</event>
<event>
 6    1  0.1528034E-005  0.1590802E+04  0.7818608E-02  0.8826219E-01
         -1   -1    0    0    0  501 -0.00000000000E+00  0.00000000000E+00  0.52447145344E+03  0.52447145344E+03  0.00000000000E+00 0.  1.
          1   -1    0    0  501    0  0.00000000000E+00 -0.00000000000E+00 -0.12062861433E+04  0.12062861433E+04  0.00000000000E+00 0. -1.
         23    2    1    2    0    0 -0.14277593922E+03  0.77481029972E+03 -0.43513326826E+03  0.90518646528E+03  0.96465571119E+02 0.  0.
         11    1    3    3    0    0 -0.81128262728E+02  0.51173995790E+03 -0.33518066583E+03  0.61709452944E+03  0.00000000000E+00 0. -1.
        -11    1    3    3    0    0 -0.61647676491E+02  0.26307034182E+03 -0.99952602433E+02  0.28809193584E+03  0.00000000000E+00 0.  1.
         22    1    1    2    0    0  0.14277593922E+03 -0.77481029972E+03 -0.24668142161E+03  0.82557113148E+03  0.00000000000E+00 0. -1.
<mgrwt>
<rscale>  0 0.15908019E+04</rscale>
<asrwt>0</asrwt>
<pdfrwt beam="1">  1        1 0.18558248E+00 0.15908019E+04</pdfrwt>
<pdfrwt beam="2">  1       -1 0.80687917E-01 0.15908019E+04</pdfrwt>
<totfact> 0.15551834E+01</totfact>
</mgrwt>
</event>
<event>
 6    1  0.1528034E-005  0.1642782E+04  0.7818608E-02  0.8794688E-01
         -1   -1    0    0    0  501 -0.00000000000E+00  0.00000000000E+00  0.10023523862E+04  0.10023523862E+04  0.00000000000E+00 0.  1.
          1   -1    0    0  501    0  0.00000000000E+00 -0.00000000000E+00 -0.67310007048E+03  0.67310007048E+03  0.00000000000E+00 0. -1.
         23    2    1    2    0    0  0.80435096401E+03  0.13121589339E+01  0.32148267032E+03  0.87106289778E+03  0.91745678405E+02 0.  0.
         11    1    3    3    0    0  0.34558340392E+03  0.30813858322E+01  0.89617186587E+02  0.35702748372E+03  0.00000000000E+00 0. -1.
        -11    1    3    3    0    0  0.45876756009E+03 -0.17692268983E+01  0.23186548373E+03  0.51403541405E+03  0.00000000000E+00 0.  1.
         22    1    1    2    0    0 -0.80435096401E+03 -0.13121589339E+01  0.77696453955E+01  0.80438955889E+03  0.00000000000E+00 0. -1.
<mgrwt>
<rscale>  0 0.16427823E+04</rscale>
<asrwt>0</asrwt>
<pdfrwt beam="1">  1        1 0.10355386E+00 0.16427823E+04</pdfrwt>
<pdfrwt beam="2">  1       -1 0.15420806E+00 0.16427823E+04</pdfrwt>
<totfact> 0.89458578E+00</totfact>
</mgrwt>
</event>
<event>
 6    1  0.1528034E-005  0.2173439E+04  0.7818608E-02  0.8529565E-01
          2   -1    0    0  501    0  0.00000000000E+00  0.00000000000E+00  0.15377757103E+04  0.15377757103E+04  0.00000000000E+00 0. -1.
         -2   -1    0    0    0  501 -0.00000000000E+00 -0.00000000000E+00 -0.76796611336E+03  0.76796611336E+03  0.00000000000E+00 0.  1.
         23    2    1    2    0    0 -0.33791763028E+03 -0.52428979208E+02  0.14777539138E+04  0.15195342948E+04  0.91053394656E+02 0.  0.
         13    1    3    3    0    0 -0.95878047737E+02  0.14921103307E+02  0.54327020687E+03  0.55186751765E+03  0.00000000000E+00 0.  1.
        -13    1    3    3    0    0 -0.24203958255E+03 -0.67350082515E+02  0.93448370694E+03  0.96766677719E+03  0.00000000000E+00 0. -1.
         22    1    1    2    0    0  0.33791763028E+03  0.52428979208E+02 -0.70794431682E+03  0.78620752886E+03  0.00000000000E+00 0.  1.
<mgrwt>
<rscale>  0 0.21734393E+04</rscale>
<asrwt>0</asrwt>
<pdfrwt beam="1">  1        2 0.23658088E+00 0.21734393E+04</pdfrwt>
<pdfrwt beam="2">  1       -2 0.11814863E+00 0.21734393E+04</pdfrwt>
<totfact> 0.61109590E+00</totfact>
</mgrwt>
</event>
<event>
 6    1  0.1528034E-005  0.1059262E+04  0.7818608E-02  0.9245834E-01
         -1   -1    0    0    0  501 -0.00000000000E+00  0.00000000000E+00  0.40460281805E+03  0.40460281805E+03  0.00000000000E+00 0.  1.
          1   -1    0    0  501    0  0.00000000000E+00 -0.00000000000E+00 -0.69329460681E+03  0.69329460681E+03  0.00000000000E+00 0. -1.
         23    2    1    2    0    0  0.18859472629E+03 -0.41210451821E+03  0.13026903352E+03  0.48070517335E+03  0.93323833361E+02 0.  0.
         13    1    3    3    0    0  0.17573615462E+03 -0.31026944609E+03  0.12524949907E+03  0.37793883399E+03  0.00000000000E+00 0.  1.
        -13    1    3    3    0    0  0.12858571671E+02 -0.10183507212E+03  0.50195344479E+01  0.10276633936E+03  0.00000000000E+00 0. -1.
         22    1    1    2    0    0 -0.18859472629E+03  0.41210451821E+03 -0.41896082228E+03  0.61719225151E+03  0.00000000000E+00 0.  1.
<mgrwt>
<rscale>  0 0.10592619E+04</rscale>
<asrwt>0</asrwt>
<pdfrwt beam="1">  1        1 0.10666071E+00 0.10592619E+04</pdfrwt>
<pdfrwt beam="2">  1       -1 0.62246588E-01 0.10592619E+04</pdfrwt>
<totfact> 0.72316980E+01</totfact>
</mgrwt>
</event>
<event>
 6    1  0.1528034E-005  0.1503403E+04  0.7818608E-02  0.8882193E-01
         -1   -1    0    0    0  501 -0.00000000000E+00  0.00000000000E+00  0.19158376126E+03  0.19158376126E+03  0.00000000000E+00 0.  1.
          1   -1    0    0  501    0  0.00000000000E+00 -0.00000000000E+00 -0.29493876946E+04  0.29493876946E+04  0.00000000000E+00 0. -1.
         23    2    1    2    0    0  0.38698543489E+03  0.19951638562E+03 -0.26572820655E+04  0.26941279029E+04  0.87250595376E+02 0.  0.
         11    1    3    3    0    0  0.13172186925E+03  0.72803844069E+02 -0.68315040712E+03  0.69953236472E+03  0.00000000000E+00 0. -1.
        -11    1    3    3    0    0  0.25526356565E+03  0.12671254155E+03 -0.19741316584E+04  0.19945955382E+04  0.00000000000E+00 0.  1.
         22    1    1    2    0    0 -0.38698543489E+03 -0.19951638562E+03 -0.10052186785E+03  0.44684355301E+03  0.00000000000E+00 0.  1.
<mgrwt>
<rscale>  0 0.15034025E+04</rscale>
<asrwt>0</asrwt>
<pdfrwt beam="1">  1        1 0.45375196E+00 0.15034025E+04</pdfrwt>
<pdfrwt beam="2">  1       -1 0.29474425E-01 0.15034025E+04</pdfrwt>
<totfact> 0.66614014E+00</totfact>
</mgrwt>
</event>
<event>
 6    1  0.1528034E-005  0.2718253E+04  0.7818608E-02  0.8329107E-01
          2   -1    0    0  501    0  0.00000000000E+00  0.00000000000E+00  0.13913657898E+04  0.13913657898E+04  0.00000000000E+00 0. -1.
         -2   -1    0    0    0  501 -0.00000000000E+00 -0.00000000000E+00 -0.13276342438E+04  0.13276342438E+04  0.00000000000E+00 0.  1.
         23    2    1    2    0    0  0.96016350623E+03  0.83571232579E+03 -0.44015100546E+03  0.13499760470E+04  0.91506118979E+02 0.  0.
         11    1    3    3    0    0  0.31726295123E+03  0.23469904887E+03 -0.16661240537E+03  0.42836796960E+03  0.00000000000E+00 0.  1.
        -11    1    3    3    0    0  0.64290055500E+03  0.60101327692E+03 -0.27353860009E+03  0.92160807744E+03  0.00000000000E+00 0. -1.
         22    1    1    2    0    0 -0.96016350623E+03 -0.83571232579E+03  0.50388255150E+03  0.13690239866E+04  0.00000000000E+00 0. -1.
<mgrwt>
<rscale>  0 0.27182530E+04</rscale>
<asrwt>0</asrwt>
<pdfrwt beam="1">  1        2 0.21405628E+00 0.27182530E+04</pdfrwt>
<pdfrwt beam="2">  1       -2 0.20425142E+00 0.27182530E+04</pdfrwt>
<totfact> 0.15996110E+00</totfact>
</mgrwt>
</event>
<event>
 6    1  0.1528034E-005  0.5421600E+04  0.7818608E-02  0.7766570E-01
          2   -1    0    0  501    0  0.00000000000E+00  0.00000000000E+00  0.30650675483E+04  0.30650675483E+04  0.00000000000E+00 0.  1.
         -2   -1    0    0    0  501 -0.00000000000E+00 -0.00000000000E+00 -0.23974799103E+04  0.23974799103E+04  0.00000000000E+00 0. -1.
         23    2    1    2    0    0 -0.91729817475E+03  0.14026288146E+04 -0.18118541521E+04  0.24698170794E+04  0.91528160761E+02 0.  0.
         11    1    3    3    0    0 -0.59000035009E+03  0.83587537816E+03 -0.11430871431E+04  0.15340913524E+04  0.00000000000E+00 0. -1.
        -11    1    3    3    0    0 -0.32729782466E+03  0.56675343639E+03 -0.66876700898E+03  0.93572572691E+03  0.00000000000E+00 0.  1.
         22    1    1    2    0    0  0.91729817475E+03 -0.14026288146E+04  0.24794417900E+04  0.29927303793E+04  0.00000000000E+00 0.  1.
<mgrwt>
<rscale>  0 0.54216005E+04</rscale>
<asrwt>0</asrwt>
<pdfrwt beam="1">  1        2 0.47154886E+00 0.54216005E+04</pdfrwt>
<pdfrwt beam="2">  1       -2 0.36884306E+00 0.54216005E+04</pdfrwt>
<totfact> 0.13168500E-02</totfact>
</mgrwt>
</event>
<event>
 6    1  0.1528034E-005  0.2574014E+04  0.7818608E-02  0.8377082E-01
          1   -1    0    0  501    0  0.00000000000E+00  0.00000000000E+00  0.19041200616E+04  0.19041200616E+04  0.00000000000E+00 0. -1.
         -1   -1    0    0    0  501 -0.00000000000E+00 -0.00000000000E+00 -0.86989647888E+03  0.86989647888E+03  0.00000000000E+00 0.  1.
         23    2    1    2    0    0 -0.12685683656E+04 -0.10319685278E+03  0.32321787291E+03  0.13161261441E+04  0.88334280770E+02 0.  0.
         13    1    3    3    0    0 -0.90219032856E+03 -0.11326698780E+03  0.23454559534E+03  0.93903590760E+03  0.00000000000E+00 0. -1.
        -13    1    3    3    0    0 -0.36637803703E+03  0.10070135011E+02  0.88672277566E+02  0.37709023648E+03  0.00000000000E+00 0.  1.
         22    1    1    2    0    0  0.12685683656E+04  0.10319685278E+03  0.71100570985E+03  0.14578903964E+04  0.00000000000E+00 0. -1.
<mgrwt>
<rscale>  0 0.25740142E+04</rscale>
<asrwt>0</asrwt>
<pdfrwt beam="1">  1        1 0.29294155E+00 0.25740142E+04</pdfrwt>
<pdfrwt beam="2">  1       -1 0.13383023E+00 0.25740142E+04</pdfrwt>
<totfact> 0.14392084E+00</totfact>
</mgrwt>
</event>
<event>
 6    1  0.1528034E-005  0.1751760E+04  0.7818608E-02  0.8732382E-01
          2   -1    0    0  501    0  0.00000000000E+00  0.00000000000E+00  0.48186079175E+03  0.48186079175E+03  0.00000000000E+00 0.  1.
         -2   -1    0    0    0  501 -0.00000000000E+00 -0.00000000000E+00 -0.15920898541E+04  0.15920898541E+04  0.00000000000E+00 0. -1.
         23    2    1    2    0    0  0.43003588955E+03 -0.27969095214E+03  0.28045685560E+03  0.59166686149E+03  0.90861059412E+02 0.  0.
         11    1    3    3    0    0  0.28184688473E+03 -0.19091565802E+03  0.13637633043E+03  0.36672190882E+03  0.00000000000E+00 0. -1.
        -11    1    3    3    0    0  0.14818900482E+03 -0.88775294121E+02  0.14408052517E+03  0.22494495266E+03  0.00000000000E+00 0.  1.
         22    1    1    2    0    0 -0.43003588955E+03  0.27969095214E+03 -0.13906859180E+04  0.14822837844E+04  0.00000000000E+00 0. -1.
<mgrwt>
<rscale>  0 0.17517599E+04</rscale>
<asrwt>0</asrwt>
<pdfrwt beam="1">  1        2 0.74132430E-01 0.17517599E+04</pdfrwt>
<pdfrwt beam="2">  1       -2 0.24493690E+00 0.17517599E+04</pdfrwt>
<totfact> 0.42055883E+00</totfact>
</mgrwt>
</event>
<event>
 6    1  0.1528034E-005  0.2714244E+04  0.7818608E-02  0.8330398E-01
          1   -1    0    0  501    0  0.00000000000E+00  0.00000000000E+00  0.18535128512E+04  0.18535128512E+04  0.00000000000E+00 0. -1.
         -1   -1    0    0    0  501 -0.00000000000E+00 -0.00000000000E+00 -0.99367000226E+03  0.99367000226E+03  0.00000000000E+00 0.  1.
         23    2    1    2    0    0  0.17374333573E+03 -0.13097044131E+03  0.18339080103E+04  0.18491132457E+04  0.93065579377E+02 0.  0.
         13    1    3    3    0    0  0.17158831360E+03 -0.10446579272E+03  0.17385230672E+04  0.17500908851E+04  0.00000000000E+00 0.  1.
        -13    1    3    3    0    0  0.21550221281E+01 -0.26504648590E+02  0.95384943119E+02  0.99022360560E+02  0.00000000000E+00 0. -1.
         22    1    1    2    0    0 -0.17374333573E+03  0.13097044131E+03 -0.97406516139E+03  0.99806960771E+03  0.00000000000E+00 0.  1.
<mgrwt>
<rscale>  0 0.27142440E+04</rscale>
<asrwt>0</asrwt>
<pdfrwt beam="1">  1        1 0.28515582E+00 0.27142440E+04</pdfrwt>
<pdfrwt beam="2">  1       -1 0.15287231E+00 0.27142440E+04</pdfrwt>
<totfact> 0.10828404E+00</totfact>
</mgrwt>
</event>
<event>
 6    1  0.1528034E-005  0.3494302E+04  0.7818608E-02  0.8115142E-01
          2   -1    0    0  501    0  0.00000000000E+00  0.00000000000E+00  0.18129254504E+04  0.18129254504E+04  0.00000000000E+00 0. -1.
         -2   -1    0    0    0  501 -0.00000000000E+00 -0.00000000000E+00 -0.16837625944E+04  0.16837625944E+04  0.00000000000E+00 0.  1.
         23    2    1    2    0    0  0.15313058232E+04 -0.80392999721E+03  0.30386186610E+03  0.17583783173E+04  0.91440190317E+02 0.  0.
         11    1    3    3    0    0  0.51486850910E+03 -0.31251037006E+03  0.12844808939E+03  0.61583376387E+03  0.00000000000E+00 0. -1.
        -11    1    3    3    0    0  0.10164373141E+04 -0.49141962715E+03  0.17541377672E+03  0.11425445534E+04  0.00000000000E+00 0.  1.
         22    1    1    2    0    0 -0.15313058232E+04  0.80392999721E+03 -0.17469901007E+03  0.17383097275E+04  0.00000000000E+00 0.  1.
<mgrwt>
<rscale>  0 0.34943017E+04</rscale>
<asrwt>0</asrwt>
<pdfrwt beam="1">  1        2 0.27891161E+00 0.34943017E+04</pdfrwt>
<pdfrwt beam="2">  1       -2 0.25904040E+00 0.34943017E+04</pdfrwt>
<totfact> 0.39460952E-01</totfact>
</mgrwt>
</event>
<event>
 6    1  0.1528034E-005  0.2070060E+04  0.7818608E-02  0.8574548E-01
          1   -1    0    0  501    0  0.00000000000E+00  0.00000000000E+00  0.72151030171E+03  0.72151030171E+03  0.00000000000E+00 0. -1.
         -1   -1    0    0    0  501 -0.00000000000E+00 -0.00000000000E+00 -0.14847837750E+04  0.14847837750E+04  0.00000000000E+00 0.  1.
         23    2    1    2    0    0  0.18684099911E+03 -0.98607925176E+03 -0.12137460819E+03  0.10149519752E+04  0.90187952666E+02 0.  0.
         13    1    3    3    0    0  0.61551560642E+02 -0.48475289992E+03 -0.24906234015E+02  0.48927935690E+03  0.00000000000E+00 0. -1.
        -13    1    3    3    0    0  0.12528943847E+03 -0.50132635184E+03 -0.96468374178E+02  0.52567261832E+03  0.00000000000E+00 0.  1.
         22    1    1    2    0    0 -0.18684099911E+03  0.98607925176E+03 -0.64189886506E+03  0.11913421014E+04  0.00000000000E+00 0.  1.
<mgrwt>
<rscale>  0 0.20700597E+04</rscale>
<asrwt>0</asrwt>
<pdfrwt beam="1">  1        1 0.11100158E+00 0.20700597E+04</pdfrwt>
<pdfrwt beam="2">  1       -1 0.22842827E+00 0.20700597E+04</pdfrwt>
<totfact> 0.23185858E+00</totfact>
</mgrwt>
</event>
<event>
 6    1  0.1528034E-005  0.3323426E+04  0.7818608E-02  0.8156960E-01
          1   -1    0    0  501    0  0.00000000000E+00  0.00000000000E+00  0.14009506021E+04  0.14009506021E+04  0.00000000000E+00 0. -1.
         -1   -1    0    0    0  501 -0.00000000000E+00 -0.00000000000E+00 -0.19710121386E+04  0.19710121386E+04  0.00000000000E+00 0.  1.
         23    2    1    2    0    0  0.16348303063E+04 -0.14709348093E+03 -0.53927452202E+03  0.17302397243E+04  0.92767831815E+02 0.  0.
         11    1    3    3    0    0  0.99357487666E+03 -0.12937114883E+03 -0.35137161596E+03  0.10617862036E+04  0.00000000000E+00 0. -1.
        -11    1    3    3    0    0  0.64125542968E+03 -0.17722332095E+02 -0.18790290606E+03  0.66845352064E+03  0.00000000000E+00 0.  1.
         22    1    1    2    0    0 -0.16348303063E+04  0.14709348093E+03 -0.30787014467E+02  0.16417230165E+04  0.00000000000E+00 0.  1.
<mgrwt>
<rscale>  0 0.33234263E+04</rscale>
<asrwt>0</asrwt>
<pdfrwt beam="1">  1        1 0.21553086E+00 0.33234263E+04</pdfrwt>
<pdfrwt beam="2">  1       -1 0.30323264E+00 0.33234263E+04</pdfrwt>
<totfact> 0.19983767E-01</totfact>
</mgrwt>
</event>
<event>
 6    1  0.1528034E-005  0.2123490E+04  0.7818608E-02  0.8550966E-01
         -2   -1    0    0    0  501 -0.00000000000E+00  0.00000000000E+00  0.94205095069E+03  0.94205095069E+03  0.00000000000E+00 0.  1.
          2   -1    0    0  501    0  0.00000000000E+00 -0.00000000000E+00 -0.11966471790E+04  0.11966471790E+04  0.00000000000E+00 0. -1.
         23    2    1    2    0    0  0.35709643393E+03 -0.44625826122E+03  0.77127107218E+03  0.96436086252E+03  0.92024494282E+02 0.  0.
         11    1    3    3    0    0  0.98337899949E+02 -0.14499270990E+03  0.30640285173E+03  0.35295316409E+03  0.00000000000E+00 0.  1.
        -11    1    3    3    0    0  0.25875853398E+03 -0.30126555132E+03  0.46486822045E+03  0.61140769843E+03  0.00000000000E+00 0. -1.
         22    1    1    2    0    0 -0.35709643393E+03  0.44625826122E+03 -0.10258673004E+04  0.11743372671E+04  0.00000000000E+00 0. -1.
<mgrwt>
<rscale>  0 0.21234902E+04</rscale>
<asrwt>0</asrwt>
<pdfrwt beam="1">  1        2 0.18409957E+00 0.21234902E+04</pdfrwt>
<pdfrwt beam="2">  1       -2 0.14493092E+00 0.21234902E+04</pdfrwt>
<totfact> 0.57428076E+00</totfact>
</mgrwt>
</event>
<event>
 6    1  0.1528034E-005  0.1647711E+04  0.7818608E-02  0.8791762E-01
          1   -1    0    0  501    0  0.00000000000E+00  0.00000000000E+00  0.93390140830E+03  0.93390140830E+03  0.00000000000E+00 0. -1.
         -1   -1    0    0    0  501 -0.00000000000E+00 -0.00000000000E+00 -0.72677666660E+03  0.72677666660E+03  0.00000000000E+00 0.  1.
         23    2    1    2    0    0 -0.75384142340E+03 -0.34970891620E+02  0.43046866922E+03  0.87366958393E+03  0.92170558307E+02 0.  0.
         11    1    3    3    0    0 -0.25422696132E+03  0.91954442698E+01  0.18954988934E+03  0.31724606318E+03  0.00000000000E+00 0. -1.
        -11    1    3    3    0    0 -0.49961446208E+03 -0.44166335890E+02  0.24091877988E+03  0.55642352075E+03  0.00000000000E+00 0.  1.
         22    1    1    2    0    0  0.75384142340E+03  0.34970891620E+02 -0.22334392752E+03  0.78700849097E+03  0.00000000000E+00 0.  1.
<mgrwt>
<rscale>  0 0.16477108E+04</rscale>
<asrwt>0</asrwt>
<pdfrwt beam="1">  1        1 0.14367714E+00 0.16477108E+04</pdfrwt>
<pdfrwt beam="2">  1       -1 0.11181180E+00 0.16477108E+04</pdfrwt>
<totfact> 0.11984719E+01</totfact>
</mgrwt>
</event>
<event>
 6    1  0.1528034E-005  0.2072748E+04  0.7818608E-02  0.8573344E-01
          2   -1    0    0  501    0  0.00000000000E+00  0.00000000000E+00  0.22353856769E+04  0.22353856769E+04  0.00000000000E+00 0. -1.
         -2   -1    0    0    0  501 -0.00000000000E+00 -0.00000000000E+00 -0.48048569464E+03  0.48048569464E+03  0.00000000000E+00 0.  1.
         23    2    1    2    0    0 -0.65105151269E+03  0.64568448598E+03  0.25192057445E+03  0.95526817152E+03  0.91086640496E+02 0.  0.
         13    1    3    3    0    0 -0.40545519698E+03  0.33989549936E+03  0.15373313369E+03  0.55095983850E+03  0.00000000000E+00 0.  1.
        -13    1    3    3    0    0 -0.24559631571E+03  0.30578898662E+03  0.98187440763E+02  0.40430833302E+03  0.00000000000E+00 0. -1.
         22    1    1    2    0    0  0.65105151269E+03 -0.64568448598E+03  0.15029794078E+04  0.17606032000E+04  0.00000000000E+00 0. -1.
<mgrwt>
<rscale>  0 0.20727478E+04</rscale>
<asrwt>0</asrwt>
<pdfrwt beam="1">  1        2 0.34390548E+00 0.20727478E+04</pdfrwt>
<pdfrwt beam="2">  1       -2 0.73920878E-01 0.20727478E+04</pdfrwt>
<totfact> 0.75110589E+00</totfact>
</mgrwt>
</event>
<event>
 6    1  0.1528034E-005  0.2890694E+04  0.7818608E-02  0.8275652E-01
         -1   -1    0    0    0  501 -0.00000000000E+00  0.00000000000E+00  0.11935358293E+04  0.11935358293E+04  0.00000000000E+00 0.  1.
          1   -1    0    0  501    0  0.00000000000E+00 -0.00000000000E+00 -0.17502847692E+04  0.17502847692E+04  0.00000000000E+00 0. -1.
         23    2    1    2    0    0  0.13394801884E+04  0.11379959931E+03  0.25802338075E+03  0.13718754790E+04  0.91152295966E+02 0.  0.
         11    1    3    3    0    0  0.77343138730E+03  0.94334526760E+02  0.18479999127E+03  0.80077846535E+03  0.00000000000E+00 0. -1.
        -11    1    3    3    0    0  0.56604880110E+03  0.19465072552E+02  0.73223389482E+02  0.57109701369E+03  0.00000000000E+00 0.  1.
         22    1    1    2    0    0 -0.13394801884E+04 -0.11379959931E+03 -0.81477232071E+03  0.15719451194E+04  0.00000000000E+00 0. -1.
<mgrwt>
<rscale>  0 0.28906937E+04</rscale>
<asrwt>0</asrwt>
<pdfrwt beam="1">  1        1 0.26927458E+00 0.28906937E+04</pdfrwt>
<pdfrwt beam="2">  1       -1 0.18362090E+00 0.28906937E+04</pdfrwt>
<totfact> 0.74176268E-01</totfact>
</mgrwt>
</event>
<event>
 6    1  0.1528034E-005  0.2825867E+04  0.7818608E-02  0.8295282E-01
         -1   -1    0    0    0  501 -0.00000000000E+00  0.00000000000E+00  0.49883322592E+03  0.49883322592E+03  0.00000000000E+00 0.  1.
          1   -1    0    0  501    0  0.00000000000E+00 -0.00000000000E+00 -0.40021019741E+04  0.40021019741E+04  0.00000000000E+00 0. -1.
         23    2    1    2    0    0 -0.83148751189E+02  0.12344803156E+04 -0.28347842551E+04  0.30946184214E+04  0.99025432366E+02 0.  0.
         11    1    3    3    0    0 -0.27815602949E+02  0.76936859294E+03 -0.16570451139E+04  0.18271563286E+04  0.00000000000E+00 0.  1.
        -11    1    3    3    0    0 -0.55333148240E+02  0.46511172269E+03 -0.11777391412E+04  0.12674620928E+04  0.00000000000E+00 0. -1.
         22    1    1    2    0    0  0.83148751189E+02 -0.12344803156E+04 -0.66848449310E+03  0.14063167787E+04  0.00000000000E+00 0.  1.
<mgrwt>
<rscale>  0 0.28258673E+04</rscale>
<asrwt>0</asrwt>
<pdfrwt beam="1">  1        1 0.61570802E+00 0.28258673E+04</pdfrwt>
<pdfrwt beam="2">  1       -1 0.76743571E-01 0.28258673E+04</pdfrwt>
<totfact> 0.14063197E-01</totfact>
</mgrwt>
</event>
<event>
 6    1  0.1528034E-005  0.3784765E+04  0.7818608E-02  0.8049432E-01
         -2   -1    0    0    0  501 -0.00000000000E+00  0.00000000000E+00  0.18720578684E+04  0.18720578684E+04  0.00000000000E+00 0.  1.
          2   -1    0    0  501    0  0.00000000000E+00 -0.00000000000E+00 -0.19129280073E+04  0.19129280073E+04  0.00000000000E+00 0. -1.
         23    2    1    2    0    0 -0.43023705539E+03  0.84569096826E+03  0.16156798318E+04  0.18759403176E+04  0.91834734569E+02 0.  0.
         13    1    3    3    0    0 -0.16316999295E+03  0.34158034785E+03  0.55937989797E+03  0.67543130730E+03  0.00000000000E+00 0. -1.
        -13    1    3    3    0    0 -0.26706706244E+03  0.50411062041E+03  0.10562999339E+04  0.12005090103E+04  0.00000000000E+00 0.  1.
         22    1    1    2    0    0  0.43023705539E+03 -0.84569096826E+03 -0.16565499708E+04  0.19090455582E+04  0.00000000000E+00 0. -1.
<mgrwt>
<rscale>  0 0.37847652E+04</rscale>
<asrwt>0</asrwt>
<pdfrwt beam="1">  1        2 0.29429661E+00 0.37847652E+04</pdfrwt>
<pdfrwt beam="2">  1       -2 0.28800890E+00 0.37847652E+04</pdfrwt>
<totfact> 0.22563662E-01</totfact>
</mgrwt>
</event>
<event>
 6    1  0.1528034E-005  0.5261994E+03  0.7818608E-02  0.1007158E+00
         -1   -1    0    0    0  501 -0.00000000000E+00  0.00000000000E+00  0.40786147290E+02  0.40786147290E+02  0.00000000000E+00 0.  1.
          1   -1    0    0  501    0  0.00000000000E+00 -0.00000000000E+00 -0.16971805863E+04  0.16971805863E+04  0.00000000000E+00 0. -1.
         23    2    1    2    0    0  0.38950643245E+02 -0.22704845019E+03 -0.12158782473E+04  0.12408523942E+04  0.91030766194E+02 0.  0.
         13    1    3    3    0    0  0.63463431543E+02 -0.19769130758E+03 -0.96574507266E+03  0.98781223196E+03  0.00000000000E+00 0. -1.
        -13    1    3    3    0    0 -0.24512788298E+02 -0.29357142614E+02 -0.25013317467E+03  0.25304016219E+03  0.00000000000E+00 0.  1.
         22    1    1    2    0    0 -0.38950643245E+02  0.22704845019E+03 -0.44051619167E+03  0.49711433943E+03  0.00000000000E+00 0.  1.
<mgrwt>
<rscale>  0 0.52619942E+03</rscale>
<asrwt>0</asrwt>
<pdfrwt beam="1">  1        1 0.26110471E+00 0.52619942E+03</pdfrwt>
<pdfrwt beam="2">  1       -1 0.62747919E-02 0.52619942E+03</pdfrwt>
<totfact> 0.64870364E+02</totfact>
</mgrwt>
</event>
<event>
 6    1  0.1528034E-005  0.6202949E+03  0.7818608E-02  0.9864173E-01
          1   -1    0    0  501    0  0.00000000000E+00  0.00000000000E+00  0.87051107715E+03  0.87051107715E+03  0.00000000000E+00 0. -1.
         -1   -1    0    0    0  501 -0.00000000000E+00 -0.00000000000E+00 -0.11049997051E+03  0.11049997051E+03  0.00000000000E+00 0.  1.
         23    2    1    2    0    0  0.30623528755E+02  0.65149176652E+01  0.86549553835E+03  0.87097827982E+03  0.92414243281E+02 0.  0.
         13    1    3    3    0    0  0.33107581205E+02  0.36719043895E+02  0.25604523748E+03  0.26077492931E+03  0.00000000000E+00 0.  1.
        -13    1    3    3    0    0 -0.24840524501E+01 -0.30204126230E+02  0.60945030087E+03  0.61020335052E+03  0.00000000000E+00 0. -1.
         22    1    1    2    0    0 -0.30623528755E+02 -0.65149176652E+01 -0.10548443171E+03  0.11003276784E+03  0.00000000000E+00 0.  1.
<mgrwt>
<rscale>  0 0.62029492E+03</rscale>
<asrwt>0</asrwt>
<pdfrwt beam="1">  1        1 0.13392478E+00 0.62029492E+03</pdfrwt>
<pdfrwt beam="2">  1       -1 0.16999996E-01 0.62029492E+03</pdfrwt>
<totfact> 0.52200979E+02</totfact>
</mgrwt>
</event>
<event>
 6    1  0.1528034E-005  0.2241378E+04  0.7818608E-02  0.8501400E-01
         -2   -1    0    0    0  501 -0.00000000000E+00  0.00000000000E+00  0.58939093205E+03  0.58939093205E+03  0.00000000000E+00 0.  1.
          2   -1    0    0  501    0  0.00000000000E+00 -0.00000000000E+00 -0.21309183231E+04  0.21309183231E+04  0.00000000000E+00 0. -1.
         23    2    1    2    0    0  0.73278700638E+03  0.45801102330E+03 -0.16345259596E+04  0.18511719656E+04  0.91714990730E+02 0.  0.
         11    1    3    3    0    0  0.45956306953E+03  0.28688943571E+03 -0.11169430528E+04  0.12413966112E+04  0.00000000000E+00 0.  1.
        -11    1    3    3    0    0  0.27322393685E+03  0.17112158759E+03 -0.51758290686E+03  0.60977535444E+03  0.00000000000E+00 0. -1.
         22    1    1    2    0    0 -0.73278700638E+03 -0.45801102330E+03  0.92998568606E+02  0.86913728947E+03  0.00000000000E+00 0.  1.
<mgrwt>
<rscale>  0 0.22413781E+04</rscale>
<asrwt>0</asrwt>
<pdfrwt beam="1">  1        2 0.32783359E+00 0.22413781E+04</pdfrwt>
<pdfrwt beam="2">  1       -2 0.90675529E-01 0.22413781E+04</pdfrwt>
<totfact> 0.53419347E+00</totfact>
</mgrwt>
</event>
<event>
 6    1  0.1528034E-005  0.1319741E+04  0.7818608E-02  0.9014055E-01
          1   -1    0    0  501    0  0.00000000000E+00  0.00000000000E+00  0.40907422518E+03  0.40907422518E+03  0.00000000000E+00 0. -1.
         -1   -1    0    0    0  501 -0.00000000000E+00 -0.00000000000E+00 -0.10644253261E+04  0.10644253261E+04  0.00000000000E+00 0.  1.
         23    2    1    2    0    0 -0.15424699842E+03  0.41754810416E+03  0.20997064887E+03  0.50040125899E+03  0.90416761739E+02 0.  0.
         11    1    3    3    0    0 -0.66284374844E+02  0.30024673544E+03  0.13671699071E+03  0.33650149486E+03  0.00000000000E+00 0.  1.
        -11    1    3    3    0    0 -0.87962623576E+02  0.11730136872E+03  0.73253658152E+02  0.16389976413E+03  0.00000000000E+00 0. -1.
         22    1    1    2    0    0  0.15424699842E+03 -0.41754810416E+03 -0.86532174980E+03  0.97309829230E+03  0.00000000000E+00 0.  1.
<mgrwt>
<rscale>  0 0.13197408E+04</rscale>
<asrwt>0</asrwt>
<pdfrwt beam="1">  1        1 0.62934497E-01 0.13197408E+04</pdfrwt>
<pdfrwt beam="2">  1       -1 0.16375774E+00 0.13197408E+04</pdfrwt>
<totfact> 0.15638552E+01</totfact>
</mgrwt>
</event>
<event>
 6    1  0.1528034E-005  0.7558839E+03  0.7818608E-02  0.9626164E-01
         -1   -1    0    0    0  501 -0.00000000000E+00  0.00000000000E+00  0.24055757386E+03  0.24055757386E+03  0.00000000000E+00 0.  1.
          1   -1    0    0  501    0  0.00000000000E+00 -0.00000000000E+00 -0.59378758628E+03  0.59378758628E+03  0.00000000000E+00 0. -1.
         23    2    1    2    0    0 -0.20834203573E+03 -0.27985298473E+03 -0.35574846589E+02  0.36250948823E+03  0.91779422696E+02 0.  0.
         13    1    3    3    0    0 -0.16473454431E+03 -0.15648606710E+03 -0.43834161204E+02  0.23140179985E+03  0.00000000000E+00 0. -1.
        -13    1    3    3    0    0 -0.43607491423E+02 -0.12336691763E+03  0.82593146156E+01  0.13110768838E+03  0.00000000000E+00 0.  1.
         22    1    1    2    0    0  0.20834203573E+03  0.27985298473E+03 -0.31765516583E+03  0.47183567192E+03  0.00000000000E+00 0.  1.
<mgrwt>
<rscale>  0 0.75588386E+03</rscale>
<asrwt>0</asrwt>
<pdfrwt beam="1">  1        1 0.91351934E-01 0.75588386E+03</pdfrwt>
<pdfrwt beam="2">  1       -1 0.37008858E-01 0.75588386E+03</pdfrwt>
<totfact> 0.24676126E+02</totfact>
</mgrwt>
</event>
<event>
 6    1  0.1528034E-005  0.2988162E+04  0.7818608E-02  0.8247119E-01
          2   -1    0    0  501    0  0.00000000000E+00  0.00000000000E+00  0.33196939660E+04  0.33196939660E+04  0.00000000000E+00 0. -1.
         -2   -1    0    0    0  501 -0.00000000000E+00 -0.00000000000E+00 -0.67243506109E+03  0.67243506109E+03  0.00000000000E+00 0.  1.
         23    2    1    2    0    0 -0.40831441014E+03  0.13542859169E+04  0.19617229834E+04  0.24202605523E+04  0.92157881815E+02 0.  0.
         13    1    3    3    0    0 -0.19608414459E+03  0.79056771944E+03  0.11633340091E+04  0.14201381368E+04  0.00000000000E+00 0. -1.
        -13    1    3    3    0    0 -0.21223026555E+03  0.56371819747E+03  0.79838897432E+03  0.10001224156E+04  0.00000000000E+00 0.  1.
         22    1    1    2    0    0  0.40831441014E+03 -0.13542859169E+04  0.68553592148E+03  0.15718684747E+04  0.00000000000E+00 0.  1.
<mgrwt>
<rscale>  0 0.29881624E+04</rscale>
<asrwt>0</asrwt>
<pdfrwt beam="1">  1        2 0.51072214E+00 0.29881624E+04</pdfrwt>
<pdfrwt beam="2">  1       -2 0.10345155E+00 0.29881624E+04</pdfrwt>
<totfact> 0.70476768E-01</totfact>
</mgrwt>
</event>
<event>
 6    1  0.1528034E-005  0.4038431E+04  0.7818608E-02  0.7996838E-01
         -1   -1    0    0    0  501 -0.00000000000E+00  0.00000000000E+00  0.20024449624E+04  0.20024449624E+04  0.00000000000E+00 0.  1.
          1   -1    0    0  501    0  0.00000000000E+00 -0.00000000000E+00 -0.20361265330E+04  0.20361265330E+04  0.00000000000E+00 0. -1.
         23    2    1    2    0    0  0.67642804780E+03 -0.18831302814E+04  0.24655808702E+03  0.20181089675E+04  0.90765378438E+02 0.  0.
         13    1    3    3    0    0  0.30328791499E+03 -0.94179788830E+03  0.90414309157E+02  0.99354998318E+03  0.00000000000E+00 0. -1.
        -13    1    3    3    0    0  0.37314013281E+03 -0.94133239313E+03  0.15614377786E+03  0.10245589844E+04  0.00000000000E+00 0.  1.
         22    1    1    2    0    0 -0.67642804780E+03  0.18831302814E+04 -0.28023965764E+03  0.20204625278E+04  0.00000000000E+00 0.  1.
<mgrwt>
<rscale>  0 0.40384310E+04</rscale>
<asrwt>0</asrwt>
<pdfrwt beam="1">  1        1 0.31325024E+00 0.40384310E+04</pdfrwt>
<pdfrwt beam="2">  1       -1 0.30806845E+00 0.40384310E+04</pdfrwt>
<totfact> 0.64314740E-02</totfact>
</mgrwt>
</event>
<event>
 6    1  0.1528034E-005  0.1524483E+04  0.7818608E-02  0.8868333E-01
          1   -1    0    0  501    0  0.00000000000E+00  0.00000000000E+00  0.12304853849E+04  0.12304853849E+04  0.00000000000E+00 0. -1.
         -1   -1    0    0    0  501 -0.00000000000E+00 -0.00000000000E+00 -0.47218123839E+03  0.47218123839E+03  0.00000000000E+00 0.  1.
         23    2    1    2    0    0 -0.17119714353E+03  0.21727637649E+03  0.11706204426E+04  0.12061565895E+04  0.89129187095E+02 0.  0.
         13    1    3    3    0    0 -0.60098734449E+02  0.44078812299E+02  0.47254087756E+03  0.47838235810E+03  0.00000000000E+00 0.  1.
        -13    1    3    3    0    0 -0.11109840908E+03  0.17319756419E+03  0.69807956501E+03  0.72777423136E+03  0.00000000000E+00 0. -1.
         22    1    1    2    0    0  0.17119714353E+03 -0.21727637649E+03 -0.41231629604E+03  0.49651003385E+03  0.00000000000E+00 0.  1.
<mgrwt>
<rscale>  0 0.15244830E+04</rscale>
<asrwt>0</asrwt>
<pdfrwt beam="1">  1        1 0.18930544E+00 0.15244830E+04</pdfrwt>
<pdfrwt beam="2">  1       -1 0.72643268E-01 0.15244830E+04</pdfrwt>
<totfact> 0.18731636E+01</totfact>
</mgrwt>
</event>
<event>
 6    1  0.1528034E-005  0.1146979E+04  0.7818608E-02  0.9160575E-01
         -2   -1    0    0    0  501 -0.00000000000E+00  0.00000000000E+00  0.73602794220E+03  0.73602794220E+03  0.00000000000E+00 0.  1.
          2   -1    0    0  501    0  0.00000000000E+00 -0.00000000000E+00 -0.44684438137E+03  0.44684438137E+03  0.00000000000E+00 0. -1.
         23    2    1    2    0    0 -0.52326786358E+03  0.18250711394E+03  0.88238421226E+01  0.56180898093E+03  0.91833366306E+02 0.  0.
         13    1    3    3    0    0 -0.28329661215E+03  0.10768152841E+03  0.49765820309E+02  0.30713013348E+03  0.00000000000E+00 0.  1.
        -13    1    3    3    0    0 -0.23997125143E+03  0.74825585522E+02 -0.40941978186E+02  0.25467884745E+03  0.00000000000E+00 0. -1.
         22    1    1    2    0    0  0.52326786358E+03 -0.18250711394E+03  0.28035971871E+03  0.62106334264E+03  0.00000000000E+00 0.  1.
<mgrwt>
<rscale>  0 0.11469786E+04</rscale>
<asrwt>0</asrwt>
<pdfrwt beam="1">  1        2 0.68745289E-01 0.11469786E+04</pdfrwt>
<pdfrwt beam="2">  1       -2 0.11323507E+00 0.11469786E+04</pdfrwt>
<totfact> 0.42497817E+01</totfact>
</mgrwt>
</event>
<event>
 6    1  0.1528034E-005  0.2695112E+04  0.7818608E-02  0.8336593E-01
         -1   -1    0    0    0  501 -0.00000000000E+00  0.00000000000E+00  0.13736050757E+04  0.13736050757E+04  0.00000000000E+00 0.  1.
          1   -1    0    0  501    0  0.00000000000E+00 -0.00000000000E+00 -0.13220013454E+04  0.13220013454E+04  0.00000000000E+00 0. -1.
         23    2    1    2    0    0  0.65812782563E+03  0.44260769827E+03  0.11135079204E+04  0.13702105110E+04  0.92429142559E+02 0.  0.
         13    1    3    3    0    0  0.18722547385E+03  0.80609404493E+02  0.26030101016E+03  0.33061740734E+03  0.00000000000E+00 0.  1.
        -13    1    3    3    0    0  0.47090235179E+03  0.36199829378E+03  0.85320691021E+03  0.10395931037E+04  0.00000000000E+00 0. -1.
         22    1    1    2    0    0 -0.65812782563E+03 -0.44260769827E+03 -0.10619041901E+04  0.13253959101E+04  0.00000000000E+00 0. -1.
<mgrwt>
<rscale>  0 0.26951124E+04</rscale>
<asrwt>0</asrwt>
<pdfrwt beam="1">  1        1 0.20338482E+00 0.26951124E+04</pdfrwt>
<pdfrwt beam="2">  1       -1 0.21132386E+00 0.26951124E+04</pdfrwt>
<totfact> 0.95967818E-01</totfact>
</mgrwt>
</event>
<event>
 6    1  0.1528034E-005  0.2379230E+04  0.7818608E-02  0.8447321E-01
         -2   -1    0    0    0  501 -0.00000000000E+00  0.00000000000E+00  0.91841303252E+03  0.91841303252E+03  0.00000000000E+00 0. -1.
          2   -1    0    0  501    0  0.00000000000E+00 -0.00000000000E+00 -0.15409013432E+04  0.15409013432E+04  0.00000000000E+00 0.  1.
         23    2    1    2    0    0  0.49813096549E+03  0.10140491368E+04 -0.69071428304E+03  0.13274641675E+04  0.92977332991E+02 0.  0.
         13    1    3    3    0    0  0.20066889063E+03  0.51361442456E+03 -0.34001802436E+03  0.64782716652E+03  0.00000000000E+00 0.  1.
        -13    1    3    3    0    0  0.29746207486E+03  0.50043471227E+03 -0.35069625868E+03  0.67963700097E+03  0.00000000000E+00 0. -1.
         22    1    1    2    0    0 -0.49813096549E+03 -0.10140491368E+04  0.68225972314E+02  0.11318502083E+04  0.00000000000E+00 0. -1.
<mgrwt>
<rscale>  0 0.23792300E+04</rscale>
<asrwt>0</asrwt>
<pdfrwt beam="1">  1        2 0.23706174E+00 0.23792300E+04</pdfrwt>
<pdfrwt beam="2">  1       -2 0.14129432E+00 0.23792300E+04</pdfrwt>
<totfact> 0.38026646E+00</totfact>
</mgrwt>
</event>
<event>
 6    1  0.1528034E-005  0.3614896E+04  0.7818608E-02  0.8087088E-01
          1   -1    0    0  501    0  0.00000000000E+00  0.00000000000E+00  0.38400689598E+04  0.38400689598E+04  0.00000000000E+00 0. -1.
         -1   -1    0    0    0  501 -0.00000000000E+00 -0.00000000000E+00 -0.85073184521E+03  0.85073184521E+03  0.00000000000E+00 0.  1.
         23    2    1    2    0    0  0.63973286759E+03 -0.16029055773E+04  0.80383684047E+03  0.19060250726E+04  0.90628248535E+02 0.  0.
         11    1    3    3    0    0  0.28012999964E+03 -0.77913658279E+03  0.42412972086E+03  0.93027557823E+03  0.00000000000E+00 0.  1.
        -11    1    3    3    0    0  0.35960286795E+03 -0.82376899456E+03  0.37970711961E+03  0.97574949435E+03  0.00000000000E+00 0. -1.
         22    1    1    2    0    0 -0.63973286759E+03  0.16029055773E+04  0.21855002741E+04  0.27847757324E+04  0.00000000000E+00 0. -1.
<mgrwt>
<rscale>  0 0.36148964E+04</rscale>
<asrwt>0</asrwt>
<pdfrwt beam="1">  1        1 0.59077983E+00 0.36148964E+04</pdfrwt>
<pdfrwt beam="2">  1       -1 0.13088182E+00 0.36148964E+04</pdfrwt>
<totfact> 0.52995593E-02</totfact>
</mgrwt>
</event>
<event>
 6    1  0.1528034E-005  0.1356658E+04  0.7818608E-02  0.8985803E-01
         -1   -1    0    0    0  501 -0.00000000000E+00  0.00000000000E+00  0.15645043656E+03  0.15645043656E+03  0.00000000000E+00 0.  1.
          1   -1    0    0  501    0  0.00000000000E+00 -0.00000000000E+00 -0.29410597918E+04  0.29410597918E+04  0.00000000000E+00 0. -1.
         23    2    1    2    0    0 -0.29347015333E+03 -0.55294975386E+03 -0.82175767659E+03  0.10372517801E+04  0.93420635569E+02 0.  0.
         13    1    3    3    0    0 -0.13345660323E+03 -0.31946767004E+03 -0.50706261431E+03  0.61398921161E+03  0.00000000000E+00 0. -1.
        -13    1    3    3    0    0 -0.16001355010E+03 -0.23348208381E+03 -0.31469506228E+03  0.42326256851E+03  0.00000000000E+00 0.  1.
         22    1    1    2    0    0  0.29347015333E+03  0.55294975386E+03 -0.19628516786E+04  0.20602584482E+04  0.00000000000E+00 0. -1.
<mgrwt>
<rscale>  0 0.13566578E+04</rscale>
<asrwt>0</asrwt>
<pdfrwt beam="1">  1        1 0.45247071E+00 0.13566578E+04</pdfrwt>
<pdfrwt beam="2">  1       -1 0.24069299E-01 0.13566578E+04</pdfrwt>
<totfact> 0.97278183E+00</totfact>
</mgrwt>
</event>
<event>
 6    1  0.1528034E-005  0.2624345E+04  0.7818608E-02  0.8359979E-01
          2   -1    0    0  501    0  0.00000000000E+00  0.00000000000E+00  0.30551435387E+04  0.30551435387E+04  0.00000000000E+00 0. -1.
         -2   -1    0    0    0  501 -0.00000000000E+00 -0.00000000000E+00 -0.56357301243E+03  0.56357301243E+03  0.00000000000E+00 0.  1.
         23    2    1    2    0    0  0.43838154991E+03 -0.10653829241E+04  0.21086723584E+04  0.24047024798E+04  0.94211162594E+02 0.  0.
         13    1    3    3    0    0  0.29008449107E+03 -0.76672959867E+03  0.14226689822E+04  0.16419532035E+04  0.00000000000E+00 0.  1.
        -13    1    3    3    0    0  0.14829705884E+03 -0.29865332546E+03  0.68600337617E+03  0.76274927636E+03  0.00000000000E+00 0. -1.
         22    1    1    2    0    0 -0.43838154991E+03  0.10653829241E+04  0.38289816788E+03  0.12140140713E+04  0.00000000000E+00 0.  1.
<mgrwt>
<rscale>  0 0.26243448E+04</rscale>
<asrwt>0</asrwt>
<pdfrwt beam="1">  1        2 0.47002207E+00 0.26243448E+04</pdfrwt>
<pdfrwt beam="2">  1       -2 0.86703542E-01 0.26243448E+04</pdfrwt>
<totfact> 0.16335749E+00</totfact>
</mgrwt>
</event>
<event>
 6    1  0.1528034E-005  0.9943489E+03  0.7818608E-02  0.9314765E-01
          2   -1    0    0  501    0  0.00000000000E+00  0.00000000000E+00  0.45366319902E+03  0.45366319902E+03  0.00000000000E+00 0. -1.
         -2   -1    0    0    0  501 -0.00000000000E+00 -0.00000000000E+00 -0.54485887744E+03  0.54485887744E+03  0.00000000000E+00 0.  1.
         23    2    1    2    0    0  0.14420813388E+03 -0.38750447366E+03  0.22396071715E+03  0.47863818880E+03  0.89333140368E+02 0.  0.
         13    1    3    3    0    0  0.11775388023E+03 -0.27378764034E+03  0.11662125267E+03  0.32004088002E+03  0.00000000000E+00 0.  1.
        -13    1    3    3    0    0  0.26454253649E+02 -0.11371683332E+03  0.10733946448E+03  0.15859730878E+03  0.00000000000E+00 0. -1.
         22    1    1    2    0    0 -0.14420813388E+03  0.38750447366E+03 -0.31515639557E+03  0.51988388767E+03  0.00000000000E+00 0.  1.
<mgrwt>
<rscale>  0 0.99434888E+03</rscale>
<asrwt>0</asrwt>
<pdfrwt beam="1">  1        2 0.69794338E-01 0.99434888E+03</pdfrwt>
<pdfrwt beam="2">  1       -2 0.83824443E-01 0.99434888E+03</pdfrwt>
<totfact> 0.85642884E+01</totfact>
</mgrwt>
</event>
<event>
 6    1  0.1528034E-005  0.7822141E+03  0.7818608E-02  0.9586124E-01
         -2   -1    0    0    0  501 -0.00000000000E+00  0.00000000000E+00  0.29406049190E+03  0.29406049190E+03  0.00000000000E+00 0.  1.
          2   -1    0    0  501    0  0.00000000000E+00 -0.00000000000E+00 -0.52018118086E+03  0.52018118086E+03  0.00000000000E+00 0. -1.
         23    2    1    2    0    0  0.32712224187E+03 -0.19306577265E+03 -0.18315409785E+03  0.43197281234E+03  0.93657532216E+02 0.  0.
         11    1    3    3    0    0  0.97830492397E+02 -0.21413601706E+02 -0.77691642333E+02  0.12674911782E+03  0.00000000000E+00 0.  1.
        -11    1    3    3    0    0  0.22929174948E+03 -0.17165217095E+03 -0.10546245552E+03  0.30522369451E+03  0.00000000000E+00 0. -1.
         22    1    1    2    0    0 -0.32712224187E+03  0.19306577265E+03 -0.42966591108E+02  0.38226886042E+03  0.00000000000E+00 0.  1.
<mgrwt>
<rscale>  0 0.78221412E+03</rscale>
<asrwt>0</asrwt>
<pdfrwt beam="1">  1        2 0.80027874E-01 0.78221412E+03</pdfrwt>
<pdfrwt beam="2">  1       -2 0.45240076E-01 0.78221412E+03</pdfrwt>
<totfact> 0.27436838E+02</totfact>
</mgrwt>
</event>
<event>
 6    1  0.1528034E-005  0.1164327E+04  0.7818608E-02  0.9144667E-01
         -1   -1    0    0    0  501 -0.00000000000E+00  0.00000000000E+00  0.18734919470E+03  0.18734919470E+03  0.00000000000E+00 0.  1.
          1   -1    0    0  501    0  0.00000000000E+00 -0.00000000000E+00 -0.18089979583E+04  0.18089979583E+04  0.00000000000E+00 0. -1.
         23    2    1    2    0    0 -0.14237006202E+03 -0.41973410029E+03 -0.14535204150E+04  0.15223080289E+04  0.90852565657E+02 0.  0.
         13    1    3    3    0    0 -0.10940765101E+03 -0.22373172084E+03 -0.69874548122E+03  0.74180264527E+03  0.00000000000E+00 0. -1.
        -13    1    3    3    0    0 -0.32962411005E+02 -0.19600237946E+03 -0.75477493377E+03  0.78050538367E+03  0.00000000000E+00 0.  1.
         22    1    1    2    0    0  0.14237006202E+03  0.41973410029E+03 -0.16812834857E+03  0.47403912402E+03  0.00000000000E+00 0.  1.
<mgrwt>
<rscale>  0 0.11643269E+04</rscale>
<asrwt>0</asrwt>
<pdfrwt beam="1">  1        1 0.27830736E+00 0.11643269E+04</pdfrwt>
<pdfrwt beam="2">  1       -1 0.28822955E-01 0.11643269E+04</pdfrwt>
<totfact> 0.43668369E+01</totfact>
</mgrwt>
</event>
<event>
 6    1  0.1528034E-005  0.3508026E+04  0.7818608E-02  0.8111891E-01
          2   -1    0    0  501    0  0.00000000000E+00  0.00000000000E+00  0.25183962684E+04  0.25183962684E+04  0.00000000000E+00 0.  1.
         -2   -1    0    0    0  501 -0.00000000000E+00 -0.00000000000E+00 -0.12216349408E+04  0.12216349408E+04  0.00000000000E+00 0. -1.
         23    2    1    2    0    0 -0.34128889891E+03 -0.63471674596E+03  0.23523124301E+04  0.24619343467E+04  0.91670597020E+02 0.  0.
         13    1    3    3    0    0 -0.28070190033E+03 -0.43926427641E+03  0.16457109371E+04  0.17262998436E+04  0.00000000000E+00 0. -1.
        -13    1    3    3    0    0 -0.60586998586E+02 -0.19545246955E+03  0.70660149298E+03  0.73563450308E+03  0.00000000000E+00 0.  1.
         22    1    1    2    0    0  0.34128889891E+03  0.63471674596E+03 -0.10555511025E+04  0.12780968625E+04  0.00000000000E+00 0. -1.
<mgrwt>
<rscale>  0 0.35080256E+04</rscale>
<asrwt>0</asrwt>
<pdfrwt beam="1">  1        2 0.38744558E+00 0.35080256E+04</pdfrwt>
<pdfrwt beam="2">  1       -2 0.18794384E+00 0.35080256E+04</pdfrwt>
<totfact> 0.44626899E-01</totfact>
</mgrwt>
</event>
<event>
 6    1  0.1528034E-005  0.3722512E+04  0.7818608E-02  0.8062991E-01
         -1   -1    0    0    0  501 -0.00000000000E+00  0.00000000000E+00  0.20154529336E+04  0.20154529336E+04  0.00000000000E+00 0.  1.
          1   -1    0    0  501    0  0.00000000000E+00 -0.00000000000E+00 -0.17188565210E+04  0.17188565210E+04  0.00000000000E+00 0. -1.
         23    2    1    2    0    0 -0.13803665500E+04  0.74335800882E+03  0.11525773590E+04  0.19480574226E+04  0.92196593095E+02 0.  0.
         11    1    3    3    0    0 -0.44619006550E+03  0.23134462502E+03  0.42264018715E+03  0.65668153459E+03  0.00000000000E+00 0.  1.
        -11    1    3    3    0    0 -0.93417648445E+03  0.51201338381E+03  0.72993717182E+03  0.12913758880E+04  0.00000000000E+00 0. -1.
         22    1    1    2    0    0  0.13803665500E+04 -0.74335800882E+03 -0.85598094635E+03  0.17862520321E+04  0.00000000000E+00 0. -1.
<mgrwt>
<rscale>  0 0.37225123E+04</rscale>
<asrwt>0</asrwt>
<pdfrwt beam="1">  1        1 0.26443947E+00 0.37225123E+04</pdfrwt>
<pdfrwt beam="2">  1       -1 0.31006968E+00 0.37225123E+04</pdfrwt>
<totfact> 0.10524072E-01</totfact>
</mgrwt>
</event>
<event>
 6    1  0.1528034E-005  0.5916300E+04  0.7818608E-02  0.7700867E-01
          2   -1    0    0  501    0  0.00000000000E+00  0.00000000000E+00  0.28825456760E+04  0.28825456760E+04  0.00000000000E+00 0. -1.
         -2   -1    0    0    0  501 -0.00000000000E+00 -0.00000000000E+00 -0.30357369979E+04  0.30357369979E+04  0.00000000000E+00 0.  1.
         23    2    1    2    0    0  0.11373130356E+04  0.15810300173E+04 -0.23029787008E+04  0.30174685415E+04  0.90932095903E+02 0.  0.
         11    1    3    3    0    0  0.93292706716E+03  0.13338070330E+04 -0.18827010442E+04  0.24887662276E+04  0.00000000000E+00 0.  1.
        -11    1    3    3    0    0  0.20438596844E+03  0.24722298429E+03 -0.42027765669E+03  0.52870231394E+03  0.00000000000E+00 0. -1.
         22    1    1    2    0    0 -0.11373130356E+04 -0.15810300173E+04  0.21497873789E+04  0.29008141325E+04  0.00000000000E+00 0. -1.
<mgrwt>
<rscale>  0 0.59162997E+04</rscale>
<asrwt>0</asrwt>
<pdfrwt beam="1">  1        2 0.44346857E+00 0.59162997E+04</pdfrwt>
<pdfrwt beam="2">  1       -2 0.46703646E+00 0.59162997E+04</pdfrwt>
<totfact> 0.37639803E-03</totfact>
</mgrwt>
</event>
<event>
 6    1  0.1528034E-005  0.2599009E+04  0.7818608E-02  0.8368538E-01
          2   -1    0    0  501    0  0.00000000000E+00  0.00000000000E+00  0.11615137903E+04  0.11615137903E+04  0.00000000000E+00 0. -1.
         -2   -1    0    0    0  501 -0.00000000000E+00 -0.00000000000E+00 -0.14538885956E+04  0.14538885956E+04  0.00000000000E+00 0.  1.
         23    2    1    2    0    0 -0.99070155344E+03 -0.83468662476E+03 -0.21240706078E+03  0.13174862986E+04  0.11163358868E+03 0.  0.
         11    1    3    3    0    0 -0.30211323655E+03 -0.21755142232E+03 -0.10361081545E+03  0.38644046130E+03  0.00000000000E+00 0. -1.
        -11    1    3    3    0    0 -0.68858831688E+03 -0.61713520244E+03 -0.10879624533E+03  0.93104583735E+03  0.00000000000E+00 0.  1.
         22    1    1    2    0    0  0.99070155344E+03  0.83468662476E+03 -0.79967744555E+02  0.12979160873E+04  0.00000000000E+00 0.  1.
<mgrwt>
<rscale>  0 0.25990088E+04</rscale>
<asrwt>0</asrwt>
<pdfrwt beam="1">  1        2 0.17869443E+00 0.25990088E+04</pdfrwt>
<pdfrwt beam="2">  1       -2 0.22367517E+00 0.25990088E+04</pdfrwt>
<totfact> 0.16557000E+00</totfact>
</mgrwt>
</event>
<event>
 6    1  0.1528034E-005  0.4813799E+04  0.7818608E-02  0.7857890E-01
         -2   -1    0    0    0  501 -0.00000000000E+00  0.00000000000E+00  0.16831434835E+04  0.16831434835E+04  0.00000000000E+00 0.  1.
          2   -1    0    0  501    0  0.00000000000E+00 -0.00000000000E+00 -0.34418731417E+04  0.34418731417E+04  0.00000000000E+00 0. -1.
         23    2    1    2    0    0  0.49762076909E+03  0.18552489065E+04 -0.24229605164E+04  0.30925851828E+04  0.61404508985E+02 0.  0.
         13    1    3    3    0    0  0.34234716718E+03  0.13485796351E+04 -0.17220578824E+04  0.22138997189E+04  0.00000000000E+00 0.  1.
        -13    1    3    3    0    0  0.15527360191E+03  0.50666927145E+03 -0.70090263402E+03  0.87868546390E+03  0.00000000000E+00 0. -1.
         22    1    1    2    0    0 -0.49762076909E+03 -0.18552489065E+04  0.66423085827E+03  0.20324314424E+04  0.00000000000E+00 0.  1.
<mgrwt>
<rscale>  0 0.48137995E+04</rscale>
<asrwt>0</asrwt>
<pdfrwt beam="1">  1        2 0.52951894E+00 0.48137995E+04</pdfrwt>
<pdfrwt beam="2">  1       -2 0.25894516E+00 0.48137995E+04</pdfrwt>
<totfact> 0.37269156E-02</totfact>
</mgrwt>
</event>
<event>
 6    1  0.1528034E-005  0.2696386E+04  0.7818608E-02  0.8336178E-01
         -2   -1    0    0    0  501 -0.00000000000E+00  0.00000000000E+00  0.82842440253E+03  0.82842440253E+03  0.00000000000E+00 0. -1.
          2   -1    0    0  501    0  0.00000000000E+00 -0.00000000000E+00 -0.21940743944E+04  0.21940743944E+04  0.00000000000E+00 0.  1.
         23    2    1    2    0    0 -0.11154258430E+04  0.38257178285E+03 -0.14125599258E+04  0.18423562114E+04  0.91732683122E+02 0.  0.
         11    1    3    3    0    0 -0.91252903220E+03  0.31548197266E+03 -0.10988473896E+04  0.14627726055E+04  0.00000000000E+00 0. -1.
        -11    1    3    3    0    0 -0.20289681085E+03  0.67089810184E+02 -0.31371253622E+03  0.37958360589E+03  0.00000000000E+00 0.  1.
         22    1    1    2    0    0  0.11154258430E+04 -0.38257178285E+03  0.46909933949E+02  0.11801425856E+04  0.00000000000E+00 0. -1.
<mgrwt>
<rscale>  0 0.26963863E+04</rscale>
<asrwt>0</asrwt>
<pdfrwt beam="1">  1        2 0.33754990E+00 0.26963863E+04</pdfrwt>
<pdfrwt beam="2">  1       -2 0.12744991E+00 0.26963863E+04</pdfrwt>
<totfact> 0.20849631E+00</totfact>
</mgrwt>
</event>
<event>
 6    1  0.1528034E-005  0.5438681E+04  0.7818608E-02  0.7764183E-01
          2   -1    0    0  501    0  0.00000000000E+00  0.00000000000E+00  0.33082531510E+04  0.33082531510E+04  0.00000000000E+00 0. -1.
         -2   -1    0    0    0  501 -0.00000000000E+00 -0.00000000000E+00 -0.22352623374E+04  0.22352623374E+04  0.00000000000E+00 0.  1.
         23    2    1    2    0    0 -0.22186755405E+04  0.56746684783E+03 -0.95647763370E+03  0.24835674568E+04  0.93370612725E+02 0.  0.
         11    1    3    3    0    0 -0.10311702979E+04  0.28660060745E+03 -0.49136790992E+03  0.11776648566E+04  0.00000000000E+00 0. -1.
        -11    1    3    3    0    0 -0.11875052425E+04  0.28086624039E+03 -0.46510972378E+03  0.13059026002E+04  0.00000000000E+00 0.  1.
         22    1    1    2    0    0  0.22186755405E+04 -0.56746684783E+03  0.20294684473E+04  0.30599480316E+04  0.00000000000E+00 0. -1.
<mgrwt>
<rscale>  0 0.54386813E+04</rscale>
<asrwt>0</asrwt>
<pdfrwt beam="1">  1        2 0.50896202E+00 0.54386813E+04</pdfrwt>
<pdfrwt beam="2">  1       -2 0.34388651E+00 0.54386813E+04</pdfrwt>
<totfact> 0.13131047E-02</totfact>
</mgrwt>
</event>
<event>
 6    1  0.1528034E-005  0.7005018E+03  0.7818608E-02  0.9716374E-01
         -2   -1    0    0    0  501 -0.00000000000E+00  0.00000000000E+00  0.88171424743E+02  0.88171424743E+02  0.00000000000E+00 0.  1.
          2   -1    0    0  501    0  0.00000000000E+00 -0.00000000000E+00 -0.13913315466E+04  0.13913315466E+04  0.00000000000E+00 0. -1.
         23    2    1    2    0    0  0.75154857634E+02  0.14575287684E+03 -0.13020677588E+04  0.13155110599E+04  0.91086478190E+02 0.  0.
         13    1    3    3    0    0  0.46016735633E+02  0.81187377245E+01 -0.34983079694E+03  0.35293772871E+03  0.00000000000E+00 0. -1.
        -13    1    3    3    0    0  0.29138122001E+02  0.13763413912E+03 -0.95223696190E+03  0.96257333124E+03  0.00000000000E+00 0.  1.
         22    1    1    2    0    0 -0.75154857634E+02 -0.14575287684E+03 -0.10923629839E+01  0.16399191136E+03  0.00000000000E+00 0.  1.
<mgrwt>
<rscale>  0 0.70050178E+03</rscale>
<asrwt>0</asrwt>
<pdfrwt beam="1">  1        2 0.21405098E+00 0.70050178E+03</pdfrwt>
<pdfrwt beam="2">  1       -2 0.13564836E-01 0.70050178E+03</pdfrwt>
<totfact> 0.61519685E+02</totfact>
</mgrwt>
</event>
<event>
 6    1  0.1528034E-005  0.4395314E+03  0.7818608E-02  0.1030891E+00
          2   -1    0    0  501    0  0.00000000000E+00  0.00000000000E+00  0.71762339900E+03  0.71762339900E+03  0.00000000000E+00 0.  1.
         -2   -1    0    0    0  501 -0.00000000000E+00 -0.00000000000E+00 -0.67301274653E+02  0.67301274653E+02  0.00000000000E+00 0. -1.
         23    2    1    2    0    0  0.20809245844E+03  0.87788779722E+01  0.28168666418E+03  0.36151985265E+03  0.89273104145E+02 0.  0.
         11    1    3    3    0    0  0.43679420500E+02  0.26777455628E+02  0.11882706797E+03  0.12940168464E+03  0.00000000000E+00 0.  1.
        -11    1    3    3    0    0  0.16441303794E+03 -0.17998577655E+02  0.16285959622E+03  0.23211816801E+03  0.00000000000E+00 0. -1.
         22    1    1    2    0    0 -0.20809245844E+03 -0.87788779722E+01  0.36863546016E+03  0.42340482100E+03  0.00000000000E+00 0.  1.
<mgrwt>
<rscale>  0 0.43953143E+03</rscale>
<asrwt>0</asrwt>
<pdfrwt beam="1">  1        2 0.11040359E+00 0.43953143E+03</pdfrwt>
<pdfrwt beam="2">  1       -2 0.10354043E-01 0.43953143E+03</pdfrwt>
<totfact> 0.25655643E+03</totfact>
</mgrwt>
</event>
<event>
 6    1  0.1528034E-005  0.3099735E+04  0.7818608E-02  0.8215811E-01
         -1   -1    0    0    0  501 -0.00000000000E+00  0.00000000000E+00  0.23096901998E+04  0.23096901998E+04  0.00000000000E+00 0.  1.
          1   -1    0    0  501    0  0.00000000000E+00 -0.00000000000E+00 -0.10400047111E+04  0.10400047111E+04  0.00000000000E+00 0. -1.
         23    2    1    2    0    0  0.53398666962E+03  0.14530536832E+04  0.59460636519E+03  0.16608377255E+04  0.91205545106E+02 0.  0.
         13    1    3    3    0    0  0.24281983065E+03  0.66487778973E+03  0.22332469539E+03  0.74222494232E+03  0.00000000000E+00 0. -1.
        -13    1    3    3    0    0  0.29116683897E+03  0.78817589348E+03  0.37128166980E+03  0.91861278323E+03  0.00000000000E+00 0.  1.
         22    1    1    2    0    0 -0.53398666962E+03 -0.14530536832E+04  0.67507912354E+03  0.16888571854E+04  0.00000000000E+00 0. -1.
<mgrwt>
<rscale>  0 0.30997346E+04</rscale>
<asrwt>0</asrwt>
<pdfrwt beam="1">  1        1 0.16000073E+00 0.30997346E+04</pdfrwt>
<pdfrwt beam="2">  1       -1 0.35533695E+00 0.30997346E+04</pdfrwt>
<totfact> 0.17014930E-01</totfact>
</mgrwt>
</event>
<event>
 6    1  0.2183162E-005  0.4080970E+04  0.7818608E-02  0.7988409E-01
          2   -1    0    0  501    0  0.00000000000E+00  0.00000000000E+00  0.25375630221E+04  0.25375630221E+04  0.00000000000E+00 0. -1.
         -2   -1    0    0    0  501 -0.00000000000E+00 -0.00000000000E+00 -0.16407786003E+04  0.16407786003E+04  0.00000000000E+00 0.  1.
         23    2    1    2    0    0 -0.83342442967E+03  0.18477054798E+04  0.21744238770E+03  0.20405583267E+04  0.89360353138E+02 0.  0.
         13    1    3    3    0    0 -0.30179692788E+03  0.57758749014E+03  0.88013895364E+02  0.65759800807E+03  0.00000000000E+00 0. -1.
        -13    1    3    3    0    0 -0.53162750179E+03  0.12701179897E+04  0.12942849233E+03  0.13829603187E+04  0.00000000000E+00 0.  1.
         22    1    1    2    0    0  0.83342442967E+03 -0.18477054798E+04  0.67934203408E+03  0.21377832957E+04  0.00000000000E+00 0.  1.
<mgrwt>
<rscale>  0 0.40809700E+04</rscale>
<asrwt>0</asrwt>
<pdfrwt beam="1">  1        2 0.39039431E+00 0.40809700E+04</pdfrwt>
<pdfrwt beam="2">  1       -2 0.25242748E+00 0.40809700E+04</pdfrwt>
<totfact> 0.16109015E-01</totfact>
</mgrwt>
</event>
<event>
 6    1  0.1528034E-005  0.1560887E+04  0.7818608E-02  0.8844943E-01
          2   -1    0    0  501    0  0.00000000000E+00  0.00000000000E+00  0.78671082255E+03  0.78671082255E+03  0.00000000000E+00 0.  1.
         -2   -1    0    0    0  501 -0.00000000000E+00 -0.00000000000E+00 -0.77422658175E+03  0.77422658175E+03  0.00000000000E+00 0. -1.
         23    2    1    2    0    0  0.49177514140E+03  0.11428956306E+03 -0.58538143877E+03  0.77841055828E+03  0.91360135986E+02 0.  0.
         11    1    3    3    0    0  0.25903491945E+03  0.13698746386E+02 -0.30497702554E+03  0.40037199110E+03  0.00000000000E+00 0. -1.
        -11    1    3    3    0    0  0.23274022195E+03  0.10059081667E+03 -0.28040441323E+03  0.37803856718E+03  0.00000000000E+00 0.  1.
         22    1    1    2    0    0 -0.49177514140E+03 -0.11428956306E+03  0.59786567958E+03  0.78252684602E+03  0.00000000000E+00 0.  1.
<mgrwt>
<rscale>  0 0.15608875E+04</rscale>
<asrwt>0</asrwt>
<pdfrwt beam="1">  1        2 0.12103243E+00 0.15608875E+04</pdfrwt>
<pdfrwt beam="2">  1       -2 0.11911178E+00 0.15608875E+04</pdfrwt>
<totfact> 0.18322154E+01</totfact>
</mgrwt>
</event>
<event>
 6    1  0.1528034E-005  0.1520640E+04  0.7818608E-02  0.8870842E-01
          2   -1    0    0  501    0  0.00000000000E+00  0.00000000000E+00  0.48375768474E+03  0.48375768474E+03  0.00000000000E+00 0. -1.
         -2   -1    0    0    0  501 -0.00000000000E+00 -0.00000000000E+00 -0.11949922112E+04  0.11949922112E+04  0.00000000000E+00 0.  1.
         23    2    1    2    0    0  0.52145040702E+03  0.40214401287E+03  0.56483970430E+02  0.66730438355E+03  0.92056326910E+02 0.  0.
         11    1    3    3    0    0  0.19017744312E+03  0.17881868596E+03 -0.14854478719E+02  0.26146555768E+03  0.00000000000E+00 0.  1.
        -11    1    3    3    0    0  0.33127296390E+03  0.22332532691E+03  0.71338449149E+02  0.40583882587E+03  0.00000000000E+00 0. -1.
         22    1    1    2    0    0 -0.52145040702E+03 -0.40214401287E+03 -0.76771849690E+03  0.10114455124E+04  0.00000000000E+00 0. -1.
<mgrwt>
<rscale>  0 0.15206402E+04</rscale>
<asrwt>0</asrwt>
<pdfrwt beam="1">  1        2 0.74424260E-01 0.15206402E+04</pdfrwt>
<pdfrwt beam="2">  1       -2 0.18384495E+00 0.15206402E+04</pdfrwt>
<totfact> 0.10520681E+01</totfact>
</mgrwt>
</event>
<event>
 6    1  0.1528034E-005  0.1931896E+04  0.7818608E-02  0.8639141E-01
         -2   -1    0    0    0  501 -0.00000000000E+00  0.00000000000E+00  0.10308494079E+04  0.10308494079E+04  0.00000000000E+00 0.  1.
          2   -1    0    0  501    0  0.00000000000E+00 -0.00000000000E+00 -0.90513231655E+03  0.90513231655E+03  0.00000000000E+00 0. -1.
         23    2    1    2    0    0 -0.72100771034E+03  0.46153744038E+03  0.50653021450E+03  0.99902518219E+03  0.92787548736E+02 0.  0.
         11    1    3    3    0    0 -0.55898498440E+03  0.31028763900E+03  0.38319102345E+03  0.74537104327E+03  0.00000000000E+00 0.  1.
        -11    1    3    3    0    0 -0.16202272595E+03  0.15124980138E+03  0.12333919105E+03  0.25365413892E+03  0.00000000000E+00 0. -1.
         22    1    1    2    0    0  0.72100771034E+03 -0.46153744038E+03 -0.38081312317E+03  0.93695654223E+03  0.00000000000E+00 0. -1.
<mgrwt>
<rscale>  0 0.19318956E+04</rscale>
<asrwt>0</asrwt>
<pdfrwt beam="1">  1        2 0.13925113E+00 0.19318956E+04</pdfrwt>
<pdfrwt beam="2">  1       -2 0.15859222E+00 0.19318956E+04</pdfrwt>
<totfact> 0.70093923E+00</totfact>
</mgrwt>
</event>
<event>
 6    1  0.1528034E-005  0.2687082E+04  0.7818608E-02  0.8339209E-01
          3   -1    0    0  501    0  0.00000000000E+00  0.00000000000E+00  0.17500343935E+04  0.17500343935E+04  0.00000000000E+00 0. -1.
         -3   -1    0    0    0  501 -0.00000000000E+00 -0.00000000000E+00 -0.10314665045E+04  0.10314665045E+04  0.00000000000E+00 0.  1.
         23    2    1    2    0    0 -0.22350441383E+03  0.54173936503E+03  0.16094617914E+04  0.17151389952E+04  0.88874925380E+02 0.  0.
         13    1    3    3    0    0 -0.19271423998E+03  0.40633130656E+03  0.11374983785E+04  0.12231706627E+04  0.00000000000E+00 0. -1.
        -13    1    3    3    0    0 -0.30790173845E+02  0.13540805848E+03  0.47196341289E+03  0.49196833254E+03  0.00000000000E+00 0.  1.
         22    1    1    2    0    0  0.22350441383E+03 -0.54173936503E+03 -0.89089390230E+03  0.10663619028E+04  0.00000000000E+00 0.  1.
<mgrwt>
<rscale>  0 0.26870816E+04</rscale>
<asrwt>0</asrwt>
<pdfrwt beam="1">  1        3 0.26923606E+00 0.26870816E+04</pdfrwt>
<pdfrwt beam="2">  1       -3 0.15868715E+00 0.26870816E+04</pdfrwt>
<totfact> 0.36486354E-02</totfact>
</mgrwt>
</event>
<event>
 6    1  0.1528034E-005  0.3029992E+04  0.7818608E-02  0.8235218E-01
         -1   -1    0    0    0  501 -0.00000000000E+00  0.00000000000E+00  0.23485513309E+04  0.23485513309E+04  0.00000000000E+00 0.  1.
          1   -1    0    0  501    0  0.00000000000E+00 -0.00000000000E+00 -0.97728908810E+03  0.97728908810E+03  0.00000000000E+00 0. -1.
         23    2    1    2    0    0 -0.16249586184E+03 -0.12438862092E+04  0.16159616161E+04  0.20477419917E+04  0.90870861052E+02 0.  0.
         13    1    3    3    0    0 -0.28501863255E+02 -0.34460236165E+03  0.50733610763E+03  0.61396503970E+03  0.00000000000E+00 0. -1.
        -13    1    3    3    0    0 -0.13399399858E+03 -0.89928384758E+03  0.11086255085E+04  0.14337769520E+04  0.00000000000E+00 0.  1.
         22    1    1    2    0    0  0.16249586184E+03  0.12438862092E+04 -0.24469937324E+03  0.12780984273E+04  0.00000000000E+00 0. -1.
<mgrwt>
<rscale>  0 0.30299925E+04</rscale>
<asrwt>0</asrwt>
<pdfrwt beam="1">  1        1 0.15035217E+00 0.30299925E+04</pdfrwt>
<pdfrwt beam="2">  1       -1 0.36131559E+00 0.30299925E+04</pdfrwt>
<totfact> 0.17477934E-01</totfact>
</mgrwt>
</event>
<event>
 6    1  0.1528034E-005  0.3360667E+04  0.7818608E-02  0.8147628E-01
          1   -1    0    0  501    0  0.00000000000E+00  0.00000000000E+00  0.16712992810E+04  0.16712992810E+04  0.00000000000E+00 0. -1.
         -1   -1    0    0    0  501 -0.00000000000E+00 -0.00000000000E+00 -0.16894160718E+04  0.16894160718E+04  0.00000000000E+00 0.  1.
         23    2    1    2    0    0 -0.15316630877E+04  0.55055143413E+03 -0.42188155681E+03  0.16837762715E+04  0.89553272207E+02 0.  0.
         13    1    3    3    0    0 -0.12762983526E+04  0.43763354805E+03 -0.37746267182E+03  0.14010491340E+04  0.00000000000E+00 0.  1.
        -13    1    3    3    0    0 -0.25536473516E+03  0.11291788607E+03 -0.44418884993E+02  0.28272713754E+03  0.00000000000E+00 0. -1.
         22    1    1    2    0    0  0.15316630877E+04 -0.55055143413E+03  0.40376476607E+03  0.16769390813E+04  0.00000000000E+00 0. -1.
<mgrwt>
<rscale>  0 0.33606665E+04</rscale>
<asrwt>0</asrwt>
<pdfrwt beam="1">  1        1 0.25712297E+00 0.33606665E+04</pdfrwt>
<pdfrwt beam="2">  1       -1 0.25991017E+00 0.33606665E+04</pdfrwt>
<totfact> 0.24727857E-01</totfact>
</mgrwt>
</event>
<event>
 6    1  0.1528034E-005  0.5365342E+04  0.7818608E-02  0.7774495E-01
         -1   -1    0    0    0  501 -0.00000000000E+00  0.00000000000E+00  0.27123108002E+04  0.27123108002E+04  0.00000000000E+00 0.  1.
          1   -1    0    0  501    0  0.00000000000E+00 -0.00000000000E+00 -0.26533550694E+04  0.26533550694E+04  0.00000000000E+00 0. -1.
         23    2    1    2    0    0  0.14339090427E+04 -0.41002595962E+03 -0.21995437421E+04  0.26591854431E+04  0.95174139958E+02 0.  0.
         11    1    3    3    0    0  0.59640741617E+03 -0.12580513955E+03 -0.93023185100E+03  0.11121420934E+04  0.00000000000E+00 0. -1.
        -11    1    3    3    0    0  0.83750162654E+03 -0.28422082006E+03 -0.12693118911E+04  0.15470433497E+04  0.00000000000E+00 0.  1.
         22    1    1    2    0    0 -0.14339090427E+04  0.41002595962E+03  0.22584994729E+04  0.27064804265E+04  0.00000000000E+00 0.  1.
<mgrwt>
<rscale>  0 0.53653420E+04</rscale>
<asrwt>0</asrwt>
<pdfrwt beam="1">  1        1 0.40820847E+00 0.53653420E+04</pdfrwt>
<pdfrwt beam="2">  1       -1 0.41727858E+00 0.53653420E+04</pdfrwt>
<totfact> 0.40477607E-03</totfact>
</mgrwt>
</event>
<event>
 6    1  0.1528034E-005  0.2426567E+04  0.7818608E-02  0.8429624E-01
          2   -1    0    0  501    0  0.00000000000E+00  0.00000000000E+00  0.20309323280E+04  0.20309323280E+04  0.00000000000E+00 0.  1.
         -2   -1    0    0    0  501 -0.00000000000E+00 -0.00000000000E+00 -0.72481824977E+03  0.72481824977E+03  0.00000000000E+00 0. -1.
         23    2    1    2    0    0 -0.45009990331E+03  0.27744604011E+03 -0.58420770979E+03  0.79287445065E+03  0.88232750087E+02 0.  0.
         11    1    3    3    0    0 -0.20207509668E+03  0.13557924974E+03 -0.33285791355E+03  0.41232325701E+03  0.00000000000E+00 0.  1.
        -11    1    3    3    0    0 -0.24802480663E+03  0.14186679037E+03 -0.25134979624E+03  0.38055119365E+03  0.00000000000E+00 0. -1.
         22    1    1    2    0    0  0.45009990331E+03 -0.27744604011E+03  0.18903217880E+04  0.19628761271E+04  0.00000000000E+00 0.  1.
<mgrwt>
<rscale>  0 0.24265670E+04</rscale>
<asrwt>0</asrwt>
<pdfrwt beam="1">  1        2 0.31245113E+00 0.24265670E+04</pdfrwt>
<pdfrwt beam="2">  1       -2 0.11151050E+00 0.24265670E+04</pdfrwt>
<totfact> 0.36621626E+00</totfact>
</mgrwt>
</event>
<event>
 6    1  0.1528034E-005  0.1588223E+04  0.7818608E-02  0.8827816E-01
          2   -1    0    0  501    0  0.00000000000E+00  0.00000000000E+00  0.23522571190E+04  0.23522571190E+04  0.00000000000E+00 0. -1.
         -2   -1    0    0    0  501 -0.00000000000E+00 -0.00000000000E+00 -0.26808856443E+03  0.26808856443E+03  0.00000000000E+00 0.  1.
         23    2    1    2    0    0 -0.64240570122E+03 -0.14728585411E+02  0.28319842003E+03  0.70817533492E+03  0.91700292772E+02 0.  0.
         11    1    3    3    0    0 -0.79258524934E+02  0.28016778965E+02  0.43416419309E+02  0.94614159320E+02  0.00000000000E+00 0. -1.
        -11    1    3    3    0    0 -0.56314717628E+03 -0.42745364375E+02  0.23978200072E+03  0.61356117560E+03  0.00000000000E+00 0.  1.
         22    1    1    2    0    0  0.64240570122E+03  0.14728585411E+02  0.18009701346E+04  0.19121703485E+04  0.00000000000E+00 0. -1.
<mgrwt>
<rscale>  0 0.15882232E+04</rscale>
<asrwt>0</asrwt>
<pdfrwt beam="1">  1        2 0.36188570E+00 0.15882232E+04</pdfrwt>
<pdfrwt beam="2">  1       -2 0.41244396E-01 0.15882232E+04</pdfrwt>
<totfact> 0.22659274E+01</totfact>
</mgrwt>
</event>
<event>
 6    1  0.1528034E-005  0.1449537E+04  0.7818608E-02  0.8918721E-01
          1   -1    0    0  501    0  0.00000000000E+00  0.00000000000E+00  0.24930801344E+04  0.24930801344E+04  0.00000000000E+00 0. -1.
         -1   -1    0    0    0  501 -0.00000000000E+00 -0.00000000000E+00 -0.21069897969E+03  0.21069897969E+03  0.00000000000E+00 0.  1.
         23    2    1    2    0    0  0.42318816289E+03  0.51031070297E+02  0.58702494493E+02  0.43961499123E+03  0.90127500258E+02 0.  0.
         13    1    3    3    0    0  0.30131311766E+03  0.76879891859E+02  0.37134374924E+02  0.31317578842E+03  0.00000000000E+00 0.  1.
        -13    1    3    3    0    0  0.12187504523E+03 -0.25848821562E+02  0.21568119569E+02  0.12643920281E+03  0.00000000000E+00 0. -1.
         22    1    1    2    0    0 -0.42318816289E+03 -0.51031070297E+02  0.22236786602E+04  0.22641641229E+04  0.00000000000E+00 0. -1.
<mgrwt>
<rscale>  0 0.14495371E+04</rscale>
<asrwt>0</asrwt>
<pdfrwt beam="1">  1        1 0.38355077E+00 0.14495371E+04</pdfrwt>
<pdfrwt beam="2">  1       -1 0.32415229E-01 0.14495371E+04</pdfrwt>
<totfact> 0.11875590E+01</totfact>
</mgrwt>
</event>
<event>
 6    1  0.1528034E-005  0.3196054E+03  0.7818608E-02  0.1075831E+00
          2   -1    0    0  501    0  0.00000000000E+00  0.00000000000E+00  0.83977278309E+02  0.83977278309E+02  0.00000000000E+00 0. -1.
         -2   -1    0    0    0  501 -0.00000000000E+00 -0.00000000000E+00 -0.30409296991E+03  0.30409296991E+03  0.00000000000E+00 0.  1.
         23    2    1    2    0    0 -0.11249393915E+03  0.94647045569E+02 -0.13475720616E+03  0.21807312878E+03  0.88223779695E+02 0.  0.
         13    1    3    3    0    0 -0.12238386614E+03  0.66833307494E+02 -0.12416001972E+03  0.18670889689E+03  0.00000000000E+00 0. -1.
        -13    1    3    3    0    0  0.98899269885E+01  0.27813738074E+02 -0.10597186440E+02  0.31364231889E+02  0.00000000000E+00 0.  1.
         22    1    1    2    0    0  0.11249393915E+03 -0.94647045569E+02 -0.85358485450E+02  0.16999711944E+03  0.00000000000E+00 0.  1.
<mgrwt>
<rscale>  0 0.31960538E+03</rscale>
<asrwt>0</asrwt>
<pdfrwt beam="1">  1        2 0.12919581E-01 0.31960538E+03</pdfrwt>
<pdfrwt beam="2">  1       -2 0.46783534E-01 0.31960538E+03</pdfrwt>
<totfact> 0.20527403E+03</totfact>
</mgrwt>
</event>
<event>
 6    1  0.1528034E-005  0.1729062E+04  0.7818608E-02  0.8744961E-01
         -2   -1    0    0    0  501 -0.00000000000E+00  0.00000000000E+00  0.47923456620E+03  0.47923456620E+03  0.00000000000E+00 0. -1.
          2   -1    0    0  501    0  0.00000000000E+00 -0.00000000000E+00 -0.15595985022E+04  0.15595985022E+04  0.00000000000E+00 0.  1.
         23    2    1    2    0    0  0.62697331309E+03 -0.23913510417E+03 -0.11800881788E+04  0.13604334384E+04  0.88825093948E+02 0.  0.
         11    1    3    3    0    0  0.48551297155E+03 -0.14872507553E+03 -0.92107463082E+03  0.10517701599E+04  0.00000000000E+00 0.  1.
        -11    1    3    3    0    0  0.14146034154E+03 -0.90410028638E+02 -0.25901354798E+03  0.30866327858E+03  0.00000000000E+00 0. -1.
         22    1    1    2    0    0 -0.62697331309E+03  0.23913510417E+03  0.99724242779E+02  0.67839962999E+03  0.00000000000E+00 0. -1.
<mgrwt>
<rscale>  0 0.17290616E+04</rscale>
<asrwt>0</asrwt>
<pdfrwt beam="1">  1        2 0.23993824E+00 0.17290616E+04</pdfrwt>
<pdfrwt beam="2">  1       -2 0.73728394E-01 0.17290616E+04</pdfrwt>
<totfact> 0.18498183E+01</totfact>
</mgrwt>
</event>
<event>
 6    1  0.1528034E-005  0.8353144E+03  0.7818608E-02  0.9510262E-01
          2   -1    0    0  501    0  0.00000000000E+00  0.00000000000E+00  0.52861008316E+03  0.52861008316E+03  0.00000000000E+00 0. -1.
         -2   -1    0    0    0  501 -0.00000000000E+00 -0.00000000000E+00 -0.32999285094E+03  0.32999285094E+03  0.00000000000E+00 0.  1.
         23    2    1    2    0    0  0.28861133607E+03 -0.28743252482E+03  0.15582281851E+03  0.44903569727E+03  0.10695020813E+03 0.  0.
         13    1    3    3    0    0  0.21841951414E+03 -0.14687751012E+03  0.11100651081E+03  0.28566157000E+03  0.00000000000E+00 0. -1.
        -13    1    3    3    0    0  0.70191821938E+02 -0.14055501470E+03  0.44816307696E+02  0.16337412727E+03  0.00000000000E+00 0.  1.
         22    1    1    2    0    0 -0.28861133607E+03  0.28743252482E+03  0.42794413711E+02  0.40956723682E+03  0.00000000000E+00 0. -1.
<mgrwt>
<rscale>  0 0.83531443E+03</rscale>
<asrwt>0</asrwt>
<pdfrwt beam="1">  1        2 0.81324629E-01 0.83531443E+03</pdfrwt>
<pdfrwt beam="2">  1       -2 0.50768131E-01 0.83531443E+03</pdfrwt>
<totfact> 0.21288937E+02</totfact>
</mgrwt>
</event>
<event>
 6    1  0.1528034E-005  0.1009420E+04  0.7818608E-02  0.9298273E-01
          1   -1    0    0  501    0  0.00000000000E+00  0.00000000000E+00  0.22921416249E+03  0.22921416249E+03  0.00000000000E+00 0. -1.
         -1   -1    0    0    0  501 -0.00000000000E+00 -0.00000000000E+00 -0.11113282069E+04  0.11113282069E+04  0.00000000000E+00 0.  1.
         23    2    1    2    0    0  0.52763830151E+02 -0.75374156027E+02 -0.10981128408E+04  0.11057642502E+04  0.91637769248E+02 0.  0.
         11    1    3    3    0    0  0.20653688911E+02 -0.86342671997E+02 -0.60423847809E+03  0.61072560965E+03  0.00000000000E+00 0.  1.
        -11    1    3    3    0    0  0.32110141240E+02  0.10968515970E+02 -0.49387436273E+03  0.49503864059E+03  0.00000000000E+00 0. -1.
         22    1    1    2    0    0 -0.52763830151E+02  0.75374156027E+02  0.21599879642E+03  0.23477811914E+03  0.00000000000E+00 0. -1.
<mgrwt>
<rscale>  0 0.10094200E+04</rscale>
<asrwt>0</asrwt>
<pdfrwt beam="1">  1        1 0.35263717E-01 0.10094200E+04</pdfrwt>
<pdfrwt beam="2">  1       -1 0.17097357E+00 0.10094200E+04</pdfrwt>
<totfact> 0.30223177E+01</totfact>
</mgrwt>
</event>
<event>
 6    1  0.1528034E-005  0.9693903E+03  0.7818608E-02  0.9342769E-01
         -1   -1    0    0    0  501 -0.00000000000E+00  0.00000000000E+00  0.38341459336E+03  0.38341459336E+03  0.00000000000E+00 0.  1.
          1   -1    0    0  501    0  0.00000000000E+00 -0.00000000000E+00 -0.61272940624E+03  0.61272940624E+03  0.00000000000E+00 0. -1.
         23    2    1    2    0    0 -0.41941720956E+03 -0.16134639420E+03  0.58802347935E+02  0.46233227909E+03  0.91378146002E+02 0.  0.
         11    1    3    3    0    0 -0.21114316296E+03 -0.11377938403E+03  0.65361856821E+02  0.24859476226E+03  0.00000000000E+00 0. -1.
        -11    1    3    3    0    0 -0.20827404660E+03 -0.47567010174E+02 -0.65595088855E+01  0.21373751683E+03  0.00000000000E+00 0.  1.
         22    1    1    2    0    0  0.41941720956E+03  0.16134639420E+03 -0.28811716081E+03  0.53381172051E+03  0.00000000000E+00 0. -1.
<mgrwt>
<rscale>  0 0.96939032E+03</rscale>
<asrwt>0</asrwt>
<pdfrwt beam="1">  1        1 0.94266061E-01 0.96939032E+03</pdfrwt>
<pdfrwt beam="2">  1       -1 0.58986861E-01 0.96939032E+03</pdfrwt>
<totfact> 0.97202473E+01</totfact>
</mgrwt>
</event>
<event>
 6    1  0.1528034E-005  0.2531434E+04  0.7818608E-02  0.8391872E-01
         -1   -1    0    0    0  501 -0.00000000000E+00  0.00000000000E+00  0.87724469667E+03  0.87724469667E+03  0.00000000000E+00 0.  1.
          1   -1    0    0  501    0  0.00000000000E+00 -0.00000000000E+00 -0.18262169253E+04  0.18262169253E+04  0.00000000000E+00 0. -1.
         23    2    1    2    0    0 -0.13443081513E+03  0.49062126042E+03 -0.17108769437E+04  0.17873395450E+04  0.93283800298E+02 0.  0.
         11    1    3    3    0    0 -0.93590809921E+02  0.33596783128E+03 -0.10126338126E+04  0.10710092725E+04  0.00000000000E+00 0. -1.
        -11    1    3    3    0    0 -0.40840005210E+02  0.15465342914E+03 -0.69824313113E+03  0.71633027253E+03  0.00000000000E+00 0.  1.
         22    1    1    2    0    0  0.13443081513E+03 -0.49062126042E+03  0.76190471502E+03  0.91612207702E+03  0.00000000000E+00 0.  1.
<mgrwt>
<rscale>  0 0.25314337E+04</rscale>
<asrwt>0</asrwt>
<pdfrwt beam="1">  1        1 0.28095645E+00 0.25314337E+04</pdfrwt>
<pdfrwt beam="2">  1       -1 0.13496072E+00 0.25314337E+04</pdfrwt>
<totfact> 0.15969208E+00</totfact>
</mgrwt>
</event>
<event>
 6    1  0.1528034E-005  0.1992989E+04  0.7818608E-02  0.8609906E-01
         -2   -1    0    0    0  501 -0.00000000000E+00  0.00000000000E+00  0.45979856008E+03  0.45979856008E+03  0.00000000000E+00 0. -1.
          2   -1    0    0  501    0  0.00000000000E+00 -0.00000000000E+00 -0.21596431616E+04  0.21596431616E+04  0.00000000000E+00 0.  1.
         23    2    1    2    0    0 -0.44075940890E+03  0.75650805591E+03 -0.23479158935E+03  0.91270400789E+03  0.10643411294E+03 0.  0.
         11    1    3    3    0    0 -0.18103744948E+03  0.24445949044E+03 -0.12104587392E+03  0.32739441683E+03  0.00000000000E+00 0.  1.
        -11    1    3    3    0    0 -0.25972195942E+03  0.51204856547E+03 -0.11374571543E+03  0.58530959106E+03  0.00000000000E+00 0. -1.
         22    1    1    2    0    0  0.44075940890E+03 -0.75650805591E+03 -0.14650530122E+04  0.17067377138E+04  0.00000000000E+00 0.  1.
<mgrwt>
<rscale>  0 0.19929885E+04</rscale>
<asrwt>0</asrwt>
<pdfrwt beam="1">  1        2 0.33225279E+00 0.19929885E+04</pdfrwt>
<pdfrwt beam="2">  1       -2 0.70738241E-01 0.19929885E+04</pdfrwt>
<totfact> 0.91882482E+00</totfact>
</mgrwt>
</event>
<event>
 6    1  0.1528034E-005  0.2949091E+04  0.7818608E-02  0.8258420E-01
          2   -1    0    0  501    0  0.00000000000E+00  0.00000000000E+00  0.10849126178E+04  0.10849126178E+04  0.00000000000E+00 0. -1.
         -2   -1    0    0    0  501 -0.00000000000E+00 -0.00000000000E+00 -0.20041095903E+04  0.20041095903E+04  0.00000000000E+00 0.  1.
         23    2    1    2    0    0  0.81962611392E+03  0.11403951268E+04  0.58872989859E+01  0.14073358756E+04  0.90948307405E+02 0.  0.
         13    1    3    3    0    0  0.40051233793E+03  0.53744529549E+03 -0.41121332511E+02  0.67152702289E+03  0.00000000000E+00 0.  1.
        -13    1    3    3    0    0  0.41911377599E+03  0.60294983130E+03  0.47008631496E+02  0.73580885271E+03  0.00000000000E+00 0. -1.
         22    1    1    2    0    0 -0.81962611392E+03 -0.11403951268E+04 -0.92508427148E+03  0.16816863326E+04  0.00000000000E+00 0.  1.
<mgrwt>
<rscale>  0 0.29490906E+04</rscale>
<asrwt>0</asrwt>
<pdfrwt beam="1">  1        2 0.16690963E+00 0.29490906E+04</pdfrwt>
<pdfrwt beam="2">  1       -2 0.30832455E+00 0.29490906E+04</pdfrwt>
<totfact> 0.54066391E-01</totfact>
</mgrwt>
</event>
<event>
 6    1  0.1528034E-005  0.2635954E+04  0.7818608E-02  0.8356090E-01
          2   -1    0    0  501    0  0.00000000000E+00  0.00000000000E+00  0.16712370724E+04  0.16712370724E+04  0.00000000000E+00 0. -1.
         -2   -1    0    0    0  501 -0.00000000000E+00 -0.00000000000E+00 -0.10393877832E+04  0.10393877832E+04  0.00000000000E+00 0.  1.
         23    2    1    2    0    0  0.62009213638E+03 -0.26397400885E+03  0.14791672125E+04  0.16279687707E+04  0.90278130246E+02 0.  0.
         11    1    3    3    0    0  0.50180714789E+03 -0.17411813718E+03  0.11741814617E+04  0.12887317969E+04  0.00000000000E+00 0.  1.
        -11    1    3    3    0    0  0.11828498849E+03 -0.89855871669E+02  0.30498575077E+03  0.33923697373E+03  0.00000000000E+00 0. -1.
         22    1    1    2    0    0 -0.62009213638E+03  0.26397400885E+03 -0.84731792332E+03  0.10826560849E+04  0.00000000000E+00 0.  1.
<mgrwt>
<rscale>  0 0.26359540E+04</rscale>
<asrwt>0</asrwt>
<pdfrwt beam="1">  1        2 0.25711340E+00 0.26359540E+04</pdfrwt>
<pdfrwt beam="2">  1       -2 0.15990581E+00 0.26359540E+04</pdfrwt>
<totfact> 0.22645246E+00</totfact>
</mgrwt>
</event>
<event>
 6    1  0.1528034E-005  0.1109359E+04  0.7818608E-02  0.9196118E-01
         -2   -1    0    0    0  501 -0.00000000000E+00  0.00000000000E+00  0.15634940360E+04  0.15634940360E+04  0.00000000000E+00 0.  1.
          2   -1    0    0  501    0  0.00000000000E+00 -0.00000000000E+00 -0.19678316599E+03  0.19678316599E+03  0.00000000000E+00 0. -1.
         23    2    1    2    0    0  0.24321519469E+03 -0.26290609440E+03  0.13522519064E+04  0.14018329148E+04  0.90978333785E+02 0.  0.
         13    1    3    3    0    0  0.14555188473E+03 -0.21365383498E+03  0.10079062085E+04  0.10405326701E+04  0.00000000000E+00 0.  1.
        -13    1    3    3    0    0  0.97663309962E+02 -0.49252259414E+02  0.34434569791E+03  0.36130024472E+03  0.00000000000E+00 0. -1.
         22    1    1    2    0    0 -0.24321519469E+03  0.26290609440E+03  0.14458963603E+02  0.35844428721E+03  0.00000000000E+00 0. -1.
<mgrwt>
<rscale>  0 0.11093589E+04</rscale>
<asrwt>0</asrwt>
<pdfrwt beam="1">  1        2 0.30274334E-01 0.11093589E+04</pdfrwt>
<pdfrwt beam="2">  1       -2 0.24053754E+00 0.11093589E+04</pdfrwt>
<totfact> 0.12897964E+01</totfact>
</mgrwt>
</event>
<event>
 6    1  0.1528034E-005  0.3494200E+04  0.7818608E-02  0.8115166E-01
          1   -1    0    0  501    0  0.00000000000E+00  0.00000000000E+00  0.22076486956E+04  0.22076486956E+04  0.00000000000E+00 0. -1.
         -1   -1    0    0    0  501 -0.00000000000E+00 -0.00000000000E+00 -0.13826285326E+04  0.13826285326E+04  0.00000000000E+00 0.  1.
         23    2    1    2    0    0  0.58564034966E+03 -0.10658208704E+04 -0.87436751515E+03  0.15005721706E+04  0.90826981509E+02 0.  0.
         11    1    3    3    0    0  0.24829482118E+03 -0.36628423347E+03 -0.33517879017E+03  0.55512095915E+03  0.00000000000E+00 0. -1.
        -11    1    3    3    0    0  0.33734552848E+03 -0.69953663698E+03 -0.53918872498E+03  0.94545121144E+03  0.00000000000E+00 0.  1.
         22    1    1    2    0    0 -0.58564034966E+03  0.10658208704E+04  0.16993876781E+04  0.20897050576E+04  0.00000000000E+00 0. -1.
<mgrwt>
<rscale>  0 0.34941998E+04</rscale>
<asrwt>0</asrwt>
<pdfrwt beam="1">  1        1 0.33963826E+00 0.34941998E+04</pdfrwt>
<pdfrwt beam="2">  1       -1 0.21271208E+00 0.34941998E+04</pdfrwt>
<totfact> 0.21651069E-01</totfact>
</mgrwt>
</event>
<event>
 6    1  0.1528034E-005  0.3781057E+04  0.7818608E-02  0.8050232E-01
          1   -1    0    0  501    0  0.00000000000E+00  0.00000000000E+00  0.21610506212E+04  0.21610506212E+04  0.00000000000E+00 0. -1.
         -1   -1    0    0    0  501 -0.00000000000E+00 -0.00000000000E+00 -0.16538703742E+04  0.16538703742E+04  0.00000000000E+00 0.  1.
         23    2    1    2    0    0  0.12348570951E+04  0.14108186109E+04  0.48965982195E+03  0.19399308185E+04  0.91014511578E+02 0.  0.
         13    1    3    3    0    0  0.39153938356E+03  0.51212626965E+03  0.17520013166E+03  0.66803554627E+03  0.00000000000E+00 0. -1.
        -13    1    3    3    0    0  0.84331771152E+03  0.89869234125E+03  0.31445969029E+03  0.12718952723E+04  0.00000000000E+00 0.  1.
         22    1    1    2    0    0 -0.12348570951E+04 -0.14108186109E+04  0.17520425104E+02  0.18749901769E+04  0.00000000000E+00 0.  1.
<mgrwt>
<rscale>  0 0.37810568E+04</rscale>
<asrwt>0</asrwt>
<pdfrwt beam="1">  1        1 0.33246933E+00 0.37810568E+04</pdfrwt>
<pdfrwt beam="2">  1       -1 0.25444159E+00 0.37810568E+04</pdfrwt>
<totfact> 0.12037202E-01</totfact>
</mgrwt>
</event>
<event>
 6    1  0.1528034E-005  0.2754260E+04  0.7818608E-02  0.8317611E-01
         -1   -1    0    0    0  501 -0.00000000000E+00  0.00000000000E+00  0.97443129390E+03  0.97443129390E+03  0.00000000000E+00 0. -1.
          1   -1    0    0  501    0  0.00000000000E+00 -0.00000000000E+00 -0.19462497175E+04  0.19462497175E+04  0.00000000000E+00 0.  1.
         23    2    1    2    0    0  0.88122226326E+03  0.93783301317E+03  0.29612682318E+02  0.12900530042E+04  0.85301845896E+02 0.  0.
         11    1    3    3    0    0  0.66158033207E+03  0.67018876916E+03  0.51507997268E+02  0.94313021152E+03  0.00000000000E+00 0. -1.
        -11    1    3    3    0    0  0.21964193119E+03  0.26764424401E+03 -0.21895314949E+02  0.34692279272E+03  0.00000000000E+00 0.  1.
         22    1    1    2    0    0 -0.88122226326E+03 -0.93783301317E+03 -0.10014311059E+04  0.16306280072E+04  0.00000000000E+00 0.  1.
<mgrwt>
<rscale>  0 0.27542597E+04</rscale>
<asrwt>0</asrwt>
<pdfrwt beam="1">  1        1 0.29942303E+00 0.27542597E+04</pdfrwt>
<pdfrwt beam="2">  1       -1 0.14991251E+00 0.27542597E+04</pdfrwt>
<totfact> 0.98430124E-01</totfact>
</mgrwt>
</event>
<event>
 6    1  0.1528034E-005  0.2472460E+04  0.7818608E-02  0.8412863E-01
          2   -1    0    0  501    0  0.00000000000E+00  0.00000000000E+00  0.10168208922E+04  0.10168208922E+04  0.00000000000E+00 0.  1.
         -2   -1    0    0    0  501 -0.00000000000E+00 -0.00000000000E+00 -0.15029833362E+04  0.15029833362E+04  0.00000000000E+00 0. -1.
         23    2    1    2    0    0  0.56644251413E+03  0.13348030176E+03 -0.13530625679E+04  0.14756826178E+04  0.90480733489E+02 0.  0.
         11    1    3    3    0    0  0.48458215124E+03  0.13746240599E+03 -0.12126460862E+04  0.13130979799E+04  0.00000000000E+00 0. -1.
        -11    1    3    3    0    0  0.81860362894E+02 -0.39821042317E+01 -0.14041648170E+03  0.16258463796E+03  0.00000000000E+00 0.  1.
         22    1    1    2    0    0 -0.56644251413E+03 -0.13348030176E+03  0.86690012397E+03  0.10441216106E+04  0.00000000000E+00 0.  1.
<mgrwt>
<rscale>  0 0.24724602E+04</rscale>
<asrwt>0</asrwt>
<pdfrwt beam="1">  1        2 0.15643398E+00 0.24724602E+04</pdfrwt>
<pdfrwt beam="2">  1       -2 0.23122820E+00 0.24724602E+04</pdfrwt>
<totfact> 0.18446341E+00</totfact>
</mgrwt>
</event>
<event>
 6    1  0.1528034E-005  0.2314470E+03  0.7818608E-02  0.1125625E+00
          1   -1    0    0  501    0  0.00000000000E+00  0.00000000000E+00  0.19222519783E+04  0.19222519783E+04  0.00000000000E+00 0. -1.
         -1   -1    0    0    0  501 -0.00000000000E+00 -0.00000000000E+00 -0.69667920397E+01  0.69667920397E+01  0.00000000000E+00 0.  1.
         23    2    1    2    0    0 -0.18307650779E+02 -0.72738181813E+02  0.16084345352E+04  0.16133337672E+04  0.10078778251E+03 0.  0.
         11    1    3    3    0    0  0.38204974249E+02 -0.14614886858E+02  0.73782536304E+03  0.73895837590E+03  0.00000000000E+00 0.  1.
        -11    1    3    3    0    0 -0.56512625029E+02 -0.58123294954E+02  0.87060917216E+03  0.87437539127E+03  0.00000000000E+00 0. -1.
         22    1    1    2    0    0  0.18307650779E+02  0.72738181813E+02  0.30685065108E+03  0.31588500319E+03  0.00000000000E+00 0.  1.
<mgrwt>
<rscale>  0 0.23144701E+03</rscale>
<asrwt>0</asrwt>
<pdfrwt beam="1">  1        1 0.29573065E+00 0.23144701E+03</pdfrwt>
<pdfrwt beam="2">  1       -1 0.10718157E-02 0.23144701E+03</pdfrwt>
<totfact> 0.64298582E+03</totfact>
</mgrwt>
</event>
<event>
 6    1  0.1528034E-005  0.3211410E+04  0.7818608E-02  0.8185810E-01
         -1   -1    0    0    0  501 -0.00000000000E+00  0.00000000000E+00  0.13920465502E+04  0.13920465502E+04  0.00000000000E+00 0.  1.
          1   -1    0    0  501    0  0.00000000000E+00 -0.00000000000E+00 -0.18521573656E+04  0.18521573656E+04  0.00000000000E+00 0. -1.
         23    2    1    2    0    0  0.15751999540E+04  0.25899504562E+03 -0.39253468565E+03  0.16464242495E+04  0.91082386282E+02 0.  0.
         11    1    3    3    0    0  0.13013765430E+04  0.17868087642E+03 -0.32340191736E+03  0.13528106159E+04  0.00000000000E+00 0.  1.
        -11    1    3    3    0    0  0.27382341097E+03  0.80314169198E+02 -0.69132768283E+02  0.29361363357E+03  0.00000000000E+00 0. -1.
         22    1    1    2    0    0 -0.15751999540E+04 -0.25899504562E+03 -0.67576129779E+02  0.15977796663E+04  0.00000000000E+00 0.  1.
<mgrwt>
<rscale>  0 0.32114105E+04</rscale>
<asrwt>0</asrwt>
<pdfrwt beam="1">  1        1 0.28494729E+00 0.32114105E+04</pdfrwt>
<pdfrwt beam="2">  1       -1 0.21416101E+00 0.32114105E+04</pdfrwt>
<totfact> 0.37811708E-01</totfact>
</mgrwt>
</event>
<event>
 6    1  0.1528034E-005  0.2425114E+04  0.7818608E-02  0.8430161E-01
          2   -1    0    0  501    0  0.00000000000E+00  0.00000000000E+00  0.34479387773E+04  0.34479387773E+04  0.00000000000E+00 0. -1.
         -2   -1    0    0    0  501 -0.00000000000E+00 -0.00000000000E+00 -0.42642718762E+03  0.42642718762E+03  0.00000000000E+00 0.  1.
         23    2    1    2    0    0 -0.10665364175E+03 -0.10059230733E+04  0.44973528184E+03  0.11108013092E+04  0.91441216272E+02 0.  0.
         11    1    3    3    0    0 -0.98496301152E+02 -0.52957431469E+03  0.21941181948E+03  0.58162876704E+03  0.00000000000E+00 0. -1.
        -11    1    3    3    0    0 -0.81573405941E+01 -0.47634875863E+03  0.23032346236E+03  0.52917254216E+03  0.00000000000E+00 0.  1.
         22    1    1    2    0    0  0.10665364175E+03  0.10059230733E+04  0.25717763078E+04  0.27635646557E+04  0.00000000000E+00 0. -1.
<mgrwt>
<rscale>  0 0.24251143E+04</rscale>
<asrwt>0</asrwt>
<pdfrwt beam="1">  1        2 0.53045210E+00 0.24251143E+04</pdfrwt>
<pdfrwt beam="2">  1       -2 0.65604185E-01 0.24251143E+04</pdfrwt>
<totfact> 0.16998618E+00</totfact>
</mgrwt>
</event>
<event>
 6    1  0.1528034E-005  0.1552657E+04  0.7818608E-02  0.8850173E-01
          2   -1    0    0  501    0  0.00000000000E+00  0.00000000000E+00  0.10011224115E+04  0.10011224115E+04  0.00000000000E+00 0. -1.
         -2   -1    0    0    0  501 -0.00000000000E+00 -0.00000000000E+00 -0.60201009430E+03  0.60201009430E+03  0.00000000000E+00 0.  1.
         23    2    1    2    0    0 -0.38809796696E+02 -0.42605566342E+03 -0.46576648662E+03  0.63822578807E+03  0.85814380203E+02 0.  0.
         11    1    3    3    0    0  0.18609824630E+02 -0.25775955119E+03 -0.28223166274E+03  0.38267613364E+03  0.00000000000E+00 0. -1.
        -11    1    3    3    0    0 -0.57419621326E+02 -0.16829611223E+03 -0.18353482387E+03  0.25554965443E+03  0.00000000000E+00 0.  1.
         22    1    1    2    0    0  0.38809796696E+02  0.42605566342E+03  0.86487880383E+03  0.96490671776E+03  0.00000000000E+00 0. -1.
<mgrwt>
<rscale>  0 0.15526568E+04</rscale>
<asrwt>0</asrwt>
<pdfrwt beam="1">  1        2 0.15401883E+00 0.15526568E+04</pdfrwt>
<pdfrwt beam="2">  1       -2 0.92616938E-01 0.15526568E+04</pdfrwt>
<totfact> 0.23937319E+01</totfact>
</mgrwt>
</event>
<event>
 6    1  0.1528034E-005  0.1037673E+04  0.7818608E-02  0.9268164E-01
         -2   -1    0    0    0  501 -0.00000000000E+00  0.00000000000E+00  0.11272547270E+03  0.11272547270E+03  0.00000000000E+00 0. -1.
          2   -1    0    0  501    0  0.00000000000E+00 -0.00000000000E+00 -0.23880242913E+04  0.23880242913E+04  0.00000000000E+00 0.  1.
         23    2    1    2    0    0 -0.50456332558E+03 -0.11929814966E+02 -0.13966597872E+04  0.14874714126E+04  0.84771292037E+02 0.  0.
         11    1    3    3    0    0 -0.24043103079E+03 -0.15784069685E+01 -0.78864514216E+03  0.82448209937E+03  0.00000000000E+00 0.  1.
        -11    1    3    3    0    0 -0.26413229478E+03 -0.10351407997E+02 -0.60801464507E+03  0.66298931320E+03  0.00000000000E+00 0. -1.
         22    1    1    2    0    0  0.50456332558E+03  0.11929814966E+02 -0.87863903134E+03  0.10132783514E+04  0.00000000000E+00 0. -1.
<mgrwt>
<rscale>  0 0.10376727E+04</rscale>
<asrwt>0</asrwt>
<pdfrwt beam="1">  1        2 0.36738835E+00 0.10376727E+04</pdfrwt>
<pdfrwt beam="2">  1       -2 0.17342380E-01 0.10376727E+04</pdfrwt>
<totfact> 0.11123553E+02</totfact>
</mgrwt>
</event>
<event>
 6    1  0.1528034E-005  0.4247729E+04  0.7818608E-02  0.7956355E-01
          2   -1    0    0  501    0  0.00000000000E+00  0.00000000000E+00  0.40792519880E+04  0.40792519880E+04  0.00000000000E+00 0. -1.
         -2   -1    0    0    0  501 -0.00000000000E+00 -0.00000000000E+00 -0.11057908117E+04  0.11057908117E+04  0.00000000000E+00 0.  1.
         23    2    1    2    0    0 -0.31290765382E+03  0.14155926131E+04 -0.40553477156E+03  0.15081654206E+04  0.91054042820E+02 0.  0.
         13    1    3    3    0    0 -0.24708592345E+03  0.11486022947E+04 -0.29168612013E+03  0.12105451159E+04  0.00000000000E+00 0.  1.
        -13    1    3    3    0    0 -0.65821730368E+02  0.26699031848E+03 -0.11384865143E+03  0.29762030472E+03  0.00000000000E+00 0. -1.
         22    1    1    2    0    0  0.31290765382E+03 -0.14155926131E+04  0.33789959478E+04  0.36768773792E+04  0.00000000000E+00 0. -1.
<mgrwt>
<rscale>  0 0.42477285E+04</rscale>
<asrwt>0</asrwt>
<pdfrwt beam="1">  1        2 0.62757722E+00 0.42477285E+04</pdfrwt>
<pdfrwt beam="2">  1       -2 0.17012167E+00 0.42477285E+04</pdfrwt>
<totfact> 0.48228985E-02</totfact>
</mgrwt>
</event>
<event>
 6    1  0.1528034E-005  0.1564584E+04  0.7818608E-02  0.8842606E-01
         -2   -1    0    0    0  501 -0.00000000000E+00  0.00000000000E+00  0.14432427836E+04  0.14432427836E+04  0.00000000000E+00 0.  1.
          2   -1    0    0  501    0  0.00000000000E+00 -0.00000000000E+00 -0.42403186131E+03  0.42403186131E+03  0.00000000000E+00 0. -1.
         23    2    1    2    0    0 -0.88236910079E+02  0.60202542176E+03 -0.70394129828E+02  0.61929246140E+03  0.91364426812E+02 0.  0.
         13    1    3    3    0    0 -0.27302535604E+02  0.43437517077E+03 -0.29159683735E+02  0.43620809780E+03  0.00000000000E+00 0. -1.
        -13    1    3    3    0    0 -0.60934374475E+02  0.16765025099E+03 -0.41234446093E+02  0.18308436360E+03  0.00000000000E+00 0.  1.
         22    1    1    2    0    0  0.88236910079E+02 -0.60202542176E+03  0.10896050521E+04  0.12479821835E+04  0.00000000000E+00 0.  1.
<mgrwt>
<rscale>  0 0.15645842E+04</rscale>
<asrwt>0</asrwt>
<pdfrwt beam="1">  1        2 0.65235671E-01 0.15645842E+04</pdfrwt>
<pdfrwt beam="2">  1       -2 0.22203735E+00 0.15645842E+04</pdfrwt>
<totfact> 0.68620972E+00</totfact>
</mgrwt>
</event>
<event>
 6    1  0.1528034E-005  0.3265455E+04  0.7818608E-02  0.8171741E-01
          1   -1    0    0  501    0  0.00000000000E+00  0.00000000000E+00  0.29532195044E+04  0.29532195044E+04  0.00000000000E+00 0. -1.
         -1   -1    0    0    0  501 -0.00000000000E+00 -0.00000000000E+00 -0.90267549289E+03  0.90267549289E+03  0.00000000000E+00 0.  1.
         23    2    1    2    0    0  0.57800604912E+03 -0.11505572665E+03 -0.77036783731E+03  0.97407743334E+03  0.89618236597E+02 0.  0.
         11    1    3    3    0    0  0.15465698674E+03 -0.21269229971E+02 -0.14483026372E+03  0.21294827771E+03  0.00000000000E+00 0. -1.
        -11    1    3    3    0    0  0.42334906238E+03 -0.93786496684E+02 -0.62553757359E+03  0.76112915563E+03  0.00000000000E+00 0.  1.
         22    1    1    2    0    0 -0.57800604912E+03  0.11505572665E+03  0.28209118488E+04  0.28818175640E+04  0.00000000000E+00 0. -1.
<mgrwt>
<rscale>  0 0.32654549E+04</rscale>
<asrwt>0</asrwt>
<pdfrwt beam="1">  1        1 0.45434146E+00 0.32654549E+04</pdfrwt>
<pdfrwt beam="2">  1       -1 0.13887315E+00 0.32654549E+04</pdfrwt>
<totfact> 0.23011086E-01</totfact>
</mgrwt>
</event>
<event>
 6    1  0.1528034E-005  0.4022548E+04  0.7818608E-02  0.8000013E-01
          2   -1    0    0  501    0  0.00000000000E+00  0.00000000000E+00  0.33288804060E+04  0.33288804060E+04  0.00000000000E+00 0. -1.
         -2   -1    0    0    0  501 -0.00000000000E+00 -0.00000000000E+00 -0.12151900683E+04  0.12151900683E+04  0.00000000000E+00 0.  1.
         23    2    1    2    0    0 -0.64054365279E+03  0.17968468456E+04  0.34101422163E+03  0.19399707507E+04  0.90780265990E+02 0.  0.
         11    1    3    3    0    0 -0.33606413523E+03  0.94048840501E+03  0.13246937859E+03  0.10074749025E+04  0.00000000000E+00 0. -1.
        -11    1    3    3    0    0 -0.30447951756E+03  0.85635844060E+03  0.20854484304E+03  0.93249584823E+03  0.00000000000E+00 0.  1.
         22    1    1    2    0    0  0.64054365279E+03 -0.17968468456E+04  0.17726761160E+04  0.26040997235E+04  0.00000000000E+00 0.  1.
<mgrwt>
<rscale>  0 0.40225477E+04</rscale>
<asrwt>0</asrwt>
<pdfrwt beam="1">  1        2 0.51213544E+00 0.40225477E+04</pdfrwt>
<pdfrwt beam="2">  1       -2 0.18695232E+00 0.40225477E+04</pdfrwt>
<totfact> 0.13614846E-01</totfact>
</mgrwt>
</event>
<event>
 6    1  0.1528034E-005  0.4310337E+04  0.7818608E-02  0.7944709E-01
          2   -1    0    0  501    0  0.00000000000E+00  0.00000000000E+00  0.23518727174E+04  0.23518727174E+04  0.00000000000E+00 0. -1.
         -2   -1    0    0    0  501 -0.00000000000E+00 -0.00000000000E+00 -0.19749160624E+04  0.19749160624E+04  0.00000000000E+00 0.  1.
         23    2    1    2    0    0  0.16193184597E+04 -0.13144968017E+04 -0.35280082636E+03  0.21171190992E+04  0.87354115480E+02 0.  0.
         13    1    3    3    0    0  0.30155037312E+03 -0.23013385896E+03 -0.32150547580E+02  0.38069394306E+03  0.00000000000E+00 0.  1.
        -13    1    3    3    0    0  0.13177680866E+04 -0.10843629427E+04 -0.32065027878E+03  0.17364251561E+04  0.00000000000E+00 0. -1.
         22    1    1    2    0    0 -0.16193184597E+04  0.13144968017E+04  0.72975748145E+03  0.22096696806E+04  0.00000000000E+00 0. -1.
<mgrwt>
<rscale>  0 0.43103370E+04</rscale>
<asrwt>0</asrwt>
<pdfrwt beam="1">  1        2 0.36182657E+00 0.43103370E+04</pdfrwt>
<pdfrwt beam="2">  1       -2 0.30383324E+00 0.43103370E+04</pdfrwt>
<totfact> 0.98127747E-02</totfact>
</mgrwt>
</event>
<event>
 6    1  0.1528034E-005  0.2224493E+04  0.7818608E-02  0.8508302E-01
          2   -1    0    0  501    0  0.00000000000E+00  0.00000000000E+00  0.25977103912E+04  0.25977103912E+04  0.00000000000E+00 0. -1.
         -2   -1    0    0    0  501 -0.00000000000E+00 -0.00000000000E+00 -0.47622391580E+03  0.47622391580E+03  0.00000000000E+00 0.  1.
         23    2    1    2    0    0 -0.59189420126E+03  0.85172505936E+03  0.51350481659E+03  0.11604611984E+04  0.84903911116E+02 0.  0.
         13    1    3    3    0    0 -0.30157476728E+03  0.48056837113E+03  0.24379004652E+03  0.61751670939E+03  0.00000000000E+00 0.  1.
        -13    1    3    3    0    0 -0.29031943399E+03  0.37115668823E+03  0.26971477007E+03  0.54294448903E+03  0.00000000000E+00 0. -1.
         22    1    1    2    0    0  0.59189420126E+03 -0.85172505936E+03  0.16079816588E+04  0.19134731086E+04  0.00000000000E+00 0. -1.
<mgrwt>
<rscale>  0 0.22244926E+04</rscale>
<asrwt>0</asrwt>
<pdfrwt beam="1">  1        2 0.39964774E+00 0.22244926E+04</pdfrwt>
<pdfrwt beam="2">  1       -2 0.73265220E-01 0.22244926E+04</pdfrwt>
<totfact> 0.46838857E+00</totfact>
</mgrwt>
</event>
<event>
 6    1  0.1528034E-005  0.2325795E+04  0.7818608E-02  0.8467819E-01
          4   -1    0    0  501    0  0.00000000000E+00  0.00000000000E+00  0.11008449754E+04  0.11008449754E+04  0.00000000000E+00 0. -1.
         -4   -1    0    0    0  501 -0.00000000000E+00 -0.00000000000E+00 -0.12284480942E+04  0.12284480942E+04  0.00000000000E+00 0.  1.
         23    2    1    2    0    0  0.16351065594E+03 -0.61420722350E+03 -0.10370889484E+04  0.12197207545E+04  0.90437735491E+02 0.  0.
         11    1    3    3    0    0  0.17283736075E+03 -0.58696732043E+03 -0.97216022267E+03  0.11486944272E+04  0.00000000000E+00 0. -1.
        -11    1    3    3    0    0 -0.93267048132E+01 -0.27239903065E+02 -0.64928725756E+02  0.71026327302E+02  0.00000000000E+00 0.  1.
         22    1    1    2    0    0 -0.16351065594E+03  0.61420722350E+03  0.90948582966E+03  0.11095723151E+04  0.00000000000E+00 0. -1.
<mgrwt>
<rscale>  0 0.23257953E+04</rscale>
<asrwt>0</asrwt>
<pdfrwt beam="1">  1        4 0.16936077E+00 0.23257953E+04</pdfrwt>
<pdfrwt beam="2">  1       -4 0.18899201E+00 0.23257953E+04</pdfrwt>
<totfact> 0.60222473E-02</totfact>
</mgrwt>
</event>
<event>
 6    1  0.1528034E-005  0.4205146E+04  0.7818608E-02  0.7964394E-01
          1   -1    0    0  501    0  0.00000000000E+00  0.00000000000E+00  0.25721395334E+04  0.25721395334E+04  0.00000000000E+00 0. -1.
         -1   -1    0    0    0  501 -0.00000000000E+00 -0.00000000000E+00 -0.17187300501E+04  0.17187300501E+04  0.00000000000E+00 0.  1.
         23    2    1    2    0    0  0.61034176286E+03 -0.15777609686E+04 -0.84542050123E+03  0.18933979867E+04  0.91506123550E+02 0.  0.
         13    1    3    3    0    0  0.19980525930E+03 -0.63239676285E+03 -0.34858806367E+03  0.74924057915E+03  0.00000000000E+00 0. -1.
        -13    1    3    3    0    0  0.41053650356E+03 -0.94536420572E+03 -0.49683243756E+03  0.11441574075E+04  0.00000000000E+00 0.  1.
         22    1    1    2    0    0 -0.61034176286E+03  0.15777609686E+04  0.16988299845E+04  0.23974715969E+04  0.00000000000E+00 0.  1.
<mgrwt>
<rscale>  0 0.42051461E+04</rscale>
<asrwt>0</asrwt>
<pdfrwt beam="1">  1        1 0.39571377E+00 0.42051461E+04</pdfrwt>
<pdfrwt beam="2">  1       -1 0.26442001E+00 0.42051461E+04</pdfrwt>
<totfact> 0.52165814E-02</totfact>
</mgrwt>
</event>
<event>
 6    1  0.1528034E-005  0.2104392E+04  0.7818608E-02  0.8559311E-01
         -2   -1    0    0    0  501 -0.00000000000E+00  0.00000000000E+00  0.10257085798E+04  0.10257085798E+04  0.00000000000E+00 0.  1.
          2   -1    0    0  501    0  0.00000000000E+00 -0.00000000000E+00 -0.10793673322E+04  0.10793673322E+04  0.00000000000E+00 0. -1.
         23    2    1    2    0    0 -0.22626249872E+03  0.18899781817E+03 -0.10351137236E+04  0.10802984952E+04  0.93110279962E+02 0.  0.
         11    1    3    3    0    0 -0.15312363292E+03  0.13126066879E+03 -0.53873266867E+03  0.57524698906E+03  0.00000000000E+00 0. -1.
        -11    1    3    3    0    0 -0.73138865798E+02  0.57737149389E+02 -0.49638105495E+03  0.50505150611E+03  0.00000000000E+00 0.  1.
         22    1    1    2    0    0  0.22626249872E+03 -0.18899781817E+03  0.98145497121E+03  0.10247774169E+04  0.00000000000E+00 0.  1.
<mgrwt>
<rscale>  0 0.21043919E+04</rscale>
<asrwt>0</asrwt>
<pdfrwt beam="1">  1        2 0.16605651E+00 0.21043919E+04</pdfrwt>
<pdfrwt beam="2">  1       -2 0.15780132E+00 0.21043919E+04</pdfrwt>
<totfact> 0.54059865E+00</totfact>
</mgrwt>
</event>
<event>
 6    1  0.1528034E-005  0.2776925E+04  0.7818608E-02  0.8310468E-01
         -2   -1    0    0    0  501 -0.00000000000E+00  0.00000000000E+00  0.75045185946E+03  0.75045185946E+03  0.00000000000E+00 0. -1.
          2   -1    0    0  501    0  0.00000000000E+00 -0.00000000000E+00 -0.25688904257E+04  0.25688904257E+04  0.00000000000E+00 0.  1.
         23    2    1    2    0    0  0.13700021591E+04  0.17662363128E+03 -0.76140567701E+03  0.15799687336E+04  0.91982450735E+02 0.  0.
         13    1    3    3    0    0  0.11024940706E+04  0.12696371019E+03 -0.57255725975E+03  0.12487733081E+04  0.00000000000E+00 0. -1.
        -13    1    3    3    0    0  0.26750808846E+03  0.49659921094E+02 -0.18884841726E+03  0.33119542547E+03  0.00000000000E+00 0.  1.
         22    1    1    2    0    0 -0.13700021591E+04 -0.17662363128E+03 -0.10570328892E+04  0.17393735515E+04  0.00000000000E+00 0.  1.
<mgrwt>
<rscale>  0 0.27769253E+04</rscale>
<asrwt>0</asrwt>
<pdfrwt beam="1">  1        2 0.39521391E+00 0.27769253E+04</pdfrwt>
<pdfrwt beam="2">  1       -2 0.11545413E+00 0.27769253E+04</pdfrwt>
<totfact> 0.16154310E+00</totfact>
</mgrwt>
</event>
<event>
 6    1  0.1528034E-005  0.3957035E+04  0.7818608E-02  0.8013270E-01
         -2   -1    0    0    0  501 -0.00000000000E+00  0.00000000000E+00  0.16304480300E+04  0.16304480300E+04  0.00000000000E+00 0.  1.
          2   -1    0    0  501    0  0.00000000000E+00 -0.00000000000E+00 -0.24008933206E+04  0.24008933206E+04  0.00000000000E+00 0. -1.
         23    2    1    2    0    0  0.10928947373E+04  0.15839164132E+04 -0.84917508827E+03  0.21053588761E+04  0.90705876753E+02 0.  0.
         13    1    3    3    0    0  0.96762494577E+03  0.13485840182E+04 -0.72421469757E+03  0.18109289931E+04  0.00000000000E+00 0.  1.
        -13    1    3    3    0    0  0.12526979154E+03  0.23533239497E+03 -0.12496039070E+03  0.29442988306E+03  0.00000000000E+00 0. -1.
         22    1    1    2    0    0 -0.10928947373E+04 -0.15839164132E+04  0.78729797732E+02  0.19259824744E+04  0.00000000000E+00 0.  1.
<mgrwt>
<rscale>  0 0.39570351E+04</rscale>
<asrwt>0</asrwt>
<pdfrwt beam="1">  1        2 0.36936820E+00 0.39570351E+04</pdfrwt>
<pdfrwt beam="2">  1       -2 0.25083816E+00 0.39570351E+04</pdfrwt>
<totfact> 0.19962183E-01</totfact>
</mgrwt>
</event>
<event>
 6    1  0.1528034E-005  0.2468837E+04  0.7818608E-02  0.8414172E-01
          2   -1    0    0  501    0  0.00000000000E+00  0.00000000000E+00  0.21872060141E+04  0.21872060141E+04  0.00000000000E+00 0.  1.
         -2   -1    0    0    0  501 -0.00000000000E+00 -0.00000000000E+00 -0.69668288588E+03  0.69668288588E+03  0.00000000000E+00 0. -1.
         23    2    1    2    0    0  0.47247379553E+03 -0.70838182028E+03 -0.29503525293E+03  0.90569400987E+03  0.90551357225E+02 0.  0.
         11    1    3    3    0    0  0.37369582743E+03 -0.50427990901E+03 -0.24301665635E+03  0.67305563911E+03  0.00000000000E+00 0. -1.
        -11    1    3    3    0    0  0.98777968094E+02 -0.20410191126E+03 -0.52018596579E+02  0.23263837076E+03  0.00000000000E+00 0.  1.
         22    1    1    2    0    0 -0.47247379553E+03  0.70838182028E+03  0.17855583811E+04  0.19781948901E+04  0.00000000000E+00 0.  1.
<mgrwt>
<rscale>  0 0.24688370E+04</rscale>
<asrwt>0</asrwt>
<pdfrwt beam="1">  1        2 0.33649323E+00 0.24688370E+04</pdfrwt>
<pdfrwt beam="2">  1       -2 0.10718198E+00 0.24688370E+04</pdfrwt>
<totfact> 0.32837403E+00</totfact>
</mgrwt>
</event>
<event>
 6    1  0.2024677E-005  0.3975025E+04  0.7818608E-02  0.8009604E-01
          2   -1    0    0  501    0  0.00000000000E+00  0.00000000000E+00  0.22024950222E+04  0.22024950222E+04  0.00000000000E+00 0. -1.
         -2   -1    0    0    0  501 -0.00000000000E+00 -0.00000000000E+00 -0.17935144970E+04  0.17935144970E+04  0.00000000000E+00 0.  1.
         23    2    1    2    0    0 -0.38878632932E+03 -0.25463334832E+03 -0.17369175012E+04  0.18003612568E+04  0.91789417514E+02 0.  0.
         11    1    3    3    0    0 -0.10471383293E+03 -0.96774058550E+02 -0.67191892176E+03  0.68688080672E+03  0.00000000000E+00 0. -1.
        -11    1    3    3    0    0 -0.28407249639E+03 -0.15785928977E+03 -0.10649985794E+04  0.11134804501E+04  0.00000000000E+00 0.  1.
         22    1    1    2    0    0  0.38878632932E+03  0.25463334832E+03  0.21458980265E+04  0.21956482624E+04  0.00000000000E+00 0. -1.
<mgrwt>
<rscale>  0 0.39750254E+04</rscale>
<asrwt>0</asrwt>
<pdfrwt beam="1">  1        2 0.33884539E+00 0.39750254E+04</pdfrwt>
<pdfrwt beam="2">  1       -2 0.27592531E+00 0.39750254E+04</pdfrwt>
<totfact> 0.18144814E-01</totfact>
</mgrwt>
</event>
<event>
 6    1  0.1528034E-005  0.8950829E+03  0.7818608E-02  0.9431749E-01
         -1   -1    0    0    0  501 -0.00000000000E+00  0.00000000000E+00  0.66334095067E+02  0.66334095067E+02  0.00000000000E+00 0.  1.
          1   -1    0    0  501    0  0.00000000000E+00 -0.00000000000E+00 -0.30194628021E+04  0.30194628021E+04  0.00000000000E+00 0. -1.
         23    2    1    2    0    0  0.27100173715E+03 -0.33320425903E+03 -0.11148283071E+04  0.11979898678E+04  0.88716116007E+02 0.  0.
         13    1    3    3    0    0  0.24003231161E+03 -0.25193582589E+03 -0.94812001857E+03  0.10099597718E+04  0.00000000000E+00 0. -1.
        -13    1    3    3    0    0  0.30969425537E+02 -0.81268433135E+02 -0.16670828849E+03  0.18803009598E+03  0.00000000000E+00 0.  1.
         22    1    1    2    0    0 -0.27100173715E+03  0.33320425903E+03 -0.18383003999E+04  0.18878070294E+04  0.00000000000E+00 0. -1.
<mgrwt>
<rscale>  0 0.89508286E+03</rscale>
<asrwt>0</asrwt>
<pdfrwt beam="1">  1        1 0.46453286E+00 0.89508286E+03</pdfrwt>
<pdfrwt beam="2">  1       -1 0.10205243E-01 0.89508286E+03</pdfrwt>
<totfact> 0.36739345E+01</totfact>
</mgrwt>
</event>
<event>
 6    1  0.1528034E-005  0.1025863E+04  0.7818608E-02  0.9280625E-01
         -2   -1    0    0    0  501 -0.00000000000E+00  0.00000000000E+00  0.17222226955E+03  0.17222226955E+03  0.00000000000E+00 0.  1.
          2   -1    0    0  501    0  0.00000000000E+00 -0.00000000000E+00 -0.15276696954E+04  0.15276696954E+04  0.00000000000E+00 0. -1.
         23    2    1    2    0    0 -0.42790497024E+03  0.14638425729E+03 -0.29642608470E+03  0.54834638820E+03  0.91018258719E+02 0.  0.
         11    1    3    3    0    0 -0.33642546950E+03  0.11966603239E+03 -0.27492290943E+03  0.45064915618E+03  0.00000000000E+00 0. -1.
        -11    1    3    3    0    0 -0.91479500743E+02  0.26718224903E+02 -0.21503175274E+02  0.97697232023E+02  0.00000000000E+00 0.  1.
         22    1    1    2    0    0  0.42790497024E+03 -0.14638425729E+03 -0.10590213412E+04  0.11515455768E+04  0.00000000000E+00 0. -1.
<mgrwt>
<rscale>  0 0.10258630E+04</rscale>
<asrwt>0</asrwt>
<pdfrwt beam="1">  1        2 0.23502610E+00 0.10258630E+04</pdfrwt>
<pdfrwt beam="2">  1       -2 0.26495735E-01 0.10258630E+04</pdfrwt>
<totfact> 0.15742475E+02</totfact>
</mgrwt>
</event>
<event>
 6    1  0.1528034E-005  0.7498312E+03  0.7818608E-02  0.9635615E-01
         -1   -1    0    0    0  501 -0.00000000000E+00  0.00000000000E+00  0.21952762179E+03  0.21952762179E+03  0.00000000000E+00 0.  1.
          1   -1    0    0  501    0  0.00000000000E+00 -0.00000000000E+00 -0.64029164627E+03  0.64029164627E+03  0.00000000000E+00 0. -1.
         23    2    1    2    0    0  0.30014794275E+03 -0.43689025313E+02  0.27958877905E+02  0.31820154161E+03  0.92048920476E+02 0.  0.
         13    1    3    3    0    0  0.22149776893E+03 -0.18853380395E+02 -0.19314398870E+02  0.22313618621E+03  0.00000000000E+00 0. -1.
        -13    1    3    3    0    0  0.78650173821E+02 -0.24835644918E+02  0.47273276775E+02  0.95065355402E+02  0.00000000000E+00 0.  1.
         22    1    1    2    0    0 -0.30014794275E+03  0.43689025313E+02 -0.44872290238E+03  0.54161772644E+03  0.00000000000E+00 0. -1.
<mgrwt>
<rscale>  0 0.74983119E+03</rscale>
<asrwt>0</asrwt>
<pdfrwt beam="1">  1        1 0.98506406E-01 0.74983119E+03</pdfrwt>
<pdfrwt beam="2">  1       -1 0.33773481E-01 0.74983119E+03</pdfrwt>
<totfact> 0.26048632E+02</totfact>
</mgrwt>
</event>
<event>
 6    1  0.1528034E-005  0.3287287E+04  0.7818608E-02  0.8166138E-01
          2   -1    0    0  501    0  0.00000000000E+00  0.00000000000E+00  0.14433378552E+04  0.14433378552E+04  0.00000000000E+00 0. -1.
         -2   -1    0    0    0  501 -0.00000000000E+00 -0.00000000000E+00 -0.18717470021E+04  0.18717470021E+04  0.00000000000E+00 0.  1.
         23    2    1    2    0    0 -0.10767536431E+04 -0.46276780456E+03 -0.13746985790E+04  0.18087594813E+04  0.90896806542E+02 0.  0.
         11    1    3    3    0    0 -0.84889669919E+03 -0.35212433655E+03 -0.11303209060E+04  0.14567918536E+04  0.00000000000E+00 0. -1.
        -11    1    3    3    0    0 -0.22785694393E+03 -0.11064346801E+03 -0.24437767297E+03  0.35196762771E+03  0.00000000000E+00 0.  1.
         22    1    1    2    0    0  0.10767536431E+04  0.46276780456E+03  0.94628943213E+03  0.15063253760E+04  0.00000000000E+00 0. -1.
<mgrwt>
<rscale>  0 0.32872866E+04</rscale>
<asrwt>0</asrwt>
<pdfrwt beam="1">  1        2 0.22205198E+00 0.32872866E+04</pdfrwt>
<pdfrwt beam="2">  1       -2 0.28796108E+00 0.32872866E+04</pdfrwt>
<totfact> 0.43029389E-01</totfact>
</mgrwt>
</event>
<event>
 6    1  0.1528034E-005  0.1283940E+04  0.7818608E-02  0.9042398E-01
          1   -1    0    0  501    0  0.00000000000E+00  0.00000000000E+00  0.61573234552E+03  0.61573234552E+03  0.00000000000E+00 0. -1.
         -1   -1    0    0    0  501 -0.00000000000E+00 -0.00000000000E+00 -0.66932619250E+03  0.66932619250E+03  0.00000000000E+00 0.  1.
         23    2    1    2    0    0 -0.40874104099E+03  0.31242307338E+03 -0.40586671401E+03  0.66154142662E+03  0.90729566497E+02 0.  0.
         13    1    3    3    0    0 -0.17183945015E+03  0.17510606422E+03 -0.22870487433E+03  0.33540550069E+03  0.00000000000E+00 0.  1.
        -13    1    3    3    0    0 -0.23690159083E+03  0.13731700916E+03 -0.17716183968E+03  0.32613592593E+03  0.00000000000E+00 0. -1.
         22    1    1    2    0    0  0.40874104099E+03 -0.31242307338E+03  0.35227286703E+03  0.62351711140E+03  0.00000000000E+00 0. -1.
<mgrwt>
<rscale>  0 0.12839405E+04</rscale>
<asrwt>0</asrwt>
<pdfrwt beam="1">  1        1 0.94728053E-01 0.12839405E+04</pdfrwt>
<pdfrwt beam="2">  1       -1 0.10297326E+00 0.12839405E+04</pdfrwt>
<totfact> 0.28918917E+01</totfact>
</mgrwt>
</event>
<event>
 6    1  0.1528034E-005  0.3316863E+04  0.7818608E-02  0.8158618E-01
         -2   -1    0    0    0  501 -0.00000000000E+00  0.00000000000E+00  0.10532151496E+04  0.10532151496E+04  0.00000000000E+00 0.  1.
          2   -1    0    0  501    0  0.00000000000E+00 -0.00000000000E+00 -0.26114276799E+04  0.26114276799E+04  0.00000000000E+00 0. -1.
         23    2    1    2    0    0 -0.13993370724E+04 -0.72365669974E+03 -0.13477437959E+04  0.20752654830E+04  0.92142411419E+02 0.  0.
         13    1    3    3    0    0 -0.94370011544E+03 -0.43936755206E+03 -0.89707160557E+03  0.13741729219E+04  0.00000000000E+00 0. -1.
        -13    1    3    3    0    0 -0.45563695700E+03 -0.28428914768E+03 -0.45067219036E+03  0.70109256110E+03  0.00000000000E+00 0.  1.
         22    1    1    2    0    0  0.13993370724E+04  0.72365669974E+03 -0.21046873443E+03  0.15893773465E+04  0.00000000000E+00 0.  1.
<mgrwt>
<rscale>  0 0.33168631E+04</rscale>
<asrwt>0</asrwt>
<pdfrwt beam="1">  1        2 0.40175810E+00 0.33168631E+04</pdfrwt>
<pdfrwt beam="2">  1       -2 0.16203310E+00 0.33168631E+04</pdfrwt>
<totfact> 0.60803711E-01</totfact>
</mgrwt>
</event>
<event>
 6    1  0.1528034E-005  0.6694204E+03  0.7818608E-02  0.9771005E-01
          2   -1    0    0  501    0  0.00000000000E+00  0.00000000000E+00  0.12071568426E+04  0.12071568426E+04  0.00000000000E+00 0.  1.
         -2   -1    0    0    0  501 -0.00000000000E+00 -0.00000000000E+00 -0.92805604962E+02  0.92805604962E+02  0.00000000000E+00 0. -1.
         23    2    1    2    0    0 -0.16772627518E+03 -0.27370108564E+03  0.68646636610E+03  0.76505137930E+03  0.10499120686E+03 0.  0.
         11    1    3    3    0    0 -0.63117691530E+02 -0.95817207905E+02  0.36884050439E+03  0.38627464063E+03  0.00000000000E+00 0.  1.
        -11    1    3    3    0    0 -0.10460858365E+03 -0.17788387773E+03  0.31762586170E+03  0.37877673866E+03  0.00000000000E+00 0. -1.
         22    1    1    2    0    0  0.16772627518E+03  0.27370108564E+03  0.42788487157E+03  0.53491106829E+03  0.00000000000E+00 0.  1.
<mgrwt>
<rscale>  0 0.66942041E+03</rscale>
<asrwt>0</asrwt>
<pdfrwt beam="1">  1        2 0.18571643E+00 0.66942041E+03</pdfrwt>
<pdfrwt beam="2">  1       -2 0.14277786E-01 0.66942041E+03</pdfrwt>
<totfact> 0.72166750E+02</totfact>
</mgrwt>
</event>
<event>
 6    1  0.1528034E-005  0.6033367E+04  0.7818608E-02  0.7686278E-01
         -2   -1    0    0    0  501 -0.00000000000E+00  0.00000000000E+00  0.26004274896E+04  0.26004274896E+04  0.00000000000E+00 0.  1.
          2   -1    0    0  501    0  0.00000000000E+00 -0.00000000000E+00 -0.34995701959E+04  0.34995701959E+04  0.00000000000E+00 0. -1.
         23    2    1    2    0    0  0.35743941676E+03  0.18013509544E+04  0.19691303478E+04  0.26941764174E+04  0.92108871218E+02 0.  0.
         11    1    3    3    0    0  0.13727151085E+03  0.92634776458E+03  0.99406006969E+03  0.13656936226E+04  0.00000000000E+00 0. -1.
        -11    1    3    3    0    0  0.22016790591E+03  0.87500318980E+03  0.97507027811E+03  0.13284827948E+04  0.00000000000E+00 0.  1.
         22    1    1    2    0    0 -0.35743941676E+03 -0.18013509544E+04 -0.28682730541E+04  0.34058212681E+04  0.00000000000E+00 0. -1.
<mgrwt>
<rscale>  0 0.60333667E+04</rscale>
<asrwt>0</asrwt>
<pdfrwt beam="1">  1        2 0.53839542E+00 0.60333667E+04</pdfrwt>
<pdfrwt beam="2">  1       -2 0.40006577E+00 0.60333667E+04</pdfrwt>
<totfact> 0.40467141E-03</totfact>
</mgrwt>
</event>
<event>
 6    1  0.1528034E-005  0.1145920E+04  0.7818608E-02  0.9161556E-01
         -1   -1    0    0    0  501 -0.00000000000E+00  0.00000000000E+00  0.53379238556E+03  0.53379238556E+03  0.00000000000E+00 0.  1.
          1   -1    0    0  501    0  0.00000000000E+00 -0.00000000000E+00 -0.61500119414E+03  0.61500119414E+03  0.00000000000E+00 0. -1.
         23    2    1    2    0    0 -0.25803046498E+03  0.22614119155E+03 -0.49655883187E+03  0.61005876440E+03  0.88777604928E+02 0.  0.
         11    1    3    3    0    0 -0.90658821886E+02  0.13687418039E+03 -0.24719144318E+03  0.29674428862E+03  0.00000000000E+00 0. -1.
        -11    1    3    3    0    0 -0.16737164310E+03  0.89267011157E+02 -0.24936738869E+03  0.31331447578E+03  0.00000000000E+00 0.  1.
         22    1    1    2    0    0  0.25803046498E+03 -0.22614119155E+03  0.41535002329E+03  0.53873481530E+03  0.00000000000E+00 0.  1.
<mgrwt>
<rscale>  0 0.11459196E+04</rscale>
<asrwt>0</asrwt>
<pdfrwt beam="1">  1        1 0.94615568E-01 0.11459196E+04</pdfrwt>
<pdfrwt beam="2">  1       -1 0.82121906E-01 0.11459196E+04</pdfrwt>
<totfact> 0.48438040E+01</totfact>
</mgrwt>
</event>
<event>
 6    1  0.1528034E-005  0.4767493E+04  0.7818608E-02  0.7865410E-01
         -2   -1    0    0    0  501 -0.00000000000E+00  0.00000000000E+00  0.19281970353E+04  0.19281970353E+04  0.00000000000E+00 0.  1.
          2   -1    0    0  501    0  0.00000000000E+00 -0.00000000000E+00 -0.29469227579E+04  0.29469227579E+04  0.00000000000E+00 0. -1.
         23    2    1    2    0    0  0.72027364627E+03 -0.19933917237E+04  0.60390244693E+03  0.22057890032E+04  0.91663906911E+02 0.  0.
         13    1    3    3    0    0  0.50879648698E+03 -0.14559649755E+04  0.47808336339E+03  0.16147047957E+04  0.00000000000E+00 0. -1.
        -13    1    3    3    0    0  0.21147715929E+03 -0.53742674818E+03  0.12581908353E+03  0.59108420749E+03  0.00000000000E+00 0.  1.
         22    1    1    2    0    0 -0.72027364627E+03  0.19933917237E+04 -0.16226281695E+04  0.26693307899E+04  0.00000000000E+00 0. -1.
<mgrwt>
<rscale>  0 0.47674931E+04</rscale>
<asrwt>0</asrwt>
<pdfrwt beam="1">  1        2 0.45337273E+00 0.47674931E+04</pdfrwt>
<pdfrwt beam="2">  1       -2 0.29664570E+00 0.47674931E+04</pdfrwt>
<totfact> 0.46416945E-02</totfact>
</mgrwt>
</event>
<event>
 6    1  0.1528034E-005  0.3025656E+04  0.7818608E-02  0.8236442E-01
          1   -1    0    0  501    0  0.00000000000E+00  0.00000000000E+00  0.12045695442E+04  0.12045695442E+04  0.00000000000E+00 0. -1.
         -1   -1    0    0    0  501 -0.00000000000E+00 -0.00000000000E+00 -0.18999717490E+04  0.18999717490E+04  0.00000000000E+00 0.  1.
         23    2    1    2    0    0  0.84539746268E+03 -0.21875593153E+03 -0.16138632948E+04  0.18372126849E+04  0.90800262623E+02 0.  0.
         11    1    3    3    0    0  0.19747571470E+03 -0.41463525363E+02 -0.45499329904E+03  0.49772962942E+03  0.00000000000E+00 0.  1.
        -11    1    3    3    0    0  0.64792174798E+03 -0.17729240617E+03 -0.11588699958E+04  0.13394830555E+04  0.00000000000E+00 0. -1.
         22    1    1    2    0    0 -0.84539746268E+03  0.21875593153E+03  0.91846109008E+03  0.12673286083E+04  0.00000000000E+00 0. -1.
<mgrwt>
<rscale>  0 0.30256557E+04</rscale>
<asrwt>0</asrwt>
<pdfrwt beam="1">  1        1 0.18531839E+00 0.30256557E+04</pdfrwt>
<pdfrwt beam="2">  1       -1 0.29230335E+00 0.30256557E+04</pdfrwt>
<totfact> 0.33354189E-01</totfact>
</mgrwt>
</event>
<event>
 6    1  0.1528034E-005  0.3323554E+04  0.7818608E-02  0.8156928E-01
         -2   -1    0    0    0  501 -0.00000000000E+00  0.00000000000E+00  0.29053365038E+04  0.29053365038E+04  0.00000000000E+00 0.  1.
          2   -1    0    0  501    0  0.00000000000E+00 -0.00000000000E+00 -0.95049306502E+03  0.95049306502E+03  0.00000000000E+00 0. -1.
         23    2    1    2    0    0 -0.68657812150E+03  0.28228678050E+03 -0.74501227669E+03  0.10557766715E+04  0.92443195186E+02 0.  0.
         11    1    3    3    0    0 -0.27075691625E+03  0.13011977036E+03 -0.36121781597E+03  0.46980716567E+03  0.00000000000E+00 0.  1.
        -11    1    3    3    0    0 -0.41582120526E+03  0.15216701013E+03 -0.38379446072E+03  0.58596950585E+03  0.00000000000E+00 0. -1.
         22    1    1    2    0    0  0.68657812150E+03 -0.28228678050E+03  0.26998557155E+04  0.28000528973E+04  0.00000000000E+00 0.  1.
<mgrwt>
<rscale>  0 0.33235536E+04</rscale>
<asrwt>0</asrwt>
<pdfrwt beam="1">  1        2 0.14622970E+00 0.33235536E+04</pdfrwt>
<pdfrwt beam="2">  1       -2 0.44697484E+00 0.33235536E+04</pdfrwt>
<totfact> 0.82087776E-02</totfact>
</mgrwt>
</event>
<event>
 6    1  0.1528034E-005  0.2196680E+04  0.7818608E-02  0.8519811E-01
         -2   -1    0    0    0  501 -0.00000000000E+00  0.00000000000E+00  0.10516293883E+04  0.10516293883E+04  0.00000000000E+00 0. -1.
          2   -1    0    0  501    0  0.00000000000E+00 -0.00000000000E+00 -0.11471254108E+04  0.11471254108E+04  0.00000000000E+00 0.  1.
         23    2    1    2    0    0 -0.36518273025E+03 -0.99171711533E+03  0.24447203650E+03  0.10886018617E+04  0.91794190136E+02 0.  0.
         13    1    3    3    0    0 -0.15536603594E+03 -0.55405150955E+03  0.12995778332E+03  0.58991584637E+03  0.00000000000E+00 0.  1.
        -13    1    3    3    0    0 -0.20981669431E+03 -0.43766560578E+03  0.11451425317E+03  0.49868601532E+03  0.00000000000E+00 0. -1.
         22    1    1    2    0    0  0.36518273025E+03  0.99171711533E+03 -0.33996805904E+03  0.11101529374E+04  0.00000000000E+00 0.  1.
<mgrwt>
<rscale>  0 0.21966800E+04</rscale>
<asrwt>0</asrwt>
<pdfrwt beam="1">  1        2 0.17648083E+00 0.21966800E+04</pdfrwt>
<pdfrwt beam="2">  1       -2 0.16178914E+00 0.21966800E+04</pdfrwt>
<totfact> 0.45541373E+00</totfact>
</mgrwt>
</event>
<event>
 6    1  0.1528034E-005  0.1932542E+04  0.7818608E-02  0.8638826E-01
          2   -1    0    0  501    0  0.00000000000E+00  0.00000000000E+00  0.28782313640E+04  0.28782313640E+04  0.00000000000E+00 0. -1.
         -2   -1    0    0    0  501 -0.00000000000E+00 -0.00000000000E+00 -0.32439350252E+03  0.32439350252E+03  0.00000000000E+00 0.  1.
         23    2    1    2    0    0  0.58048558018E+03 -0.41918290851E+03  0.21018328449E+03  0.75203420388E+03  0.93277066605E+02 0.  0.
         11    1    3    3    0    0  0.37684078731E+03 -0.30932347300E+03  0.10944326935E+03  0.49966770872E+03  0.00000000000E+00 0.  1.
        -11    1    3    3    0    0  0.20364479287E+03 -0.10985943550E+03  0.10074001514E+03  0.25236649516E+03  0.00000000000E+00 0. -1.
         22    1    1    2    0    0 -0.58048558018E+03  0.41918290851E+03  0.23436545770E+04  0.24505906626E+04  0.00000000000E+00 0. -1.
<mgrwt>
<rscale>  0 0.19325419E+04</rscale>
<asrwt>0</asrwt>
<pdfrwt beam="1">  1        2 0.44280481E+00 0.19325419E+04</pdfrwt>
<pdfrwt beam="2">  1       -2 0.49906695E-01 0.19325419E+04</pdfrwt>
<totfact> 0.73684315E+00</totfact>
</mgrwt>
</event>
<event>
 6    1  0.1528034E-005  0.1736216E+04  0.7818608E-02  0.8740975E-01
         -2   -1    0    0    0  501 -0.00000000000E+00  0.00000000000E+00  0.40414631884E+03  0.40414631884E+03  0.00000000000E+00 0.  1.
          2   -1    0    0  501    0  0.00000000000E+00 -0.00000000000E+00 -0.18646988619E+04  0.18646988619E+04  0.00000000000E+00 0. -1.
         23    2    1    2    0    0  0.51601355406E+03 -0.17356777198E+03 -0.16117966573E+04  0.17038048800E+04  0.93095891543E+02 0.  0.
         11    1    3    3    0    0  0.19938448521E+03 -0.10493939559E+03 -0.75039188313E+03  0.78348862657E+03  0.00000000000E+00 0.  1.
        -11    1    3    3    0    0  0.31662906884E+03 -0.68628376388E+02 -0.86140477417E+03  0.92031625339E+03  0.00000000000E+00 0. -1.
         22    1    1    2    0    0 -0.51601355406E+03  0.17356777198E+03  0.15124411422E+03  0.56504030080E+03  0.00000000000E+00 0.  1.
<mgrwt>
<rscale>  0 0.17362156E+04</rscale>
<asrwt>0</asrwt>
<pdfrwt beam="1">  1        2 0.28687674E+00 0.17362156E+04</pdfrwt>
<pdfrwt beam="2">  1       -2 0.62176358E-01 0.17362156E+04</pdfrwt>
<totfact> 0.18097343E+01</totfact>
</mgrwt>
</event>
<event>
 6    1  0.1528034E-005  0.1518928E+04  0.7818608E-02  0.8871963E-01
          2   -1    0    0  501    0  0.00000000000E+00  0.00000000000E+00  0.13273010666E+04  0.13273010666E+04  0.00000000000E+00 0. -1.
         -2   -1    0    0    0  501 -0.00000000000E+00 -0.00000000000E+00 -0.43455491450E+03  0.43455491450E+03  0.00000000000E+00 0.  1.
         23    2    1    2    0    0  0.13949795950E+03  0.19382096814E+03 -0.38502579482E+03  0.46196083273E+03  0.90203657922E+02 0.  0.
         13    1    3    3    0    0  0.60572009644E+02  0.25618487654E+02 -0.13790526162E+03  0.15278460801E+03  0.00000000000E+00 0.  1.
        -13    1    3    3    0    0  0.78925949860E+02  0.16820248049E+03 -0.24712053321E+03  0.30917622473E+03  0.00000000000E+00 0. -1.
         22    1    1    2    0    0 -0.13949795950E+03 -0.19382096814E+03  0.12777719469E+04  0.12998951484E+04  0.00000000000E+00 0. -1.
<mgrwt>
<rscale>  0 0.15189275E+04</rscale>
<asrwt>0</asrwt>
<pdfrwt beam="1">  1        2 0.20420016E+00 0.15189275E+04</pdfrwt>
<pdfrwt beam="2">  1       -2 0.66854603E-01 0.15189275E+04</pdfrwt>
<totfact> 0.31590842E+01</totfact>
</mgrwt>
</event>
<event>
 6    1  0.1528034E-005  0.1796970E+04  0.7818608E-02  0.8707913E-01
         -1   -1    0    0    0  501 -0.00000000000E+00  0.00000000000E+00  0.45741430199E+03  0.45741430199E+03  0.00000000000E+00 0.  1.
          1   -1    0    0  501    0  0.00000000000E+00 -0.00000000000E+00 -0.17648665581E+04  0.17648665581E+04  0.00000000000E+00 0. -1.
         23    2    1    2    0    0 -0.82367515036E+03 -0.56521479497E+02 -0.22425500716E+03  0.86031474042E+03  0.90640572542E+02 0.  0.
         11    1    3    3    0    0 -0.21515208310E+03 -0.12655631358E+02 -0.17926726464E+02  0.21626823943E+03  0.00000000000E+00 0.  1.
        -11    1    3    3    0    0 -0.60852306726E+03 -0.43865848139E+02 -0.20632828069E+03  0.64404650099E+03  0.00000000000E+00 0. -1.
         22    1    1    2    0    0  0.82367515036E+03  0.56521479497E+02 -0.10831972490E+04  0.13619661197E+04  0.00000000000E+00 0.  1.
<mgrwt>
<rscale>  0 0.17969699E+04</rscale>
<asrwt>0</asrwt>
<pdfrwt beam="1">  1        1 0.27151793E+00 0.17969699E+04</pdfrwt>
<pdfrwt beam="2">  1       -1 0.70371431E-01 0.17969699E+04</pdfrwt>
<totfact> 0.82914078E+00</totfact>
</mgrwt>
</event>
<event>
 6    1  0.1528034E-005  0.1876779E+04  0.7818608E-02  0.8666502E-01
         -1   -1    0    0    0  501 -0.00000000000E+00  0.00000000000E+00  0.83733017206E+03  0.83733017206E+03  0.00000000000E+00 0.  1.
          1   -1    0    0  501    0  0.00000000000E+00 -0.00000000000E+00 -0.10516453600E+04  0.10516453600E+04  0.00000000000E+00 0. -1.
         23    2    1    2    0    0 -0.38628153595E+03 -0.76632506169E+03  0.26914524064E+03  0.90398745538E+03  0.91030949377E+02 0.  0.
         13    1    3    3    0    0 -0.23717938595E+03 -0.55461305347E+03  0.16986385059E+03  0.62666053645E+03  0.00000000000E+00 0.  1.
        -13    1    3    3    0    0 -0.14910214999E+03 -0.21171200821E+03  0.99281390051E+02  0.27732691893E+03  0.00000000000E+00 0. -1.
         22    1    1    2    0    0  0.38628153595E+03  0.76632506169E+03 -0.48346042856E+03  0.98498807666E+03  0.00000000000E+00 0. -1.
<mgrwt>
<rscale>  0 0.18767785E+04</rscale>
<asrwt>0</asrwt>
<pdfrwt beam="1">  1        1 0.16179159E+00 0.18767785E+04</pdfrwt>
<pdfrwt beam="2">  1       -1 0.12882003E+00 0.18767785E+04</pdfrwt>
<totfact> 0.67141951E+00</totfact>
</mgrwt>
</event>
<event>
 6    1  0.1528034E-005  0.2081201E+04  0.7818608E-02  0.8569570E-01
         -2   -1    0    0    0  501 -0.00000000000E+00  0.00000000000E+00  0.28833779823E+03  0.28833779823E+03  0.00000000000E+00 0.  1.
          2   -1    0    0  501    0  0.00000000000E+00 -0.00000000000E+00 -0.37554886045E+04  0.37554886045E+04  0.00000000000E+00 0. -1.
         23    2    1    2    0    0  0.91435720699E+03  0.30466146130E+03 -0.98246953657E+03  0.13787731725E+04  0.83074442106E+02 0.  0.
         11    1    3    3    0    0  0.41111720555E+03  0.99494385612E+02 -0.45979029571E+03  0.62475883787E+03  0.00000000000E+00 0. -1.
        -11    1    3    3    0    0  0.50324000144E+03  0.20516707569E+03 -0.52267924086E+03  0.75401433463E+03  0.00000000000E+00 0.  1.
         22    1    1    2    0    0 -0.91435720699E+03 -0.30466146130E+03 -0.24846812697E+04  0.26650532303E+04  0.00000000000E+00 0.  1.
<mgrwt>
<rscale>  0 0.20812009E+04</rscale>
<asrwt>0</asrwt>
<pdfrwt beam="1">  1        2 0.57776744E+00 0.20812009E+04</pdfrwt>
<pdfrwt beam="2">  1       -2 0.44359664E-01 0.20812009E+04</pdfrwt>
<totfact> 0.23766283E+00</totfact>
</mgrwt>
</event>
<event>
 6    1  0.1528034E-005  0.2608705E+04  0.7818608E-02  0.8365250E-01
          2   -1    0    0  501    0  0.00000000000E+00  0.00000000000E+00  0.38207631966E+04  0.38207631966E+04  0.00000000000E+00 0. -1.
         -2   -1    0    0    0  501 -0.00000000000E+00 -0.00000000000E+00 -0.44528697285E+03  0.44528697285E+03  0.00000000000E+00 0.  1.
         23    2    1    2    0    0 -0.61727876776E+03  0.48811603598E+03  0.33876260614E+04  0.34790063586E+04  0.90468611113E+02 0.  0.
         13    1    3    3    0    0 -0.11398594556E+03  0.12973617718E+03  0.65286796570E+03  0.67532277623E+03  0.00000000000E+00 0. -1.
        -13    1    3    3    0    0 -0.50329282221E+03  0.35837985881E+03  0.27347580957E+04  0.28036835823E+04  0.00000000000E+00 0.  1.
         22    1    1    2    0    0  0.61727876776E+03 -0.48811603598E+03 -0.12149837605E+02  0.78704381090E+03  0.00000000000E+00 0.  1.
<mgrwt>
<rscale>  0 0.26087055E+04</rscale>
<asrwt>0</asrwt>
<pdfrwt beam="1">  1        2 0.58780970E+00 0.26087055E+04</pdfrwt>
<pdfrwt beam="2">  1       -2 0.68505691E-01 0.26087055E+04</pdfrwt>
<totfact> 0.81689283E-01</totfact>
</mgrwt>
</event>
<event>
 6    1  0.1528034E-005  0.3135220E+04  0.7818608E-02  0.8206138E-01
          1   -1    0    0  501    0  0.00000000000E+00  0.00000000000E+00  0.15283120904E+04  0.15283120904E+04  0.00000000000E+00 0. -1.
         -1   -1    0    0    0  501 -0.00000000000E+00 -0.00000000000E+00 -0.16079184902E+04  0.16079184902E+04  0.00000000000E+00 0.  1.
         23    2    1    2    0    0  0.99302138633E+03 -0.70208040494E+03 -0.10271520928E+04  0.15945265854E+04  0.92006744341E+02 0.  0.
         11    1    3    3    0    0  0.51517738934E+03 -0.34793671443E+03 -0.46731466186E+03  0.77772147516E+03  0.00000000000E+00 0. -1.
        -11    1    3    3    0    0  0.47784399699E+03 -0.35414369051E+03 -0.55983743093E+03  0.81680511021E+03  0.00000000000E+00 0.  1.
         22    1    1    2    0    0 -0.99302138633E+03  0.70208040494E+03  0.94754569293E+03  0.15417039952E+04  0.00000000000E+00 0. -1.
<mgrwt>
<rscale>  0 0.31352201E+04</rscale>
<asrwt>0</asrwt>
<pdfrwt beam="1">  1        1 0.23512494E+00 0.31352201E+04</pdfrwt>
<pdfrwt beam="2">  1       -1 0.24737207E+00 0.31352201E+04</pdfrwt>
<totfact> 0.38156217E-01</totfact>
</mgrwt>
</event>
<event>
 6    1  0.1528034E-005  0.2185190E+04  0.7818608E-02  0.8524618E-01
          2   -1    0    0  501    0  0.00000000000E+00  0.00000000000E+00  0.10359710765E+04  0.10359710765E+04  0.00000000000E+00 0. -1.
         -2   -1    0    0    0  501 -0.00000000000E+00 -0.00000000000E+00 -0.11523135382E+04  0.11523135382E+04  0.00000000000E+00 0.  1.
         23    2    1    2    0    0  0.85362065259E+03  0.36782818916E+03 -0.62970243210E+03  0.11264445822E+04  0.91577555180E+02 0.  0.
         11    1    3    3    0    0  0.75098019803E+03  0.34229467403E+03 -0.58501942659E+03  0.10116247482E+04  0.00000000000E+00 0. -1.
        -11    1    3    3    0    0  0.10264045456E+03  0.25533515135E+02 -0.44683005510E+02  0.11481983404E+03  0.00000000000E+00 0.  1.
         22    1    1    2    0    0 -0.85362065259E+03 -0.36782818916E+03  0.51335997043E+03  0.10618400324E+04  0.00000000000E+00 0. -1.
<mgrwt>
<rscale>  0 0.21851897E+04</rscale>
<asrwt>0</asrwt>
<pdfrwt beam="1">  1        2 0.15938017E+00 0.21851897E+04</pdfrwt>
<pdfrwt beam="2">  1       -2 0.17727901E+00 0.21851897E+04</pdfrwt>
<totfact> 0.41401973E+00</totfact>
</mgrwt>
</event>
<event>
 6    1  0.1528034E-005  0.9137993E+03  0.7818608E-02  0.9408494E-01
          1   -1    0    0  501    0  0.00000000000E+00  0.00000000000E+00  0.41439638107E+03  0.41439638107E+03  0.00000000000E+00 0. -1.
         -1   -1    0    0    0  501 -0.00000000000E+00 -0.00000000000E+00 -0.50376236570E+03  0.50376236570E+03  0.00000000000E+00 0.  1.
         23    2    1    2    0    0  0.24645894782E+02 -0.37423386765E+03 -0.30166141125E+03  0.48719731463E+03  0.75519590307E+02 0.  0.
         11    1    3    3    0    0 -0.23794536638E+02 -0.14257882253E+03 -0.13453335969E+03  0.19746930262E+03  0.00000000000E+00 0. -1.
        -11    1    3    3    0    0  0.48440431420E+02 -0.23165504512E+03 -0.16712805157E+03  0.28972801201E+03  0.00000000000E+00 0.  1.
         22    1    1    2    0    0 -0.24645894782E+02  0.37423386765E+03  0.21229542662E+03  0.43096143214E+03  0.00000000000E+00 0. -1.
<mgrwt>
<rscale>  0 0.91379932E+03</rscale>
<asrwt>0</asrwt>
<pdfrwt beam="1">  1        1 0.63753290E-01 0.91379932E+03</pdfrwt>
<pdfrwt beam="2">  1       -1 0.77501902E-01 0.91379932E+03</pdfrwt>
<totfact> 0.96232796E+01</totfact>
</mgrwt>
</event>
<event>
 6    1  0.1528034E-005  0.8548790E+03  0.7818608E-02  0.9483812E-01
          1   -1    0    0  501    0  0.00000000000E+00  0.00000000000E+00  0.11351586847E+04  0.11351586847E+04  0.00000000000E+00 0. -1.
         -1   -1    0    0    0  501 -0.00000000000E+00 -0.00000000000E+00 -0.16095064285E+03  0.16095064285E+03  0.00000000000E+00 0.  1.
         23    2    1    2    0    0 -0.33572478221E+03  0.16322664022E+03  0.79298000671E+03  0.88114226113E+03  0.90776251526E+02 0.  0.
         13    1    3    3    0    0 -0.14706891028E+03  0.67178684108E+02  0.24349700678E+03  0.29228929553E+03  0.00000000000E+00 0.  1.
        -13    1    3    3    0    0 -0.18865587193E+03  0.96047956112E+02  0.54948299993E+03  0.58885296560E+03  0.00000000000E+00 0. -1.
         22    1    1    2    0    0  0.33572478221E+03 -0.16322664022E+03  0.18122803510E+03  0.41496706637E+03  0.00000000000E+00 0.  1.
<mgrwt>
<rscale>  0 0.85487899E+03</rscale>
<asrwt>0</asrwt>
<pdfrwt beam="1">  1        1 0.17463979E+00 0.85487899E+03</pdfrwt>
<pdfrwt beam="2">  1       -1 0.24761638E-01 0.85487899E+03</pdfrwt>
<totfact> 0.17132164E+02</totfact>
</mgrwt>
</event>
<event>
 6    1  0.1528034E-005  0.1845150E+04  0.7818608E-02  0.8682651E-01
          1   -1    0    0  501    0  0.00000000000E+00  0.00000000000E+00  0.64039265339E+03  0.64039265339E+03  0.00000000000E+00 0. -1.
         -1   -1    0    0    0  501 -0.00000000000E+00 -0.00000000000E+00 -0.13290975821E+04  0.13290975821E+04  0.00000000000E+00 0.  1.
         23    2    1    2    0    0  0.66744156718E+03  0.61149979819E+03 -0.16838418851E+03  0.92539066099E+03  0.92651992564E+02 0.  0.
         11    1    3    3    0    0  0.39472140193E+03  0.30906151557E+03 -0.67557599077E+02  0.50585376814E+03  0.00000000000E+00 0.  1.
        -11    1    3    3    0    0  0.27272016525E+03  0.30243828262E+03 -0.10082658943E+03  0.41953689285E+03  0.00000000000E+00 0. -1.
         22    1    1    2    0    0 -0.66744156718E+03 -0.61149979819E+03 -0.52032074019E+03  0.10440995745E+04  0.00000000000E+00 0.  1.
<mgrwt>
<rscale>  0 0.18451497E+04</rscale>
<asrwt>0</asrwt>
<pdfrwt beam="1">  1        1 0.98521947E-01 0.18451497E+04</pdfrwt>
<pdfrwt beam="2">  1       -1 0.20447655E+00 0.18451497E+04</pdfrwt>
<totfact> 0.41026533E+00</totfact>
</mgrwt>
</event>
<event>
 6    1  0.1528034E-005  0.2485211E+04  0.7818608E-02  0.8408273E-01
          2   -1    0    0  501    0  0.00000000000E+00  0.00000000000E+00  0.12829181932E+04  0.12829181932E+04  0.00000000000E+00 0. -1.
         -2   -1    0    0    0  501 -0.00000000000E+00 -0.00000000000E+00 -0.12035596136E+04  0.12035596136E+04  0.00000000000E+00 0.  1.
         23    2    1    2    0    0  0.59863273575E+03 -0.65170779732E+03 -0.83055171228E+03  0.12172178079E+04  0.93374727820E+02 0.  0.
         13    1    3    3    0    0  0.12136366731E+03 -0.82525289115E+02 -0.12610995423E+03  0.19350267089E+03  0.00000000000E+00 0. -1.
        -13    1    3    3    0    0  0.47726906844E+03 -0.56918250821E+03 -0.70444175805E+03  0.10237151370E+04  0.00000000000E+00 0.  1.
         22    1    1    2    0    0 -0.59863273575E+03  0.65170779732E+03  0.90991029184E+03  0.12692599988E+04  0.00000000000E+00 0. -1.
<mgrwt>
<rscale>  0 0.24852111E+04</rscale>
<asrwt>0</asrwt>
<pdfrwt beam="1">  1        2 0.19737203E+00 0.24852111E+04</pdfrwt>
<pdfrwt beam="2">  1       -2 0.18516302E+00 0.24852111E+04</pdfrwt>
<totfact> 0.25246281E+00</totfact>
</mgrwt>
</event>
<event>
 6    1  0.1528034E-005  0.4888760E+04  0.7818608E-02  0.7845900E-01
          2   -1    0    0  501    0  0.00000000000E+00  0.00000000000E+00  0.38278535457E+04  0.38278535457E+04  0.00000000000E+00 0. -1.
         -2   -1    0    0    0  501 -0.00000000000E+00 -0.00000000000E+00 -0.15609256153E+04  0.15609256153E+04  0.00000000000E+00 0.  1.
         23    2    1    2    0    0  0.24120235983E+04  0.35259961737E+03  0.94704743335E+03  0.26167277806E+04  0.90449477082E+02 0.  0.
         13    1    3    3    0    0  0.12850445140E+04  0.20376832534E+03  0.55076501187E+03  0.14128704936E+04  0.00000000000E+00 0. -1.
        -13    1    3    3    0    0  0.11269790843E+04  0.14883129203E+03  0.39628242149E+03  0.12038572870E+04  0.00000000000E+00 0.  1.
         22    1    1    2    0    0 -0.24120235983E+04 -0.35259961737E+03  0.13198804971E+04  0.27720513804E+04  0.00000000000E+00 0.  1.
<mgrwt>
<rscale>  0 0.48887604E+04</rscale>
<asrwt>0</asrwt>
<pdfrwt beam="1">  1        2 0.58890055E+00 0.48887604E+04</pdfrwt>
<pdfrwt beam="2">  1       -2 0.24014240E+00 0.48887604E+04</pdfrwt>
<totfact> 0.25301399E-02</totfact>
</mgrwt>
</event>
<event>
 6    1  0.1528034E-005  0.2417484E+04  0.7818608E-02  0.8432987E-01
          1   -1    0    0  501    0  0.00000000000E+00  0.00000000000E+00  0.14769798504E+04  0.14769798504E+04  0.00000000000E+00 0. -1.
         -1   -1    0    0    0  501 -0.00000000000E+00 -0.00000000000E+00 -0.98921970595E+03  0.98921970595E+03  0.00000000000E+00 0.  1.
         23    2    1    2    0    0  0.66304771300E+03  0.99135969084E+03  0.43386872440E+03  0.12723274562E+04  0.90270590475E+02 0.  0.
         11    1    3    3    0    0  0.59193341036E+03  0.90437712276E+03  0.36646286448E+03  0.11413054690E+04  0.00000000000E+00 0. -1.
        -11    1    3    3    0    0  0.71114302642E+02  0.86982568072E+02  0.67405859920E+02  0.13102198724E+03  0.00000000000E+00 0.  1.
         22    1    1    2    0    0 -0.66304771300E+03 -0.99135969084E+03  0.53891420065E+02  0.11938721001E+04  0.00000000000E+00 0.  1.
<mgrwt>
<rscale>  0 0.24174843E+04</rscale>
<asrwt>0</asrwt>
<pdfrwt beam="1">  1        1 0.22722767E+00 0.24174843E+04</pdfrwt>
<pdfrwt beam="2">  1       -1 0.15218765E+00 0.24174843E+04</pdfrwt>
<totfact> 0.20374322E+00</totfact>
</mgrwt>
</event>
<event>
 6    1  0.1528034E-005  0.2294459E+04  0.7818608E-02  0.8480109E-01
          2   -1    0    0  501    0  0.00000000000E+00  0.00000000000E+00  0.27091499295E+04  0.27091499295E+04  0.00000000000E+00 0. -1.
         -2   -1    0    0    0  501 -0.00000000000E+00 -0.00000000000E+00 -0.48581127223E+03  0.48581127223E+03  0.00000000000E+00 0.  1.
         23    2    1    2    0    0  0.10142460671E+04 -0.87922462733E+02  0.18444392052E+04  0.21086876456E+04  0.90455298124E+02 0.  0.
         13    1    3    3    0    0  0.53602048672E+03 -0.25173586606E+02  0.10533158703E+04  0.11821277403E+04  0.00000000000E+00 0. -1.
        -13    1    3    3    0    0  0.47822558034E+03 -0.62748876127E+02  0.79112333493E+03  0.92655990536E+03  0.00000000000E+00 0.  1.
         22    1    1    2    0    0 -0.10142460671E+04  0.87922462733E+02  0.37889945207E+03  0.10862735561E+04  0.00000000000E+00 0.  1.
<mgrwt>
<rscale>  0 0.22944590E+04</rscale>
<asrwt>0</asrwt>
<pdfrwt beam="1">  1        2 0.41679229E+00 0.22944590E+04</pdfrwt>
<pdfrwt beam="2">  1       -2 0.74740197E-01 0.22944590E+04</pdfrwt>
<totfact> 0.38282599E+00</totfact>
</mgrwt>
</event>
<event>
 6    1  0.1528034E-005  0.3094348E+04  0.7818608E-02  0.8217291E-01
          1   -1    0    0  501    0  0.00000000000E+00  0.00000000000E+00  0.16514321589E+04  0.16514321589E+04  0.00000000000E+00 0. -1.
         -1   -1    0    0    0  501 -0.00000000000E+00 -0.00000000000E+00 -0.14494976857E+04  0.14494976857E+04  0.00000000000E+00 0.  1.
         23    2    1    2    0    0  0.94525857578E+03 -0.50793027176E+03 -0.10141148297E+04  0.14791151687E+04  0.88576849529E+02 0.  0.
         13    1    3    3    0    0  0.38174017633E+03 -0.21916127699E+03 -0.35905004271E+03  0.56804415385E+03  0.00000000000E+00 0.  1.
        -13    1    3    3    0    0  0.56351839946E+03 -0.28876899477E+03 -0.65506478699E+03  0.91107101481E+03  0.00000000000E+00 0. -1.
         22    1    1    2    0    0 -0.94525857578E+03  0.50793027176E+03  0.12160493029E+04  0.16218146759E+04  0.00000000000E+00 0. -1.
<mgrwt>
<rscale>  0 0.30943478E+04</rscale>
<asrwt>0</asrwt>
<pdfrwt beam="1">  1        1 0.25406648E+00 0.30943478E+04</pdfrwt>
<pdfrwt beam="2">  1       -1 0.22299965E+00 0.30943478E+04</pdfrwt>
<totfact> 0.45641853E-01</totfact>
</mgrwt>
</event>
<event>
 6    1  0.1528034E-005  0.1075337E+04  0.7818608E-02  0.9229569E-01
         -1   -1    0    0    0  501 -0.00000000000E+00  0.00000000000E+00  0.20427692626E+03  0.20427692626E+03  0.00000000000E+00 0.  1.
          1   -1    0    0  501    0  0.00000000000E+00 -0.00000000000E+00 -0.14151742954E+04  0.14151742954E+04  0.00000000000E+00 0. -1.
         23    2    1    2    0    0  0.13216149029E+03 -0.51720357346E+03 -0.59616886497E+03  0.80529071551E+03  0.90053456388E+02 0.  0.
         11    1    3    3    0    0  0.11031765517E+03 -0.34156913541E+03 -0.45086663571E+03  0.57629869209E+03  0.00000000000E+00 0. -1.
        -11    1    3    3    0    0  0.21843835127E+02 -0.17563443805E+03 -0.14530222926E+03  0.22899202342E+03  0.00000000000E+00 0.  1.
         22    1    1    2    0    0 -0.13216149029E+03  0.51720357346E+03 -0.61472850413E+03  0.81416050611E+03  0.00000000000E+00 0.  1.
<mgrwt>
<rscale>  0 0.10753371E+04</rscale>
<asrwt>0</asrwt>
<pdfrwt beam="1">  1        1 0.21771912E+00 0.10753371E+04</pdfrwt>
<pdfrwt beam="2">  1       -1 0.31427219E-01 0.10753371E+04</pdfrwt>
<totfact> 0.70302531E+01</totfact>
</mgrwt>
</event>
<event>
 6    1  0.1528034E-005  0.6946346E+03  0.7818608E-02  0.9726452E-01
          1   -1    0    0  501    0  0.00000000000E+00  0.00000000000E+00  0.13031566025E+03  0.13031566025E+03  0.00000000000E+00 0. -1.
         -1   -1    0    0    0  501 -0.00000000000E+00 -0.00000000000E+00 -0.92567015181E+03  0.92567015181E+03  0.00000000000E+00 0.  1.
         23    2    1    2    0    0  0.56741385786E+02  0.17803534643E+03  0.31350014187E+02  0.20842666412E+03  0.86848612474E+02 0.  0.
         13    1    3    3    0    0  0.26372410314E+01  0.13923666453E+03  0.16733841592E+02  0.14026341377E+03  0.00000000000E+00 0. -1.
        -13    1    3    3    0    0  0.54104144755E+02  0.38798681904E+02  0.14616172595E+02  0.68163250351E+02  0.00000000000E+00 0.  1.
         22    1    1    2    0    0 -0.56741385786E+02 -0.17803534643E+03 -0.82670450574E+03  0.84755914794E+03  0.00000000000E+00 0.  1.
<mgrwt>
<rscale>  0 0.69463463E+03</rscale>
<asrwt>0</asrwt>
<pdfrwt beam="1">  1        1 0.20048562E-01 0.69463463E+03</pdfrwt>
<pdfrwt beam="2">  1       -1 0.14241080E+00 0.69463463E+03</pdfrwt>
<totfact> 0.10679321E+02</totfact>
</mgrwt>
</event>
<event>
 6    1  0.1528034E-005  0.2565973E+04  0.7818608E-02  0.8379852E-01
         -1   -1    0    0    0  501 -0.00000000000E+00  0.00000000000E+00  0.80262036519E+03  0.80262036519E+03  0.00000000000E+00 0.  1.
          1   -1    0    0  501    0  0.00000000000E+00 -0.00000000000E+00 -0.20508507711E+04  0.20508507711E+04  0.00000000000E+00 0. -1.
         23    2    1    2    0    0 -0.57858567883E+03  0.11367762732E+04 -0.75873785308E+03  0.14872264136E+04  0.95590754755E+02 0.  0.
         11    1    3    3    0    0 -0.44106579539E+03  0.86840983619E+03 -0.62551242065E+03  0.11575579760E+04  0.00000000000E+00 0. -1.
        -11    1    3    3    0    0 -0.13751988344E+03  0.26836643705E+03 -0.13322543243E+03  0.32966843756E+03  0.00000000000E+00 0.  1.
         22    1    1    2    0    0  0.57858567883E+03 -0.11367762732E+04 -0.48949255288E+03  0.13662447228E+04  0.00000000000E+00 0.  1.
<mgrwt>
<rscale>  0 0.25659732E+04</rscale>
<asrwt>0</asrwt>
<pdfrwt beam="1">  1        1 0.31551550E+00 0.25659732E+04</pdfrwt>
<pdfrwt beam="2">  1       -1 0.12348006E+00 0.25659732E+04</pdfrwt>
<totfact> 0.14023002E+00</totfact>
</mgrwt>
</event>
<event>
 6    1  0.1528034E-005  0.3393954E+04  0.7818608E-02  0.8139392E-01
          2   -1    0    0  501    0  0.00000000000E+00  0.00000000000E+00  0.23370676035E+04  0.23370676035E+04  0.00000000000E+00 0. -1.
         -2   -1    0    0    0  501 -0.00000000000E+00 -0.00000000000E+00 -0.12321980741E+04  0.12321980741E+04  0.00000000000E+00 0.  1.
         23    2    1    2    0    0 -0.38325689477E+03 -0.24014763116E+03  0.22716072264E+04  0.23179329537E+04  0.89761099280E+02 0.  0.
         13    1    3    3    0    0 -0.10253667080E+03 -0.63645734432E+02  0.42559879489E+03  0.44237866425E+03  0.00000000000E+00 0. -1.
        -13    1    3    3    0    0 -0.28072022397E+03 -0.17650189673E+03  0.18460084315E+04  0.18755542895E+04  0.00000000000E+00 0.  1.
         22    1    1    2    0    0  0.38325689477E+03  0.24014763116E+03 -0.11667376970E+04  0.12513327238E+04  0.00000000000E+00 0.  1.
<mgrwt>
<rscale>  0 0.33939536E+04</rscale>
<asrwt>0</asrwt>
<pdfrwt beam="1">  1        2 0.35954886E+00 0.33939536E+04</pdfrwt>
<pdfrwt beam="2">  1       -2 0.18956893E+00 0.33939536E+04</pdfrwt>
<totfact> 0.55853369E-01</totfact>
</mgrwt>
</event>
<event>
 6    1  0.1528034E-005  0.1628763E+04  0.7818608E-02  0.8803070E-01
         -2   -1    0    0    0  501 -0.00000000000E+00  0.00000000000E+00  0.25614873370E+03  0.25614873370E+03  0.00000000000E+00 0.  1.
          2   -1    0    0  501    0  0.00000000000E+00 -0.00000000000E+00 -0.25891878760E+04  0.25891878760E+04  0.00000000000E+00 0. -1.
         23    2    1    2    0    0  0.39293888010E+03 -0.44129235221E+03 -0.21426766463E+04  0.22245485754E+04  0.91723769936E+02 0.  0.
         11    1    3    3    0    0  0.15599283610E+03 -0.18119106618E+03 -0.70479148058E+03  0.74424122332E+03  0.00000000000E+00 0. -1.
        -11    1    3    3    0    0  0.23694604400E+03 -0.26010128602E+03 -0.14378851658E+04  0.14803073521E+04  0.00000000000E+00 0.  1.
         22    1    1    2    0    0 -0.39293888010E+03  0.44129235221E+03 -0.19036249591E+03  0.62078803424E+03  0.00000000000E+00 0.  1.
<mgrwt>
<rscale>  0 0.16287630E+04</rscale>
<asrwt>0</asrwt>
<pdfrwt beam="1">  1        2 0.39833659E+00 0.16287630E+04</pdfrwt>
<pdfrwt beam="2">  1       -2 0.39407498E-01 0.16287630E+04</pdfrwt>
<totfact> 0.18038279E+01</totfact>
</mgrwt>
</event>
<event>
 6    1  0.1528034E-005  0.2272010E+04  0.7818608E-02  0.8489039E-01
         -2   -1    0    0    0  501 -0.00000000000E+00  0.00000000000E+00  0.24567758244E+04  0.24567758244E+04  0.00000000000E+00 0.  1.
          2   -1    0    0  501    0  0.00000000000E+00 -0.00000000000E+00 -0.52528509066E+03  0.52528509066E+03  0.00000000000E+00 0. -1.
         23    2    1    2    0    0  0.17075914714E+03  0.20055472518E+03  0.24152188464E+04  0.24312671505E+04  0.91635129743E+02 0.  0.
         13    1    3    3    0    0  0.73445470915E+02  0.15478837811E+03  0.14977309161E+04  0.15074984499E+04  0.00000000000E+00 0. -1.
        -13    1    3    3    0    0  0.97313676229E+02  0.45766347067E+02  0.91748793028E+03  0.92376870066E+03  0.00000000000E+00 0.  1.
         22    1    1    2    0    0 -0.17075914714E+03 -0.20055472518E+03 -0.48372811265E+03  0.55079376457E+03  0.00000000000E+00 0. -1.
<mgrwt>
<rscale>  0 0.22720103E+04</rscale>
<asrwt>0</asrwt>
<pdfrwt beam="1">  1        2 0.80813092E-01 0.22720103E+04</pdfrwt>
<pdfrwt beam="2">  1       -2 0.37796550E+00 0.22720103E+04</pdfrwt>
<totfact> 0.54575971E-01</totfact>
</mgrwt>
</event>
<event>
 6    1  0.1528034E-005  0.8448963E+03  0.7818608E-02  0.9497213E-01
         -1   -1    0    0    0  501 -0.00000000000E+00  0.00000000000E+00  0.25202035176E+03  0.25202035176E+03  0.00000000000E+00 0.  1.
          1   -1    0    0  501    0  0.00000000000E+00 -0.00000000000E+00 -0.70812712048E+03  0.70812712048E+03  0.00000000000E+00 0. -1.
         23    2    1    2    0    0 -0.43818117896E+01  0.15378089896E+03  0.21054053400E+03  0.27597907821E+03  0.90384567233E+02 0.  0.
         11    1    3    3    0    0 -0.42066955718E+02  0.38824430190E+02  0.61477828408E+02  0.84002907859E+02  0.00000000000E+00 0. -1.
        -11    1    3    3    0    0  0.37685143928E+02  0.11495646877E+03  0.14906270559E+03  0.19197617035E+03  0.00000000000E+00 0.  1.
         22    1    1    2    0    0  0.43818117896E+01 -0.15378089896E+03 -0.66664730272E+03  0.68416839403E+03  0.00000000000E+00 0. -1.
<mgrwt>
<rscale>  0 0.84489632E+03</rscale>
<asrwt>0</asrwt>
<pdfrwt beam="1">  1        1 0.10894263E+00 0.84489632E+03</pdfrwt>
<pdfrwt beam="2">  1       -1 0.38772362E-01 0.84489632E+03</pdfrwt>
<totfact> 0.17414968E+02</totfact>
</mgrwt>
</event>
<event>
 6    1  0.1528034E-005  0.3343428E+04  0.7818608E-02  0.8151932E-01
          1   -1    0    0  501    0  0.00000000000E+00  0.00000000000E+00  0.43888804854E+04  0.43888804854E+04  0.00000000000E+00 0. -1.
         -1   -1    0    0    0  501 -0.00000000000E+00 -0.00000000000E+00 -0.63675168719E+03  0.63675168719E+03  0.00000000000E+00 0.  1.
         23    2    1    2    0    0 -0.11697623028E+04  0.74404700774E+03  0.47656453959E+03  0.14687696497E+04  0.90668233520E+02 0.  0.
         13    1    3    3    0    0 -0.92394140912E+03  0.55861010398E+03  0.40071980794E+03  0.11516463608E+04  0.00000000000E+00 0. -1.
        -13    1    3    3    0    0 -0.24582089367E+03  0.18543690375E+03  0.75844731653E+02  0.31712328890E+03  0.00000000000E+00 0.  1.
         22    1    1    2    0    0  0.11697623028E+04 -0.74404700774E+03  0.32755642586E+04  0.35568625230E+04  0.00000000000E+00 0.  1.
<mgrwt>
<rscale>  0 0.33434276E+04</rscale>
<asrwt>0</asrwt>
<pdfrwt beam="1">  1        1 0.67521236E+00 0.33434276E+04</pdfrwt>
<pdfrwt beam="2">  1       -1 0.97961801E-01 0.33434276E+04</pdfrwt>
<totfact> 0.34326907E-02</totfact>
</mgrwt>
</event>
<event>
 6    1  0.1528034E-005  0.2319082E+04  0.7818608E-02  0.8470435E-01
         -2   -1    0    0    0  501 -0.00000000000E+00  0.00000000000E+00  0.18219418314E+04  0.18219418314E+04  0.00000000000E+00 0.  1.
          2   -1    0    0  501    0  0.00000000000E+00 -0.00000000000E+00 -0.73796834768E+03  0.73796834768E+03  0.00000000000E+00 0. -1.
         23    2    1    2    0    0 -0.41388772318E+02  0.13108724062E+03  0.18116057468E+04  0.18194065629E+04  0.97097704999E+02 0.  0.
         13    1    3    3    0    0 -0.65449503653E+02  0.55677311425E+02  0.76469333351E+03  0.76950600703E+03  0.00000000000E+00 0.  1.
        -13    1    3    3    0    0  0.24060731334E+02  0.75409929199E+02  0.10469124133E+04  0.10499005559E+04  0.00000000000E+00 0. -1.
         22    1    1    2    0    0  0.41388772318E+02 -0.13108724062E+03 -0.72763226312E+03  0.74050361610E+03  0.00000000000E+00 0. -1.
<mgrwt>
<rscale>  0 0.23190821E+04</rscale>
<asrwt>0</asrwt>
<pdfrwt beam="1">  1        2 0.11353359E+00 0.23190821E+04</pdfrwt>
<pdfrwt beam="2">  1       -2 0.28029874E+00 0.23190821E+04</pdfrwt>
<totfact> 0.14538388E+00</totfact>
</mgrwt>
</event>
<event>
 6    1  0.1528034E-005  0.1685689E+04  0.7818608E-02  0.8769569E-01
         -2   -1    0    0    0  501 -0.00000000000E+00  0.00000000000E+00  0.83956261585E+03  0.83956261585E+03  0.00000000000E+00 0.  1.
          2   -1    0    0  501    0  0.00000000000E+00 -0.00000000000E+00 -0.84613935025E+03  0.84613935025E+03  0.00000000000E+00 0. -1.
         23    2    1    2    0    0 -0.24380214110E+03  0.10391831831E+02 -0.80743676542E+03  0.84848976871E+03  0.91832909573E+02 0.  0.
         11    1    3    3    0    0 -0.55155130711E+02 -0.30601020652E+02 -0.27484607076E+03  0.28199091035E+03  0.00000000000E+00 0.  1.
        -11    1    3    3    0    0 -0.18864701039E+03  0.40992852483E+02 -0.53259069466E+03  0.56649885835E+03  0.00000000000E+00 0. -1.
         22    1    1    2    0    0  0.24380214110E+03 -0.10391831831E+02  0.80086003102E+03  0.83721219739E+03  0.00000000000E+00 0.  1.
<mgrwt>
<rscale>  0 0.16856891E+04</rscale>
<asrwt>0</asrwt>
<pdfrwt beam="1">  1        2 0.13017529E+00 0.16856891E+04</pdfrwt>
<pdfrwt beam="2">  1       -2 0.12916348E+00 0.16856891E+04</pdfrwt>
<totfact> 0.13428985E+01</totfact>
</mgrwt>
</event>
<event>
 6    1  0.1528034E-005  0.1862610E+04  0.7818608E-02  0.8673695E-01
          2   -1    0    0  501    0  0.00000000000E+00  0.00000000000E+00  0.18673025199E+04  0.18673025199E+04  0.00000000000E+00 0. -1.
         -2   -1    0    0    0  501 -0.00000000000E+00 -0.00000000000E+00 -0.46448250344E+03  0.46448250344E+03  0.00000000000E+00 0.  1.
         23    2    1    2    0    0  0.34699361473E+03 -0.15643071142E+03 -0.35794110886E+03  0.53035368226E+03  0.90983815780E+02 0.  0.
         13    1    3    3    0    0  0.51141567849E+02 -0.19335946319E+02 -0.14052142299E+02  0.56451762464E+02  0.00000000000E+00 0.  1.
        -13    1    3    3    0    0  0.29585204688E+03 -0.13709476510E+03 -0.34388896656E+03  0.47390191980E+03  0.00000000000E+00 0. -1.
         22    1    1    2    0    0 -0.34699361473E+03  0.15643071142E+03  0.17607611253E+04  0.18014313410E+04  0.00000000000E+00 0. -1.
<mgrwt>
<rscale>  0 0.18626104E+04</rscale>
<asrwt>0</asrwt>
<pdfrwt beam="1">  1        2 0.28727731E+00 0.18626104E+04</pdfrwt>
<pdfrwt beam="2">  1       -2 0.71458848E-01 0.18626104E+04</pdfrwt>
<totfact> 0.13213260E+01</totfact>
</mgrwt>
</event>
<event>
 6    1  0.1528034E-005  0.8182346E+03  0.7818608E-02  0.9533992E-01
          1   -1    0    0  501    0  0.00000000000E+00  0.00000000000E+00  0.64995067483E+03  0.64995067483E+03  0.00000000000E+00 0. -1.
         -1   -1    0    0    0  501 -0.00000000000E+00 -0.00000000000E+00 -0.25752258447E+03  0.25752258447E+03  0.00000000000E+00 0.  1.
         23    2    1    2    0    0  0.20460813777E+03  0.18920952574E+03 -0.12594096496E+03  0.31894015728E+03  0.90537078595E+02 0.  0.
         11    1    3    3    0    0  0.15618821120E+03  0.85534956894E+02 -0.67340727134E+02  0.19038319175E+03  0.00000000000E+00 0.  1.
        -11    1    3    3    0    0  0.48419926565E+02  0.10367456884E+03 -0.58600237822E+02  0.12855696553E+03  0.00000000000E+00 0. -1.
         22    1    1    2    0    0 -0.20460813777E+03 -0.18920952574E+03  0.51836905532E+03  0.58853310203E+03  0.00000000000E+00 0. -1.
<mgrwt>
<rscale>  0 0.81823463E+03</rscale>
<asrwt>0</asrwt>
<pdfrwt beam="1">  1        1 0.99992411E-01 0.81823463E+03</pdfrwt>
<pdfrwt beam="2">  1       -1 0.39618859E-01 0.81823463E+03</pdfrwt>
<totfact> 0.19069845E+02</totfact>
</mgrwt>
</event>
<event>
 6    1  0.1528034E-005  0.4524377E+04  0.7818608E-02  0.7906383E-01
         -2   -1    0    0    0  501 -0.00000000000E+00  0.00000000000E+00  0.16631013267E+04  0.16631013267E+04  0.00000000000E+00 0.  1.
          2   -1    0    0  501    0  0.00000000000E+00 -0.00000000000E+00 -0.30770808103E+04  0.30770808103E+04  0.00000000000E+00 0. -1.
         23    2    1    2    0    0  0.15745603948E+04 -0.99589327870E+02 -0.24045401803E+04  0.28772895032E+04  0.88447359112E+02 0.  0.
         11    1    3    3    0    0  0.10871763562E+04 -0.42500106517E+02 -0.15990314872E+04  0.19340786917E+04  0.00000000000E+00 0. -1.
        -11    1    3    3    0    0  0.48738403856E+03 -0.57089221354E+02 -0.80550869311E+03  0.94321081149E+03  0.00000000000E+00 0.  1.
         22    1    1    2    0    0 -0.15745603948E+04  0.99589327870E+02  0.99056069672E+03  0.18628926338E+04  0.00000000000E+00 0.  1.
<mgrwt>
<rscale>  0 0.45243772E+04</rscale>
<asrwt>0</asrwt>
<pdfrwt beam="1">  1        2 0.47339705E+00 0.45243772E+04</pdfrwt>
<pdfrwt beam="2">  1       -2 0.25586174E+00 0.45243772E+04</pdfrwt>
<totfact> 0.69567180E-02</totfact>
</mgrwt>
</event>
<event>
 6    1  0.1528034E-005  0.3133712E+04  0.7818608E-02  0.8206546E-01
         -1   -1    0    0    0  501 -0.00000000000E+00  0.00000000000E+00  0.31133215663E+04  0.31133215663E+04  0.00000000000E+00 0.  1.
          1   -1    0    0  501    0  0.00000000000E+00 -0.00000000000E+00 -0.78855889862E+03  0.78855889862E+03  0.00000000000E+00 0. -1.
         23    2    1    2    0    0 -0.12565396273E+04 -0.83599296145E+03  0.64848766330E+03  0.16462931896E+04  0.10940269660E+03 0.  0.
         11    1    3    3    0    0 -0.70260805852E+03 -0.42394646244E+03  0.30780880218E+03  0.87643308108E+03  0.00000000000E+00 0. -1.
        -11    1    3    3    0    0 -0.55393156875E+03 -0.41204649901E+03  0.34067886112E+03  0.76986010848E+03  0.00000000000E+00 0.  1.
         22    1    1    2    0    0  0.12565396273E+04  0.83599296145E+03  0.16762750043E+04  0.22555872753E+04  0.00000000000E+00 0.  1.
<mgrwt>
<rscale>  0 0.31337118E+04</rscale>
<asrwt>0</asrwt>
<pdfrwt beam="1">  1        1 0.12131676E+00 0.31337118E+04</pdfrwt>
<pdfrwt beam="2">  1       -1 0.47897254E+00 0.31337118E+04</pdfrwt>
<totfact> 0.38999787E-02</totfact>
</mgrwt>
</event>
<event>
 6    1  0.1528034E-005  0.9440994E+03  0.7818608E-02  0.9372074E-01
          2   -1    0    0  501    0  0.00000000000E+00  0.00000000000E+00  0.17119500275E+04  0.17119500275E+04  0.00000000000E+00 0. -1.
         -2   -1    0    0    0  501 -0.00000000000E+00 -0.00000000000E+00 -0.13016205463E+03  0.13016205463E+03  0.00000000000E+00 0.  1.
         23    2    1    2    0    0  0.43304486052E+03  0.15539577785E+03  0.96099868865E+03  0.10694187184E+04  0.91990307224E+02 0.  0.
         11    1    3    3    0    0  0.30409789755E+03  0.63058385848E+02  0.64112530332E+03  0.71238581252E+03  0.00000000000E+00 0.  1.
        -11    1    3    3    0    0  0.12894696298E+03  0.92337392003E+02  0.31987338533E+03  0.35703290586E+03  0.00000000000E+00 0. -1.
         22    1    1    2    0    0 -0.43304486052E+03 -0.15539577785E+03  0.62078928421E+03  0.77269336376E+03  0.00000000000E+00 0.  1.
<mgrwt>
<rscale>  0 0.94409943E+03</rscale>
<asrwt>0</asrwt>
<pdfrwt beam="1">  1        2 0.26337691E+00 0.94409943E+03</pdfrwt>
<pdfrwt beam="2">  1       -2 0.20024933E-01 0.94409943E+03</pdfrwt>
<totfact> 0.20645268E+02</totfact>
</mgrwt>
</event>
<event>
 6    1  0.1528034E-005  0.1146348E+04  0.7818608E-02  0.9161160E-01
         -2   -1    0    0    0  501 -0.00000000000E+00  0.00000000000E+00  0.63736512992E+03  0.63736512992E+03  0.00000000000E+00 0.  1.
          2   -1    0    0  501    0  0.00000000000E+00 -0.00000000000E+00 -0.51544732576E+03  0.51544732576E+03  0.00000000000E+00 0. -1.
         23    2    1    2    0    0 -0.44483287326E+03 -0.15005981687E+03 -0.26075475975E+03  0.54714544739E+03  0.10478960872E+03 0.  0.
         11    1    3    3    0    0 -0.27670371524E+03 -0.14312565791E+03 -0.15056390974E+03  0.34600490010E+03  0.00000000000E+00 0.  1.
        -11    1    3    3    0    0 -0.16812915802E+03 -0.69341589613E+01 -0.11019085001E+03  0.20114054729E+03  0.00000000000E+00 0. -1.
         22    1    1    2    0    0  0.44483287326E+03  0.15005981687E+03  0.38267256390E+03  0.60566700829E+03  0.00000000000E+00 0.  1.
<mgrwt>
<rscale>  0 0.11463475E+04</rscale>
<asrwt>0</asrwt>
<pdfrwt beam="1">  1        2 0.79299589E-01 0.11463475E+04</pdfrwt>
<pdfrwt beam="2">  1       -2 0.98056174E-01 0.11463475E+04</pdfrwt>
<totfact> 0.50925102E+01</totfact>
</mgrwt>
</event>
<event>
 6    1  0.1528034E-005  0.2889522E+04  0.7818608E-02  0.8276002E-01
          1   -1    0    0  501    0  0.00000000000E+00  0.00000000000E+00  0.17313306442E+04  0.17313306442E+04  0.00000000000E+00 0. -1.
         -1   -1    0    0    0  501 -0.00000000000E+00 -0.00000000000E+00 -0.12056243515E+04  0.12056243515E+04  0.00000000000E+00 0.  1.
         23    2    1    2    0    0 -0.20383582769E+03  0.85383562705E+03  0.14275514613E+04  0.16784205183E+04  0.92778978669E+02 0.  0.
         13    1    3    3    0    0 -0.19180336483E+03  0.70646166929E+03  0.11343993466E+04  0.13500883299E+04  0.00000000000E+00 0. -1.
        -13    1    3    3    0    0 -0.12032462866E+02  0.14737395776E+03  0.29315211465E+03  0.32833218836E+03  0.00000000000E+00 0.  1.
         22    1    1    2    0    0  0.20383582769E+03 -0.85383562705E+03 -0.90184516864E+03  0.12585344774E+04  0.00000000000E+00 0.  1.
<mgrwt>
<rscale>  0 0.28895220E+04</rscale>
<asrwt>0</asrwt>
<pdfrwt beam="1">  1        1 0.26635856E+00 0.28895220E+04</pdfrwt>
<pdfrwt beam="2">  1       -1 0.18548067E+00 0.28895220E+04</pdfrwt>
<totfact> 0.74130964E-01</totfact>
</mgrwt>
</event>
<event>
 6    1  0.1528034E-005  0.3713846E+04  0.7818608E-02  0.8064900E-01
          2   -1    0    0  501    0  0.00000000000E+00  0.00000000000E+00  0.33550596234E+04  0.33550596234E+04  0.00000000000E+00 0. -1.
         -2   -1    0    0    0  501 -0.00000000000E+00 -0.00000000000E+00 -0.10277499911E+04  0.10277499911E+04  0.00000000000E+00 0.  1.
         23    2    1    2    0    0 -0.21860753086E+03 -0.94335469212E+03  0.30328084613E+04  0.31847128215E+04  0.82226909245E+02 0.  0.
         11    1    3    3    0    0 -0.79606160278E+02 -0.37168673481E+03  0.13226026743E+04  0.13761417092E+04  0.00000000000E+00 0. -1.
        -11    1    3    3    0    0 -0.13900137059E+03 -0.57166795731E+03  0.17102057870E+04  0.18085711124E+04  0.00000000000E+00 0.  1.
         22    1    1    2    0    0  0.21860753086E+03  0.94335469212E+03 -0.70549882904E+03  0.11980967930E+04  0.00000000000E+00 0.  1.
<mgrwt>
<rscale>  0 0.37138457E+04</rscale>
<asrwt>0</asrwt>
<pdfrwt beam="1">  1        2 0.51616301E+00 0.37138457E+04</pdfrwt>
<pdfrwt beam="2">  1       -2 0.15811539E+00 0.37138457E+04</pdfrwt>
<totfact> 0.21457224E-01</totfact>
</mgrwt>
</event>
<event>
 6    1  0.1528034E-005  0.2536960E+04  0.7818608E-02  0.8389935E-01
         -1   -1    0    0    0  501 -0.00000000000E+00  0.00000000000E+00  0.76471311029E+03  0.76471311029E+03  0.00000000000E+00 0.  1.
          1   -1    0    0  501    0  0.00000000000E+00 -0.00000000000E+00 -0.21041118631E+04  0.21041118631E+04  0.00000000000E+00 0. -1.
         23    2    1    2    0    0 -0.73815571006E+03  0.10208461607E+04 -0.82188285321E+03  0.15069059441E+04  0.90958033081E+02 0.  0.
         11    1    3    3    0    0 -0.49017877295E+03  0.68782581043E+03 -0.60085226468E+03  0.10365341378E+04  0.00000000000E+00 0.  1.
        -11    1    3    3    0    0 -0.24797693711E+03  0.33302035026E+03 -0.22103058852E+03  0.47037180622E+03  0.00000000000E+00 0. -1.
         22    1    1    2    0    0  0.73815571006E+03 -0.10208461607E+04 -0.51751589960E+03  0.13619190293E+04  0.00000000000E+00 0. -1.
<mgrwt>
<rscale>  0 0.25369603E+04</rscale>
<asrwt>0</asrwt>
<pdfrwt beam="1">  1        1 0.32370952E+00 0.25369603E+04</pdfrwt>
<pdfrwt beam="2">  1       -1 0.11764817E+00 0.25369603E+04</pdfrwt>
<totfact> 0.14565772E+00</totfact>
</mgrwt>
</event>
<event>
 6    1  0.1528034E-005  0.1280728E+04  0.7818608E-02  0.9044989E-01
          1   -1    0    0  501    0  0.00000000000E+00  0.00000000000E+00  0.21780029793E+03  0.21780029793E+03  0.00000000000E+00 0. -1.
         -1   -1    0    0    0  501 -0.00000000000E+00 -0.00000000000E+00 -0.18827607881E+04  0.18827607881E+04  0.00000000000E+00 0.  1.
         23    2    1    2    0    0  0.30637422005E+03  0.55207770840E+03 -0.97801964117E+03  0.11675323143E+04  0.89187037382E+02 0.  0.
         13    1    3    3    0    0  0.24488271480E+03  0.47211348177E+03 -0.76349563445E+03  0.93047529118E+03  0.00000000000E+00 0. -1.
        -13    1    3    3    0    0  0.61491505253E+02  0.79964226633E+02 -0.21452400672E+03  0.23705702314E+03  0.00000000000E+00 0.  1.
         22    1    1    2    0    0 -0.30637422005E+03 -0.55207770840E+03 -0.68694084902E+03  0.93302877173E+03  0.00000000000E+00 0. -1.
<mgrwt>
<rscale>  0 0.12807277E+04</rscale>
<asrwt>0</asrwt>
<pdfrwt beam="1">  1        1 0.33507739E-01 0.12807277E+04</pdfrwt>
<pdfrwt beam="2">  1       -1 0.28965550E+00 0.12807277E+04</pdfrwt>
<totfact> 0.50686554E+00</totfact>
</mgrwt>
</event>
<event>
 6    1  0.1528034E-005  0.2469098E+04  0.7818608E-02  0.8414078E-01
         -3   -1    0    0    0  501 -0.00000000000E+00  0.00000000000E+00  0.12093436836E+04  0.12093436836E+04  0.00000000000E+00 0.  1.
          3   -1    0    0  501    0  0.00000000000E+00 -0.00000000000E+00 -0.12602792782E+04  0.12602792782E+04  0.00000000000E+00 0. -1.
         23    2    1    2    0    0  0.86039806087E+03 -0.71290108005E+03  0.49563114798E+03  0.12257387320E+04  0.90952905913E+02 0.  0.
         11    1    3    3    0    0  0.65204793494E+03 -0.50971289520E+03  0.33092630386E+03  0.89133942109E+03  0.00000000000E+00 0.  1.
        -11    1    3    3    0    0  0.20835012592E+03 -0.20318818485E+03  0.16470484411E+03  0.33439931087E+03  0.00000000000E+00 0. -1.
         22    1    1    2    0    0 -0.86039806087E+03  0.71290108005E+03 -0.54656674254E+03  0.12438842298E+04  0.00000000000E+00 0. -1.
<mgrwt>
<rscale>  0 0.24690976E+04</rscale>
<asrwt>0</asrwt>
<pdfrwt beam="1">  1        3 0.19388912E+00 0.24690976E+04</pdfrwt>
<pdfrwt beam="2">  1       -3 0.18605287E+00 0.24690976E+04</pdfrwt>
<totfact> 0.67595097E-02</totfact>
</mgrwt>
</event>
<event>
 6    1  0.1528034E-005  0.1540108E+04  0.7818608E-02  0.8858211E-01
         -2   -1    0    0    0  501 -0.00000000000E+00  0.00000000000E+00  0.33973756009E+03  0.33973756009E+03  0.00000000000E+00 0.  1.
          2   -1    0    0  501    0  0.00000000000E+00 -0.00000000000E+00 -0.17454160596E+04  0.17454160596E+04  0.00000000000E+00 0. -1.
         23    2    1    2    0    0  0.36221919341E+03 -0.48429260840E+03 -0.65623667751E+02  0.61495328410E+03  0.90105500565E+02 0.  0.
         13    1    3    3    0    0  0.98890144397E+02 -0.19259759987E+03  0.21863129259E+00  0.21650206450E+03  0.00000000000E+00 0.  1.
        -13    1    3    3    0    0  0.26332904901E+03 -0.29169500853E+03 -0.65842299043E+02  0.39845121960E+03  0.00000000000E+00 0. -1.
         22    1    1    2    0    0 -0.36221919341E+03  0.48429260840E+03 -0.13400548317E+04  0.14702003356E+04  0.00000000000E+00 0. -1.
<mgrwt>
<rscale>  0 0.15401083E+04</rscale>
<asrwt>0</asrwt>
<pdfrwt beam="1">  1        2 0.26852554E+00 0.15401083E+04</pdfrwt>
<pdfrwt beam="2">  1       -2 0.52267318E-01 0.15401083E+04</pdfrwt>
<totfact> 0.30792399E+01</totfact>
</mgrwt>
</event>
<event>
 6    1  0.1528034E-005  0.2322018E+04  0.7818608E-02  0.8469290E-01
         -1   -1    0    0    0  501 -0.00000000000E+00  0.00000000000E+00  0.66821114412E+03  0.66821114412E+03  0.00000000000E+00 0.  1.
          1   -1    0    0  501    0  0.00000000000E+00 -0.00000000000E+00 -0.20172390729E+04  0.20172390729E+04  0.00000000000E+00 0. -1.
         23    2    1    2    0    0 -0.12285353131E+03  0.74072948406E+03  0.34621295022E+03  0.83136963719E+03  0.86826885419E+02 0.  0.
         13    1    3    3    0    0 -0.11932333649E+03  0.66598610094E+03  0.33732074773E+03  0.75601642319E+03  0.00000000000E+00 0. -1.
        -13    1    3    3    0    0 -0.35301948222E+01  0.74743383116E+02  0.88922024838E+01  0.75353214000E+02  0.00000000000E+00 0.  1.
         22    1    1    2    0    0  0.12285353131E+03 -0.74072948406E+03 -0.16952408790E+04  0.18540805798E+04  0.00000000000E+00 0. -1.
<mgrwt>
<rscale>  0 0.23220178E+04</rscale>
<asrwt>0</asrwt>
<pdfrwt beam="1">  1        1 0.31034447E+00 0.23220178E+04</pdfrwt>
<pdfrwt beam="2">  1       -1 0.10280172E+00 0.23220178E+04</pdfrwt>
<totfact> 0.23398787E+00</totfact>
</mgrwt>
</event>
<event>
 6    1  0.1528034E-005  0.1367330E+04  0.7818608E-02  0.8977813E-01
          1   -1    0    0  501    0  0.00000000000E+00  0.00000000000E+00  0.33099326199E+03  0.33099326199E+03  0.00000000000E+00 0. -1.
         -1   -1    0    0    0  501 -0.00000000000E+00 -0.00000000000E+00 -0.14121060170E+04  0.14121060170E+04  0.00000000000E+00 0.  1.
         23    2    1    2    0    0  0.22946997681E+03 -0.36783775624E+03  0.12496474953E+03  0.46146593355E+03  0.96817013116E+02 0.  0.
         11    1    3    3    0    0  0.57839006812E+02 -0.69418815939E+02  0.66716887059E+02  0.11231859033E+03  0.00000000000E+00 0.  1.
        -11    1    3    3    0    0  0.17163097000E+03 -0.29841894030E+03  0.58247862466E+02  0.34914734322E+03  0.00000000000E+00 0. -1.
         22    1    1    2    0    0 -0.22946997681E+03  0.36783775624E+03 -0.12060775045E+04  0.12816333454E+04  0.00000000000E+00 0.  1.
<mgrwt>
<rscale>  0 0.13673296E+04</rscale>
<asrwt>0</asrwt>
<pdfrwt beam="1">  1        1 0.50922039E-01 0.13673296E+04</pdfrwt>
<pdfrwt beam="2">  1       -1 0.21724708E+00 0.13673296E+04</pdfrwt>
<totfact> 0.86545042E+00</totfact>
</mgrwt>
</event>
<event>
 6    1  0.1528034E-005  0.1827016E+04  0.7818608E-02  0.8692063E-01
          2   -1    0    0  501    0  0.00000000000E+00  0.00000000000E+00  0.41451040371E+03  0.41451040371E+03  0.00000000000E+00 0. -1.
         -2   -1    0    0    0  501 -0.00000000000E+00 -0.00000000000E+00 -0.20132107700E+04  0.20132107700E+04  0.00000000000E+00 0.  1.
         23    2    1    2    0    0  0.12350736856E+03 -0.69898152358E+03 -0.43042759565E+02  0.71777970403E+03  0.97600122799E+02 0.  0.
         11    1    3    3    0    0  0.89670810895E+02 -0.28513980853E+03 -0.46746044523E+02  0.30254050541E+03  0.00000000000E+00 0. -1.
        -11    1    3    3    0    0  0.33836557661E+02 -0.41384171505E+03  0.37032849577E+01  0.41523919862E+03  0.00000000000E+00 0.  1.
         22    1    1    2    0    0 -0.12350736856E+03  0.69898152358E+03 -0.15556576067E+04  0.17099414696E+04  0.00000000000E+00 0.  1.
<mgrwt>
<rscale>  0 0.18270159E+04</rscale>
<asrwt>0</asrwt>
<pdfrwt beam="1">  1        2 0.63770831E-01 0.18270159E+04</pdfrwt>
<pdfrwt beam="2">  1       -2 0.30972474E+00 0.18270159E+04</pdfrwt>
<totfact> 0.19971144E+00</totfact>
</mgrwt>
</event>
<event>
 6    1  0.1528034E-005  0.1955980E+04  0.7818608E-02  0.8627482E-01
         -1   -1    0    0    0  501 -0.00000000000E+00  0.00000000000E+00  0.18306603305E+04  0.18306603305E+04  0.00000000000E+00 0. -1.
          1   -1    0    0  501    0  0.00000000000E+00 -0.00000000000E+00 -0.52246985152E+03  0.52246985152E+03  0.00000000000E+00 0.  1.
         23    2    1    2    0    0  0.39386666161E+03  0.48455536830E+03  0.15578153919E+04  0.16806441605E+04  0.88606697178E+02 0.  0.
         13    1    3    3    0    0  0.20318538485E+03  0.22213037771E+03  0.64201836797E+03  0.70909363989E+03  0.00000000000E+00 0. -1.
        -13    1    3    3    0    0  0.19068127676E+03  0.26242499059E+03  0.91579702392E+03  0.97155052057E+03  0.00000000000E+00 0.  1.
         22    1    1    2    0    0 -0.39386666161E+03 -0.48455536830E+03 -0.24962491291E+03  0.67248602158E+03  0.00000000000E+00 0.  1.
<mgrwt>
<rscale>  0 0.19559804E+04</rscale>
<asrwt>0</asrwt>
<pdfrwt beam="1">  1        1 0.80379978E-01 0.19559804E+04</pdfrwt>
<pdfrwt beam="2">  1       -1 0.28164005E+00 0.19559804E+04</pdfrwt>
<totfact> 0.16869604E+00</totfact>
</mgrwt>
</event>
<event>
 6    1  0.1528034E-005  0.1559168E+04  0.7818608E-02  0.8846033E-01
          4   -1    0    0  501    0  0.00000000000E+00  0.00000000000E+00  0.77977109883E+03  0.77977109883E+03  0.00000000000E+00 0. -1.
         -4   -1    0    0    0  501 -0.00000000000E+00 -0.00000000000E+00 -0.77939669735E+03  0.77939669735E+03  0.00000000000E+00 0.  1.
         23    2    1    2    0    0  0.14291850342E+03  0.54417230720E+03 -0.53562251695E+03  0.78209515150E+03  0.90731178722E+02 0.  0.
         11    1    3    3    0    0  0.10070071253E+03  0.44360754742E+03 -0.47337435248E+03  0.65651471211E+03  0.00000000000E+00 0.  1.
        -11    1    3    3    0    0  0.42217790895E+02  0.10056475977E+03 -0.62248164470E+02  0.12558043939E+03  0.00000000000E+00 0. -1.
         22    1    1    2    0    0 -0.14291850342E+03 -0.54417230720E+03  0.53599691843E+03  0.77707264468E+03  0.00000000000E+00 0. -1.
<mgrwt>
<rscale>  0 0.15591678E+04</rscale>
<asrwt>0</asrwt>
<pdfrwt beam="1">  1        4 0.11996478E+00 0.15591678E+04</pdfrwt>
<pdfrwt beam="2">  1       -4 0.11990718E+00 0.15591678E+04</pdfrwt>
<totfact> 0.54069571E-01</totfact>
</mgrwt>
</event>
<event>
 6    1  0.1528034E-005  0.1000954E+04  0.7818608E-02  0.9307499E-01
         -1   -1    0    0    0  501 -0.00000000000E+00  0.00000000000E+00  0.92020983482E+03  0.92020983482E+03  0.00000000000E+00 0.  1.
          1   -1    0    0  501    0  0.00000000000E+00 -0.00000000000E+00 -0.27219595831E+03  0.27219595831E+03  0.00000000000E+00 0. -1.
         23    2    1    2    0    0  0.20168147524E+03  0.38258722279E+03  0.61548088785E+03  0.75869298971E+03  0.98741727927E+02 0.  0.
         11    1    3    3    0    0  0.14555497171E+03  0.19409663182E+03  0.28665086276E+03  0.37553757388E+03  0.00000000000E+00 0. -1.
        -11    1    3    3    0    0  0.56126503532E+02  0.18849059097E+03  0.32883002509E+03  0.38315541584E+03  0.00000000000E+00 0.  1.
         22    1    1    2    0    0 -0.20168147524E+03 -0.38258722279E+03  0.32532988659E+02  0.43371280342E+03  0.00000000000E+00 0. -1.
<mgrwt>
<rscale>  0 0.10009543E+04</rscale>
<asrwt>0</asrwt>
<pdfrwt beam="1">  1        1 0.41876302E-01 0.10009543E+04</pdfrwt>
<pdfrwt beam="2">  1       -1 0.14157074E+00 0.10009543E+04</pdfrwt>
<totfact> 0.40634785E+01</totfact>
</mgrwt>
</event>
<event>
 6    1  0.1528034E-005  0.3351756E+04  0.7818608E-02  0.8149850E-01
         -1   -1    0    0    0  501 -0.00000000000E+00  0.00000000000E+00  0.63206704032E+03  0.63206704032E+03  0.00000000000E+00 0.  1.
          1   -1    0    0  501    0  0.00000000000E+00 -0.00000000000E+00 -0.44434631209E+04  0.44434631209E+04  0.00000000000E+00 0. -1.
         23    2    1    2    0    0 -0.12406284241E+04  0.33746493982E+02 -0.36101225697E+04  0.38182279944E+04  0.74715037328E+02 0.  0.
         11    1    3    3    0    0 -0.75877729263E+03 -0.76333615001E+00 -0.22953705040E+04  0.24175337253E+04  0.00000000000E+00 0. -1.
        -11    1    3    3    0    0 -0.48185113143E+03  0.34509830132E+02 -0.13147520657E+04  0.14006942691E+04  0.00000000000E+00 0.  1.
         22    1    1    2    0    0  0.12406284241E+04 -0.33746493982E+02 -0.20127351089E+03  0.12573021668E+04  0.00000000000E+00 0.  1.
<mgrwt>
<rscale>  0 0.33517557E+04</rscale>
<asrwt>0</asrwt>
<pdfrwt beam="1">  1        1 0.68360969E+00 0.33517557E+04</pdfrwt>
<pdfrwt beam="2">  1       -1 0.97241087E-01 0.33517557E+04</pdfrwt>
<totfact> 0.30767890E-02</totfact>
</mgrwt>
</event>
<event>
 6    1  0.1528034E-005  0.8219808E+04  0.7818608E-02  0.7463244E-01
         -2   -1    0    0    0  501 -0.00000000000E+00  0.00000000000E+00  0.43315153467E+04  0.43315153467E+04  0.00000000000E+00 0.  1.
          2   -1    0    0  501    0  0.00000000000E+00 -0.00000000000E+00 -0.38996306013E+04  0.38996306013E+04  0.00000000000E+00 0. -1.
         23    2    1    2    0    0  0.97368018267E+03 -0.39894841642E+04  0.66418139065E+02  0.41083310316E+04  0.99676982504E+02 0.  0.
         11    1    3    3    0    0  0.63956360802E+03 -0.24152891988E+04  0.40372980393E+02  0.24988584394E+04  0.00000000000E+00 0. -1.
        -11    1    3    3    0    0  0.33411657465E+03 -0.15741949654E+04  0.26045158672E+02  0.16094725922E+04  0.00000000000E+00 0.  1.
         22    1    1    2    0    0 -0.97368018267E+03  0.39894841642E+04  0.36546660638E+03  0.41228149164E+04  0.00000000000E+00 0. -1.
<mgrwt>
<rscale>  0 0.82198077E+04</rscale>
<asrwt>0</asrwt>
<pdfrwt beam="1">  1        2 0.59994317E+00 0.82198077E+04</pdfrwt>
<pdfrwt beam="2">  1       -2 0.66638697E+00 0.82198077E+04</pdfrwt>
<totfact> 0.71680823E-05</totfact>
</mgrwt>
</event>
<event>
 6    1  0.1528034E-005  0.2238483E+04  0.7818608E-02  0.8502579E-01
         -1   -1    0    0    0  501 -0.00000000000E+00  0.00000000000E+00  0.40289224097E+03  0.40289224097E+03  0.00000000000E+00 0.  1.
          1   -1    0    0  501    0  0.00000000000E+00 -0.00000000000E+00 -0.31092720184E+04  0.31092720184E+04  0.00000000000E+00 0. -1.
         23    2    1    2    0    0  0.10464190990E+04 -0.35363232022E+03 -0.10905074003E+04  0.15548466337E+04  0.91065445426E+02 0.  0.
         13    1    3    3    0    0  0.83663426856E+03 -0.24632890895E+03 -0.87787771218E+03  0.12374587299E+04  0.00000000000E+00 0. -1.
        -13    1    3    3    0    0  0.20978483049E+03 -0.10730341127E+03 -0.21262968811E+03  0.31738790374E+03  0.00000000000E+00 0.  1.
         22    1    1    2    0    0 -0.10464190990E+04  0.35363232022E+03 -0.16158723771E+04  0.19573176257E+04  0.00000000000E+00 0. -1.
<mgrwt>
<rscale>  0 0.22384830E+04</rscale>
<asrwt>0</asrwt>
<pdfrwt beam="1">  1        1 0.47834953E+00 0.22384830E+04</pdfrwt>
<pdfrwt beam="2">  1       -1 0.61983423E-01 0.22384830E+04</pdfrwt>
<totfact> 0.11929097E+00</totfact>
</mgrwt>
</event>
<event>
 6    1  0.1528034E-005  0.1283723E+04  0.7818608E-02  0.9042574E-01
         -1   -1    0    0    0  501 -0.00000000000E+00  0.00000000000E+00  0.42651148437E+03  0.42651148437E+03  0.00000000000E+00 0.  1.
          1   -1    0    0  501    0  0.00000000000E+00 -0.00000000000E+00 -0.96594340174E+03  0.96594340174E+03  0.00000000000E+00 0. -1.
         23    2    1    2    0    0  0.55299673807E+03 -0.30963412429E+03 -0.18629830450E+03  0.66693298307E+03  0.91727108346E+02 0.  0.
         13    1    3    3    0    0  0.27894909683E+03 -0.20405230637E+03 -0.12004318702E+03  0.36586925138E+03  0.00000000000E+00 0.  1.
        -13    1    3    3    0    0  0.27404764124E+03 -0.10558181792E+03 -0.66255117476E+02  0.30106373169E+03  0.00000000000E+00 0. -1.
         22    1    1    2    0    0 -0.55299673807E+03  0.30963412429E+03 -0.35313361287E+03  0.72552190303E+03  0.00000000000E+00 0. -1.
<mgrwt>
<rscale>  0 0.12837226E+04</rscale>
<asrwt>0</asrwt>
<pdfrwt beam="1">  1        1 0.14860667E+00 0.12837226E+04</pdfrwt>
<pdfrwt beam="2">  1       -1 0.65617153E-01 0.12837226E+04</pdfrwt>
<totfact> 0.37282895E+01</totfact>
</mgrwt>
</event>
<event>
 6    1  0.1528034E-005  0.3789966E+04  0.7818608E-02  0.8048312E-01
         -2   -1    0    0    0  501 -0.00000000000E+00  0.00000000000E+00  0.12369293271E+04  0.12369293271E+04  0.00000000000E+00 0.  1.
          2   -1    0    0  501    0  0.00000000000E+00 -0.00000000000E+00 -0.29031248347E+04  0.29031248347E+04  0.00000000000E+00 0. -1.
         23    2    1    2    0    0  0.13291789849E+04  0.11793261740E+04 -0.11766327000E+03  0.17830477789E+04  0.88812937646E+02 0.  0.
         11    1    3    3    0    0  0.86935507404E+03  0.71796068963E+03 -0.89966535826E+02  0.11310790309E+04  0.00000000000E+00 0. -1.
        -11    1    3    3    0    0  0.45982391088E+03  0.46136548440E+03 -0.27696734173E+02  0.65196874794E+03  0.00000000000E+00 0.  1.
         22    1    1    2    0    0 -0.13291789849E+04 -0.11793261740E+04 -0.15485322375E+04  0.23570063830E+04  0.00000000000E+00 0.  1.
<mgrwt>
<rscale>  0 0.37899658E+04</rscale>
<asrwt>0</asrwt>
<pdfrwt beam="1">  1        2 0.44663459E+00 0.37899658E+04</pdfrwt>
<pdfrwt beam="2">  1       -2 0.19029682E+00 0.37899658E+04</pdfrwt>
<totfact> 0.24753026E-01</totfact>
</mgrwt>
</event>
<event>
 6    1  0.1528034E-005  0.1160989E+04  0.7818608E-02  0.9147705E-01
          2   -1    0    0  501    0  0.00000000000E+00  0.00000000000E+00  0.49710056547E+03  0.49710056547E+03  0.00000000000E+00 0.  1.
         -2   -1    0    0    0  501 -0.00000000000E+00 -0.00000000000E+00 -0.67787900431E+03  0.67787900431E+03  0.00000000000E+00 0. -1.
         23    2    1    2    0    0  0.38873967093E+03  0.40728494357E+02 -0.52048880074E+03  0.65711812887E+03  0.90101618168E+02 0.  0.
         13    1    3    3    0    0  0.11332700813E+03  0.35376676313E+02 -0.21629370009E+03  0.24673363106E+03  0.00000000000E+00 0. -1.
        -13    1    3    3    0    0  0.27541266280E+03  0.53518180436E+01 -0.30419510064E+03  0.41038449781E+03  0.00000000000E+00 0.  1.
         22    1    1    2    0    0 -0.38873967093E+03 -0.40728494357E+02  0.33971036189E+03  0.51786144091E+03  0.00000000000E+00 0.  1.
<mgrwt>
<rscale>  0 0.11609893E+04</rscale>
<asrwt>0</asrwt>
<pdfrwt beam="1">  1        2 0.76477010E-01 0.11609893E+04</pdfrwt>
<pdfrwt beam="2">  1       -2 0.10428908E+00 0.11609893E+04</pdfrwt>
<totfact> 0.45828771E+01</totfact>
</mgrwt>
</event>
<event>
 6    1  0.1528034E-005  0.1543777E+04  0.7818608E-02  0.8855852E-01
          1   -1    0    0  501    0  0.00000000000E+00  0.00000000000E+00  0.81935577542E+03  0.81935577542E+03  0.00000000000E+00 0. -1.
         -1   -1    0    0    0  501 -0.00000000000E+00 -0.00000000000E+00 -0.72717142578E+03  0.72717142578E+03  0.00000000000E+00 0.  1.
         23    2    1    2    0    0 -0.18502677980E+03 -0.59355745727E+02 -0.69929270672E+03  0.73154625384E+03  0.91605775131E+02 0.  0.
         13    1    3    3    0    0 -0.84263962302E+02  0.15102183320E+02 -0.21779783351E+03  0.23401792146E+03  0.00000000000E+00 0.  1.
        -13    1    3    3    0    0 -0.10076281750E+03 -0.74457929047E+02 -0.48149487321E+03  0.49752833238E+03  0.00000000000E+00 0. -1.
         22    1    1    2    0    0  0.18502677980E+03  0.59355745727E+02  0.79147705637E+03  0.81498094735E+03  0.00000000000E+00 0. -1.
<mgrwt>
<rscale>  0 0.15437773E+04</rscale>
<asrwt>0</asrwt>
<pdfrwt beam="1">  1        1 0.12605474E+00 0.15437773E+04</pdfrwt>
<pdfrwt beam="2">  1       -1 0.11187253E+00 0.15437773E+04</pdfrwt>
<totfact> 0.15037981E+01</totfact>
</mgrwt>
</event>
<event>
 6    1  0.1528034E-005  0.9416123E+03  0.7818608E-02  0.9375009E-01
         -2   -1    0    0    0  501 -0.00000000000E+00  0.00000000000E+00  0.51629662465E+03  0.51629662465E+03  0.00000000000E+00 0.  1.
          2   -1    0    0  501    0  0.00000000000E+00 -0.00000000000E+00 -0.42932382917E+03  0.42932382917E+03  0.00000000000E+00 0. -1.
         23    2    1    2    0    0  0.55229540965E+02  0.43097479695E+03 -0.12610646758E+03  0.46168621226E+03  0.91987714536E+02 0.  0.
         13    1    3    3    0    0  0.52789699974E+02  0.10218976903E+03 -0.40359114577E+02  0.12189487047E+03  0.00000000000E+00 0.  1.
        -13    1    3    3    0    0  0.24398409911E+01  0.32878502792E+03 -0.85747353001E+02  0.33979134179E+03  0.00000000000E+00 0. -1.
         22    1    1    2    0    0 -0.55229540965E+02 -0.43097479695E+03  0.21307926306E+03  0.48393424156E+03  0.00000000000E+00 0. -1.
<mgrwt>
<rscale>  0 0.94161233E+03</rscale>
<asrwt>0</asrwt>
<pdfrwt beam="1">  1        2 0.66049819E-01 0.94161233E+03</pdfrwt>
<pdfrwt beam="2">  1       -2 0.79430251E-01 0.94161233E+03</pdfrwt>
<totfact> 0.10329926E+02</totfact>
</mgrwt>
</event>
<event>
 6    1  0.1528034E-005  0.1002700E+04  0.7818608E-02  0.9305588E-01
          1   -1    0    0  501    0  0.00000000000E+00  0.00000000000E+00  0.14683179168E+04  0.14683179168E+04  0.00000000000E+00 0. -1.
         -1   -1    0    0    0  501 -0.00000000000E+00 -0.00000000000E+00 -0.17118363566E+03  0.17118363566E+03  0.00000000000E+00 0.  1.
         23    2    1    2    0    0  0.98899523536E+02 -0.41539798808E+03  0.10704718282E+04  0.11560633746E+04  0.90752337502E+02 0.  0.
         13    1    3    3    0    0  0.88907652237E+02 -0.26883515093E+03  0.60548263779E+03  0.66842062631E+03  0.00000000000E+00 0. -1.
        -13    1    3    3    0    0  0.99918712984E+01 -0.14656283715E+03  0.46498919040E+03  0.48764274825E+03  0.00000000000E+00 0.  1.
         22    1    1    2    0    0 -0.98899523536E+02  0.41539798808E+03  0.22666245291E+03  0.48343817786E+03  0.00000000000E+00 0.  1.
<mgrwt>
<rscale>  0 0.10027004E+04</rscale>
<asrwt>0</asrwt>
<pdfrwt beam="1">  1        1 0.22589506E+00 0.10027004E+04</pdfrwt>
<pdfrwt beam="2">  1       -1 0.26335945E-01 0.10027004E+04</pdfrwt>
<totfact> 0.88325258E+01</totfact>
</mgrwt>
</event>
<event>
 6    1  0.1528034E-005  0.2991217E+04  0.7818608E-02  0.8246243E-01
         -2   -1    0    0    0  501 -0.00000000000E+00  0.00000000000E+00  0.11120986482E+04  0.11120986482E+04  0.00000000000E+00 0.  1.
          2   -1    0    0  501    0  0.00000000000E+00 -0.00000000000E+00 -0.20113728938E+04  0.20113728938E+04  0.00000000000E+00 0. -1.
         23    2    1    2    0    0 -0.22130447757E+03  0.65454235011E+03  0.93349292132E+03  0.11647891154E+04  0.89012860889E+02 0.  0.
         11    1    3    3    0    0 -0.12173777503E+03  0.22640145463E+03  0.34975372331E+03  0.43405687588E+03  0.00000000000E+00 0. -1.
        -11    1    3    3    0    0 -0.99566702540E+02  0.42814089548E+03  0.58373919801E+03  0.73073223956E+03  0.00000000000E+00 0.  1.
         22    1    1    2    0    0  0.22130447757E+03 -0.65454235011E+03 -0.18327671670E+04  0.19586824266E+04  0.00000000000E+00 0. -1.
<mgrwt>
<rscale>  0 0.29912172E+04</rscale>
<asrwt>0</asrwt>
<pdfrwt beam="1">  1        2 0.30944198E+00 0.29912172E+04</pdfrwt>
<pdfrwt beam="2">  1       -2 0.17109210E+00 0.29912172E+04</pdfrwt>
<totfact> 0.11809824E+00</totfact>
</mgrwt>
</event>
<event>
 6    1  0.1528034E-005  0.2867465E+04  0.7818608E-02  0.8282624E-01
          1   -1    0    0  501    0  0.00000000000E+00  0.00000000000E+00  0.25992224063E+04  0.25992224063E+04  0.00000000000E+00 0. -1.
         -1   -1    0    0    0  501 -0.00000000000E+00 -0.00000000000E+00 -0.79084740093E+03  0.79084740093E+03  0.00000000000E+00 0.  1.
         23    2    1    2    0    0 -0.95666077798E+03  0.98663123028E+03  0.13822230305E+04  0.19512346762E+04  0.90195492278E+02 0.  0.
         13    1    3    3    0    0 -0.15636054949E+03  0.18972727635E+03  0.28852342996E+03  0.37906573370E+03  0.00000000000E+00 0. -1.
        -13    1    3    3    0    0 -0.80030022849E+03  0.79690395394E+03  0.10936996005E+04  0.15721689425E+04  0.00000000000E+00 0.  1.
         22    1    1    2    0    0  0.95666077798E+03 -0.98663123028E+03  0.42615197493E+03  0.14388351311E+04  0.00000000000E+00 0. -1.
<mgrwt>
<rscale>  0 0.28674646E+04</rscale>
<asrwt>0</asrwt>
<pdfrwt beam="1">  1        1 0.39988037E+00 0.28674646E+04</pdfrwt>
<pdfrwt beam="2">  1       -1 0.12166883E+00 0.28674646E+04</pdfrwt>
<totfact> 0.59476484E-01</totfact>
</mgrwt>
</event>
<event>
 6    1  0.1528034E-005  0.3388101E+04  0.7818608E-02  0.8140833E-01
         -2   -1    0    0    0  501 -0.00000000000E+00  0.00000000000E+00  0.59062049311E+03  0.59062049311E+03  0.00000000000E+00 0.  1.
          2   -1    0    0  501    0  0.00000000000E+00 -0.00000000000E+00 -0.48589704108E+04  0.48589704108E+04  0.00000000000E+00 0. -1.
         23    2    1    2    0    0 -0.15919149881E+04  0.16775483272E+03 -0.30215770512E+04  0.34206065289E+04  0.91028214638E+02 0.  0.
         13    1    3    3    0    0 -0.51697500782E+03  0.88334266006E+02 -0.93357467862E+03  0.10708070703E+04  0.00000000000E+00 0. -1.
        -13    1    3    3    0    0 -0.10749399803E+04  0.79420566713E+02 -0.20880023725E+04  0.23497994586E+04  0.00000000000E+00 0.  1.
         22    1    1    2    0    0  0.15919149881E+04 -0.16775483272E+03 -0.12467728665E+04  0.20289843750E+04  0.00000000000E+00 0.  1.
<mgrwt>
<rscale>  0 0.33881012E+04</rscale>
<asrwt>0</asrwt>
<pdfrwt beam="1">  1        2 0.74753393E+00 0.33881012E+04</pdfrwt>
<pdfrwt beam="2">  1       -2 0.90864689E-01 0.33881012E+04</pdfrwt>
<totfact> 0.43412149E-02</totfact>
</mgrwt>
</event>
<event>
 6    1  0.1528034E-005  0.2004216E+04  0.7818608E-02  0.8604652E-01
         -2   -1    0    0    0  501 -0.00000000000E+00  0.00000000000E+00  0.74461803767E+03  0.74461803767E+03  0.00000000000E+00 0.  1.
          2   -1    0    0  501    0  0.00000000000E+00 -0.00000000000E+00 -0.13486380138E+04  0.13486380138E+04  0.00000000000E+00 0. -1.
         23    2    1    2    0    0  0.95582976681E+03 -0.23483045876E+03 -0.11679538672E+03  0.99501031943E+03  0.87455622566E+02 0.  0.
         11    1    3    3    0    0  0.68720818774E+03 -0.15482935625E+03 -0.12071022366E+03  0.71470146281E+03  0.00000000000E+00 0.  1.
        -11    1    3    3    0    0  0.26862157908E+03 -0.80001102509E+02  0.39148369404E+01  0.28030885661E+03  0.00000000000E+00 0. -1.
         22    1    1    2    0    0 -0.95582976681E+03  0.23483045876E+03 -0.48722458944E+03  0.10982457321E+04  0.00000000000E+00 0. -1.
<mgrwt>
<rscale>  0 0.20042157E+04</rscale>
<asrwt>0</asrwt>
<pdfrwt beam="1">  1        2 0.20748277E+00 0.20042157E+04</pdfrwt>
<pdfrwt beam="2">  1       -2 0.11455662E+00 0.20042157E+04</pdfrwt>
<totfact> 0.85647681E+00</totfact>
</mgrwt>
</event>
<event>
 6    1  0.1528034E-005  0.8137394E+03  0.7818608E-02  0.9540340E-01
          2   -1    0    0  501    0  0.00000000000E+00  0.00000000000E+00  0.17608773283E+04  0.17608773283E+04  0.00000000000E+00 0. -1.
         -2   -1    0    0    0  501 -0.00000000000E+00 -0.00000000000E+00 -0.94011628157E+02  0.94011628157E+02  0.00000000000E+00 0.  1.
         23    2    1    2    0    0  0.20077629163E+03 -0.51520163023E+02  0.16287252706E+04  0.16441280994E+04  0.86288781521E+02 0.  0.
         13    1    3    3    0    0  0.84394847473E+02  0.21135494093E+02  0.67562172801E+03  0.68120035140E+03  0.00000000000E+00 0.  1.
        -13    1    3    3    0    0  0.11638144415E+03 -0.72655657115E+02  0.95310354257E+03  0.96292774802E+03  0.00000000000E+00 0. -1.
         22    1    1    2    0    0 -0.20077629163E+03  0.51520163023E+02  0.38140429527E+02  0.21076085699E+03  0.00000000000E+00 0.  1.
<mgrwt>
<rscale>  0 0.81373938E+03</rscale>
<asrwt>0</asrwt>
<pdfrwt beam="1">  1        2 0.27090418E+00 0.81373938E+03</pdfrwt>
<pdfrwt beam="2">  1       -2 0.14463329E-01 0.81373938E+03</pdfrwt>
<totfact> 0.34258411E+02</totfact>
</mgrwt>
</event>
<event>
 6    1  0.1528034E-005  0.1725791E+04  0.7818608E-02  0.8746790E-01
          1   -1    0    0  501    0  0.00000000000E+00  0.00000000000E+00  0.66773946252E+03  0.66773946252E+03  0.00000000000E+00 0.  1.
         -1   -1    0    0    0  501 -0.00000000000E+00 -0.00000000000E+00 -0.11150888939E+04  0.11150888939E+04  0.00000000000E+00 0. -1.
         23    2    1    2    0    0 -0.67480828518E+03 -0.27610237256E+03  0.24785390356E+03  0.77540271707E+03  0.90659110199E+02 0.  0.
         11    1    3    3    0    0 -0.61849925432E+03 -0.23927785079E+03  0.24827223509E+03  0.70812027241E+03  0.00000000000E+00 0. -1.
        -11    1    3    3    0    0 -0.56309030853E+02 -0.36824521766E+02 -0.41833153440E+00  0.67282444666E+02  0.00000000000E+00 0.  1.
         22    1    1    2    0    0  0.67480828518E+03  0.27610237256E+03 -0.69520333490E+03  0.10074256393E+04  0.00000000000E+00 0. -1.
<mgrwt>
<rscale>  0 0.17257912E+04</rscale>
<asrwt>0</asrwt>
<pdfrwt beam="1">  1        1 0.10272915E+00 0.17257912E+04</pdfrwt>
<pdfrwt beam="2">  1       -1 0.17155213E+00 0.17257912E+04</pdfrwt>
<totfact> 0.66584396E+00</totfact>
</mgrwt>
</event>
<event>
 6    1  0.1528034E-005  0.2699678E+04  0.7818608E-02  0.8335109E-01
         -2   -1    0    0    0  501 -0.00000000000E+00  0.00000000000E+00  0.10432392290E+04  0.10432392290E+04  0.00000000000E+00 0.  1.
          2   -1    0    0  501    0  0.00000000000E+00 -0.00000000000E+00 -0.17465466009E+04  0.17465466009E+04  0.00000000000E+00 0. -1.
         23    2    1    2    0    0 -0.76887364368E+02  0.10410022464E+04  0.52988707644E+03  0.11741231513E+04  0.90484897502E+02 0.  0.
         11    1    3    3    0    0  0.16194759297E+02  0.92647637609E+02  0.34888486667E+02  0.10031481189E+03  0.00000000000E+00 0. -1.
        -11    1    3    3    0    0 -0.93082123665E+02  0.94835460884E+03  0.49499858977E+03  0.10738083394E+04  0.00000000000E+00 0.  1.
         22    1    1    2    0    0  0.76887364368E+02 -0.10410022464E+04 -0.12331944483E+04  0.16156626787E+04  0.00000000000E+00 0. -1.
<mgrwt>
<rscale>  0 0.26996784E+04</rscale>
<asrwt>0</asrwt>
<pdfrwt beam="1">  1        2 0.26869947E+00 0.26996784E+04</pdfrwt>
<pdfrwt beam="2">  1       -2 0.16049834E+00 0.26996784E+04</pdfrwt>
<totfact> 0.20248778E+00</totfact>
</mgrwt>
</event>
<event>
 6    1  0.1528034E-005  0.3034966E+04  0.7818608E-02  0.8233816E-01
          1   -1    0    0  501    0  0.00000000000E+00  0.00000000000E+00  0.35434124651E+04  0.35434124651E+04  0.00000000000E+00 0. -1.
         -1   -1    0    0    0  501 -0.00000000000E+00 -0.00000000000E+00 -0.64986920694E+03  0.64986920694E+03  0.00000000000E+00 0.  1.
         23    2    1    2    0    0 -0.88014250148E+02 -0.13391559704E+04  0.47352109668E+03  0.14260461412E+04  0.91105139461E+02 0.  0.
         11    1    3    3    0    0 -0.47178675457E+02 -0.10173618496E+04  0.32298561364E+03  0.10684431043E+04  0.00000000000E+00 0. -1.
        -11    1    3    3    0    0 -0.40835574690E+02 -0.32179412080E+03  0.15053548304E+03  0.35760303689E+03  0.00000000000E+00 0.  1.
         22    1    1    2    0    0  0.88014250148E+02  0.13391559704E+04  0.24200221615E+04  0.27672355309E+04  0.00000000000E+00 0.  1.
<mgrwt>
<rscale>  0 0.30349660E+04</rscale>
<asrwt>0</asrwt>
<pdfrwt beam="1">  1        1 0.54514037E+00 0.30349660E+04</pdfrwt>
<pdfrwt beam="2">  1       -1 0.99979880E-01 0.30349660E+04</pdfrwt>
<totfact> 0.18662417E-01</totfact>
</mgrwt>
</event>
<event>
 6    1  0.1528034E-005  0.2162065E+04  0.7818608E-02  0.8534385E-01
         -2   -1    0    0    0  501 -0.00000000000E+00  0.00000000000E+00  0.41629848111E+03  0.41629848111E+03  0.00000000000E+00 0.  1.
          2   -1    0    0  501    0  0.00000000000E+00 -0.00000000000E+00 -0.28071963202E+04  0.28071963202E+04  0.00000000000E+00 0. -1.
         23    2    1    2    0    0 -0.35517354990E+03  0.12548366331E+03 -0.27052455433E+04  0.27328738892E+04  0.91388425074E+02 0.  0.
         13    1    3    3    0    0 -0.64024726632E+02  0.10021479171E+02 -0.73932977047E+03  0.74216447312E+03  0.00000000000E+00 0.  1.
        -13    1    3    3    0    0 -0.29114882327E+03  0.11546218414E+03 -0.19659157728E+04  0.19907094161E+04  0.00000000000E+00 0. -1.
         22    1    1    2    0    0  0.35517354990E+03 -0.12548366331E+03  0.31434770420E+03  0.49062091215E+03  0.00000000000E+00 0.  1.
<mgrwt>
<rscale>  0 0.21620653E+04</rscale>
<asrwt>0</asrwt>
<pdfrwt beam="1">  1        2 0.43187636E+00 0.21620653E+04</pdfrwt>
<pdfrwt beam="2">  1       -2 0.64045920E-01 0.21620653E+04</pdfrwt>
<totfact> 0.47343709E+00</totfact>
</mgrwt>
</event>
<event>
 6    1  0.1528034E-005  0.6839880E+03  0.7818608E-02  0.9745013E-01
         -2   -1    0    0    0  501 -0.00000000000E+00  0.00000000000E+00  0.14861912332E+03  0.14861912332E+03  0.00000000000E+00 0.  1.
          2   -1    0    0  501    0  0.00000000000E+00 -0.00000000000E+00 -0.78697750265E+03  0.78697750265E+03  0.00000000000E+00 0. -1.
         23    2    1    2    0    0 -0.11442153144E+03  0.75642204391E+02  0.93008458851E+02  0.19147870391E+03  0.95913975470E+02 0.  0.
         11    1    3    3    0    0 -0.92826590437E+02  0.44185510657E+01  0.52929748724E+02  0.10694792090E+03  0.00000000000E+00 0.  1.
        -11    1    3    3    0    0 -0.21594941002E+02  0.71223653325E+02  0.40078710128E+02  0.84530783004E+02  0.00000000000E+00 0. -1.
         22    1    1    2    0    0  0.11442153144E+03 -0.75642204391E+02 -0.73136683818E+03  0.74411792206E+03  0.00000000000E+00 0. -1.
<mgrwt>
<rscale>  0 0.68398803E+03</rscale>
<asrwt>0</asrwt>
<pdfrwt beam="1">  1        2 0.12107346E+00 0.68398803E+03</pdfrwt>
<pdfrwt beam="2">  1       -2 0.22864480E-01 0.68398803E+03</pdfrwt>
<totfact> 0.59613949E+02</totfact>
</mgrwt>
</event>
<event>
 6    1  0.1528034E-005  0.1960815E+04  0.7818608E-02  0.8625163E-01
         -1   -1    0    0    0  501 -0.00000000000E+00  0.00000000000E+00  0.35769573133E+03  0.35769573133E+03  0.00000000000E+00 0.  1.
          1   -1    0    0  501    0  0.00000000000E+00 -0.00000000000E+00 -0.26871970832E+04  0.26871970832E+04  0.00000000000E+00 0. -1.
         23    2    1    2    0    0 -0.85500955882E+03 -0.42658980211E+03 -0.83610038727E+03  0.12719668020E+04  0.76259312685E+02 0.  0.
         11    1    3    3    0    0 -0.29039287450E+03 -0.15929620307E+03 -0.24539014481E+03  0.41221308209E+03  0.00000000000E+00 0. -1.
        -11    1    3    3    0    0 -0.56461668432E+03 -0.26729359904E+03 -0.59071024245E+03  0.85975371987E+03  0.00000000000E+00 0.  1.
         22    1    1    2    0    0  0.85500955882E+03  0.42658980211E+03 -0.14934009646E+04  0.17729260125E+04  0.00000000000E+00 0. -1.
<mgrwt>
<rscale>  0 0.19608151E+04</rscale>
<asrwt>0</asrwt>
<pdfrwt beam="1">  1        1 0.41341492E+00 0.19608151E+04</pdfrwt>
<pdfrwt beam="2">  1       -1 0.55030114E-01 0.19608151E+04</pdfrwt>
<totfact> 0.31159981E+00</totfact>
</mgrwt>
</event>
<event>
 6    1  0.1528034E-005  0.2326125E+04  0.7818608E-02  0.8467691E-01
         -1   -1    0    0    0  501 -0.00000000000E+00  0.00000000000E+00  0.64056260460E+03  0.64056260460E+03  0.00000000000E+00 0.  1.
          1   -1    0    0  501    0  0.00000000000E+00 -0.00000000000E+00 -0.21117592418E+04  0.21117592418E+04  0.00000000000E+00 0. -1.
         23    2    1    2    0    0 -0.11237354823E+04  0.27881681103E+03 -0.84210405587E+03  0.14346429310E+04  0.92416721441E+02 0.  0.
         13    1    3    3    0    0 -0.85495924388E+03  0.25064665773E+03 -0.65977338675E+03  0.11086387949E+04  0.00000000000E+00 0.  1.
        -13    1    3    3    0    0 -0.26877623838E+03  0.28170153308E+02 -0.18233066912E+03  0.32600413610E+03  0.00000000000E+00 0. -1.
         22    1    1    2    0    0  0.11237354823E+04 -0.27881681103E+03 -0.62909258136E+03  0.13176789154E+04  0.00000000000E+00 0. -1.
<mgrwt>
<rscale>  0 0.23261247E+04</rscale>
<asrwt>0</asrwt>
<pdfrwt beam="1">  1        1 0.32488603E+00 0.23261247E+04</pdfrwt>
<pdfrwt beam="2">  1       -1 0.98548094E-01 0.23261247E+04</pdfrwt>
<totfact> 0.22231805E+00</totfact>
</mgrwt>
</event>
<event>
 6    1  0.1528034E-005  0.9825523E+03  0.7818608E-02  0.9327891E-01
         -2   -1    0    0    0  501 -0.00000000000E+00  0.00000000000E+00  0.28917363280E+03  0.28917363280E+03  0.00000000000E+00 0.  1.
          2   -1    0    0  501    0  0.00000000000E+00 -0.00000000000E+00 -0.83462740665E+03  0.83462740665E+03  0.00000000000E+00 0. -1.
         23    2    1    2    0    0  0.23251764691E+03 -0.18040197573E+03 -0.71887638949E+03  0.78220956915E+03  0.91974005742E+02 0.  0.
         13    1    3    3    0    0  0.11550514824E+03 -0.14448584099E+03 -0.46222571250E+03  0.49786565137E+03  0.00000000000E+00 0.  1.
        -13    1    3    3    0    0  0.11701249867E+03 -0.35916134732E+02 -0.25665067699E+03  0.28434391778E+03  0.00000000000E+00 0. -1.
         22    1    1    2    0    0 -0.23251764691E+03  0.18040197573E+03  0.17342261564E+03  0.34159147030E+03  0.00000000000E+00 0.  1.
<mgrwt>
<rscale>  0 0.98255227E+03</rscale>
<asrwt>0</asrwt>
<pdfrwt beam="1">  1        2 0.12840422E+00 0.98255227E+03</pdfrwt>
<pdfrwt beam="2">  1       -2 0.44488251E-01 0.98255227E+03</pdfrwt>
<totfact> 0.15573002E+02</totfact>
</mgrwt>
</event>
<event>
 6    1  0.1528034E-005  0.3169124E+04  0.7818608E-02  0.8197019E-01
         -2   -1    0    0    0  501 -0.00000000000E+00  0.00000000000E+00  0.81117944104E+03  0.81117944104E+03  0.00000000000E+00 0.  1.
          2   -1    0    0  501    0  0.00000000000E+00 -0.00000000000E+00 -0.30952920974E+04  0.30952920974E+04  0.00000000000E+00 0. -1.
         23    2    1    2    0    0 -0.49360833270E+03  0.64136236614E+03  0.53438512473E+03  0.97407923644E+03  0.90928689198E+02 0.  0.
         11    1    3    3    0    0 -0.75246424233E+02  0.15891816225E+03  0.11463771267E+03  0.20990191000E+03  0.00000000000E+00 0. -1.
        -11    1    3    3    0    0 -0.41836190847E+03  0.48244420389E+03  0.41974741205E+03  0.76417732644E+03  0.00000000000E+00 0.  1.
         22    1    1    2    0    0  0.49360833270E+03 -0.64136236614E+03 -0.28184977811E+04  0.29323923020E+04  0.00000000000E+00 0. -1.
<mgrwt>
<rscale>  0 0.31691244E+04</rscale>
<asrwt>0</asrwt>
<pdfrwt beam="1">  1        2 0.47619879E+00 0.31691244E+04</pdfrwt>
<pdfrwt beam="2">  1       -2 0.12479683E+00 0.31691244E+04</pdfrwt>
<totfact> 0.61538655E-01</totfact>
</mgrwt>
</event>
<event>
 6    1  0.1528034E-005  0.3808237E+04  0.7818608E-02  0.8044390E-01
          2   -1    0    0  501    0  0.00000000000E+00  0.00000000000E+00  0.31384008705E+04  0.31384008705E+04  0.00000000000E+00 0. -1.
         -2   -1    0    0    0  501 -0.00000000000E+00 -0.00000000000E+00 -0.11552592437E+04  0.11552592437E+04  0.00000000000E+00 0.  1.
         23    2    1    2    0    0 -0.37355037732E+03  0.11949829868E+04 -0.62377154787E+03  0.14016849201E+04  0.90030261496E+02 0.  0.
         11    1    3    3    0    0 -0.14019637013E+03  0.59090671098E+03 -0.28537080888E+03  0.67101584321E+03  0.00000000000E+00 0.  1.
        -11    1    3    3    0    0 -0.23335400719E+03  0.60407627585E+03 -0.33840073899E+03  0.73066907685E+03  0.00000000000E+00 0. -1.
         22    1    1    2    0    0  0.37355037732E+03 -0.11949829868E+04  0.26069131747E+04  0.28919751941E+04  0.00000000000E+00 0. -1.
<mgrwt>
<rscale>  0 0.38082367E+04</rscale>
<asrwt>0</asrwt>
<pdfrwt beam="1">  1        2 0.48283090E+00 0.38082367E+04</pdfrwt>
<pdfrwt beam="2">  1       -2 0.17773219E+00 0.38082367E+04</pdfrwt>
<totfact> 0.21400373E-01</totfact>
</mgrwt>
</event>
<event>
 6    1  0.1528034E-005  0.1214893E+04  0.7818608E-02  0.9099919E-01
          1   -1    0    0  501    0  0.00000000000E+00  0.00000000000E+00  0.52496633951E+03  0.52496633951E+03  0.00000000000E+00 0. -1.
         -1   -1    0    0    0  501 -0.00000000000E+00 -0.00000000000E+00 -0.70288582235E+03  0.70288582235E+03  0.00000000000E+00 0.  1.
         23    2    1    2    0    0 -0.67530018982E+02 -0.54027347919E+03 -0.35354080393E+03  0.65575200961E+03  0.92541138308E+02 0.  0.
         13    1    3    3    0    0 -0.77967308920E+02 -0.26386364821E+03 -0.16184232645E+03  0.31921131674E+03  0.00000000000E+00 0. -1.
        -13    1    3    3    0    0  0.10437289939E+02 -0.27640983098E+03 -0.19169847748E+03  0.33654069287E+03  0.00000000000E+00 0.  1.
         22    1    1    2    0    0  0.67530018982E+02  0.54027347919E+03  0.17562132109E+03  0.57210015225E+03  0.00000000000E+00 0. -1.
<mgrwt>
<rscale>  0 0.12148932E+04</rscale>
<asrwt>0</asrwt>
<pdfrwt beam="1">  1        1 0.80764052E-01 0.12148932E+04</pdfrwt>
<pdfrwt beam="2">  1       -1 0.10813628E+00 0.12148932E+04</pdfrwt>
<totfact> 0.32554795E+01</totfact>
</mgrwt>
</event>
<event>
 6    1  0.1528034E-005  0.9347682E+03  0.7818608E-02  0.9383134E-01
         -2   -1    0    0    0  501 -0.00000000000E+00  0.00000000000E+00  0.17672715948E+03  0.17672715948E+03  0.00000000000E+00 0.  1.
          2   -1    0    0  501    0  0.00000000000E+00 -0.00000000000E+00 -0.12360742810E+04  0.12360742810E+04  0.00000000000E+00 0. -1.
         23    2    1    2    0    0 -0.21242927032E+03  0.31303968331E+03 -0.13192421555E+03  0.41118610277E+03  0.92466070776E+02 0.  0.
         11    1    3    3    0    0 -0.64170959206E+02  0.16982237831E+03 -0.81361034086E+02  0.19894011673E+03  0.00000000000E+00 0.  1.
        -11    1    3    3    0    0 -0.14825831112E+03  0.14321730501E+03 -0.50563181461E+02  0.21224598603E+03  0.00000000000E+00 0. -1.
         22    1    1    2    0    0  0.21242927032E+03 -0.31303968331E+03 -0.92742290596E+03  0.10016153377E+04  0.00000000000E+00 0. -1.
<mgrwt>
<rscale>  0 0.93476820E+03</rscale>
<asrwt>0</asrwt>
<pdfrwt beam="1">  1        2 0.19016527E+00 0.93476820E+03</pdfrwt>
<pdfrwt beam="2">  1       -2 0.27188794E-01 0.93476820E+03</pdfrwt>
<totfact> 0.22179524E+02</totfact>
</mgrwt>
</event>
<event>
 6    1  0.1528034E-005  0.1849908E+04  0.7818608E-02  0.8680200E-01
          1   -1    0    0  501    0  0.00000000000E+00  0.00000000000E+00  0.16350927231E+04  0.16350927231E+04  0.00000000000E+00 0. -1.
         -1   -1    0    0    0  501 -0.00000000000E+00 -0.00000000000E+00 -0.52323621581E+03  0.52323621581E+03  0.00000000000E+00 0.  1.
         23    2    1    2    0    0  0.10588559863E+03  0.83201287677E+03  0.10886848027E+03  0.85087256508E+03  0.93137473196E+02 0.  0.
         13    1    3    3    0    0  0.10120181371E+03  0.68808289840E+03  0.12261698967E+03  0.70621158892E+03  0.00000000000E+00 0.  1.
        -13    1    3    3    0    0  0.46837849204E+01  0.14392997836E+03 -0.13748509405E+02  0.14466097616E+03  0.00000000000E+00 0. -1.
         22    1    1    2    0    0 -0.10588559863E+03 -0.83201287677E+03  0.10029880270E+04  0.13074563738E+04  0.00000000000E+00 0. -1.
<mgrwt>
<rscale>  0 0.18499078E+04</rscale>
<asrwt>0</asrwt>
<pdfrwt beam="1">  1        1 0.25155272E+00 0.18499078E+04</pdfrwt>
<pdfrwt beam="2">  1       -1 0.80497880E-01 0.18499078E+04</pdfrwt>
<totfact> 0.76349803E+00</totfact>
</mgrwt>
</event>
<event>
 6    1  0.1528034E-005  0.2705982E+04  0.7818608E-02  0.8333067E-01
         -2   -1    0    0    0  501 -0.00000000000E+00  0.00000000000E+00  0.60754636912E+03  0.60754636912E+03  0.00000000000E+00 0.  1.
          2   -1    0    0  501    0  0.00000000000E+00 -0.00000000000E+00 -0.30130783301E+04  0.30130783301E+04  0.00000000000E+00 0. -1.
         23    2    1    2    0    0  0.24947216300E+03 -0.13141863250E+04 -0.14613180773E+04  0.19832909168E+04  0.93114342023E+02 0.  0.
         13    1    3    3    0    0  0.18840683652E+03 -0.96645768046E+03 -0.10136852306E+04  0.14131862336E+04  0.00000000000E+00 0.  1.
        -13    1    3    3    0    0  0.61065326483E+02 -0.34772864454E+03 -0.44763284676E+03  0.57010468322E+03  0.00000000000E+00 0. -1.
         22    1    1    2    0    0 -0.24947216300E+03  0.13141863250E+04 -0.94421388369E+03  0.16373337824E+04  0.00000000000E+00 0.  1.
<mgrwt>
<rscale>  0 0.27059821E+04</rscale>
<asrwt>0</asrwt>
<pdfrwt beam="1">  1        2 0.46355050E+00 0.27059821E+04</pdfrwt>
<pdfrwt beam="2">  1       -2 0.93468675E-01 0.27059821E+04</pdfrwt>
<totfact> 0.14498654E+00</totfact>
</mgrwt>
</event>
<event>
 6    1  0.1528034E-005  0.1512607E+04  0.7818608E-02  0.8876113E-01
          2   -1    0    0  501    0  0.00000000000E+00  0.00000000000E+00  0.96481556066E+03  0.96481556066E+03  0.00000000000E+00 0. -1.
         -2   -1    0    0    0  501 -0.00000000000E+00 -0.00000000000E+00 -0.59285388154E+03  0.59285388154E+03  0.00000000000E+00 0.  1.
         23    2    1    2    0    0 -0.53057084790E+03 -0.23121514546E+03 -0.31027871603E+03  0.66300871046E+03  0.91333457142E+02 0.  0.
         11    1    3    3    0    0 -0.40142608014E+03 -0.18096593508E+03 -0.19023344852E+03  0.47966689735E+03  0.00000000000E+00 0. -1.
        -11    1    3    3    0    0 -0.12914476777E+03 -0.50249210373E+02 -0.12004526751E+03  0.18334181312E+03  0.00000000000E+00 0.  1.
         22    1    1    2    0    0  0.53057084790E+03  0.23121514546E+03  0.68224039516E+03  0.89466073174E+03  0.00000000000E+00 0. -1.
<mgrwt>
<rscale>  0 0.15126066E+04</rscale>
<asrwt>0</asrwt>
<pdfrwt beam="1">  1        2 0.14843316E+00 0.15126066E+04</pdfrwt>
<pdfrwt beam="2">  1       -2 0.91208289E-01 0.15126066E+04</pdfrwt>
<totfact> 0.26266127E+01</totfact>
</mgrwt>
</event>
<event>
 6    1  0.1528034E-005  0.2818535E+04  0.7818608E-02  0.8297537E-01
         -1   -1    0    0    0  501 -0.00000000000E+00  0.00000000000E+00  0.77167170017E+03  0.77167170017E+03  0.00000000000E+00 0.  1.
          1   -1    0    0  501    0  0.00000000000E+00 -0.00000000000E+00 -0.25736789460E+04  0.25736789460E+04  0.00000000000E+00 0. -1.
         23    2    1    2    0    0  0.51728922677E+02 -0.10595016468E+04 -0.20005950330E+04  0.22661580173E+04  0.88724585320E+02 0.  0.
         11    1    3    3    0    0 -0.16160041642E+02 -0.57560770035E+03 -0.10814949890E+04  0.12252415203E+04  0.00000000000E+00 0. -1.
        -11    1    3    3    0    0  0.67888964319E+02 -0.48389394642E+03 -0.91910004399E+03  0.10409164970E+04  0.00000000000E+00 0.  1.
         22    1    1    2    0    0 -0.51728922677E+02  0.10595016468E+04  0.19858778724E+03  0.10791926289E+04  0.00000000000E+00 0.  1.
<mgrwt>
<rscale>  0 0.28185352E+04</rscale>
<asrwt>0</asrwt>
<pdfrwt beam="1">  1        1 0.39595061E+00 0.28185352E+04</pdfrwt>
<pdfrwt beam="2">  1       -1 0.11871872E+00 0.28185352E+04</pdfrwt>
<totfact> 0.66100710E-01</totfact>
</mgrwt>
</event>
<event>
 6    1  0.1528034E-005  0.3891029E+04  0.7818608E-02  0.8026898E-01
          2   -1    0    0  501    0  0.00000000000E+00  0.00000000000E+00  0.12068378034E+04  0.12068378034E+04  0.00000000000E+00 0. -1.
         -2   -1    0    0    0  501 -0.00000000000E+00 -0.00000000000E+00 -0.31363171629E+04  0.31363171629E+04  0.00000000000E+00 0.  1.
         23    2    1    2    0    0  0.10005655480E+04  0.46111833047E+03 -0.27536561077E+04  0.29672811194E+04  0.91508205523E+02 0.  0.
         13    1    3    3    0    0  0.12002109604E+03  0.36339843994E+02 -0.25485743988E+03  0.28403866360E+03  0.00000000000E+00 0. -1.
        -13    1    3    3    0    0  0.88054445192E+03  0.42477848648E+03 -0.24987986678E+04  0.26832424558E+04  0.00000000000E+00 0.  1.
         22    1    1    2    0    0 -0.10005655480E+04 -0.46111833047E+03  0.82417674819E+03  0.13758738469E+04  0.00000000000E+00 0. -1.
<mgrwt>
<rscale>  0 0.38910287E+04</rscale>
<asrwt>0</asrwt>
<pdfrwt beam="1">  1        2 0.18566735E+00 0.38910287E+04</pdfrwt>
<pdfrwt beam="2">  1       -2 0.48251033E+00 0.38910287E+04</pdfrwt>
<totfact> 0.31781900E-02</totfact>
</mgrwt>
</event>
<event>
 6    1  0.1528034E-005  0.4382239E+04  0.7818608E-02  0.7931584E-01
         -2   -1    0    0    0  501 -0.00000000000E+00  0.00000000000E+00  0.22037109588E+04  0.22037109588E+04  0.00000000000E+00 0.  1.
          2   -1    0    0  501    0  0.00000000000E+00 -0.00000000000E+00 -0.21786003746E+04  0.21786003746E+04  0.00000000000E+00 0. -1.
         23    2    1    2    0    0 -0.17951622483E+04 -0.48238506156E+03  0.11711831875E+04  0.21985564806E+04  0.81717161212E+02 0.  0.
         11    1    3    3    0    0 -0.15838103203E+04 -0.44539556720E+03  0.10566546202E+04  0.19553391850E+04  0.00000000000E+00 0. -1.
        -11    1    3    3    0    0 -0.21135192798E+03 -0.36989494355E+02  0.11452856727E+03  0.24321729559E+03  0.00000000000E+00 0.  1.
         22    1    1    2    0    0  0.17951622483E+04  0.48238506156E+03 -0.11460726033E+04  0.21837548528E+04  0.00000000000E+00 0. -1.
<mgrwt>
<rscale>  0 0.43822394E+04</rscale>
<asrwt>0</asrwt>
<pdfrwt beam="1">  1        2 0.33516929E+00 0.43822394E+04</pdfrwt>
<pdfrwt beam="2">  1       -2 0.33903245E+00 0.43822394E+04</pdfrwt>
<totfact> 0.74043861E-02</totfact>
</mgrwt>
</event>
<event>
 6    1  0.1528034E-005  0.3875875E+04  0.7818608E-02  0.8030066E-01
          2   -1    0    0  501    0  0.00000000000E+00  0.00000000000E+00  0.15527570887E+04  0.15527570887E+04  0.00000000000E+00 0.  1.
         -2   -1    0    0    0  501 -0.00000000000E+00 -0.00000000000E+00 -0.24186666115E+04  0.24186666115E+04  0.00000000000E+00 0. -1.
         23    2    1    2    0    0 -0.11059829451E+04  0.69609477047E+03 -0.18980119155E+04  0.23061965225E+04  0.91361722756E+02 0.  0.
         11    1    3    3    0    0 -0.27772463200E+03  0.14728749554E+03 -0.40254241181E+03  0.51074942083E+03  0.00000000000E+00 0. -1.
        -11    1    3    3    0    0 -0.82825831314E+03  0.54880727492E+03 -0.14954695037E+04  0.17954471016E+04  0.00000000000E+00 0.  1.
         22    1    1    2    0    0  0.11059829451E+04 -0.69609477047E+03  0.10321023927E+04  0.16652271777E+04  0.00000000000E+00 0.  1.
<mgrwt>
<rscale>  0 0.38758750E+04</rscale>
<asrwt>0</asrwt>
<pdfrwt beam="1">  1        2 0.23888571E+00 0.38758750E+04</pdfrwt>
<pdfrwt beam="2">  1       -2 0.37210255E+00 0.38758750E+04</pdfrwt>
<totfact> 0.10626170E-01</totfact>
</mgrwt>
</event>
<event>
 6    1  0.1528034E-005  0.8911878E+03  0.7818608E-02  0.9436665E-01
         -1   -1    0    0    0  501 -0.00000000000E+00  0.00000000000E+00  0.16125559431E+03  0.16125559431E+03  0.00000000000E+00 0.  1.
          1   -1    0    0  501    0  0.00000000000E+00 -0.00000000000E+00 -0.12312994988E+04  0.12312994988E+04  0.00000000000E+00 0. -1.
         23    2    1    2    0    0 -0.42606789459E+03  0.10168897418E+03 -0.45953725835E+03  0.64116114633E+03  0.89658382134E+02 0.  0.
         13    1    3    3    0    0 -0.17099639089E+03  0.24650939687E+01 -0.14492897346E+03  0.22416567475E+03  0.00000000000E+00 0.  1.
        -13    1    3    3    0    0 -0.25507150369E+03  0.99223880216E+02 -0.31460828489E+03  0.41699547158E+03  0.00000000000E+00 0. -1.
         22    1    1    2    0    0  0.42606789459E+03 -0.10168897418E+03 -0.61050664617E+03  0.75139394680E+03  0.00000000000E+00 0. -1.
<mgrwt>
<rscale>  0 0.89118782E+03</rscale>
<asrwt>0</asrwt>
<pdfrwt beam="1">  1        1 0.18943069E+00 0.89118782E+03</pdfrwt>
<pdfrwt beam="2">  1       -1 0.24808553E-01 0.89118782E+03</pdfrwt>
<totfact> 0.14492946E+02</totfact>
</mgrwt>
</event>
<event>
 6    1  0.1528034E-005  0.3534836E+04  0.7818608E-02  0.8105584E-01
         -1   -1    0    0    0  501 -0.00000000000E+00  0.00000000000E+00  0.19330731319E+04  0.19330731319E+04  0.00000000000E+00 0.  1.
          1   -1    0    0  501    0  0.00000000000E+00 -0.00000000000E+00 -0.16159586986E+04  0.16159586986E+04  0.00000000000E+00 0. -1.
         23    2    1    2    0    0 -0.16694160363E+04 -0.61949470185E+02  0.73437967422E+03  0.18271439362E+04  0.91399227763E+02 0.  0.
         13    1    3    3    0    0 -0.14277638548E+04 -0.64422261105E+02  0.59462738910E+03  0.15479798399E+04  0.00000000000E+00 0.  1.
        -13    1    3    3    0    0 -0.24165218148E+03  0.24727909200E+01  0.13975228512E+03  0.27916409637E+03  0.00000000000E+00 0. -1.
         22    1    1    2    0    0  0.16694160363E+04  0.61949470185E+02 -0.41726524097E+03  0.17218878942E+04  0.00000000000E+00 0. -1.
<mgrwt>
<rscale>  0 0.35348360E+04</rscale>
<asrwt>0</asrwt>
<pdfrwt beam="1">  1        1 0.24860903E+00 0.35348360E+04</pdfrwt>
<pdfrwt beam="2">  1       -1 0.29739587E+00 0.35348360E+04</pdfrwt>
<totfact> 0.15195046E-01</totfact>
</mgrwt>
</event>
<event>
 6    1  0.1528034E-005  0.1363769E+04  0.7818608E-02  0.8980470E-01
         -2   -1    0    0    0  501 -0.00000000000E+00  0.00000000000E+00  0.23834285506E+03  0.23834285506E+03  0.00000000000E+00 0.  1.
          2   -1    0    0  501    0  0.00000000000E+00 -0.00000000000E+00 -0.19508301275E+04  0.19508301275E+04  0.00000000000E+00 0. -1.
         23    2    1    2    0    0 -0.51022412393E+03 -0.68171474973E+02 -0.14954019853E+03  0.54363976730E+03  0.90586527549E+02 0.  0.
         13    1    3    3    0    0 -0.24083952678E+03 -0.65763284949E+02 -0.40070089626E+02  0.25285193175E+03  0.00000000000E+00 0.  1.
        -13    1    3    3    0    0 -0.26938459716E+03 -0.24081900243E+01 -0.10947010890E+03  0.29078783556E+03  0.00000000000E+00 0. -1.
         22    1    1    2    0    0  0.51022412393E+03  0.68171474973E+02 -0.15629470739E+04  0.16455332153E+04  0.00000000000E+00 0. -1.
<mgrwt>
<rscale>  0 0.13637689E+04</rscale>
<asrwt>0</asrwt>
<pdfrwt beam="1">  1        2 0.30012771E+00 0.13637689E+04</pdfrwt>
<pdfrwt beam="2">  1       -2 0.36668131E-01 0.13637689E+04</pdfrwt>
<totfact> 0.48661180E+01</totfact>
</mgrwt>
</event>
<event>
 6    1  0.1528034E-005  0.6642925E+04  0.7818608E-02  0.7615425E-01
         -1   -1    0    0    0  501 -0.00000000000E+00  0.00000000000E+00  0.38322981942E+04  0.38322981942E+04  0.00000000000E+00 0.  1.
          1   -1    0    0  501    0  0.00000000000E+00 -0.00000000000E+00 -0.28787201957E+04  0.28787201957E+04  0.00000000000E+00 0. -1.
         23    2    1    2    0    0 -0.10818927097E+03 -0.22723515507E+04 -0.19671357943E+04  0.30088763684E+04  0.91800209477E+02 0.  0.
         11    1    3    3    0    0 -0.11176679758E+03 -0.15394505023E+04 -0.13588560363E+04  0.20564263647E+04  0.00000000000E+00 0.  1.
        -11    1    3    3    0    0  0.35775266058E+01 -0.73290104840E+03 -0.60827975799E+03  0.95245000363E+03  0.00000000000E+00 0. -1.
         22    1    1    2    0    0  0.10818927097E+03  0.22723515507E+04  0.29207137928E+04  0.37021420216E+04  0.00000000000E+00 0.  1.
<mgrwt>
<rscale>  0 0.66429253E+04</rscale>
<asrwt>0</asrwt>
<pdfrwt beam="1">  1        1 0.44288003E+00 0.66429253E+04</pdfrwt>
<pdfrwt beam="2">  1       -1 0.58958434E+00 0.66429253E+04</pdfrwt>
<totfact> 0.23245533E-04</totfact>
</mgrwt>
</event>
<event>
 6    1  0.1528034E-005  0.3484284E+04  0.7818608E-02  0.8117525E-01
         -1   -1    0    0    0  501 -0.00000000000E+00  0.00000000000E+00  0.18470899022E+04  0.18470899022E+04  0.00000000000E+00 0.  1.
          1   -1    0    0  501    0  0.00000000000E+00 -0.00000000000E+00 -0.16431571293E+04  0.16431571293E+04  0.00000000000E+00 0. -1.
         23    2    1    2    0    0 -0.89704319604E+03  0.13022189619E+04  0.83160753796E+03  0.17889427287E+04  0.91017961247E+02 0.  0.
         11    1    3    3    0    0 -0.28478725182E+03  0.38459378778E+03  0.29554365867E+03  0.56246085604E+03  0.00000000000E+00 0. -1.
        -11    1    3    3    0    0 -0.61225594423E+03  0.91762517408E+03  0.53606387929E+03  0.12264818727E+04  0.00000000000E+00 0.  1.
         22    1    1    2    0    0  0.89704319604E+03 -0.13022189619E+04 -0.62767476507E+03  0.17013043028E+04  0.00000000000E+00 0. -1.
<mgrwt>
<rscale>  0 0.34842841E+04</rscale>
<asrwt>0</asrwt>
<pdfrwt beam="1">  1        1 0.25279340E+00 0.34842841E+04</pdfrwt>
<pdfrwt beam="2">  1       -1 0.28416768E+00 0.34842841E+04</pdfrwt>
<totfact> 0.17808518E-01</totfact>
</mgrwt>
</event>
<event>
 6    1  0.1528034E-005  0.1136035E+04  0.7818608E-02  0.9170764E-01
          2   -1    0    0  501    0  0.00000000000E+00  0.00000000000E+00  0.99595603863E+03  0.99595603863E+03  0.00000000000E+00 0. -1.
         -2   -1    0    0    0  501 -0.00000000000E+00 -0.00000000000E+00 -0.32395415635E+03  0.32395415635E+03  0.00000000000E+00 0.  1.
         23    2    1    2    0    0  0.21760385720E+03  0.21188436070E+02 -0.26641018044E+03  0.35636591060E+03  0.90674635398E+02 0.  0.
         13    1    3    3    0    0  0.67698653847E+02  0.35991683471E+02 -0.46042002670E+02  0.89433634733E+02  0.00000000000E+00 0. -1.
        -13    1    3    3    0    0  0.14990520335E+03 -0.14803247400E+02 -0.22036817777E+03  0.26693227587E+03  0.00000000000E+00 0.  1.
         22    1    1    2    0    0 -0.21760385720E+03 -0.21188436070E+02  0.93841206273E+03  0.96354428438E+03  0.00000000000E+00 0. -1.
<mgrwt>
<rscale>  0 0.11360354E+04</rscale>
<asrwt>0</asrwt>
<pdfrwt beam="1">  1        2 0.15322400E+00 0.11360354E+04</pdfrwt>
<pdfrwt beam="2">  1       -2 0.49839101E-01 0.11360354E+04</pdfrwt>
<totfact> 0.95611657E+01</totfact>
</mgrwt>
</event>
<event>
 6    1  0.1528034E-005  0.3328936E+04  0.7818608E-02  0.8155571E-01
          2   -1    0    0  501    0  0.00000000000E+00  0.00000000000E+00  0.19992931357E+04  0.19992931357E+04  0.00000000000E+00 0. -1.
         -2   -1    0    0    0  501 -0.00000000000E+00 -0.00000000000E+00 -0.13857169204E+04  0.13857169204E+04  0.00000000000E+00 0.  1.
         23    2    1    2    0    0  0.46786085173E+03 -0.13706204229E+04 -0.52460156295E+03  0.15430158174E+04  0.90536692167E+02 0.  0.
         13    1    3    3    0    0  0.61517708604E+02 -0.14682152691E+03 -0.86233761460E+02  0.18104488629E+03  0.00000000000E+00 0. -1.
        -13    1    3    3    0    0  0.40634314312E+03 -0.12237988960E+04 -0.43836780149E+03  0.13619709311E+04  0.00000000000E+00 0.  1.
         22    1    1    2    0    0 -0.46786085173E+03  0.13706204229E+04  0.11381777783E+04  0.18419942387E+04  0.00000000000E+00 0. -1.
<mgrwt>
<rscale>  0 0.33289364E+04</rscale>
<asrwt>0</asrwt>
<pdfrwt beam="1">  1        2 0.30758356E+00 0.33289364E+04</pdfrwt>
<pdfrwt beam="2">  1       -2 0.21318722E+00 0.33289364E+04</pdfrwt>
<totfact> 0.60869528E-01</totfact>
</mgrwt>
</event>
<event>
 6    1  0.1528034E-005  0.1337615E+04  0.7818608E-02  0.9000257E-01
          2   -1    0    0  501    0  0.00000000000E+00  0.00000000000E+00  0.60462453191E+03  0.60462453191E+03  0.00000000000E+00 0. -1.
         -2   -1    0    0    0  501 -0.00000000000E+00 -0.00000000000E+00 -0.73980383049E+03  0.73980383049E+03  0.00000000000E+00 0.  1.
         23    2    1    2    0    0  0.50403182076E+02  0.43584089936E+03 -0.57114076287E+03  0.72591387699E+03  0.90837302182E+02 0.  0.
         11    1    3    3    0    0  0.21468450866E+02  0.36901668486E+03 -0.51520717198E+03  0.63409197925E+03  0.00000000000E+00 0. -1.
        -11    1    3    3    0    0  0.28934731210E+02  0.66824214502E+02 -0.55933590887E+02  0.91821897734E+02  0.00000000000E+00 0.  1.
         22    1    1    2    0    0 -0.50403182076E+02 -0.43584089936E+03  0.43596146429E+03  0.61851448541E+03  0.00000000000E+00 0. -1.
<mgrwt>
<rscale>  0 0.13376151E+04</rscale>
<asrwt>0</asrwt>
<pdfrwt beam="1">  1        2 0.93019158E-01 0.13376151E+04</pdfrwt>
<pdfrwt beam="2">  1       -2 0.11381597E+00 0.13376151E+04</pdfrwt>
<totfact> 0.29047986E+01</totfact>
</mgrwt>
</event>
<event>
 6    1  0.1528034E-005  0.4061189E+04  0.7818608E-02  0.7992315E-01
          2   -1    0    0  501    0  0.00000000000E+00  0.00000000000E+00  0.36778348591E+04  0.36778348591E+04  0.00000000000E+00 0. -1.
         -2   -1    0    0    0  501 -0.00000000000E+00 -0.00000000000E+00 -0.11211253243E+04  0.11211253243E+04  0.00000000000E+00 0.  1.
         23    2    1    2    0    0 -0.17262509058E+04  0.70286094755E+03  0.22282431642E+04  0.29063836704E+04  0.89681320817E+02 0.  0.
         13    1    3    3    0    0 -0.12911304363E+04  0.55624234628E+03  0.17200304757E+04  0.22214698262E+04  0.00000000000E+00 0. -1.
        -13    1    3    3    0    0 -0.43512046948E+03  0.14661860127E+03  0.50821268849E+03  0.68491384418E+03  0.00000000000E+00 0.  1.
         22    1    1    2    0    0  0.17262509058E+04 -0.70286094755E+03  0.32846637055E+03  0.18925765131E+04  0.00000000000E+00 0.  1.
<mgrwt>
<rscale>  0 0.40611889E+04</rscale>
<asrwt>0</asrwt>
<pdfrwt beam="1">  1        2 0.56582074E+00 0.40611889E+04</pdfrwt>
<pdfrwt beam="2">  1       -2 0.17248082E+00 0.40611889E+04</pdfrwt>
<totfact> 0.97141364E-02</totfact>
</mgrwt>
</event>
<event>
 6    1  0.1528034E-005  0.3453053E+04  0.7818608E-02  0.8125007E-01
         -2   -1    0    0    0  501 -0.00000000000E+00  0.00000000000E+00  0.78247215948E+03  0.78247215948E+03  0.00000000000E+00 0.  1.
          2   -1    0    0  501    0  0.00000000000E+00 -0.00000000000E+00 -0.38095835683E+04  0.38095835683E+04  0.00000000000E+00 0. -1.
         23    2    1    2    0    0 -0.47390312119E+03 -0.16504854283E+04 -0.12920633407E+04  0.21509334211E+04  0.91654723260E+02 0.  0.
         11    1    3    3    0    0 -0.38370908698E+03 -0.12113459986E+04 -0.92897094198E+03  0.15740326562E+04  0.00000000000E+00 0. -1.
        -11    1    3    3    0    0 -0.90194034211E+02 -0.43913942977E+03 -0.36309239868E+03  0.57690076492E+03  0.00000000000E+00 0.  1.
         22    1    1    2    0    0  0.47390312119E+03  0.16504854283E+04 -0.17350480682E+04  0.24411223067E+04  0.00000000000E+00 0. -1.
<mgrwt>
<rscale>  0 0.34530526E+04</rscale>
<asrwt>0</asrwt>
<pdfrwt beam="1">  1        2 0.58608977E+00 0.34530526E+04</pdfrwt>
<pdfrwt beam="2">  1       -2 0.12038033E+00 0.34530526E+04</pdfrwt>
<totfact> 0.20941577E-01</totfact>
</mgrwt>
</event>
<event>
 6    1  0.1528034E-005  0.6976498E+03  0.7818608E-02  0.9721260E-01
          1   -1    0    0  501    0  0.00000000000E+00  0.00000000000E+00  0.31193864531E+03  0.31193864531E+03  0.00000000000E+00 0. -1.
         -1   -1    0    0    0  501 -0.00000000000E+00 -0.00000000000E+00 -0.39007285904E+03  0.39007285904E+03  0.00000000000E+00 0.  1.
         23    2    1    2    0    0  0.15599569157E+03  0.26029973546E+03 -0.20045235548E+03  0.37482297174E+03  0.90667002038E+02 0.  0.
         13    1    3    3    0    0  0.40891626584E+02  0.13175103890E+03 -0.12622375603E+03  0.18698368368E+03  0.00000000000E+00 0.  1.
        -13    1    3    3    0    0  0.11510406498E+03  0.12854869657E+03 -0.74228599449E+02  0.18783928806E+03  0.00000000000E+00 0. -1.
         22    1    1    2    0    0 -0.15599569157E+03 -0.26029973546E+03  0.12231814175E+03  0.32718853261E+03  0.00000000000E+00 0. -1.
<mgrwt>
<rscale>  0 0.69764977E+03</rscale>
<asrwt>0</asrwt>
<pdfrwt beam="1">  1        1 0.47990561E-01 0.69764977E+03</pdfrwt>
<pdfrwt beam="2">  1       -1 0.60011209E-01 0.69764977E+03</pdfrwt>
<totfact> 0.23791089E+02</totfact>
</mgrwt>
</event>
<event>
 6    1  0.1528034E-005  0.5950740E+03  0.7818608E-02  0.9915679E-01
         -2   -1    0    0    0  501 -0.00000000000E+00  0.00000000000E+00  0.54976897068E+02  0.54976897068E+02  0.00000000000E+00 0.  1.
          2   -1    0    0  501    0  0.00000000000E+00 -0.00000000000E+00 -0.16102814957E+04  0.16102814957E+04  0.00000000000E+00 0. -1.
         23    2    1    2    0    0  0.25808750628E+03  0.81202864133E+02 -0.10915957722E+04  0.11283888166E+04  0.92070221296E+02 0.  0.
         11    1    3    3    0    0  0.10474281356E+03  0.49788132169E+02 -0.30359964939E+03  0.32499640337E+03  0.00000000000E+00 0. -1.
        -11    1    3    3    0    0  0.15334469272E+03  0.31414731964E+02 -0.78799612277E+03  0.80339241325E+03  0.00000000000E+00 0.  1.
         22    1    1    2    0    0 -0.25808750628E+03 -0.81202864133E+02 -0.46370882650E+03  0.53686957617E+03  0.00000000000E+00 0. -1.
<mgrwt>
<rscale>  0 0.59507405E+03</rscale>
<asrwt>0</asrwt>
<pdfrwt beam="1">  1        2 0.24773564E+00 0.59507405E+03</pdfrwt>
<pdfrwt beam="2">  1       -2 0.84579832E-02 0.59507405E+03</pdfrwt>
<totfact> 0.10119126E+03</totfact>
</mgrwt>
</event>
<event>
 6    1  0.1976012E-005  0.3621033E+04  0.7818608E-02  0.8085691E-01
         -2   -1    0    0    0  501 -0.00000000000E+00  0.00000000000E+00  0.10936027985E+04  0.10936027985E+04  0.00000000000E+00 0.  1.
          2   -1    0    0  501    0  0.00000000000E+00 -0.00000000000E+00 -0.29974052030E+04  0.29974052030E+04  0.00000000000E+00 0. -1.
         23    2    1    2    0    0  0.11234938963E+02  0.15279553299E+04 -0.20473200027E+04  0.25562861977E+04  0.91138451612E+02 0.  0.
         13    1    3    3    0    0  0.35018804469E+02  0.86489189470E+03 -0.11003714935E+04  0.14000291890E+04  0.00000000000E+00 0.  1.
        -13    1    3    3    0    0 -0.23783865507E+02  0.66306343519E+03 -0.94694850914E+03  0.11562570088E+04  0.00000000000E+00 0. -1.
         22    1    1    2    0    0 -0.11234938963E+02 -0.15279553299E+04  0.14351759815E+03  0.15347218038E+04  0.00000000000E+00 0. -1.
<mgrwt>
<rscale>  0 0.36210334E+04</rscale>
<asrwt>0</asrwt>
<pdfrwt beam="1">  1        2 0.46113926E+00 0.36210334E+04</pdfrwt>
<pdfrwt beam="2">  1       -2 0.16824659E+00 0.36210334E+04</pdfrwt>
<totfact> 0.31172534E-01</totfact>
</mgrwt>
</event>
<event>
 6    1  0.1528034E-005  0.1025816E+04  0.7818608E-02  0.9280675E-01
         -2   -1    0    0    0  501 -0.00000000000E+00  0.00000000000E+00  0.15393398288E+03  0.15393398288E+03  0.00000000000E+00 0. -1.
          2   -1    0    0  501    0  0.00000000000E+00 -0.00000000000E+00 -0.17090083758E+04  0.17090083758E+04  0.00000000000E+00 0.  1.
         23    2    1    2    0    0  0.76259113146E+02 -0.15110575893E+03 -0.16551547446E+04  0.16663095041E+04  0.91660962818E+02 0.  0.
         11    1    3    3    0    0  0.44545712829E+02 -0.91704623297E+02 -0.13485141489E+04  0.13523625506E+04  0.00000000000E+00 0.  1.
        -11    1    3    3    0    0  0.31713400317E+02 -0.59401135634E+02 -0.30664059575E+03  0.31394695354E+03  0.00000000000E+00 0. -1.
         22    1    1    2    0    0 -0.76259113146E+02  0.15110575893E+03  0.10008035167E+03  0.19663285461E+03  0.00000000000E+00 0. -1.
<mgrwt>
<rscale>  0 0.10258157E+04</rscale>
<asrwt>0</asrwt>
<pdfrwt beam="1">  1        2 0.26292437E+00 0.10258157E+04</pdfrwt>
<pdfrwt beam="2">  1       -2 0.23682151E-01 0.10258157E+04</pdfrwt>
<totfact> 0.15298086E+02</totfact>
</mgrwt>
</event>
<event>
 6    1  0.1528034E-005  0.3349297E+04  0.7818608E-02  0.8150464E-01
         -1   -1    0    0    0  501 -0.00000000000E+00  0.00000000000E+00  0.16269258238E+04  0.16269258238E+04  0.00000000000E+00 0.  1.
          1   -1    0    0  501    0  0.00000000000E+00 -0.00000000000E+00 -0.17237707234E+04  0.17237707234E+04  0.00000000000E+00 0. -1.
         23    2    1    2    0    0  0.14180393866E+03 -0.13219364639E+04 -0.10651024413E+04  0.17059634264E+04  0.90794439878E+02 0.  0.
         11    1    3    3    0    0  0.11321858232E+03 -0.70098103616E+03 -0.59981143862E+03  0.92949804859E+03  0.00000000000E+00 0. -1.
        -11    1    3    3    0    0  0.28585356338E+02 -0.62095542769E+03 -0.46529100267E+03  0.77646537781E+03  0.00000000000E+00 0.  1.
         22    1    1    2    0    0 -0.14180393866E+03  0.13219364639E+04  0.96825754173E+03  0.16447331208E+04  0.00000000000E+00 0.  1.
<mgrwt>
<rscale>  0 0.33492967E+04</rscale>
<asrwt>0</asrwt>
<pdfrwt beam="1">  1        1 0.26519550E+00 0.33492967E+04</pdfrwt>
<pdfrwt beam="2">  1       -1 0.25029628E+00 0.33492967E+04</pdfrwt>
<totfact> 0.26329670E-01</totfact>
</mgrwt>
</event>
<event>
 6    1  0.1528034E-005  0.2450529E+04  0.7818608E-02  0.8420825E-01
         -2   -1    0    0    0  501 -0.00000000000E+00  0.00000000000E+00  0.46515265024E+03  0.46515265024E+03  0.00000000000E+00 0.  1.
          2   -1    0    0  501    0  0.00000000000E+00 -0.00000000000E+00 -0.32274850292E+04  0.32274850292E+04  0.00000000000E+00 0. -1.
         23    2    1    2    0    0 -0.68397446264E+03  0.92350446689E+03 -0.20165420573E+04  0.23226432379E+04  0.86880238676E+02 0.  0.
         13    1    3    3    0    0 -0.29680051269E+03  0.36629976078E+03 -0.75195150128E+03  0.88752302469E+03  0.00000000000E+00 0.  1.
        -13    1    3    3    0    0 -0.38717394995E+03  0.55720470611E+03 -0.12645905561E+04  0.14351202133E+04  0.00000000000E+00 0. -1.
         22    1    1    2    0    0  0.68397446264E+03 -0.92350446689E+03 -0.74579032165E+03  0.13699944415E+04  0.00000000000E+00 0.  1.
<mgrwt>
<rscale>  0 0.24505291E+04</rscale>
<asrwt>0</asrwt>
<pdfrwt beam="1">  1        2 0.49653614E+00 0.24505291E+04</pdfrwt>
<pdfrwt beam="2">  1       -2 0.71561949E-01 0.24505291E+04</pdfrwt>
<totfact> 0.19748001E+00</totfact>
</mgrwt>
</event>
<event>
 6    1  0.1528034E-005  0.2887554E+04  0.7818608E-02  0.8276590E-01
          1   -1    0    0  501    0  0.00000000000E+00  0.00000000000E+00  0.14310997122E+04  0.14310997122E+04  0.00000000000E+00 0. -1.
         -1   -1    0    0    0  501 -0.00000000000E+00 -0.00000000000E+00 -0.14565662325E+04  0.14565662325E+04  0.00000000000E+00 0.  1.
         23    2    1    2    0    0  0.44023849883E+03  0.15698315871E+03 -0.13773185089E+04  0.14572962557E+04  0.90843016943E+02 0.  0.
         13    1    3    3    0    0  0.34926646988E+03  0.16097123689E+03 -0.11390549191E+04  0.12022249851E+04  0.00000000000E+00 0. -1.
        -13    1    3    3    0    0  0.90972028958E+02 -0.39880781834E+01 -0.23826358984E+03  0.25507127055E+03  0.00000000000E+00 0.  1.
         22    1    1    2    0    0 -0.44023849883E+03 -0.15698315871E+03  0.13518519887E+04  0.14303696890E+04  0.00000000000E+00 0. -1.
<mgrwt>
<rscale>  0 0.28875536E+04</rscale>
<asrwt>0</asrwt>
<pdfrwt beam="1">  1        1 0.22016919E+00 0.28875536E+04</pdfrwt>
<pdfrwt beam="2">  1       -1 0.22408711E+00 0.28875536E+04</pdfrwt>
<totfact> 0.64879176E-01</totfact>
</mgrwt>
</event>
<event>
 6    1  0.1528034E-005  0.2263237E+04  0.7818608E-02  0.8492559E-01
          2   -1    0    0  501    0  0.00000000000E+00  0.00000000000E+00  0.87909121990E+03  0.87909121990E+03  0.00000000000E+00 0. -1.
         -2   -1    0    0    0  501 -0.00000000000E+00 -0.00000000000E+00 -0.14566865319E+04  0.14566865319E+04  0.00000000000E+00 0.  1.
         23    2    1    2    0    0  0.23570828599E+03 -0.28924816430E+02 -0.14292180101E+04  0.14516644893E+04  0.90942992382E+02 0.  0.
         13    1    3    3    0    0  0.13082466129E+03  0.14564336702E+02 -0.95576836765E+03  0.96479033189E+03  0.00000000000E+00 0. -1.
        -13    1    3    3    0    0  0.10488362470E+03 -0.43489153132E+02 -0.47344964249E+03  0.48687415740E+03  0.00000000000E+00 0.  1.
         22    1    1    2    0    0 -0.23570828599E+03  0.28924816430E+02  0.85162269810E+03  0.88411326254E+03  0.00000000000E+00 0. -1.
<mgrwt>
<rscale>  0 0.22632369E+04</rscale>
<asrwt>0</asrwt>
<pdfrwt beam="1">  1        2 0.13524480E+00 0.22632369E+04</pdfrwt>
<pdfrwt beam="2">  1       -2 0.22410562E+00 0.22632369E+04</pdfrwt>
<totfact> 0.25644921E+00</totfact>
</mgrwt>
</event>
<event>
 6    1  0.1528034E-005  0.1672623E+04  0.7818608E-02  0.8777134E-01
         -2   -1    0    0    0  501 -0.00000000000E+00  0.00000000000E+00  0.30170247834E+03  0.30170247834E+03  0.00000000000E+00 0.  1.
          2   -1    0    0  501    0  0.00000000000E+00 -0.00000000000E+00 -0.23182351477E+04  0.23182351477E+04  0.00000000000E+00 0. -1.
         23    2    1    2    0    0  0.45858054619E+03 -0.68844771327E+03 -0.84771876173E+03  0.11880220133E+04  0.92265020120E+02 0.  0.
         11    1    3    3    0    0  0.39475261294E+03 -0.63960717137E+03 -0.77560036730E+03  0.10800383738E+04  0.00000000000E+00 0. -1.
        -11    1    3    3    0    0  0.63827933253E+02 -0.48840541896E+02 -0.72118394438E+02  0.10798363956E+03  0.00000000000E+00 0.  1.
         22    1    1    2    0    0 -0.45858054619E+03  0.68844771327E+03 -0.11688139076E+04  0.14319156127E+04  0.00000000000E+00 0.  1.
<mgrwt>
<rscale>  0 0.16726234E+04</rscale>
<asrwt>0</asrwt>
<pdfrwt beam="1">  1        2 0.35665156E+00 0.16726234E+04</pdfrwt>
<pdfrwt beam="2">  1       -2 0.46415766E-01 0.16726234E+04</pdfrwt>
<totfact> 0.18594365E+01</totfact>
</mgrwt>
</event>
<event>
 6    1  0.1528034E-005  0.3237785E+04  0.7818608E-02  0.8178909E-01
         -2   -1    0    0    0  501 -0.00000000000E+00  0.00000000000E+00  0.83572108837E+03  0.83572108837E+03  0.00000000000E+00 0.  1.
          2   -1    0    0  501    0  0.00000000000E+00 -0.00000000000E+00 -0.31359893997E+04  0.31359893997E+04  0.00000000000E+00 0. -1.
         23    2    1    2    0    0 -0.56555733254E+03 -0.84050266806E+02 -0.30072279002E+04  0.30624737730E+04  0.91686547935E+02 0.  0.
         13    1    3    3    0    0 -0.67187451423E+02  0.13428940503E+02 -0.27134904406E+03  0.27986567097E+03  0.00000000000E+00 0. -1.
        -13    1    3    3    0    0 -0.49836988112E+03 -0.97479207310E+02 -0.27358788561E+04  0.27826081021E+04  0.00000000000E+00 0.  1.
         22    1    1    2    0    0  0.56555733254E+03  0.84050266806E+02  0.70695958884E+03  0.90923671505E+03  0.00000000000E+00 0.  1.
<mgrwt>
<rscale>  0 0.32377847E+04</rscale>
<asrwt>0</asrwt>
<pdfrwt beam="1">  1        2 0.48245991E+00 0.32377847E+04</pdfrwt>
<pdfrwt beam="2">  1       -2 0.12857248E+00 0.32377847E+04</pdfrwt>
<totfact> 0.53446354E-01</totfact>
</mgrwt>
</event>
<event>
 6    1  0.1528034E-005  0.3975683E+04  0.7818608E-02  0.8009470E-01
          2   -1    0    0  501    0  0.00000000000E+00  0.00000000000E+00  0.20244958616E+04  0.20244958616E+04  0.00000000000E+00 0. -1.
         -2   -1    0    0    0  501 -0.00000000000E+00 -0.00000000000E+00 -0.19518502922E+04  0.19518502922E+04  0.00000000000E+00 0.  1.
         23    2    1    2    0    0  0.13073611147E+04  0.23171765854E+03 -0.14417359710E+04  0.19623358242E+04  0.96297037334E+02 0.  0.
         13    1    3    3    0    0  0.86534070324E+03  0.15265834575E+03 -0.88575869547E+03  0.12476728617E+04  0.00000000000E+00 0. -1.
        -13    1    3    3    0    0  0.44202041145E+03  0.79059312788E+02 -0.55597727552E+03  0.71466296250E+03  0.00000000000E+00 0.  1.
         22    1    1    2    0    0 -0.13073611147E+04 -0.23171765854E+03  0.15143815404E+04  0.20140103295E+04  0.00000000000E+00 0. -1.
<mgrwt>
<rscale>  0 0.39756825E+04</rscale>
<asrwt>0</asrwt>
<pdfrwt beam="1">  1        2 0.31146090E+00 0.39756825E+04</pdfrwt>
<pdfrwt beam="2">  1       -2 0.30028466E+00 0.39756825E+04</pdfrwt>
<totfact> 0.16201236E-01</totfact>
</mgrwt>
</event>
<event>
 6    1  0.1528034E-005  0.1839379E+04  0.7818608E-02  0.8685634E-01
          1   -1    0    0  501    0  0.00000000000E+00  0.00000000000E+00  0.11265623799E+04  0.11265623799E+04  0.00000000000E+00 0. -1.
         -1   -1    0    0    0  501 -0.00000000000E+00 -0.00000000000E+00 -0.75080515343E+03  0.75080515343E+03  0.00000000000E+00 0.  1.
         23    2    1    2    0    0 -0.43672473759E+03 -0.28923718238E+03 -0.57943302721E+03  0.78797547130E+03  0.10380783330E+03 0.  0.
         13    1    3    3    0    0 -0.40779019199E+03 -0.29425140150E+03 -0.53092804060E+03  0.73127376014E+03  0.00000000000E+00 0. -1.
        -13    1    3    3    0    0 -0.28934545600E+02  0.50142191256E+01 -0.48504986614E+02  0.56701711164E+02  0.00000000000E+00 0.  1.
         22    1    1    2    0    0  0.43672473759E+03  0.28923718238E+03  0.95519025366E+03  0.10893920620E+04  0.00000000000E+00 0. -1.
<mgrwt>
<rscale>  0 0.18393791E+04</rscale>
<asrwt>0</asrwt>
<pdfrwt beam="1">  1        1 0.17331729E+00 0.18393791E+04</pdfrwt>
<pdfrwt beam="2">  1       -1 0.11550849E+00 0.18393791E+04</pdfrwt>
<totfact> 0.77355699E+00</totfact>
</mgrwt>
</event>
<event>
 6    1  0.1528034E-005  0.2484081E+04  0.7818608E-02  0.8408679E-01
         -2   -1    0    0    0  501 -0.00000000000E+00  0.00000000000E+00  0.98420573630E+03  0.98420573630E+03  0.00000000000E+00 0.  1.
          2   -1    0    0  501    0  0.00000000000E+00 -0.00000000000E+00 -0.15674209280E+04  0.15674209280E+04  0.00000000000E+00 0. -1.
         23    2    1    2    0    0 -0.54610235271E+03 -0.14655197653E+01  0.85193057881E+03  0.10160898494E+04  0.91776595657E+02 0.  0.
         13    1    3    3    0    0 -0.28208282027E+03  0.20943866788E+01  0.35566404677E+03  0.45395155921E+03  0.00000000000E+00 0. -1.
        -13    1    3    3    0    0 -0.26401953244E+03 -0.35599064441E+01  0.49626653205E+03  0.56213829017E+03  0.00000000000E+00 0.  1.
         22    1    1    2    0    0  0.54610235271E+03  0.14655197653E+01 -0.14351457705E+04  0.15355368149E+04  0.00000000000E+00 0. -1.
<mgrwt>
<rscale>  0 0.24840811E+04</rscale>
<asrwt>0</asrwt>
<pdfrwt beam="1">  1        2 0.24114168E+00 0.24840811E+04</pdfrwt>
<pdfrwt beam="2">  1       -2 0.15141627E+00 0.24840811E+04</pdfrwt>
<totfact> 0.30358860E+00</totfact>
</mgrwt>
</event>
<event>
 6    1  0.1528034E-005  0.2452256E+04  0.7818608E-02  0.8420195E-01
         -2   -1    0    0    0  501 -0.00000000000E+00  0.00000000000E+00  0.14071333922E+04  0.14071333922E+04  0.00000000000E+00 0.  1.
          2   -1    0    0  501    0  0.00000000000E+00 -0.00000000000E+00 -0.10684057400E+04  0.10684057400E+04  0.00000000000E+00 0. -1.
         23    2    1    2    0    0 -0.67690111574E+02 -0.90179639663E+03 -0.66408544314E+03  0.11251862908E+04  0.84947166675E+02 0.  0.
         13    1    3    3    0    0 -0.69173578028E+02 -0.57089656415E+03 -0.45993437014E+03  0.73637456209E+03  0.00000000000E+00 0. -1.
        -13    1    3    3    0    0  0.14834664541E+01 -0.33089983249E+03 -0.20415107300E+03  0.38881172876E+03  0.00000000000E+00 0.  1.
         22    1    1    2    0    0  0.67690111574E+02  0.90179639663E+03  0.10028130953E+04  0.13503528414E+04  0.00000000000E+00 0.  1.
<mgrwt>
<rscale>  0 0.24522556E+04</rscale>
<asrwt>0</asrwt>
<pdfrwt beam="1">  1        2 0.16437011E+00 0.24522556E+04</pdfrwt>
<pdfrwt beam="2">  1       -2 0.21648206E+00 0.24522556E+04</pdfrwt>
<totfact> 0.21234728E+00</totfact>
</mgrwt>
</event>
<event>
 6    1  0.1528034E-005  0.4629736E+04  0.7818608E-02  0.7888309E-01
          2   -1    0    0  501    0  0.00000000000E+00  0.00000000000E+00  0.18188907851E+04  0.18188907851E+04  0.00000000000E+00 0.  1.
         -2   -1    0    0    0  501 -0.00000000000E+00 -0.00000000000E+00 -0.29460894504E+04  0.29460894504E+04  0.00000000000E+00 0. -1.
         23    2    1    2    0    0  0.61128266987E+03  0.12232765905E+04 -0.24850175090E+04  0.28378725240E+04  0.90201570587E+02 0.  0.
         11    1    3    3    0    0  0.60010163491E+03  0.11595214215E+04 -0.23587527245E+04  0.26959833669E+04  0.00000000000E+00 0. -1.
        -11    1    3    3    0    0  0.11181034962E+02  0.63755168950E+02 -0.12626478452E+03  0.14188915716E+03  0.00000000000E+00 0.  1.
         22    1    1    2    0    0 -0.61128266987E+03 -0.12232765905E+04  0.13578188437E+04  0.19271077115E+04  0.00000000000E+00 0.  1.
<mgrwt>
<rscale>  0 0.46297365E+04</rscale>
<asrwt>0</asrwt>
<pdfrwt beam="1">  1        2 0.27982936E+00 0.46297365E+04</pdfrwt>
<pdfrwt beam="2">  1       -2 0.45324452E+00 0.46297365E+04</pdfrwt>
<totfact> 0.20903245E-02</totfact>
</mgrwt>
</event>
<event>
 6    1  0.1626645E-005  0.2527267E+04  0.7818608E-02  0.8393335E-01
          2   -1    0    0  501    0  0.00000000000E+00  0.00000000000E+00  0.18943854727E+04  0.18943854727E+04  0.00000000000E+00 0. -1.
         -2   -1    0    0    0  501 -0.00000000000E+00 -0.00000000000E+00 -0.84289589619E+03  0.84289589619E+03  0.00000000000E+00 0.  1.
         23    2    1    2    0    0  0.59723520368E+03 -0.29908347479E+03  0.16861170685E+04  0.18159275459E+04  0.91985161968E+02 0.  0.
         11    1    3    3    0    0  0.26521976468E+03 -0.15798372491E+03  0.67083633910E+03  0.73845905423E+03  0.00000000000E+00 0. -1.
        -11    1    3    3    0    0  0.33201543901E+03 -0.14109974988E+03  0.10152807294E+04  0.10774684917E+04  0.00000000000E+00 0.  1.
         22    1    1    2    0    0 -0.59723520368E+03  0.29908347479E+03 -0.63462749200E+03  0.92135382293E+03  0.00000000000E+00 0.  1.
<mgrwt>
<rscale>  0 0.25272671E+04</rscale>
<asrwt>0</asrwt>
<pdfrwt beam="1">  1        2 0.29144392E+00 0.25272671E+04</pdfrwt>
<pdfrwt beam="2">  1       -2 0.12967629E+00 0.25272671E+04</pdfrwt>
<totfact> 0.29747755E+00</totfact>
</mgrwt>
</event>
<event>
 6    1  0.1528034E-005  0.2154213E+04  0.7818608E-02  0.8537731E-01
          2   -1    0    0  501    0  0.00000000000E+00  0.00000000000E+00  0.26631116424E+04  0.26631116424E+04  0.00000000000E+00 0. -1.
         -2   -1    0    0    0  501 -0.00000000000E+00 -0.00000000000E+00 -0.43564020669E+03  0.43564020669E+03  0.00000000000E+00 0.  1.
         23    2    1    2    0    0 -0.59683310086E+02 -0.92576906386E+03  0.18975595054E+04  0.21141441410E+04  0.90900578201E+02 0.  0.
         11    1    3    3    0    0 -0.77655448309E+02 -0.79935204462E+03  0.15963789685E+04  0.17870142336E+04  0.00000000000E+00 0.  1.
        -11    1    3    3    0    0  0.17972138223E+02 -0.12641701924E+03  0.30118053688E+03  0.32712990738E+03  0.00000000000E+00 0. -1.
         22    1    1    2    0    0  0.59683310086E+02  0.92576906386E+03  0.32991193028E+03  0.98460770809E+03  0.00000000000E+00 0.  1.
<mgrwt>
<rscale>  0 0.21542131E+04</rscale>
<asrwt>0</asrwt>
<pdfrwt beam="1">  1        2 0.40970947E+00 0.21542131E+04</pdfrwt>
<pdfrwt beam="2">  1       -2 0.67021572E-01 0.21542131E+04</pdfrwt>
<totfact> 0.52390139E+00</totfact>
</mgrwt>
</event>
<event>
 6    1  0.1528034E-005  0.1554148E+04  0.7818608E-02  0.8849223E-01
         -2   -1    0    0    0  501 -0.00000000000E+00  0.00000000000E+00  0.20222642355E+03  0.20222642355E+03  0.00000000000E+00 0.  1.
          2   -1    0    0  501    0  0.00000000000E+00 -0.00000000000E+00 -0.29859782816E+04  0.29859782816E+04  0.00000000000E+00 0. -1.
         23    2    1    2    0    0  0.11320763746E+03  0.76192763964E+03 -0.12345086885E+04  0.14580301199E+04  0.92143535800E+02 0.  0.
         13    1    3    3    0    0  0.11863866139E+02  0.28247728967E+03 -0.51479797341E+03  0.58732539867E+03  0.00000000000E+00 0.  1.
        -13    1    3    3    0    0  0.10134377132E+03  0.47945034997E+03 -0.71971071513E+03  0.87070472122E+03  0.00000000000E+00 0. -1.
         22    1    1    2    0    0 -0.11320763746E+03 -0.76192763964E+03 -0.15492431695E+04  0.17301745853E+04  0.00000000000E+00 0.  1.
<mgrwt>
<rscale>  0 0.15541476E+04</rscale>
<asrwt>0</asrwt>
<pdfrwt beam="1">  1        2 0.45938124E+00 0.15541476E+04</pdfrwt>
<pdfrwt beam="2">  1       -2 0.31111760E-01 0.15541476E+04</pdfrwt>
<totfact> 0.16481849E+01</totfact>
</mgrwt>
</event>
<event>
 6    1  0.1528034E-005  0.1214653E+04  0.7818608E-02  0.9100126E-01
         -1   -1    0    0    0  501 -0.00000000000E+00  0.00000000000E+00  0.23448061182E+03  0.23448061182E+03  0.00000000000E+00 0.  1.
          1   -1    0    0  501    0  0.00000000000E+00 -0.00000000000E+00 -0.15730330512E+04  0.15730330512E+04  0.00000000000E+00 0. -1.
         23    2    1    2    0    0 -0.48830463326E+03 -0.21208970896E+03 -0.10974006772E+04  0.12230672310E+04  0.90453002171E+02 0.  0.
         11    1    3    3    0    0 -0.16926784576E+03 -0.49032235865E+02 -0.44745386683E+03  0.48090615166E+03  0.00000000000E+00 0.  1.
        -11    1    3    3    0    0 -0.31903678750E+03 -0.16305747309E+03 -0.64994681041E+03  0.74216107933E+03  0.00000000000E+00 0. -1.
         22    1    1    2    0    0  0.48830463326E+03  0.21208970896E+03 -0.24115176211E+03  0.58444643199E+03  0.00000000000E+00 0.  1.
<mgrwt>
<rscale>  0 0.12146535E+04</rscale>
<asrwt>0</asrwt>
<pdfrwt beam="1">  1        1 0.24200509E+00 0.12146535E+04</pdfrwt>
<pdfrwt beam="2">  1       -1 0.36073940E-01 0.12146535E+04</pdfrwt>
<totfact> 0.42312048E+01</totfact>
</mgrwt>
</event>
<event>
 6    1  0.1528034E-005  0.4565727E+04  0.7818608E-02  0.7899230E-01
          1   -1    0    0  501    0  0.00000000000E+00  0.00000000000E+00  0.45409139984E+04  0.45409139984E+04  0.00000000000E+00 0. -1.
         -1   -1    0    0    0  501 -0.00000000000E+00 -0.00000000000E+00 -0.11476689730E+04  0.11476689730E+04  0.00000000000E+00 0.  1.
         23    2    1    2    0    0 -0.15611595528E+03  0.21098340016E+04  0.63154108729E+03  0.22096779213E+04  0.89781206382E+02 0.  0.
         13    1    3    3    0    0 -0.95127172612E+02  0.17367726608E+04  0.52764901956E+03  0.18176473646E+04  0.00000000000E+00 0. -1.
        -13    1    3    3    0    0 -0.60988782666E+02  0.37306134086E+03  0.10389206773E+03  0.39203055671E+03  0.00000000000E+00 0.  1.
         22    1    1    2    0    0  0.15611595528E+03 -0.21098340016E+04  0.27617039381E+04  0.34789050501E+04  0.00000000000E+00 0. -1.
<mgrwt>
<rscale>  0 0.45657272E+04</rscale>
<asrwt>0</asrwt>
<pdfrwt beam="1">  1        1 0.69860214E+00 0.45657272E+04</pdfrwt>
<pdfrwt beam="2">  1       -1 0.17656446E+00 0.45657272E+04</pdfrwt>
<totfact> 0.47764212E-03</totfact>
</mgrwt>
</event>
<event>
 6    1  0.1528034E-005  0.1531273E+04  0.7818608E-02  0.8863919E-01
         -2   -1    0    0    0  501 -0.00000000000E+00  0.00000000000E+00  0.65366847299E+03  0.65366847299E+03  0.00000000000E+00 0.  1.
          2   -1    0    0  501    0  0.00000000000E+00 -0.00000000000E+00 -0.89678350297E+03  0.89678350297E+03  0.00000000000E+00 0. -1.
         23    2    1    2    0    0  0.94727645178E+02  0.46835644245E+03  0.47992254090E+03  0.68378340446E+03  0.94355789460E+02 0.  0.
         11    1    3    3    0    0  0.60432075169E+02  0.13767511114E+03  0.19286498200E+03  0.24454728218E+03  0.00000000000E+00 0. -1.
        -11    1    3    3    0    0  0.34295570009E+02  0.33068133130E+03  0.28705755889E+03  0.43923612228E+03  0.00000000000E+00 0.  1.
         22    1    1    2    0    0 -0.94727645178E+02 -0.46835644245E+03 -0.72303757087E+03  0.86666857150E+03  0.00000000000E+00 0. -1.
<mgrwt>
<rscale>  0 0.15312728E+04</rscale>
<asrwt>0</asrwt>
<pdfrwt beam="1">  1        2 0.13796669E+00 0.15312728E+04</pdfrwt>
<pdfrwt beam="2">  1       -2 0.10056438E+00 0.15312728E+04</pdfrwt>
<totfact> 0.23156705E+01</totfact>
</mgrwt>
</event>
<event>
 6    1  0.1528034E-005  0.3102705E+04  0.7818608E-02  0.8214996E-01
          2   -1    0    0  501    0  0.00000000000E+00  0.00000000000E+00  0.26979278032E+04  0.26979278032E+04  0.00000000000E+00 0. -1.
         -2   -1    0    0    0  501 -0.00000000000E+00 -0.00000000000E+00 -0.89205303617E+03  0.89205303617E+03  0.00000000000E+00 0.  1.
         23    2    1    2    0    0  0.11821648441E+04  0.96315278420E+03  0.58186232714E+03  0.16346334387E+04  0.91025856845E+02 0.  0.
         11    1    3    3    0    0  0.92042022705E+03  0.73482950077E+03  0.40992089292E+03  0.12470697366E+04  0.00000000000E+00 0. -1.
        -11    1    3    3    0    0  0.26174461710E+03  0.22832328343E+03  0.17194143422E+03  0.38756370203E+03  0.00000000000E+00 0.  1.
         22    1    1    2    0    0 -0.11821648441E+04 -0.96315278420E+03  0.12240124399E+04  0.19553474007E+04  0.00000000000E+00 0. -1.
<mgrwt>
<rscale>  0 0.31027051E+04</rscale>
<asrwt>0</asrwt>
<pdfrwt beam="1">  1        2 0.41506581E+00 0.31027051E+04</pdfrwt>
<pdfrwt beam="2">  1       -2 0.13723893E+00 0.31027051E+04</pdfrwt>
<totfact> 0.85460658E-01</totfact>
</mgrwt>
</event>
<event>
 6    1  0.1528034E-005  0.5136999E+04  0.7818608E-02  0.7807715E-01
         -2   -1    0    0    0  501 -0.00000000000E+00  0.00000000000E+00  0.25135280622E+04  0.25135280622E+04  0.00000000000E+00 0.  1.
          2   -1    0    0  501    0  0.00000000000E+00 -0.00000000000E+00 -0.26246727472E+04  0.26246727472E+04  0.00000000000E+00 0. -1.
         23    2    1    2    0    0  0.15056281941E+04 -0.20794130979E+04 -0.91002683515E+01  0.25689035994E+04  0.91147122555E+02 0.  0.
         11    1    3    3    0    0  0.14320947453E+04 -0.20069425510E+04 -0.13994932172E+02  0.24655444877E+04  0.00000000000E+00 0. -1.
        -11    1    3    3    0    0  0.73533448788E+02 -0.72470546853E+02  0.48946638208E+01  0.10335911177E+03  0.00000000000E+00 0.  1.
         22    1    1    2    0    0 -0.15056281941E+04  0.20794130979E+04 -0.10204441665E+03  0.25692972100E+04  0.00000000000E+00 0.  1.
<mgrwt>
<rscale>  0 0.51369986E+04</rscale>
<asrwt>0</asrwt>
<pdfrwt beam="1">  1        2 0.40379581E+00 0.51369986E+04</pdfrwt>
<pdfrwt beam="2">  1       -2 0.38669663E+00 0.51369986E+04</pdfrwt>
<totfact> 0.19215762E-02</totfact>
</mgrwt>
</event>
<event>
 6    1  0.1528034E-005  0.1927346E+04  0.7818608E-02  0.8641363E-01
          2   -1    0    0  501    0  0.00000000000E+00  0.00000000000E+00  0.23744970131E+04  0.23744970131E+04  0.00000000000E+00 0. -1.
         -2   -1    0    0    0  501 -0.00000000000E+00 -0.00000000000E+00 -0.39109999617E+03  0.39109999617E+03  0.00000000000E+00 0.  1.
         23    2    1    2    0    0  0.10094272395E+03  0.40307702542E+03  0.22381117917E+04  0.22782161126E+04  0.91998597156E+02 0.  0.
         11    1    3    3    0    0  0.45588463136E+02  0.52941187690E+02  0.30829637651E+03  0.31611348135E+03  0.00000000000E+00 0. -1.
        -11    1    3    3    0    0  0.55354260811E+02  0.35013583773E+03  0.19298154152E+04  0.19621026313E+04  0.00000000000E+00 0.  1.
         22    1    1    2    0    0 -0.10094272395E+03 -0.40307702542E+03 -0.25471477474E+03  0.48738089664E+03  0.00000000000E+00 0.  1.
<mgrwt>
<rscale>  0 0.19273461E+04</rscale>
<asrwt>0</asrwt>
<pdfrwt beam="1">  1        2 0.36530722E+00 0.19273461E+04</pdfrwt>
<pdfrwt beam="2">  1       -2 0.60169232E-01 0.19273461E+04</pdfrwt>
<totfact> 0.98961401E+00</totfact>
</mgrwt>
</event>
<event>
 6    1  0.1528034E-005  0.3315954E+04  0.7818608E-02  0.8158848E-01
         -1   -1    0    0    0  501 -0.00000000000E+00  0.00000000000E+00  0.13274558727E+04  0.13274558727E+04  0.00000000000E+00 0.  1.
          1   -1    0    0  501    0  0.00000000000E+00 -0.00000000000E+00 -0.20707936559E+04  0.20707936559E+04  0.00000000000E+00 0. -1.
         23    2    1    2    0    0 -0.49858270116E+03 -0.41772117265E+03  0.11896040290E+04  0.13588035899E+04  0.90076423867E+02 0.  0.
         11    1    3    3    0    0 -0.48517288929E+03 -0.37907646555E+03  0.11190885016E+04  0.12772825740E+04  0.00000000000E+00 0.  1.
        -11    1    3    3    0    0 -0.13409811868E+02 -0.38644707098E+02  0.70515527330E+02  0.81521015914E+02  0.00000000000E+00 0. -1.
         22    1    1    2    0    0  0.49858270116E+03  0.41772117265E+03 -0.19329418122E+04  0.20394459388E+04  0.00000000000E+00 0. -1.
<mgrwt>
<rscale>  0 0.33159537E+04</rscale>
<asrwt>0</asrwt>
<pdfrwt beam="1">  1        1 0.31858364E+00 0.33159537E+04</pdfrwt>
<pdfrwt beam="2">  1       -1 0.20422398E+00 0.33159537E+04</pdfrwt>
<totfact> 0.31113065E-01</totfact>
</mgrwt>
</event>
<event>
 6    1  0.1528034E-005  0.1951175E+04  0.7818608E-02  0.8629794E-01
          1   -1    0    0  501    0  0.00000000000E+00  0.00000000000E+00  0.13540882007E+04  0.13540882007E+04  0.00000000000E+00 0. -1.
         -1   -1    0    0    0  501 -0.00000000000E+00 -0.00000000000E+00 -0.70288702235E+03  0.70288702235E+03  0.00000000000E+00 0.  1.
         23    2    1    2    0    0  0.74384288939E+03 -0.48099960419E+03 -0.99579884036E+02  0.89579691332E+03  0.88730452923E+02 0.  0.
         13    1    3    3    0    0  0.68281129175E+03 -0.41185872409E+03 -0.79059022226E+02  0.80131716427E+03  0.00000000000E+00 0. -1.
        -13    1    3    3    0    0  0.61031597642E+02 -0.69140880100E+02 -0.20520861810E+02  0.94479749053E+02  0.00000000000E+00 0.  1.
         22    1    1    2    0    0 -0.74384288939E+03  0.48099960419E+03  0.75078106235E+03  0.11611783097E+04  0.00000000000E+00 0. -1.
<mgrwt>
<rscale>  0 0.19511751E+04</rscale>
<asrwt>0</asrwt>
<pdfrwt beam="1">  1        1 0.20832126E+00 0.19511751E+04</pdfrwt>
<pdfrwt beam="2">  1       -1 0.10813647E+00 0.19511751E+04</pdfrwt>
<totfact> 0.61276439E+00</totfact>
</mgrwt>
</event>
<event>
 6    1  0.1528034E-005  0.3206792E+04  0.7818608E-02  0.8187026E-01
         -1   -1    0    0    0  501 -0.00000000000E+00  0.00000000000E+00  0.12646468132E+04  0.12646468132E+04  0.00000000000E+00 0.  1.
          1   -1    0    0  501    0  0.00000000000E+00 -0.00000000000E+00 -0.20328830534E+04  0.20328830534E+04  0.00000000000E+00 0. -1.
         23    2    1    2    0    0  0.12362659864E+04  0.93836928314E+03 -0.79289850665E+03  0.17452738542E+04  0.91663970715E+02 0.  0.
         13    1    3    3    0    0  0.75609493804E+03  0.62855913854E+03 -0.50995002049E+03  0.11076168875E+04  0.00000000000E+00 0. -1.
        -13    1    3    3    0    0  0.48017104839E+03  0.30981014460E+03 -0.28294848615E+03  0.63765696674E+03  0.00000000000E+00 0.  1.
         22    1    1    2    0    0 -0.12362659864E+04 -0.93836928314E+03  0.24662266439E+02  0.15522560124E+04  0.00000000000E+00 0. -1.
<mgrwt>
<rscale>  0 0.32067922E+04</rscale>
<asrwt>0</asrwt>
<pdfrwt beam="1">  1        1 0.31275124E+00 0.32067922E+04</pdfrwt>
<pdfrwt beam="2">  1       -1 0.19456105E+00 0.32067922E+04</pdfrwt>
<totfact> 0.38858841E-01</totfact>
</mgrwt>
</event>
<event>
 6    1  0.1528034E-005  0.2467913E+04  0.7818608E-02  0.8414507E-01
          2   -1    0    0  501    0  0.00000000000E+00  0.00000000000E+00  0.11123256120E+04  0.11123256120E+04  0.00000000000E+00 0.  1.
         -2   -1    0    0    0  501 -0.00000000000E+00 -0.00000000000E+00 -0.13688870151E+04  0.13688870151E+04  0.00000000000E+00 0. -1.
         23    2    1    2    0    0  0.71385652930E+03 -0.19505007104E+03  0.86224025474E+03  0.11398130504E+04  0.89888032700E+02 0.  0.
         13    1    3    3    0    0  0.56170517949E+03 -0.11732353487E+03  0.64198073257E+03  0.86105562044E+03  0.00000000000E+00 0.  1.
        -13    1    3    3    0    0  0.15215134981E+03 -0.77726536165E+02  0.22025952218E+03  0.27875743001E+03  0.00000000000E+00 0. -1.
         22    1    1    2    0    0 -0.71385652930E+03  0.19505007104E+03 -0.11188016579E+04  0.13413995767E+04  0.00000000000E+00 0. -1.
<mgrwt>
<rscale>  0 0.24679125E+04</rscale>
<asrwt>0</asrwt>
<pdfrwt beam="1">  1        2 0.17112702E+00 0.24679125E+04</pdfrwt>
<pdfrwt beam="2">  1       -2 0.21059800E+00 0.24679125E+04</pdfrwt>
<totfact> 0.21725780E+00</totfact>
</mgrwt>
</event>
<event>
 6    1  0.1528034E-005  0.6420174E+03  0.7818608E-02  0.9821874E-01
         -2   -1    0    0    0  501 -0.00000000000E+00  0.00000000000E+00  0.18767430255E+03  0.18767430255E+03  0.00000000000E+00 0.  1.
          2   -1    0    0  501    0  0.00000000000E+00 -0.00000000000E+00 -0.54907136979E+03  0.54907136979E+03  0.00000000000E+00 0. -1.
         23    2    1    2    0    0  0.10812538360E+03 -0.23859247378E+02 -0.52242735962E+03  0.54132019465E+03  0.88525955473E+02 0.  0.
         13    1    3    3    0    0  0.40356589066E+02  0.30535263532E+02 -0.26000354362E+03  0.26488280295E+03  0.00000000000E+00 0.  1.
        -13    1    3    3    0    0  0.67768794534E+02 -0.54394510910E+02 -0.26242381600E+03  0.27643739171E+03  0.00000000000E+00 0. -1.
         22    1    1    2    0    0 -0.10812538360E+03  0.23859247378E+02  0.16103029239E+03  0.19542547769E+03  0.00000000000E+00 0.  1.
<mgrwt>
<rscale>  0 0.64201740E+03</rscale>
<asrwt>0</asrwt>
<pdfrwt beam="1">  1        2 0.84472517E-01 0.64201740E+03</pdfrwt>
<pdfrwt beam="2">  1       -2 0.28872970E-01 0.64201740E+03</pdfrwt>
<totfact> 0.61090707E+02</totfact>
</mgrwt>
</event>
<event>
 6    1  0.1528034E-005  0.1160321E+04  0.7818608E-02  0.9148314E-01
          2   -1    0    0  501    0  0.00000000000E+00  0.00000000000E+00  0.75806104977E+03  0.75806104977E+03  0.00000000000E+00 0. -1.
         -2   -1    0    0    0  501 -0.00000000000E+00 -0.00000000000E+00 -0.44400941339E+03  0.44400941339E+03  0.00000000000E+00 0.  1.
         23    2    1    2    0    0 -0.43281932756E+03  0.38203229757E+03  0.14342794649E+03  0.60007902615E+03  0.79006424370E+02 0.  0.
         13    1    3    3    0    0 -0.20715940827E+03  0.15949296269E+03  0.28676113470E+02  0.26301206258E+03  0.00000000000E+00 0.  1.
        -13    1    3    3    0    0 -0.22565991929E+03  0.22253933488E+03  0.11475183302E+03  0.33706696356E+03  0.00000000000E+00 0. -1.
         22    1    1    2    0    0  0.43281932756E+03 -0.38203229757E+03  0.17062368989E+03  0.60199143702E+03  0.00000000000E+00 0. -1.
<mgrwt>
<rscale>  0 0.11603211E+04</rscale>
<asrwt>0</asrwt>
<pdfrwt beam="1">  1        2 0.11662478E+00 0.11603211E+04</pdfrwt>
<pdfrwt beam="2">  1       -2 0.68309141E-01 0.11603211E+04</pdfrwt>
<totfact> 0.71765374E+01</totfact>
</mgrwt>
</event>
<event>
 6    1  0.1528034E-005  0.2269811E+04  0.7818608E-02  0.8489920E-01
          2   -1    0    0  501    0  0.00000000000E+00  0.00000000000E+00  0.15779802329E+04  0.15779802329E+04  0.00000000000E+00 0. -1.
         -2   -1    0    0    0  501 -0.00000000000E+00 -0.00000000000E+00 -0.81624013962E+03  0.81624013962E+03  0.00000000000E+00 0.  1.
         23    2    1    2    0    0  0.37821685410E+02  0.11192525512E+04  0.56371472362E+03  0.12569557594E+04  0.89480379482E+02 0.  0.
         13    1    3    3    0    0 -0.21183317747E+02  0.65601401676E+03  0.33853935738E+03  0.73852015519E+03  0.00000000000E+00 0.  1.
        -13    1    3    3    0    0  0.59005003157E+02  0.46323853440E+03  0.22517536624E+03  0.51843560421E+03  0.00000000000E+00 0. -1.
         22    1    1    2    0    0 -0.37821685410E+02 -0.11192525512E+04  0.19802536962E+03  0.11372646131E+04  0.00000000000E+00 0.  1.
<mgrwt>
<rscale>  0 0.22698113E+04</rscale>
<asrwt>0</asrwt>
<pdfrwt beam="1">  1        2 0.24276619E+00 0.22698113E+04</pdfrwt>
<pdfrwt beam="2">  1       -2 0.12557541E+00 0.22698113E+04</pdfrwt>
<totfact> 0.49432042E+00</totfact>
</mgrwt>
</event>
<event>
 6    1  0.1528034E-005  0.5627737E+03  0.7818608E-02  0.9985798E-01
         -2   -1    0    0    0  501 -0.00000000000E+00  0.00000000000E+00  0.86759864556E+02  0.86759864556E+02  0.00000000000E+00 0.  1.
          2   -1    0    0  501    0  0.00000000000E+00 -0.00000000000E+00 -0.91261726511E+03  0.91261726511E+03  0.00000000000E+00 0. -1.
         23    2    1    2    0    0 -0.19543351835E+03  0.58117510815E+02 -0.74932514626E+03  0.78159491941E+03  0.88490327563E+02 0.  0.
         13    1    3    3    0    0 -0.15386188962E+03  0.76929636060E+02 -0.64845439965E+03  0.67088356546E+03  0.00000000000E+00 0.  1.
        -13    1    3    3    0    0 -0.41571628725E+02 -0.18812125245E+02 -0.10087074661E+03  0.11071135395E+03  0.00000000000E+00 0. -1.
         22    1    1    2    0    0  0.19543351835E+03 -0.58117510815E+02 -0.76532254291E+02  0.21778221025E+03  0.00000000000E+00 0.  1.
<mgrwt>
<rscale>  0 0.56277367E+03</rscale>
<asrwt>0</asrwt>
<pdfrwt beam="1">  1        2 0.14040265E+00 0.56277367E+03</pdfrwt>
<pdfrwt beam="2">  1       -2 0.13347672E-01 0.56277367E+03</pdfrwt>
<totfact> 0.12336360E+03</totfact>
</mgrwt>
</event>
<event>
 6    1  0.1528034E-005  0.2802427E+04  0.7818608E-02  0.8302515E-01
         -2   -1    0    0    0  501 -0.00000000000E+00  0.00000000000E+00  0.13006753882E+04  0.13006753882E+04  0.00000000000E+00 0.  1.
          2   -1    0    0  501    0  0.00000000000E+00 -0.00000000000E+00 -0.15095231807E+04  0.15095231807E+04  0.00000000000E+00 0. -1.
         23    2    1    2    0    0 -0.73443025459E+03 -0.84836530110E+03 -0.94338253800E+03  0.14690599574E+04  0.95158091960E+02 0.  0.
         13    1    3    3    0    0 -0.13506508802E+03 -0.21433940596E+03 -0.19826667929E+03  0.32170426647E+03  0.00000000000E+00 0.  1.
        -13    1    3    3    0    0 -0.59936516657E+03 -0.63402589514E+03 -0.74511585871E+03  0.11473556909E+04  0.00000000000E+00 0. -1.
         22    1    1    2    0    0  0.73443025459E+03  0.84836530110E+03  0.73453474555E+03  0.13411386115E+04  0.00000000000E+00 0.  1.
<mgrwt>
<rscale>  0 0.28024273E+04</rscale>
<asrwt>0</asrwt>
<pdfrwt beam="1">  1        2 0.23223433E+00 0.28024273E+04</pdfrwt>
<pdfrwt beam="2">  1       -2 0.20010391E+00 0.28024273E+04</pdfrwt>
<totfact> 0.14485652E+00</totfact>
</mgrwt>
</event>
<event>
 6    1  0.1528034E-005  0.1846155E+04  0.7818608E-02  0.8682133E-01
          1   -1    0    0  501    0  0.00000000000E+00  0.00000000000E+00  0.31899532797E+04  0.31899532797E+04  0.00000000000E+00 0.  1.
         -1   -1    0    0    0  501 -0.00000000000E+00 -0.00000000000E+00 -0.26711123010E+03  0.26711123010E+03  0.00000000000E+00 0. -1.
         23    2    1    2    0    0  0.81178564706E+03  0.23488209452E+03  0.78039518021E+03  0.11539700429E+04  0.92003737048E+02 0.  0.
         11    1    3    3    0    0  0.14268274864E+03  0.29455343298E+02  0.18187215474E+03  0.23303103802E+03  0.00000000000E+00 0. -1.
        -11    1    3    3    0    0  0.66910289842E+03  0.20542675123E+03  0.59852302546E+03  0.92093900493E+03  0.00000000000E+00 0.  1.
         22    1    1    2    0    0 -0.81178564706E+03 -0.23488209452E+03  0.21424468694E+04  0.23030944669E+04  0.00000000000E+00 0.  1.
<mgrwt>
<rscale>  0 0.18461553E+04</rscale>
<asrwt>0</asrwt>
<pdfrwt beam="1">  1        1 0.49076202E+00 0.18461553E+04</pdfrwt>
<pdfrwt beam="2">  1       -1 0.41094038E-01 0.18461553E+04</pdfrwt>
<totfact> 0.23653732E+00</totfact>
</mgrwt>
</event>
<event>
 6    1  0.1528034E-005  0.2062186E+04  0.7818608E-02  0.8578086E-01
         -2   -1    0    0    0  501 -0.00000000000E+00  0.00000000000E+00  0.87857542485E+03  0.87857542485E+03  0.00000000000E+00 0.  1.
          2   -1    0    0  501    0  0.00000000000E+00 -0.00000000000E+00 -0.12100868811E+04  0.12100868811E+04  0.00000000000E+00 0. -1.
         23    2    1    2    0    0  0.98856333828E+03 -0.13402678414E+03  0.89751245949E+02  0.10057574547E+04  0.90951189267E+02 0.  0.
         11    1    3    3    0    0  0.37792797567E+03 -0.62928564585E+02  0.77409194867E+02  0.39087305162E+03  0.00000000000E+00 0. -1.
        -11    1    3    3    0    0  0.61063536261E+03 -0.71098219553E+02  0.12342051082E+02  0.61488440305E+03  0.00000000000E+00 0.  1.
         22    1    1    2    0    0 -0.98856333828E+03  0.13402678414E+03 -0.42126270222E+03  0.10829048513E+04  0.00000000000E+00 0.  1.
<mgrwt>
<rscale>  0 0.20621858E+04</rscale>
<asrwt>0</asrwt>
<pdfrwt beam="1">  1        2 0.18616721E+00 0.20621858E+04</pdfrwt>
<pdfrwt beam="2">  1       -2 0.13516545E+00 0.20621858E+04</pdfrwt>
<totfact> 0.67917648E+00</totfact>
</mgrwt>
</event>
<event>
 6    1  0.1528034E-005  0.3133733E+04  0.7818608E-02  0.8206541E-01
          1   -1    0    0  501    0  0.00000000000E+00  0.00000000000E+00  0.16149309753E+04  0.16149309753E+04  0.00000000000E+00 0. -1.
         -1   -1    0    0    0  501 -0.00000000000E+00 -0.00000000000E+00 -0.15202325327E+04  0.15202325327E+04  0.00000000000E+00 0.  1.
         23    2    1    2    0    0  0.18262595525E+03  0.26036775988E+03 -0.14867608276E+04  0.15220432295E+04  0.70811185878E+02 0.  0.
         11    1    3    3    0    0  0.78861080782E+02  0.11665350375E+03 -0.49822760342E+03  0.51774303936E+03  0.00000000000E+00 0.  1.
        -11    1    3    3    0    0  0.10376487447E+03  0.14371425613E+03 -0.98853322416E+03  0.10043001901E+04  0.00000000000E+00 0. -1.
         22    1    1    2    0    0 -0.18262595525E+03 -0.26036775988E+03  0.15814592702E+04  0.16131202786E+04  0.00000000000E+00 0. -1.
<mgrwt>
<rscale>  0 0.31337330E+04</rscale>
<asrwt>0</asrwt>
<pdfrwt beam="1">  1        1 0.24845092E+00 0.31337330E+04</pdfrwt>
<pdfrwt beam="2">  1       -1 0.23388193E+00 0.31337330E+04</pdfrwt>
<totfact> 0.40796680E-01</totfact>
</mgrwt>
</event>
<event>
 6    1  0.1528034E-005  0.4452232E+04  0.7818608E-02  0.7919053E-01
          1   -1    0    0  501    0  0.00000000000E+00  0.00000000000E+00  0.43541206966E+04  0.43541206966E+04  0.00000000000E+00 0. -1.
         -1   -1    0    0    0  501 -0.00000000000E+00 -0.00000000000E+00 -0.11381382870E+04  0.11381382870E+04  0.00000000000E+00 0.  1.
         23    2    1    2    0    0  0.11621538196E+04  0.13469047195E+04 -0.40211693010E+02  0.17817935333E+04  0.91746340539E+02 0.  0.
         13    1    3    3    0    0  0.85566922056E+02  0.99675128749E+02 -0.27096095661E+02  0.13413063722E+03  0.00000000000E+00 0. -1.
        -13    1    3    3    0    0  0.10765868976E+04  0.12472295908E+04 -0.13115597350E+02  0.16476628961E+04  0.00000000000E+00 0.  1.
         22    1    1    2    0    0 -0.11621538196E+04 -0.13469047195E+04  0.32561941027E+04  0.37104654503E+04  0.00000000000E+00 0.  1.
<mgrwt>
<rscale>  0 0.44522316E+04</rscale>
<asrwt>0</asrwt>
<pdfrwt beam="1">  1        1 0.66986471E+00 0.44522316E+04</pdfrwt>
<pdfrwt beam="2">  1       -1 0.17509820E+00 0.44522316E+04</pdfrwt>
<totfact> 0.76382190E-03</totfact>
</mgrwt>
</event>
<event>
 6    1  0.1528034E-005  0.2460357E+04  0.7818608E-02  0.8417246E-01
          2   -1    0    0  501    0  0.00000000000E+00  0.00000000000E+00  0.16752861032E+04  0.16752861032E+04  0.00000000000E+00 0.  1.
         -2   -1    0    0    0  501 -0.00000000000E+00 -0.00000000000E+00 -0.90333173731E+03  0.90333173731E+03  0.00000000000E+00 0. -1.
         23    2    1    2    0    0 -0.88689211723E+03  0.62677853752E+03 -0.21521330999E+03  0.11109908501E+04  0.92492905056E+02 0.  0.
         13    1    3    3    0    0 -0.62352164152E+03  0.47635740128E+03 -0.12498145450E+03  0.79455394730E+03  0.00000000000E+00 0.  1.
        -13    1    3    3    0    0 -0.26337047571E+03  0.15042113624E+03 -0.90231855487E+02  0.31643690279E+03  0.00000000000E+00 0. -1.
         22    1    1    2    0    0  0.88689211723E+03 -0.62677853752E+03  0.98716767589E+03  0.14676269904E+04  0.00000000000E+00 0.  1.
<mgrwt>
<rscale>  0 0.24603570E+04</rscale>
<asrwt>0</asrwt>
<pdfrwt beam="1">  1        2 0.25773632E+00 0.24603570E+04</pdfrwt>
<pdfrwt beam="2">  1       -2 0.13897411E+00 0.24603570E+04</pdfrwt>
<totfact> 0.33164601E+00</totfact>
</mgrwt>
</event>
<event>
 6    1  0.1528034E-005  0.2970940E+04  0.7818608E-02  0.8252078E-01
          1   -1    0    0  501    0  0.00000000000E+00  0.00000000000E+00  0.32786156509E+04  0.32786156509E+04  0.00000000000E+00 0. -1.
         -1   -1    0    0    0  501 -0.00000000000E+00 -0.00000000000E+00 -0.67303444863E+03  0.67303444863E+03  0.00000000000E+00 0.  1.
         23    2    1    2    0    0  0.54631491602E+03 -0.60372559440E+03  0.29543905211E+04  0.30658665359E+04  0.90386301970E+02 0.  0.
         11    1    3    3    0    0  0.32420036240E+03 -0.29119683709E+03  0.15825914477E+04  0.16414923586E+04  0.00000000000E+00 0. -1.
        -11    1    3    3    0    0  0.22211455363E+03 -0.31252875732E+03  0.13717990734E+04  0.14243741772E+04  0.00000000000E+00 0.  1.
         22    1    1    2    0    0 -0.54631491602E+03  0.60372559440E+03 -0.34880931883E+03  0.88578356369E+03  0.00000000000E+00 0. -1.
<mgrwt>
<rscale>  0 0.29709401E+04</rscale>
<asrwt>0</asrwt>
<pdfrwt beam="1">  1        1 0.50440240E+00 0.29709401E+04</pdfrwt>
<pdfrwt beam="2">  1       -1 0.10354376E+00 0.29709401E+04</pdfrwt>
<totfact> 0.27797964E-01</totfact>
</mgrwt>
</event>
<event>
 6    1  0.1528034E-005  0.1318607E+04  0.7818608E-02  0.9014938E-01
         -3   -1    0    0    0  501 -0.00000000000E+00  0.00000000000E+00  0.45867498390E+03  0.45867498390E+03  0.00000000000E+00 0.  1.
          3   -1    0    0  501    0  0.00000000000E+00 -0.00000000000E+00 -0.94768899655E+03  0.94768899655E+03  0.00000000000E+00 0. -1.
         23    2    1    2    0    0  0.59798538138E+03  0.26986602092E+03 -0.24848666887E+03  0.70760251279E+03  0.92420267861E+02 0.  0.
         13    1    3    3    0    0  0.46348658358E+03  0.16705523501E+03 -0.17201466218E+03  0.52183935144E+03  0.00000000000E+00 0. -1.
        -13    1    3    3    0    0  0.13449879780E+03  0.10281078591E+03 -0.76472006690E+02  0.18576316136E+03  0.00000000000E+00 0.  1.
         22    1    1    2    0    0 -0.59798538138E+03 -0.26986602092E+03 -0.24052734378E+03  0.69876146767E+03  0.00000000000E+00 0.  1.
<mgrwt>
<rscale>  0 0.13186072E+04</rscale>
<asrwt>0</asrwt>
<pdfrwt beam="1">  1        3 0.14579830E+00 0.13186072E+04</pdfrwt>
<pdfrwt beam="2">  1       -3 0.70565383E-01 0.13186072E+04</pdfrwt>
<totfact> 0.17126431E+00</totfact>
</mgrwt>
</event>
<event>
 6    1  0.1528034E-005  0.1908983E+04  0.7818608E-02  0.8650398E-01
         -2   -1    0    0    0  501 -0.00000000000E+00  0.00000000000E+00  0.57253506470E+03  0.57253506470E+03  0.00000000000E+00 0. -1.
          2   -1    0    0  501    0  0.00000000000E+00 -0.00000000000E+00 -0.15912637057E+04  0.15912637057E+04  0.00000000000E+00 0.  1.
         23    2    1    2    0    0 -0.51417147579E+02  0.89316964618E+03 -0.88024276125E+03  0.12584954628E+04  0.92670228338E+02 0.  0.
         11    1    3    3    0    0 -0.75858435865E+02  0.56260745003E+03 -0.54075186571E+03  0.78402437806E+03  0.00000000000E+00 0. -1.
        -11    1    3    3    0    0  0.24441288285E+02  0.33056219615E+03 -0.33949089554E+03  0.47447108474E+03  0.00000000000E+00 0.  1.
         22    1    1    2    0    0  0.51417147579E+02 -0.89316964618E+03 -0.13848587979E+03  0.90530330764E+03  0.00000000000E+00 0. -1.
<mgrwt>
<rscale>  0 0.19089833E+04</rscale>
<asrwt>0</asrwt>
<pdfrwt beam="1">  1        2 0.24480980E+00 0.19089833E+04</pdfrwt>
<pdfrwt beam="2">  1       -2 0.88082317E-01 0.19089833E+04</pdfrwt>
<totfact> 0.11722478E+01</totfact>
</mgrwt>
</event>
<event>
 6    1  0.1528034E-005  0.6812456E+03  0.7818608E-02  0.9749853E-01
         -4   -1    0    0    0  501 -0.00000000000E+00  0.00000000000E+00  0.14769595694E+04  0.14769595694E+04  0.00000000000E+00 0.  1.
          4   -1    0    0  501    0  0.00000000000E+00 -0.00000000000E+00 -0.78555905715E+02  0.78555905715E+02  0.00000000000E+00 0. -1.
         23    2    1    2    0    0  0.58736737354E+02 -0.24266962767E+03  0.20270970976E+03  0.33403171183E+03  0.90262980082E+02 0.  0.
         11    1    3    3    0    0  0.61763767048E+02 -0.19655688407E+03  0.20092535671E+03  0.28778528552E+03  0.00000000000E+00 0. -1.
        -11    1    3    3    0    0 -0.30270296945E+01 -0.46112743596E+02  0.17843530517E+01  0.46246426311E+02  0.00000000000E+00 0.  1.
         22    1    1    2    0    0 -0.58736737354E+02  0.24266962767E+03  0.11956939539E+04  0.12214837633E+04  0.00000000000E+00 0.  1.
<mgrwt>
<rscale>  0 0.68124561E+03</rscale>
<asrwt>0</asrwt>
<pdfrwt beam="1">  1        4 0.12085525E-01 0.68124561E+03</pdfrwt>
<pdfrwt beam="2">  1       -4 0.22722453E+00 0.68124561E+03</pdfrwt>
<totfact> 0.10122619E+01</totfact>
</mgrwt>
</event>
<event>
 6    1  0.1528034E-005  0.6641722E+03  0.7818608E-02  0.9780544E-01
         -2   -1    0    0    0  501 -0.00000000000E+00  0.00000000000E+00  0.10959210860E+03  0.10959210860E+03  0.00000000000E+00 0.  1.
          2   -1    0    0  501    0  0.00000000000E+00 -0.00000000000E+00 -0.10062876426E+04  0.10062876426E+04  0.00000000000E+00 0. -1.
         23    2    1    2    0    0  0.31289294724E+03 -0.40037771799E+02 -0.59311601037E+03  0.67808351231E+03  0.92225963292E+02 0.  0.
         13    1    3    3    0    0  0.14131055218E+03 -0.34717751241E+02 -0.18526805413E+03  0.23558065772E+03  0.00000000000E+00 0. -1.
        -13    1    3    3    0    0  0.17158239506E+03 -0.53200205577E+01 -0.40784795624E+03  0.44250285460E+03  0.00000000000E+00 0.  1.
         22    1    1    2    0    0 -0.31289294724E+03  0.40037771799E+02 -0.30357952359E+03  0.43779623885E+03  0.00000000000E+00 0. -1.
<mgrwt>
<rscale>  0 0.66417222E+03</rscale>
<asrwt>0</asrwt>
<pdfrwt beam="1">  1        2 0.15481348E+00 0.66417222E+03</pdfrwt>
<pdfrwt beam="2">  1       -2 0.16860324E-01 0.66417222E+03</pdfrwt>
<totfact> 0.72175076E+02</totfact>
</mgrwt>
</event>
<event>
 6    1  0.1528034E-005  0.5590209E+04  0.7818608E-02  0.7743397E-01
         -2   -1    0    0    0  501 -0.00000000000E+00  0.00000000000E+00  0.25874518959E+04  0.25874518959E+04  0.00000000000E+00 0. -1.
          2   -1    0    0  501    0  0.00000000000E+00 -0.00000000000E+00 -0.30194220991E+04  0.30194220991E+04  0.00000000000E+00 0.  1.
         23    2    1    2    0    0 -0.94367685536E+03 -0.14530533030E+04 -0.24149601526E+04  0.29735986490E+04  0.91468453259E+02 0.  0.
         11    1    3    3    0    0 -0.35231654568E+03 -0.52598661691E+03 -0.95713206643E+03  0.11475585659E+04  0.00000000000E+00 0.  1.
        -11    1    3    3    0    0 -0.59136030968E+03 -0.92706668606E+03 -0.14578280862E+04  0.18260400831E+04  0.00000000000E+00 0. -1.
         22    1    1    2    0    0  0.94367685536E+03  0.14530533030E+04  0.19829899494E+04  0.26332753460E+04  0.00000000000E+00 0. -1.
<mgrwt>
<rscale>  0 0.55902091E+04</rscale>
<asrwt>0</asrwt>
<pdfrwt beam="1">  1        2 0.46452647E+00 0.55902091E+04</pdfrwt>
<pdfrwt beam="2">  1       -2 0.39806953E+00 0.55902091E+04</pdfrwt>
<totfact> 0.89932134E-03</totfact>
</mgrwt>
</event>
<event>
 6    1  0.1528034E-005  0.1322613E+04  0.7818608E-02  0.9011823E-01
          1   -1    0    0  501    0  0.00000000000E+00  0.00000000000E+00  0.18170755467E+04  0.18170755467E+04  0.00000000000E+00 0. -1.
         -1   -1    0    0    0  501 -0.00000000000E+00 -0.00000000000E+00 -0.24067593263E+03  0.24067593263E+03  0.00000000000E+00 0.  1.
         23    2    1    2    0    0  0.27477695561E+03 -0.40672644924E+03  0.10969349442E+03  0.51109197535E+03  0.90849131591E+02 0.  0.
         11    1    3    3    0    0  0.13021322239E+03 -0.26967947209E+03  0.54522245621E+02  0.30439312775E+03  0.00000000000E+00 0. -1.
        -11    1    3    3    0    0  0.14456373322E+03 -0.13704697714E+03  0.55171248803E+02  0.20669884760E+03  0.00000000000E+00 0.  1.
         22    1    1    2    0    0 -0.27477695561E+03  0.40672644924E+03  0.14667061196E+04  0.15466595040E+04  0.00000000000E+00 0. -1.
<mgrwt>
<rscale>  0 0.13226131E+04</rscale>
<asrwt>0</asrwt>
<pdfrwt beam="1">  1        1 0.27955008E+00 0.13226131E+04</pdfrwt>
<pdfrwt beam="2">  1       -1 0.37027068E-01 0.13226131E+04</pdfrwt>
<totfact> 0.27290449E+01</totfact>
</mgrwt>
</event>
<event>
 6    1  0.1528034E-005  0.9530278E+03  0.7818608E-02  0.9361619E-01
         -1   -1    0    0    0  501 -0.00000000000E+00  0.00000000000E+00  0.16119528953E+03  0.16119528953E+03  0.00000000000E+00 0.  1.
          1   -1    0    0  501    0  0.00000000000E+00 -0.00000000000E+00 -0.14086360946E+04  0.14086360946E+04  0.00000000000E+00 0. -1.
         23    2    1    2    0    0 -0.10357874388E+03 -0.19725125337E+02 -0.13875758648E+04  0.13944590040E+04  0.89618617436E+02 0.  0.
         11    1    3    3    0    0 -0.47232879825E+02  0.34296990028E+02 -0.48103056743E+03  0.48455921750E+03  0.00000000000E+00 0. -1.
        -11    1    3    3    0    0 -0.56345864053E+02 -0.54022115366E+02 -0.90654529733E+03  0.90989978649E+03  0.00000000000E+00 0.  1.
         22    1    1    2    0    0  0.10357874388E+03  0.19725125337E+02  0.14013505970E+03  0.17537238012E+03  0.00000000000E+00 0.  1.
<mgrwt>
<rscale>  0 0.95302781E+03</rscale>
<asrwt>0</asrwt>
<pdfrwt beam="1">  1        1 0.21671324E+00 0.95302781E+03</pdfrwt>
<pdfrwt beam="2">  1       -1 0.24799276E-01 0.95302781E+03</pdfrwt>
<totfact> 0.10812714E+02</totfact>
</mgrwt>
</event>
<event>
 6    1  0.1528034E-005  0.1667925E+04  0.7818608E-02  0.8779872E-01
         -1   -1    0    0    0  501 -0.00000000000E+00  0.00000000000E+00  0.10464032352E+04  0.10464032352E+04  0.00000000000E+00 0.  1.
          1   -1    0    0  501    0  0.00000000000E+00 -0.00000000000E+00 -0.66465184253E+03  0.66465184253E+03  0.00000000000E+00 0. -1.
         23    2    1    2    0    0  0.50469614108E+03  0.66024247450E+03  0.16471842036E+03  0.85213620435E+03  0.91463833285E+02 0.  0.
         13    1    3    3    0    0  0.32147678032E+03  0.48846086026E+03  0.12269488362E+03  0.59749089261E+03  0.00000000000E+00 0. -1.
        -13    1    3    3    0    0  0.18321936076E+03  0.17178161425E+03  0.42023536743E+02  0.25464531174E+03  0.00000000000E+00 0.  1.
         22    1    1    2    0    0 -0.50469614108E+03 -0.66024247450E+03  0.21703297229E+03  0.85891887336E+03  0.00000000000E+00 0.  1.
<mgrwt>
<rscale>  0 0.16679255E+04</rscale>
<asrwt>0</asrwt>
<pdfrwt beam="1">  1        1 0.10225413E+00 0.16679255E+04</pdfrwt>
<pdfrwt beam="2">  1       -1 0.16098511E+00 0.16679255E+04</pdfrwt>
<totfact> 0.80751069E+00</totfact>
</mgrwt>
</event>
<event>
 6    1  0.1528034E-005  0.4068335E+04  0.7818608E-02  0.7990901E-01
         -2   -1    0    0    0  501 -0.00000000000E+00  0.00000000000E+00  0.93447829070E+03  0.93447829070E+03  0.00000000000E+00 0.  1.
          2   -1    0    0  501    0  0.00000000000E+00 -0.00000000000E+00 -0.44279644997E+04  0.44279644997E+04  0.00000000000E+00 0. -1.
         23    2    1    2    0    0 -0.65996223868E+03 -0.15632536059E+04 -0.27141111745E+03  0.17208662241E+04  0.91676461222E+02 0.  0.
         13    1    3    3    0    0 -0.50168485168E+03 -0.10814779387E+04 -0.19607015834E+03  0.12081910980E+04  0.00000000000E+00 0.  1.
        -13    1    3    3    0    0 -0.15827738699E+03 -0.48177566725E+03 -0.75340959109E+02  0.51267512608E+03  0.00000000000E+00 0. -1.
         22    1    1    2    0    0  0.65996223868E+03  0.15632536059E+04 -0.32220750916E+04  0.36415765663E+04  0.00000000000E+00 0. -1.
<mgrwt>
<rscale>  0 0.40683346E+04</rscale>
<asrwt>0</asrwt>
<pdfrwt beam="1">  1        2 0.68122532E+00 0.40683346E+04</pdfrwt>
<pdfrwt beam="2">  1       -2 0.14376589E+00 0.40683346E+04</pdfrwt>
<totfact> 0.37715679E-02</totfact>
</mgrwt>
</event>
<event>
 6    1  0.1528034E-005  0.6357277E+04  0.7818608E-02  0.7647616E-01
         -2   -1    0    0    0  501 -0.00000000000E+00  0.00000000000E+00  0.24986855099E+04  0.24986855099E+04  0.00000000000E+00 0.  1.
          2   -1    0    0  501    0  0.00000000000E+00 -0.00000000000E+00 -0.40436232160E+04  0.40436232160E+04  0.00000000000E+00 0. -1.
         23    2    1    2    0    0  0.27670626245E+04 -0.90817623762E+03  0.53716685173E+03  0.29622837210E+04  0.71812051389E+02 0.  0.
         13    1    3    3    0    0  0.30072570955E+03 -0.82508567157E+02  0.41296488991E+02  0.31456162519E+03  0.00000000000E+00 0. -1.
        -13    1    3    3    0    0  0.24663369149E+04 -0.82566767046E+03  0.49587036274E+03  0.26477220958E+04  0.00000000000E+00 0.  1.
         22    1    1    2    0    0 -0.27670626245E+04  0.90817623762E+03 -0.20821045578E+04  0.35800250049E+04  0.00000000000E+00 0. -1.
<mgrwt>
<rscale>  0 0.63572770E+04</rscale>
<asrwt>0</asrwt>
<pdfrwt beam="1">  1        2 0.62209588E+00 0.63572770E+04</pdfrwt>
<pdfrwt beam="2">  1       -2 0.38441316E+00 0.63572770E+04</pdfrwt>
<totfact> 0.19251433E-03</totfact>
</mgrwt>
</event>
<event>
 6    1  0.1528034E-005  0.2784346E+04  0.7818608E-02  0.8308145E-01
          2   -1    0    0  501    0  0.00000000000E+00  0.00000000000E+00  0.22047024882E+04  0.22047024882E+04  0.00000000000E+00 0.  1.
         -2   -1    0    0    0  501 -0.00000000000E+00 -0.00000000000E+00 -0.87909615813E+03  0.87909615813E+03  0.00000000000E+00 0. -1.
         23    2    1    2    0    0  0.12297968588E+04 -0.53456290068E+03  0.10716789011E+04  0.17190140671E+04  0.91410542138E+02 0.  0.
         11    1    3    3    0    0  0.61076123473E+03 -0.25785961163E+03  0.47206955281E+03  0.81386149181E+03  0.00000000000E+00 0. -1.
        -11    1    3    3    0    0  0.61903562402E+03 -0.27670328905E+03  0.59960934834E+03  0.90515257531E+03  0.00000000000E+00 0.  1.
         22    1    1    2    0    0 -0.12297968588E+04  0.53456290068E+03  0.25392742897E+03  0.13647845793E+04  0.00000000000E+00 0. -1.
<mgrwt>
<rscale>  0 0.27843459E+04</rscale>
<asrwt>0</asrwt>
<pdfrwt beam="1">  1        2 0.33918500E+00 0.27843459E+04</pdfrwt>
<pdfrwt beam="2">  1       -2 0.13524556E+00 0.27843459E+04</pdfrwt>
<totfact> 0.17558842E+00</totfact>
</mgrwt>
</event>
<event>
 6    1  0.1528034E-005  0.1747726E+04  0.7818608E-02  0.8734603E-01
          1   -1    0    0  501    0  0.00000000000E+00  0.00000000000E+00  0.10229240073E+04  0.10229240073E+04  0.00000000000E+00 0. -1.
         -1   -1    0    0    0  501 -0.00000000000E+00 -0.00000000000E+00 -0.74652354518E+03  0.74652354518E+03  0.00000000000E+00 0.  1.
         23    2    1    2    0    0  0.12419222669E+03 -0.22571765841E+03  0.98147391900E+03  0.10187806822E+04  0.90834212585E+02 0.  0.
         13    1    3    3    0    0  0.32026977562E+02 -0.15142696489E+03  0.55055964248E+03  0.57190189098E+03  0.00000000000E+00 0.  1.
        -13    1    3    3    0    0  0.92165249133E+02 -0.74290693525E+02  0.43091427653E+03  0.44687879118E+03  0.00000000000E+00 0. -1.
         22    1    1    2    0    0 -0.12419222669E+03  0.22571765841E+03 -0.70507345691E+03  0.75066687028E+03  0.00000000000E+00 0.  1.
<mgrwt>
<rscale>  0 0.17477264E+04</rscale>
<asrwt>0</asrwt>
<pdfrwt beam="1">  1        1 0.15737292E+00 0.17477264E+04</pdfrwt>
<pdfrwt beam="2">  1       -1 0.11484978E+00 0.17477264E+04</pdfrwt>
<totfact> 0.94785946E+00</totfact>
</mgrwt>
</event>
<event>
 6    1  0.1528034E-005  0.4567432E+04  0.7818608E-02  0.7898937E-01
          1   -1    0    0  501    0  0.00000000000E+00  0.00000000000E+00  0.18550327976E+04  0.18550327976E+04  0.00000000000E+00 0. -1.
         -1   -1    0    0    0  501 -0.00000000000E+00 -0.00000000000E+00 -0.28114641571E+04  0.28114641571E+04  0.00000000000E+00 0.  1.
         23    2    1    2    0    0 -0.18678151562E+04 -0.11632024626E+04  0.14270005581E+03  0.22068499689E+04  0.89722086019E+02 0.  0.
         13    1    3    3    0    0 -0.65973120190E+03 -0.46085813557E+03  0.44075000395E+02  0.80596407212E+03  0.00000000000E+00 0. -1.
        -13    1    3    3    0    0 -0.12080839543E+04 -0.70234432707E+03  0.98625055413E+02  0.14008858968E+04  0.00000000000E+00 0.  1.
         22    1    1    2    0    0  0.18678151562E+04  0.11632024626E+04 -0.10991314153E+04  0.24596469858E+04  0.00000000000E+00 0. -1.
<mgrwt>
<rscale>  0 0.45674318E+04</rscale>
<asrwt>0</asrwt>
<pdfrwt beam="1">  1        1 0.28538966E+00 0.45674318E+04</pdfrwt>
<pdfrwt beam="2">  1       -1 0.43253294E+00 0.45674318E+04</pdfrwt>
<totfact> 0.11939698E-02</totfact>
</mgrwt>
</event>
<event>
 6    1  0.1528034E-005  0.2684916E+04  0.7818608E-02  0.8339916E-01
          2   -1    0    0  501    0  0.00000000000E+00  0.00000000000E+00  0.26676129787E+04  0.26676129787E+04  0.00000000000E+00 0. -1.
         -2   -1    0    0    0  501 -0.00000000000E+00 -0.00000000000E+00 -0.67558258503E+03  0.67558258503E+03  0.00000000000E+00 0.  1.
         23    2    1    2    0    0  0.35680837597E+03 -0.12785243965E+04  0.12338516763E+04  0.18145452385E+04  0.90816373396E+02 0.  0.
         13    1    3    3    0    0  0.12589644207E+03 -0.43656363680E+03  0.48177080490E+03  0.66222415507E+03  0.00000000000E+00 0. -1.
        -13    1    3    3    0    0  0.23091193390E+03 -0.84196075967E+03  0.75208087143E+03  0.11523210834E+04  0.00000000000E+00 0.  1.
         22    1    1    2    0    0 -0.35680837597E+03  0.12785243965E+04  0.75817871731E+03  0.15286503253E+04  0.00000000000E+00 0.  1.
<mgrwt>
<rscale>  0 0.26849155E+04</rscale>
<asrwt>0</asrwt>
<pdfrwt beam="1">  1        2 0.41040199E+00 0.26849155E+04</pdfrwt>
<pdfrwt beam="2">  1       -2 0.10393578E+00 0.26849155E+04</pdfrwt>
<totfact> 0.18362010E+00</totfact>
</mgrwt>
</event>
<event>
 6    1  0.1528034E-005  0.1706255E+04  0.7818608E-02  0.8757805E-01
         -1   -1    0    0    0  501 -0.00000000000E+00  0.00000000000E+00  0.10897474181E+04  0.10897474181E+04  0.00000000000E+00 0.  1.
          1   -1    0    0  501    0  0.00000000000E+00 -0.00000000000E+00 -0.66788517590E+03  0.66788517590E+03  0.00000000000E+00 0. -1.
         23    2    1    2    0    0  0.73018606708E+02  0.71682874642E+03 -0.25415045560E+03  0.76962027820E+03  0.92454042141E+02 0.  0.
         11    1    3    3    0    0  0.82810286473E+02  0.52551303728E+03 -0.21663832992E+03  0.57441593109E+03  0.00000000000E+00 0.  1.
        -11    1    3    3    0    0 -0.97916797644E+01  0.19131570914E+03 -0.37512125676E+02  0.19520434711E+03  0.00000000000E+00 0. -1.
         22    1    1    2    0    0 -0.73018606708E+02 -0.71682874642E+03  0.67601269785E+03  0.98801231585E+03  0.00000000000E+00 0.  1.
<mgrwt>
<rscale>  0 0.17062545E+04</rscale>
<asrwt>0</asrwt>
<pdfrwt beam="1">  1        1 0.10275157E+00 0.17062545E+04</pdfrwt>
<pdfrwt beam="2">  1       -1 0.16765345E+00 0.17062545E+04</pdfrwt>
<totfact> 0.71232629E+00</totfact>
</mgrwt>
</event>
<event>
 6    1  0.1528034E-005  0.2123982E+04  0.7818608E-02  0.8550752E-01
         -2   -1    0    0    0  501 -0.00000000000E+00  0.00000000000E+00  0.26026595189E+04  0.26026595189E+04  0.00000000000E+00 0.  1.
          2   -1    0    0  501    0  0.00000000000E+00 -0.00000000000E+00 -0.43333567468E+03  0.43333567468E+03  0.00000000000E+00 0. -1.
         23    2    1    2    0    0 -0.91666439733E+03 -0.12421727189E+03  0.34677220028E+03  0.99212679204E+03  0.91438857320E+02 0.  0.
         11    1    3    3    0    0 -0.67670794686E+03 -0.13202799663E+03  0.25715407249E+03  0.73586225221E+03  0.00000000000E+00 0. -1.
        -11    1    3    3    0    0 -0.23995645047E+03  0.78107247355E+01  0.89618127791E+02  0.25626453983E+03  0.00000000000E+00 0.  1.
         22    1    1    2    0    0  0.91666439733E+03  0.12421727189E+03  0.18225516440E+04  0.20438684016E+04  0.00000000000E+00 0.  1.
<mgrwt>
<rscale>  0 0.21239823E+04</rscale>
<asrwt>0</asrwt>
<pdfrwt beam="1">  1        2 0.66667029E-01 0.21239823E+04</pdfrwt>
<pdfrwt beam="2">  1       -2 0.40040915E+00 0.21239823E+04</pdfrwt>
<totfact> 0.49367722E-01</totfact>
</mgrwt>
</event>
<event>
 6    1  0.1528034E-005  0.2403174E+04  0.7818608E-02  0.8438316E-01
          1   -1    0    0  501    0  0.00000000000E+00  0.00000000000E+00  0.30480768583E+04  0.30480768583E+04  0.00000000000E+00 0. -1.
         -1   -1    0    0    0  501 -0.00000000000E+00 -0.00000000000E+00 -0.47367942345E+03  0.47367942345E+03  0.00000000000E+00 0.  1.
         23    2    1    2    0    0  0.18493498566E+03  0.29993185686E+03  0.29698411674E+04  0.29920999656E+04  0.92442290125E+02 0.  0.
         13    1    3    3    0    0  0.12781654605E+02  0.97455544846E+02  0.84968339361E+03  0.85534953282E+03  0.00000000000E+00 0.  1.
        -13    1    3    3    0    0  0.17215333105E+03  0.20247631201E+03  0.21201577737E+04  0.21367504328E+04  0.00000000000E+00 0. -1.
         22    1    1    2    0    0 -0.18493498566E+03 -0.29993185686E+03 -0.39544373251E+03  0.52965631617E+03  0.00000000000E+00 0.  1.
<mgrwt>
<rscale>  0 0.24031740E+04</rscale>
<asrwt>0</asrwt>
<pdfrwt beam="1">  1        1 0.46893489E+00 0.24031740E+04</pdfrwt>
<pdfrwt beam="2">  1       -1 0.72873759E-01 0.24031740E+04</pdfrwt>
<totfact> 0.93776059E-01</totfact>
</mgrwt>
</event>
<event>
 6    1  0.1528034E-005  0.2580710E+04  0.7818608E-02  0.8374783E-01
          1   -1    0    0  501    0  0.00000000000E+00  0.00000000000E+00  0.13032291123E+04  0.13032291123E+04  0.00000000000E+00 0. -1.
         -1   -1    0    0    0  501 -0.00000000000E+00 -0.00000000000E+00 -0.12776082392E+04  0.12776082392E+04  0.00000000000E+00 0.  1.
         23    2    1    2    0    0 -0.10196503645E+04  0.72041291089E+03 -0.30697852719E+03  0.12888218759E+04  0.90246239612E+02 0.  0.
         11    1    3    3    0    0 -0.59170664474E+03  0.46981933690E+03 -0.19838136561E+03  0.78115435669E+03  0.00000000000E+00 0.  1.
        -11    1    3    3    0    0 -0.42794371975E+03  0.25059357400E+03 -0.10859716158E+03  0.50766751925E+03  0.00000000000E+00 0. -1.
         22    1    1    2    0    0  0.10196503645E+04 -0.72041291089E+03  0.33259940024E+03  0.12920154755E+04  0.00000000000E+00 0.  1.
<mgrwt>
<rscale>  0 0.25807102E+04</rscale>
<asrwt>0</asrwt>
<pdfrwt beam="1">  1        1 0.20049679E+00 0.25807102E+04</pdfrwt>
<pdfrwt beam="2">  1       -1 0.19655511E+00 0.25807102E+04</pdfrwt>
<totfact> 0.12622120E+00</totfact>
</mgrwt>
</event>
<event>
 6    1  0.1528034E-005  0.1992979E+04  0.7818608E-02  0.8609910E-01
         -2   -1    0    0    0  501 -0.00000000000E+00  0.00000000000E+00  0.10778627281E+04  0.10778627281E+04  0.00000000000E+00 0.  1.
          2   -1    0    0  501    0  0.00000000000E+00 -0.00000000000E+00 -0.92125952420E+03  0.92125952420E+03  0.00000000000E+00 0. -1.
         23    2    1    2    0    0  0.90836944152E+03 -0.24506277234E+03  0.40159054797E+03  0.10269033451E+04  0.89803715358E+02 0.  0.
         13    1    3    3    0    0  0.30493121361E+03 -0.10871795230E+03  0.10120381381E+03  0.33918262060E+03  0.00000000000E+00 0.  1.
        -13    1    3    3    0    0  0.60343822791E+03 -0.13634482004E+03  0.30038673416E+03  0.68772072451E+03  0.00000000000E+00 0. -1.
         22    1    1    2    0    0 -0.90836944152E+03  0.24506277234E+03 -0.24498734410E+03  0.97221890717E+03  0.00000000000E+00 0. -1.
<mgrwt>
<rscale>  0 0.19929790E+04</rscale>
<asrwt>0</asrwt>
<pdfrwt beam="1">  1        2 0.14173223E+00 0.19929790E+04</pdfrwt>
<pdfrwt beam="2">  1       -2 0.16582504E+00 0.19929790E+04</pdfrwt>
<totfact> 0.60206385E+00</totfact>
</mgrwt>
</event>
<event>
 6    1  0.1528034E-005  0.3169885E+04  0.7818608E-02  0.8196816E-01
          1   -1    0    0  501    0  0.00000000000E+00  0.00000000000E+00  0.18719757811E+04  0.18719757811E+04  0.00000000000E+00 0. -1.
         -1   -1    0    0    0  501 -0.00000000000E+00 -0.00000000000E+00 -0.13419206961E+04  0.13419206961E+04  0.00000000000E+00 0.  1.
         23    2    1    2    0    0  0.11759888464E+04  0.59634088371E+03  0.11544796415E+04  0.17549659636E+04  0.92250062505E+02 0.  0.
         11    1    3    3    0    0  0.89456447696E+03  0.41278689758E+03  0.83822007716E+03  0.12935422390E+04  0.00000000000E+00 0. -1.
        -11    1    3    3    0    0  0.28142436948E+03  0.18355398613E+03  0.31625956439E+03  0.46142372460E+03  0.00000000000E+00 0.  1.
         22    1    1    2    0    0 -0.11759888464E+04 -0.59634088371E+03 -0.62442455656E+03  0.14589305136E+04  0.00000000000E+00 0.  1.
<mgrwt>
<rscale>  0 0.31698852E+04</rscale>
<asrwt>0</asrwt>
<pdfrwt beam="1">  1        1 0.28799627E+00 0.31698852E+04</pdfrwt>
<pdfrwt beam="2">  1       -1 0.20644934E+00 0.31698852E+04</pdfrwt>
<totfact> 0.41502978E-01</totfact>
</mgrwt>
</event>
<event>
 6    1  0.1528034E-005  0.3918907E+04  0.7818608E-02  0.8021108E-01
         -2   -1    0    0    0  501 -0.00000000000E+00  0.00000000000E+00  0.17867473972E+04  0.17867473972E+04  0.00000000000E+00 0.  1.
          2   -1    0    0  501    0  0.00000000000E+00 -0.00000000000E+00 -0.21488535185E+04  0.21488535185E+04  0.00000000000E+00 0. -1.
         23    2    1    2    0    0 -0.12332533212E+03  0.19523612902E+04 -0.27492811124E+03  0.19774069134E+04  0.87343514844E+02 0.  0.
         13    1    3    3    0    0 -0.87623772722E+02  0.93464594741E+03 -0.98537152973E+02  0.94390176558E+03  0.00000000000E+00 0.  1.
        -13    1    3    3    0    0 -0.35701559399E+02  0.10177153428E+04 -0.17639095826E+03  0.10335051478E+04  0.00000000000E+00 0. -1.
         22    1    1    2    0    0  0.12332533212E+03 -0.19523612902E+04 -0.87178010107E+02  0.19581940023E+04  0.00000000000E+00 0. -1.
<mgrwt>
<rscale>  0 0.39189072E+04</rscale>
<asrwt>0</asrwt>
<pdfrwt beam="1">  1        2 0.33059285E+00 0.39189072E+04</pdfrwt>
<pdfrwt beam="2">  1       -2 0.27488421E+00 0.39189072E+04</pdfrwt>
<totfact> 0.19825219E-01</totfact>
</mgrwt>
</event>
<event>
 6    1  0.1528034E-005  0.6524479E+04  0.7818608E-02  0.7628569E-01
         -2   -1    0    0    0  501 -0.00000000000E+00  0.00000000000E+00  0.27171003568E+04  0.27171003568E+04  0.00000000000E+00 0. -1.
          2   -1    0    0  501    0  0.00000000000E+00 -0.00000000000E+00 -0.39167517218E+04  0.39167517218E+04  0.00000000000E+00 0.  1.
         23    2    1    2    0    0  0.21478410872E+04 -0.12308425932E+04  0.15592828903E+04  0.29271132085E+04  0.91835605671E+02 0.  0.
         11    1    3    3    0    0  0.82218302157E+03 -0.42544963014E+03  0.60650204076E+03  0.11067235582E+04  0.00000000000E+00 0. -1.
        -11    1    3    3    0    0  0.13256580657E+04 -0.80539296307E+03  0.95278084950E+03  0.18203896504E+04  0.00000000000E+00 0.  1.
         22    1    1    2    0    0 -0.21478410872E+04  0.12308425932E+04 -0.27589342553E+04  0.37067388700E+04  0.00000000000E+00 0.  1.
<mgrwt>
<rscale>  0 0.65244793E+04</rscale>
<asrwt>0</asrwt>
<pdfrwt beam="1">  1        2 0.60257718E+00 0.65244793E+04</pdfrwt>
<pdfrwt beam="2">  1       -2 0.41801544E+00 0.65244793E+04</pdfrwt>
<totfact> 0.14534921E-03</totfact>
</mgrwt>
</event>
<event>
 6    1  0.1528034E-005  0.2817905E+04  0.7818608E-02  0.8297731E-01
         -3   -1    0    0    0  501 -0.00000000000E+00  0.00000000000E+00  0.10783107345E+04  0.10783107345E+04  0.00000000000E+00 0.  1.
          3   -1    0    0  501    0  0.00000000000E+00 -0.00000000000E+00 -0.18409781446E+04  0.18409781446E+04  0.00000000000E+00 0. -1.
         23    2    1    2    0    0  0.35919392004E+02  0.10476362619E+04  0.59135979212E+03  0.12069157876E+04  0.90040961895E+02 0.  0.
         13    1    3    3    0    0  0.31484303704E+02  0.91041148222E+03  0.47730921114E+03  0.10284281265E+04  0.00000000000E+00 0. -1.
        -13    1    3    3    0    0  0.44350883001E+01  0.13722477964E+03  0.11405058098E+03  0.17848766114E+03  0.00000000000E+00 0.  1.
         22    1    1    2    0    0 -0.35919392004E+02 -0.10476362619E+04 -0.13540272023E+04  0.17123730915E+04  0.00000000000E+00 0. -1.
<mgrwt>
<rscale>  0 0.28179045E+04</rscale>
<asrwt>0</asrwt>
<pdfrwt beam="1">  1        3 0.28322741E+00 0.28179045E+04</pdfrwt>
<pdfrwt beam="2">  1       -3 0.16589396E+00 0.28179045E+04</pdfrwt>
<totfact> 0.26732158E-02</totfact>
</mgrwt>
</event>
<event>
 6    1  0.1528034E-005  0.2229714E+04  0.7818608E-02  0.8506161E-01
          2   -1    0    0  501    0  0.00000000000E+00  0.00000000000E+00  0.14542553029E+04  0.14542553029E+04  0.00000000000E+00 0. -1.
         -2   -1    0    0    0  501 -0.00000000000E+00 -0.00000000000E+00 -0.85466878600E+03  0.85466878600E+03  0.00000000000E+00 0.  1.
         23    2    1    2    0    0 -0.10435828966E+04  0.38523288244E+03  0.26483635903E+03  0.11472325189E+04  0.92382463293E+02 0.  0.
         13    1    3    3    0    0 -0.40525914059E+03  0.19415325914E+03  0.12466126048E+03  0.46633774127E+03  0.00000000000E+00 0.  1.
        -13    1    3    3    0    0 -0.63832375599E+03  0.19107962330E+03  0.14017509855E+03  0.68089477759E+03  0.00000000000E+00 0. -1.
         22    1    1    2    0    0  0.10435828966E+04 -0.38523288244E+03  0.33475015789E+03  0.11616915701E+04  0.00000000000E+00 0.  1.
<mgrwt>
<rscale>  0 0.22297144E+04</rscale>
<asrwt>0</asrwt>
<pdfrwt beam="1">  1        2 0.22373158E+00 0.22297144E+04</pdfrwt>
<pdfrwt beam="2">  1       -2 0.13148751E+00 0.22297144E+04</pdfrwt>
<totfact> 0.51851444E+00</totfact>
</mgrwt>
</event>
<event>
 6    1  0.1528034E-005  0.1005800E+04  0.7818608E-02  0.9302207E-01
         -2   -1    0    0    0  501 -0.00000000000E+00  0.00000000000E+00  0.22363744463E+03  0.22363744463E+03  0.00000000000E+00 0.  1.
          2   -1    0    0  501    0  0.00000000000E+00 -0.00000000000E+00 -0.11308850980E+04  0.11308850980E+04  0.00000000000E+00 0. -1.
         23    2    1    2    0    0  0.28477900771E+03  0.33901747972E+03 -0.76688711452E+03  0.89005185933E+03  0.89691309988E+02 0.  0.
         11    1    3    3    0    0  0.12064484762E+03  0.88409953948E+02 -0.21184974633E+03  0.25932954755E+03  0.00000000000E+00 0.  1.
        -11    1    3    3    0    0  0.16413416009E+03  0.25060752577E+03 -0.55503736819E+03  0.63072231177E+03  0.00000000000E+00 0. -1.
         22    1    1    2    0    0 -0.28477900771E+03 -0.33901747972E+03 -0.14036053885E+03  0.46447068331E+03  0.00000000000E+00 0.  1.
<mgrwt>
<rscale>  0 0.10057997E+04</rscale>
<asrwt>0</asrwt>
<pdfrwt beam="1">  1        2 0.17398233E+00 0.10057997E+04</pdfrwt>
<pdfrwt beam="2">  1       -2 0.34405760E-01 0.10057997E+04</pdfrwt>
<totfact> 0.16455172E+02</totfact>
</mgrwt>
</event>
<event>
 6    1  0.1528034E-005  0.3123014E+04  0.7818608E-02  0.8209450E-01
         -2   -1    0    0    0  501 -0.00000000000E+00  0.00000000000E+00  0.12066336887E+04  0.12066336887E+04  0.00000000000E+00 0.  1.
          2   -1    0    0  501    0  0.00000000000E+00 -0.00000000000E+00 -0.20207494262E+04  0.20207494262E+04  0.00000000000E+00 0. -1.
         23    2    1    2    0    0 -0.11681788249E+04  0.67506322656E+03 -0.12173837614E+04  0.18192008731E+04  0.84359157462E+02 0.  0.
         13    1    3    3    0    0 -0.49257151511E+03  0.24102482336E+03 -0.51696593149E+03  0.75364012452E+03  0.00000000000E+00 0. -1.
        -13    1    3    3    0    0 -0.67560730979E+03  0.43403840320E+03 -0.70041782994E+03  0.10655607486E+04  0.00000000000E+00 0.  1.
         22    1    1    2    0    0  0.11681788249E+04 -0.67506322656E+03  0.40326802397E+03  0.14081822417E+04  0.00000000000E+00 0.  1.
<mgrwt>
<rscale>  0 0.31230141E+04</rscale>
<asrwt>0</asrwt>
<pdfrwt beam="1">  1        2 0.31088452E+00 0.31230141E+04</pdfrwt>
<pdfrwt beam="2">  1       -2 0.18563595E+00 0.31230141E+04</pdfrwt>
<totfact> 0.91464015E-01</totfact>
</mgrwt>
</event>
<event>
 6    1  0.1528034E-005  0.5675319E+03  0.7818608E-02  0.9975155E-01
         -3   -1    0    0    0  501 -0.00000000000E+00  0.00000000000E+00  0.64716425914E+03  0.64716425914E+03  0.00000000000E+00 0.  1.
          3   -1    0    0  501    0  0.00000000000E+00 -0.00000000000E+00 -0.12442452770E+03  0.12442452770E+03  0.00000000000E+00 0. -1.
         23    2    1    2    0    0 -0.23464200102E+03 -0.52747571873E+02  0.45334009422E+03  0.52127801075E+03  0.91511466410E+02 0.  0.
         13    1    3    3    0    0 -0.96786098873E+02  0.10443232614E+02  0.11611062041E+03  0.15151992019E+03  0.00000000000E+00 0. -1.
        -13    1    3    3    0    0 -0.13785590214E+03 -0.63190804487E+02  0.33722947382E+03  0.36975809056E+03  0.00000000000E+00 0.  1.
         22    1    1    2    0    0  0.23464200102E+03  0.52747571873E+02  0.69399637217E+02  0.25031077609E+03  0.00000000000E+00 0. -1.
<mgrwt>
<rscale>  0 0.56753188E+03</rscale>
<asrwt>0</asrwt>
<pdfrwt beam="1">  1        3 0.19142235E-01 0.56753188E+03</pdfrwt>
<pdfrwt beam="2">  1       -3 0.99563730E-01 0.56753188E+03</pdfrwt>
<totfact> 0.57559680E+01</totfact>
</mgrwt>
</event>
<event>
 6    1  0.1528034E-005  0.1489996E+04  0.7818608E-02  0.8891133E-01
          2   -1    0    0  501    0  0.00000000000E+00  0.00000000000E+00  0.13556104022E+04  0.13556104022E+04  0.00000000000E+00 0.  1.
         -2   -1    0    0    0  501 -0.00000000000E+00 -0.00000000000E+00 -0.40942579969E+03  0.40942579969E+03  0.00000000000E+00 0. -1.
         23    2    1    2    0    0 -0.12973166210E+03  0.56030436625E+03 -0.80897850449E+02  0.58789149875E+03  0.91107985936E+02 0.  0.
         13    1    3    3    0    0 -0.95800359465E+02  0.44307814311E+03 -0.25964627380E+02  0.45405959042E+03  0.00000000000E+00 0.  1.
        -13    1    3    3    0    0 -0.33931302638E+02  0.11722622314E+03 -0.54933223069E+02  0.13383190833E+03  0.00000000000E+00 0. -1.
         22    1    1    2    0    0  0.12973166210E+03 -0.56030436625E+03  0.10270824530E+04  0.11771447032E+04  0.00000000000E+00 0. -1.
<mgrwt>
<rscale>  0 0.14899958E+04</rscale>
<asrwt>0</asrwt>
<pdfrwt beam="1">  1        2 0.20855544E+00 0.14899958E+04</pdfrwt>
<pdfrwt beam="2">  1       -2 0.62988585E-01 0.14899958E+04</pdfrwt>
<totfact> 0.34654135E+01</totfact>
</mgrwt>
</event>
<event>
 6    1  0.1528034E-005  0.1692508E+04  0.7818608E-02  0.8765649E-01
         -2   -1    0    0    0  501 -0.00000000000E+00  0.00000000000E+00  0.62999616527E+03  0.62999616527E+03  0.00000000000E+00 0.  1.
          2   -1    0    0  501    0  0.00000000000E+00 -0.00000000000E+00 -0.11367457767E+04  0.11367457767E+04  0.00000000000E+00 0. -1.
         23    2    1    2    0    0 -0.27506113858E+03  0.73474218015E+03 -0.57916520887E+03  0.97886586037E+03  0.85096017474E+02 0.  0.
         11    1    3    3    0    0 -0.93327053794E+02  0.14878038373E+03 -0.13155226975E+03  0.21943459442E+03  0.00000000000E+00 0. -1.
        -11    1    3    3    0    0 -0.18173408479E+03  0.58596179642E+03 -0.44761293912E+03  0.75943126595E+03  0.00000000000E+00 0.  1.
         22    1    1    2    0    0  0.27506113858E+03 -0.73474218015E+03  0.72415597396E+02  0.78787608163E+03  0.00000000000E+00 0.  1.
<mgrwt>
<rscale>  0 0.16925076E+04</rscale>
<asrwt>0</asrwt>
<pdfrwt beam="1">  1        2 0.17488396E+00 0.16925076E+04</pdfrwt>
<pdfrwt beam="2">  1       -2 0.96922488E-01 0.16925076E+04</pdfrwt>
<totfact> 0.17514600E+01</totfact>
</mgrwt>
</event>
<event>
 6    1  0.1528034E-005  0.2710872E+04  0.7818608E-02  0.8331486E-01
         -2   -1    0    0    0  501 -0.00000000000E+00  0.00000000000E+00  0.12202667771E+04  0.12202667771E+04  0.00000000000E+00 0.  1.
          2   -1    0    0  501    0  0.00000000000E+00 -0.00000000000E+00 -0.15055774091E+04  0.15055774091E+04  0.00000000000E+00 0. -1.
         23    2    1    2    0    0  0.50170073508E+03 -0.34374260066E+03  0.10735204327E+04  0.12371251176E+04  0.90387134384E+02 0.  0.
         13    1    3    3    0    0  0.41396011903E+03 -0.29104156086E+03  0.81801476659E+03  0.96188166043E+03  0.00000000000E+00 0. -1.
        -13    1    3    3    0    0  0.87740616052E+02 -0.52701039798E+02  0.25550566610E+03  0.27524345716E+03  0.00000000000E+00 0.  1.
         22    1    1    2    0    0 -0.50170073508E+03  0.34374260066E+03 -0.13588310647E+04  0.14887190687E+04  0.00000000000E+00 0. -1.
<mgrwt>
<rscale>  0 0.27108715E+04</rscale>
<asrwt>0</asrwt>
<pdfrwt beam="1">  1        2 0.23162730E+00 0.27108715E+04</pdfrwt>
<pdfrwt beam="2">  1       -2 0.18773335E+00 0.27108715E+04</pdfrwt>
<totfact> 0.17736310E+00</totfact>
</mgrwt>
</event>
<event>
 6    1  0.1528034E-005  0.2051713E+04  0.7818608E-02  0.8582818E-01
          1   -1    0    0  501    0  0.00000000000E+00  0.00000000000E+00  0.94981471247E+03  0.94981471247E+03  0.00000000000E+00 0. -1.
         -1   -1    0    0    0  501 -0.00000000000E+00 -0.00000000000E+00 -0.11079862569E+04  0.11079862569E+04  0.00000000000E+00 0.  1.
         23    2    1    2    0    0 -0.59468599203E+03  0.57613121836E+03 -0.68328238071E+03  0.10773316938E+04  0.90499485096E+02 0.  0.
         13    1    3    3    0    0 -0.32090581386E+03  0.37283437297E+03 -0.40433875391E+03  0.63676984770E+03  0.00000000000E+00 0.  1.
        -13    1    3    3    0    0 -0.27378017817E+03  0.20329684539E+03 -0.27894362681E+03  0.44056184610E+03  0.00000000000E+00 0. -1.
         22    1    1    2    0    0  0.59468599203E+03 -0.57613121836E+03  0.52511083631E+03  0.98046927555E+03  0.00000000000E+00 0. -1.
<mgrwt>
<rscale>  0 0.20517131E+04</rscale>
<asrwt>0</asrwt>
<pdfrwt beam="1">  1        1 0.14612534E+00 0.20517131E+04</pdfrwt>
<pdfrwt beam="2">  1       -1 0.17045942E+00 0.20517131E+04</pdfrwt>
<totfact> 0.37386976E+00</totfact>
</mgrwt>
</event>
<event>
 6    1  0.1528034E-005  0.2801811E+04  0.7818608E-02  0.8302706E-01
         -1   -1    0    0    0  501 -0.00000000000E+00  0.00000000000E+00  0.16423478408E+04  0.16423478408E+04  0.00000000000E+00 0.  1.
          1   -1    0    0  501    0  0.00000000000E+00 -0.00000000000E+00 -0.11949573191E+04  0.11949573191E+04  0.00000000000E+00 0. -1.
         23    2    1    2    0    0  0.85727927987E+03  0.83082287890E+03  0.96331046051E+03  0.15367791882E+04  0.92351556660E+02 0.  0.
         11    1    3    3    0    0  0.41229931337E+03  0.34930759494E+03  0.39882931325E+03  0.67161844882E+03  0.00000000000E+00 0.  1.
        -11    1    3    3    0    0  0.44497996650E+03  0.48151528396E+03  0.56448114726E+03  0.86516073933E+03  0.00000000000E+00 0. -1.
         22    1    1    2    0    0 -0.85727927987E+03 -0.83082287890E+03 -0.51591993884E+03  0.13005259717E+04  0.00000000000E+00 0. -1.
<mgrwt>
<rscale>  0 0.28018105E+04</rscale>
<asrwt>0</asrwt>
<pdfrwt beam="1">  1        1 0.18383959E+00 0.28018105E+04</pdfrwt>
<pdfrwt beam="2">  1       -1 0.25266890E+00 0.28018105E+04</pdfrwt>
<totfact> 0.62475563E-01</totfact>
</mgrwt>
</event>
<event>
 6    1  0.1528034E-005  0.1961424E+04  0.7818608E-02  0.8624872E-01
          1   -1    0    0  501    0  0.00000000000E+00  0.00000000000E+00  0.78029998628E+03  0.78029998628E+03  0.00000000000E+00 0. -1.
         -1   -1    0    0    0  501 -0.00000000000E+00 -0.00000000000E+00 -0.12325975405E+04  0.12325975405E+04  0.00000000000E+00 0.  1.
         23    2    1    2    0    0 -0.53838512214E+03 -0.28005774112E+03  0.56147434124E+03  0.83136279004E+03  0.87291320808E+02 0.  0.
         13    1    3    3    0    0 -0.13295628434E+03 -0.80064361447E+02  0.19618116195E+03  0.25014940301E+03  0.00000000000E+00 0. -1.
        -13    1    3    3    0    0 -0.40542883780E+03 -0.19999337967E+03  0.36529317928E+03  0.58121338703E+03  0.00000000000E+00 0.  1.
         22    1    1    2    0    0  0.53838512214E+03  0.28005774112E+03 -0.10137718955E+04  0.11815347368E+04  0.00000000000E+00 0.  1.
<mgrwt>
<rscale>  0 0.19614238E+04</rscale>
<asrwt>0</asrwt>
<pdfrwt beam="1">  1        1 0.12004615E+00 0.19614238E+04</pdfrwt>
<pdfrwt beam="2">  1       -1 0.18963039E+00 0.19614238E+04</pdfrwt>
<totfact> 0.38064233E+00</totfact>
</mgrwt>
</event>
<event>
 6    1  0.1528034E-005  0.2627533E+04  0.7818608E-02  0.8358908E-01
         -2   -1    0    0    0  501 -0.00000000000E+00  0.00000000000E+00  0.12815702262E+04  0.12815702262E+04  0.00000000000E+00 0.  1.
          2   -1    0    0  501    0  0.00000000000E+00 -0.00000000000E+00 -0.13467720496E+04  0.13467720496E+04  0.00000000000E+00 0. -1.
         23    2    1    2    0    0 -0.11459917424E+04  0.18296399617E+03  0.58026024617E+03  0.13004137457E+04  0.87184053614E+02 0.  0.
         11    1    3    3    0    0 -0.82417872832E+03  0.10856194553E+03  0.37892379692E+03  0.91358607483E+03  0.00000000000E+00 0. -1.
        -11    1    3    3    0    0 -0.32181301409E+03  0.74402050639E+02  0.20133644925E+03  0.38682767090E+03  0.00000000000E+00 0.  1.
         22    1    1    2    0    0  0.11459917424E+04 -0.18296399617E+03 -0.64546206955E+03  0.13279285300E+04  0.00000000000E+00 0.  1.
<mgrwt>
<rscale>  0 0.26275334E+04</rscale>
<asrwt>0</asrwt>
<pdfrwt beam="1">  1        2 0.20719570E+00 0.26275334E+04</pdfrwt>
<pdfrwt beam="2">  1       -2 0.19716465E+00 0.26275334E+04</pdfrwt>
<totfact> 0.19030357E+00</totfact>
</mgrwt>
</event>
<event>
 6    1  0.1528034E-005  0.3083612E+04  0.7818608E-02  0.8220250E-01
         -1   -1    0    0    0  501 -0.00000000000E+00  0.00000000000E+00  0.59577881541E+03  0.59577881541E+03  0.00000000000E+00 0.  1.
          1   -1    0    0  501    0  0.00000000000E+00 -0.00000000000E+00 -0.39900138111E+04  0.39900138111E+04  0.00000000000E+00 0. -1.
         23    2    1    2    0    0 -0.13835756408E+04  0.44124220775E+03 -0.24623074006E+04  0.28602592939E+04  0.95651729355E+02 0.  0.
         13    1    3    3    0    0 -0.62300200943E+03  0.23571579757E+03 -0.11912289352E+04  0.13648149388E+04  0.00000000000E+00 0. -1.
        -13    1    3    3    0    0 -0.76057363134E+03  0.20552641018E+03 -0.12710784654E+04  0.14954443551E+04  0.00000000000E+00 0.  1.
         22    1    1    2    0    0  0.13835756408E+04 -0.44124220775E+03 -0.93192759509E+03  0.17255333327E+04  0.00000000000E+00 0.  1.
<mgrwt>
<rscale>  0 0.30836120E+04</rscale>
<asrwt>0</asrwt>
<pdfrwt beam="1">  1        1 0.61384826E+00 0.30836120E+04</pdfrwt>
<pdfrwt beam="2">  1       -1 0.91658283E-01 0.30836120E+04</pdfrwt>
<totfact> 0.95868759E-02</totfact>
</mgrwt>
</event>
<event>
 6    1  0.1528034E-005  0.1933296E+04  0.7818608E-02  0.8638458E-01
         -2   -1    0    0    0  501 -0.00000000000E+00  0.00000000000E+00  0.91620793912E+03  0.91620793912E+03  0.00000000000E+00 0.  1.
          2   -1    0    0  501    0  0.00000000000E+00 -0.00000000000E+00 -0.10198646354E+04  0.10198646354E+04  0.00000000000E+00 0. -1.
         23    2    1    2    0    0 -0.86522613147E+03  0.40643374573E+03  0.78093652515E+02  0.96301664724E+03  0.86589814945E+02 0.  0.
         13    1    3    3    0    0 -0.73388056973E+03  0.37043723295E+03  0.47565890747E+02  0.82344820611E+03  0.00000000000E+00 0. -1.
        -13    1    3    3    0    0 -0.13134556175E+03  0.35996512783E+02  0.30527761768E+02  0.13956844114E+03  0.00000000000E+00 0.  1.
         22    1    1    2    0    0  0.86522613147E+03 -0.40643374573E+03 -0.18175034876E+03  0.97305592724E+03  0.00000000000E+00 0.  1.
<mgrwt>
<rscale>  0 0.19332957E+04</rscale>
<asrwt>0</asrwt>
<pdfrwt beam="1">  1        2 0.15690225E+00 0.19332957E+04</pdfrwt>
<pdfrwt beam="2">  1       -2 0.14095507E+00 0.19332957E+04</pdfrwt>
<totfact> 0.80618636E+00</totfact>
</mgrwt>
</event>
<event>
 6    1  0.1528034E-005  0.2471703E+04  0.7818608E-02  0.8413137E-01
          2   -1    0    0  501    0  0.00000000000E+00  0.00000000000E+00  0.16862717175E+04  0.16862717175E+04  0.00000000000E+00 0. -1.
         -2   -1    0    0    0  501 -0.00000000000E+00 -0.00000000000E+00 -0.90574273667E+03  0.90574273667E+03  0.00000000000E+00 0.  1.
         23    2    1    2    0    0 -0.10308864425E+04  0.56647020902E+03 -0.86741076847E+00  0.11798545214E+04  0.91872652626E+02 0.  0.
         13    1    3    3    0    0 -0.81522631273E+03  0.47668519984E+03  0.25925485785E+02  0.94471945652E+03  0.00000000000E+00 0. -1.
        -13    1    3    3    0    0 -0.21566012974E+03  0.89785009188E+02 -0.26792896553E+02  0.23513506488E+03  0.00000000000E+00 0.  1.
         22    1    1    2    0    0  0.10308864425E+04 -0.56647020902E+03  0.78139639163E+03  0.14121599328E+04  0.00000000000E+00 0.  1.
<mgrwt>
<rscale>  0 0.24717025E+04</rscale>
<asrwt>0</asrwt>
<pdfrwt beam="1">  1        2 0.25942642E+00 0.24717025E+04</pdfrwt>
<pdfrwt beam="2">  1       -2 0.13934504E+00 0.24717025E+04</pdfrwt>
<totfact> 0.32444596E+00</totfact>
</mgrwt>
</event>
<event>
 6    1  0.1528034E-005  0.2312759E+04  0.7818608E-02  0.8472908E-01
          2   -1    0    0  501    0  0.00000000000E+00  0.00000000000E+00  0.12931810012E+04  0.12931810012E+04  0.00000000000E+00 0. -1.
         -2   -1    0    0    0  501 -0.00000000000E+00 -0.00000000000E+00 -0.10340493674E+04  0.10340493674E+04  0.00000000000E+00 0.  1.
         23    2    1    2    0    0 -0.41204129451E+03 -0.56450186693E+03 -0.79502603735E+03  0.10624423303E+04  0.90977573968E+02 0.  0.
         13    1    3    3    0    0 -0.14106618256E+03 -0.16599101360E+03 -0.19087021404E+03  0.28962755923E+03  0.00000000000E+00 0. -1.
        -13    1    3    3    0    0 -0.27097511195E+03 -0.39851085333E+03 -0.60415582331E+03  0.77281477106E+03  0.00000000000E+00 0.  1.
         22    1    1    2    0    0  0.41204129451E+03  0.56450186693E+03  0.10541576712E+04  0.12647880383E+04  0.00000000000E+00 0. -1.
<mgrwt>
<rscale>  0 0.23127585E+04</rscale>
<asrwt>0</asrwt>
<pdfrwt beam="1">  1        2 0.19895092E+00 0.23127585E+04</pdfrwt>
<pdfrwt beam="2">  1       -2 0.15908452E+00 0.23127585E+04</pdfrwt>
<totfact> 0.38664448E+00</totfact>
</mgrwt>
</event>
<event>
 6    1  0.1528034E-005  0.2391728E+04  0.7818608E-02  0.8442607E-01
          1   -1    0    0  501    0  0.00000000000E+00  0.00000000000E+00  0.17816624719E+04  0.17816624719E+04  0.00000000000E+00 0. -1.
         -1   -1    0    0    0  501 -0.00000000000E+00 -0.00000000000E+00 -0.80267205310E+03  0.80267205310E+03  0.00000000000E+00 0.  1.
         23    2    1    2    0    0  0.59823780272E+03  0.56253724901E+03  0.14269921738E+04  0.16488976230E+04  0.90664667382E+02 0.  0.
         11    1    3    3    0    0  0.21714391421E+03  0.26472955022E+03  0.57757420593E+03  0.67143516261E+03  0.00000000000E+00 0.  1.
        -11    1    3    3    0    0  0.38109388852E+03  0.29780769879E+03  0.84941796783E+03  0.97746246035E+03  0.00000000000E+00 0. -1.
         22    1    1    2    0    0 -0.59823780272E+03 -0.56253724901E+03 -0.44800175500E+03  0.93543690200E+03  0.00000000000E+00 0.  1.
<mgrwt>
<rscale>  0 0.23917280E+04</rscale>
<asrwt>0</asrwt>
<pdfrwt beam="1">  1        1 0.27410192E+00 0.23917280E+04</pdfrwt>
<pdfrwt beam="2">  1       -1 0.12348801E+00 0.23917280E+04</pdfrwt>
<totfact> 0.21685952E+00</totfact>
</mgrwt>
</event>
<event>
 6    1  0.1528034E-005  0.1281785E+04  0.7818608E-02  0.9044136E-01
         -1   -1    0    0    0  501 -0.00000000000E+00  0.00000000000E+00  0.39930319084E+03  0.39930319084E+03  0.00000000000E+00 0.  1.
          1   -1    0    0  501    0  0.00000000000E+00 -0.00000000000E+00 -0.10286496865E+04  0.10286496865E+04  0.00000000000E+00 0. -1.
         23    2    1    2    0    0 -0.11404307476E+02  0.43264138174E+03  0.20531563510E+03  0.48775635749E+03  0.91886510613E+02 0.  0.
         13    1    3    3    0    0 -0.29435717367E+02  0.31064119173E+03  0.10643815594E+03  0.32968696137E+03  0.00000000000E+00 0.  1.
        -13    1    3    3    0    0  0.18031409891E+02  0.12200019001E+03  0.98877479160E+02  0.15806939612E+03  0.00000000000E+00 0. -1.
         22    1    1    2    0    0  0.11404307476E+02 -0.43264138174E+03 -0.83466213073E+03  0.94019651983E+03  0.00000000000E+00 0. -1.
<mgrwt>
<rscale>  0 0.12817849E+04</rscale>
<asrwt>0</asrwt>
<pdfrwt beam="1">  1        1 0.15825380E+00 0.12817849E+04</pdfrwt>
<pdfrwt beam="2">  1       -1 0.61431261E-01 0.12817849E+04</pdfrwt>
<totfact> 0.38007655E+01</totfact>
</mgrwt>
</event>
<event>
 6    1  0.1528034E-005  0.1669408E+04  0.7818608E-02  0.8779007E-01
         -2   -1    0    0    0  501 -0.00000000000E+00  0.00000000000E+00  0.70068691512E+03  0.70068691512E+03  0.00000000000E+00 0.  1.
          2   -1    0    0  501    0  0.00000000000E+00 -0.00000000000E+00 -0.99435338168E+03  0.99435338168E+03  0.00000000000E+00 0. -1.
         23    2    1    2    0    0 -0.42428984118E+03 -0.62472726570E+03  0.20839750695E+03  0.78819176516E+03  0.86664363657E+02 0.  0.
         13    1    3    3    0    0 -0.24062911668E+03 -0.42541980047E+03  0.12242371502E+03  0.50385706746E+03  0.00000000000E+00 0. -1.
        -13    1    3    3    0    0 -0.18366072450E+03 -0.19930746523E+03  0.85973791936E+02  0.28433469770E+03  0.00000000000E+00 0.  1.
         22    1    1    2    0    0  0.42428984118E+03  0.62472726570E+03 -0.50206397352E+03  0.90684853164E+03  0.00000000000E+00 0. -1.
<mgrwt>
<rscale>  0 0.16694076E+04</rscale>
<asrwt>0</asrwt>
<pdfrwt beam="1">  1        2 0.15297744E+00 0.16694076E+04</pdfrwt>
<pdfrwt beam="2">  1       -2 0.10779799E+00 0.16694076E+04</pdfrwt>
<totfact> 0.16718437E+01</totfact>
</mgrwt>
</event>
<event>
 6    1  0.1528034E-005  0.2373825E+04  0.7818608E-02  0.8449368E-01
          2   -1    0    0  501    0  0.00000000000E+00  0.00000000000E+00  0.18114772387E+04  0.18114772387E+04  0.00000000000E+00 0.  1.
         -2   -1    0    0    0  501 -0.00000000000E+00 -0.00000000000E+00 -0.77768658890E+03  0.77768658890E+03  0.00000000000E+00 0. -1.
         23    2    1    2    0    0  0.99506253506E+03 -0.61775758554E+03  0.71592177967E+03  0.13755681364E+04  0.88712006544E+02 0.  0.
         13    1    3    3    0    0  0.91671667775E+03 -0.53960148169E+03  0.65541550108E+03  0.12494433582E+04  0.00000000000E+00 0.  1.
        -13    1    3    3    0    0  0.78345857314E+02 -0.78156103842E+02  0.60506278585E+02  0.12612477819E+03  0.00000000000E+00 0. -1.
         22    1    1    2    0    0 -0.99506253506E+03  0.61775758554E+03  0.31786887016E+03  0.12135956912E+04  0.00000000000E+00 0.  1.
<mgrwt>
<rscale>  0 0.23738252E+04</rscale>
<asrwt>0</asrwt>
<pdfrwt beam="1">  1        2 0.27868881E+00 0.23738252E+04</pdfrwt>
<pdfrwt beam="2">  1       -2 0.11964409E+00 0.23738252E+04</pdfrwt>
<totfact> 0.40993779E+00</totfact>
</mgrwt>
</event>
<event>
 6    1  0.1528034E-005  0.1174306E+04  0.7818608E-02  0.9135649E-01
          2   -1    0    0  501    0  0.00000000000E+00  0.00000000000E+00  0.32513802601E+03  0.32513802601E+03  0.00000000000E+00 0. -1.
         -2   -1    0    0    0  501 -0.00000000000E+00 -0.00000000000E+00 -0.10603143052E+04  0.10603143052E+04  0.00000000000E+00 0.  1.
         23    2    1    2    0    0 -0.99323764832E+02  0.37118455852E+03  0.14822457771E+03  0.42210386844E+03  0.92509262089E+02 0.  0.
         13    1    3    3    0    0 -0.93909060718E+02  0.27253003970E+03  0.71451956835E+02  0.29697965648E+03  0.00000000000E+00 0. -1.
        -13    1    3    3    0    0 -0.54147041140E+01  0.98654518816E+02  0.76772620879E+02  0.12512421197E+03  0.00000000000E+00 0.  1.
         22    1    1    2    0    0  0.99323764832E+02 -0.37118455852E+03 -0.88340085690E+03  0.96334846277E+03  0.00000000000E+00 0.  1.
<mgrwt>
<rscale>  0 0.11743058E+04</rscale>
<asrwt>0</asrwt>
<pdfrwt beam="1">  1        2 0.50021234E-01 0.11743058E+04</pdfrwt>
<pdfrwt beam="2">  1       -2 0.16312528E+00 0.11743058E+04</pdfrwt>
<totfact> 0.23668644E+01</totfact>
</mgrwt>
</event>
<event>
 6    1  0.1528034E-005  0.3319904E+04  0.7818608E-02  0.8157849E-01
         -1   -1    0    0    0  501 -0.00000000000E+00  0.00000000000E+00  0.12886588540E+04  0.12886588540E+04  0.00000000000E+00 0.  1.
          1   -1    0    0  501    0  0.00000000000E+00 -0.00000000000E+00 -0.21382229854E+04  0.21382229854E+04  0.00000000000E+00 0. -1.
         23    2    1    2    0    0 -0.10463982374E+03  0.15314502585E+04 -0.10734929031E+04  0.18756134932E+04  0.96174715478E+02 0.  0.
         13    1    3    3    0    0 -0.17176409205E+02  0.59440160526E+03 -0.46551978200E+03  0.75519332942E+03  0.00000000000E+00 0. -1.
        -13    1    3    3    0    0 -0.87463414539E+02  0.93704865329E+03 -0.60797312111E+03  0.11204201638E+04  0.00000000000E+00 0.  1.
         22    1    1    2    0    0  0.10463982374E+03 -0.15314502585E+04  0.22392877172E+03  0.15512683462E+04  0.00000000000E+00 0.  1.
<mgrwt>
<rscale>  0 0.33199036E+04</rscale>
<asrwt>0</asrwt>
<pdfrwt beam="1">  1        1 0.32895738E+00 0.33199036E+04</pdfrwt>
<pdfrwt beam="2">  1       -1 0.19825521E+00 0.33199036E+04</pdfrwt>
<totfact> 0.30764068E-01</totfact>
</mgrwt>
</event>
<event>
 6    1  0.1528034E-005  0.7868180E+03  0.7818608E-02  0.9579296E-01
         -2   -1    0    0    0  501 -0.00000000000E+00  0.00000000000E+00  0.61763637007E+02  0.61763637007E+02  0.00000000000E+00 0.  1.
          2   -1    0    0  501    0  0.00000000000E+00 -0.00000000000E+00 -0.25058537367E+04  0.25058537367E+04  0.00000000000E+00 0. -1.
         23    2    1    2    0    0 -0.29306650518E+03  0.87468312396E+02 -0.20182287500E+04  0.20433115743E+04  0.91302903434E+02 0.  0.
         11    1    3    3    0    0 -0.95752366939E+02 -0.11442939340E+02 -0.51278662842E+03  0.52177541426E+03  0.00000000000E+00 0. -1.
        -11    1    3    3    0    0 -0.19731413824E+03  0.98911251736E+02 -0.15054421216E+04  0.15215361601E+04  0.00000000000E+00 0.  1.
         22    1    1    2    0    0  0.29306650518E+03 -0.87468312396E+02 -0.42586134967E+03  0.52430579939E+03  0.00000000000E+00 0.  1.
<mgrwt>
<rscale>  0 0.78681800E+03</rscale>
<asrwt>0</asrwt>
<pdfrwt beam="1">  1        2 0.38551594E+00 0.78681800E+03</pdfrwt>
<pdfrwt beam="2">  1       -2 0.95020986E-02 0.78681800E+03</pdfrwt>
<totfact> 0.26649446E+02</totfact>
</mgrwt>
</event>
<event>
 6    1  0.1528034E-005  0.1474188E+04  0.7818608E-02  0.8901802E-01
         -2   -1    0    0    0  501 -0.00000000000E+00  0.00000000000E+00  0.28838531663E+03  0.28838531663E+03  0.00000000000E+00 0.  1.
          2   -1    0    0  501    0  0.00000000000E+00 -0.00000000000E+00 -0.18839634252E+04  0.18839634252E+04  0.00000000000E+00 0. -1.
         23    2    1    2    0    0  0.31072309840E+03  0.33462920583E+03  0.46317870034E+02  0.46813398018E+03  0.92078928312E+02 0.  0.
         13    1    3    3    0    0  0.22589836108E+03  0.29156375967E+03  0.19753670012E+02  0.36936391671E+03  0.00000000000E+00 0. -1.
        -13    1    3    3    0    0  0.84824737318E+02  0.43065446167E+02  0.26564200021E+02  0.98770063467E+02  0.00000000000E+00 0.  1.
         22    1    1    2    0    0 -0.31072309840E+03 -0.33462920583E+03 -0.16418959786E+04  0.17042147616E+04  0.00000000000E+00 0. -1.
<mgrwt>
<rscale>  0 0.14741878E+04</rscale>
<asrwt>0</asrwt>
<pdfrwt beam="1">  1        2 0.28984052E+00 0.14741878E+04</pdfrwt>
<pdfrwt beam="2">  1       -2 0.44366973E-01 0.14741878E+04</pdfrwt>
<totfact> 0.36153430E+01</totfact>
</mgrwt>
</event>
<event>
 6    1  0.1528034E-005  0.2815127E+04  0.7818608E-02  0.8298587E-01
         -2   -1    0    0    0  501 -0.00000000000E+00  0.00000000000E+00  0.10287288236E+04  0.10287288236E+04  0.00000000000E+00 0.  1.
          2   -1    0    0  501    0  0.00000000000E+00 -0.00000000000E+00 -0.19259059351E+04  0.19259059351E+04  0.00000000000E+00 0. -1.
         23    2    1    2    0    0 -0.95635079636E+03  0.95055974771E+03 -0.86761810999E+03  0.16059152124E+04  0.89620338403E+02 0.  0.
         13    1    3    3    0    0 -0.71840075126E+03  0.75219485326E+03 -0.69918823828E+03  0.12533000157E+04  0.00000000000E+00 0.  1.
        -13    1    3    3    0    0 -0.23795004510E+03  0.19836489446E+03 -0.16842987171E+03  0.35261519678E+03  0.00000000000E+00 0. -1.
         22    1    1    2    0    0  0.95635079636E+03 -0.95055974771E+03 -0.29559001511E+02  0.13487195462E+04  0.00000000000E+00 0.  1.
<mgrwt>
<rscale>  0 0.28151270E+04</rscale>
<asrwt>0</asrwt>
<pdfrwt beam="1">  1        2 0.29629322E+00 0.28151270E+04</pdfrwt>
<pdfrwt beam="2">  1       -2 0.15826597E+00 0.28151270E+04</pdfrwt>
<totfact> 0.16567116E+00</totfact>
</mgrwt>
</event>
<event>
 6    1  0.1528034E-005  0.3460050E+04  0.7818608E-02  0.8123323E-01
         -2   -1    0    0    0  501 -0.00000000000E+00  0.00000000000E+00  0.12297649044E+04  0.12297649044E+04  0.00000000000E+00 0.  1.
          2   -1    0    0  501    0  0.00000000000E+00 -0.00000000000E+00 -0.24337876232E+04  0.24337876232E+04  0.00000000000E+00 0. -1.
         23    2    1    2    0    0  0.16231380718E+04  0.10503681058E+02 -0.12322184201E+04  0.20401355988E+04  0.95412259346E+02 0.  0.
         11    1    3    3    0    0  0.99413437908E+03  0.29189497210E+02 -0.80519936084E+03  0.12796488585E+04  0.00000000000E+00 0.  1.
        -11    1    3    3    0    0  0.62900369267E+03 -0.18685816152E+02 -0.42701905929E+03  0.76048674026E+03  0.00000000000E+00 0. -1.
         22    1    1    2    0    0 -0.16231380718E+04 -0.10503681058E+02  0.28195701313E+02  0.16234169288E+04  0.00000000000E+00 0.  1.
<mgrwt>
<rscale>  0 0.34600501E+04</rscale>
<asrwt>0</asrwt>
<pdfrwt beam="1">  1        2 0.37442886E+00 0.34600501E+04</pdfrwt>
<pdfrwt beam="2">  1       -2 0.18919460E+00 0.34600501E+04</pdfrwt>
<totfact> 0.49184371E-01</totfact>
</mgrwt>
</event>
<event>
 6    1  0.1528034E-005  0.7181083E+03  0.7818608E-02  0.9686756E-01
          1   -1    0    0  501    0  0.00000000000E+00  0.00000000000E+00  0.10052668836E+04  0.10052668836E+04  0.00000000000E+00 0.  1.
         -1   -1    0    0    0  501 -0.00000000000E+00 -0.00000000000E+00 -0.12824443975E+03  0.12824443975E+03  0.00000000000E+00 0. -1.
         23    2    1    2    0    0 -0.45438341887E+02 -0.24270550057E+03  0.46052382810E+02  0.26663079799E+03  0.89445835862E+02 0.  0.
         13    1    3    3    0    0 -0.25299779715E+02 -0.12287872505E+03  0.68694158228E+02  0.14303197998E+03  0.00000000000E+00 0.  1.
        -13    1    3    3    0    0 -0.20138562172E+02 -0.11982677552E+03 -0.22641775418E+02  0.12359881801E+03  0.00000000000E+00 0. -1.
         22    1    1    2    0    0  0.45438341887E+02  0.24270550057E+03  0.83097006103E+03  0.86688052536E+03  0.00000000000E+00 0.  1.
<mgrwt>
<rscale>  0 0.71810832E+03</rscale>
<asrwt>0</asrwt>
<pdfrwt beam="1">  1        1 0.15465644E+00 0.71810832E+03</pdfrwt>
<pdfrwt beam="2">  1       -1 0.19729914E-01 0.71810832E+03</pdfrwt>
<totfact> 0.31741986E+02</totfact>
</mgrwt>
</event>
<event>
 6    1  0.1528034E-005  0.1892598E+04  0.7818608E-02  0.8658550E-01
          2   -1    0    0  501    0  0.00000000000E+00  0.00000000000E+00  0.17003754391E+04  0.17003754391E+04  0.00000000000E+00 0.  1.
         -2   -1    0    0    0  501 -0.00000000000E+00 -0.00000000000E+00 -0.52663769008E+03  0.52663769008E+03  0.00000000000E+00 0. -1.
         23    2    1    2    0    0  0.32043038643E+03  0.40249840378E+02  0.16321562287E+04  0.16662607910E+04  0.90528375085E+02 0.  0.
         13    1    3    3    0    0  0.41310605148E+02  0.20059271453E+02  0.40523106900E+03  0.40782491311E+03  0.00000000000E+00 0. -1.
        -13    1    3    3    0    0  0.27911978128E+03  0.20190568925E+02  0.12269251597E+04  0.12584358779E+04  0.00000000000E+00 0.  1.
         22    1    1    2    0    0 -0.32043038643E+03 -0.40249840378E+02 -0.45841847969E+03  0.56075233813E+03  0.00000000000E+00 0. -1.
<mgrwt>
<rscale>  0 0.18925980E+04</rscale>
<asrwt>0</asrwt>
<pdfrwt beam="1">  1        2 0.26159622E+00 0.18925980E+04</pdfrwt>
<pdfrwt beam="2">  1       -2 0.81021184E-01 0.18925980E+04</pdfrwt>
<totfact> 0.12338859E+01</totfact>
</mgrwt>
</event>
<event>
 6    1  0.1528034E-005  0.4864383E+04  0.7818608E-02  0.7849775E-01
          2   -1    0    0  501    0  0.00000000000E+00  0.00000000000E+00  0.48253248995E+04  0.48253248995E+04  0.00000000000E+00 0. -1.
         -2   -1    0    0    0  501 -0.00000000000E+00 -0.00000000000E+00 -0.12259391877E+04  0.12259391877E+04  0.00000000000E+00 0.  1.
         23    2    1    2    0    0  0.14474482034E+04  0.18338677945E+04  0.26377479031E+04  0.35248190226E+04  0.91966038582E+02 0.  0.
         11    1    3    3    0    0  0.44499865572E+03  0.61711572657E+03  0.90062107724E+03  0.11789715638E+04  0.00000000000E+00 0. -1.
        -11    1    3    3    0    0  0.10024495477E+04  0.12167520680E+04  0.17371268258E+04  0.23458474587E+04  0.00000000000E+00 0.  1.
         22    1    1    2    0    0 -0.14474482034E+04 -0.18338677945E+04  0.96163780878E+03  0.25264450646E+04  0.00000000000E+00 0.  1.
<mgrwt>
<rscale>  0 0.48643828E+04</rscale>
<asrwt>0</asrwt>
<pdfrwt beam="1">  1        2 0.74235767E+00 0.48643828E+04</pdfrwt>
<pdfrwt beam="2">  1       -2 0.18860603E+00 0.48643828E+04</pdfrwt>
<totfact> 0.64024134E-03</totfact>
</mgrwt>
</event>
<event>
 6    1  0.1528034E-005  0.2143730E+04  0.7818608E-02  0.8542221E-01
         -1   -1    0    0    0  501 -0.00000000000E+00  0.00000000000E+00  0.50009429886E+03  0.50009429886E+03  0.00000000000E+00 0.  1.
          1   -1    0    0  501    0  0.00000000000E+00 -0.00000000000E+00 -0.22973550775E+04  0.22973550775E+04  0.00000000000E+00 0. -1.
         23    2    1    2    0    0  0.28272072184E+03  0.29824821852E+03  0.38889937007E+03  0.57299906175E+03  0.90565988786E+02 0.  0.
         13    1    3    3    0    0  0.72048998835E+02  0.86502903618E+02  0.16480803242E+03  0.19958832160E+03  0.00000000000E+00 0. -1.
        -13    1    3    3    0    0  0.21067172301E+03  0.21174531490E+03  0.22409133765E+03  0.37341074016E+03  0.00000000000E+00 0.  1.
         22    1    1    2    0    0 -0.28272072184E+03 -0.29824821852E+03 -0.21861601487E+04  0.22244503146E+04  0.00000000000E+00 0. -1.
<mgrwt>
<rscale>  0 0.21437296E+04</rscale>
<asrwt>0</asrwt>
<pdfrwt beam="1">  1        1 0.35343924E+00 0.21437296E+04</pdfrwt>
<pdfrwt beam="2">  1       -1 0.76937586E-01 0.21437296E+04</pdfrwt>
<totfact> 0.29014842E+00</totfact>
</mgrwt>
</event>
<event>
 6    1  0.1528034E-005  0.3261395E+04  0.7818608E-02  0.8172789E-01
          3   -1    0    0  501    0  0.00000000000E+00  0.00000000000E+00  0.17431061683E+04  0.17431061683E+04  0.00000000000E+00 0. -1.
         -3   -1    0    0    0  501 -0.00000000000E+00 -0.00000000000E+00 -0.15255375879E+04  0.15255375879E+04  0.00000000000E+00 0.  1.
         23    2    1    2    0    0 -0.14973233241E+04 -0.34822657407E+03 -0.43279593512E+03  0.15994484750E+04  0.87659677530E+02 0.  0.
         13    1    3    3    0    0 -0.80909205034E+03 -0.15697052792E+03 -0.26447526497E+03  0.86557313864E+03  0.00000000000E+00 0. -1.
        -13    1    3    3    0    0 -0.68823127376E+03 -0.19125604615E+03 -0.16832067015E+03  0.73387533639E+03  0.00000000000E+00 0.  1.
         22    1    1    2    0    0  0.14973233241E+04  0.34822657407E+03  0.65036451552E+03  0.16691952812E+04  0.00000000000E+00 0. -1.
<mgrwt>
<rscale>  0 0.32613948E+04</rscale>
<asrwt>0</asrwt>
<pdfrwt beam="1">  1        3 0.26817018E+00 0.32613948E+04</pdfrwt>
<pdfrwt beam="2">  1       -3 0.23469809E+00 0.32613948E+04</pdfrwt>
<totfact> 0.11345092E-02</totfact>
</mgrwt>
</event>
<event>
 6    1  0.1528034E-005  0.7282935E+03  0.7818608E-02  0.9670034E-01
          3   -1    0    0  501    0  0.00000000000E+00  0.00000000000E+00  0.20018530730E+04  0.20018530730E+04  0.00000000000E+00 0. -1.
         -3   -1    0    0    0  501 -0.00000000000E+00 -0.00000000000E+00 -0.66240054019E+02  0.66240054019E+02  0.00000000000E+00 0.  1.
         23    2    1    2    0    0  0.90933057891E+02 -0.99072366532E+02  0.19264474643E+04  0.19333038017E+04  0.91540165288E+02 0.  0.
         13    1    3    3    0    0  0.10726519221E+03 -0.93733417034E+02  0.15722868007E+04  0.15787265623E+04  0.00000000000E+00 0. -1.
        -13    1    3    3    0    0 -0.16332134315E+02 -0.53389494988E+01  0.35416066366E+03  0.35457723936E+03  0.00000000000E+00 0.  1.
         22    1    1    2    0    0 -0.90933057891E+02  0.99072366532E+02  0.91655546066E+01  0.13478932532E+03  0.00000000000E+00 0.  1.
<mgrwt>
<rscale>  0 0.72829350E+03</rscale>
<asrwt>0</asrwt>
<pdfrwt beam="1">  1        3 0.30797735E+00 0.72829350E+03</pdfrwt>
<pdfrwt beam="2">  1       -3 0.10190779E-01 0.72829350E+03</pdfrwt>
<totfact> 0.70828325E+00</totfact>
</mgrwt>
</event>
<event>
 6    1  0.1528034E-005  0.1213127E+04  0.7818608E-02  0.9101444E-01
         -2   -1    0    0    0  501 -0.00000000000E+00  0.00000000000E+00  0.79683420465E+03  0.79683420465E+03  0.00000000000E+00 0.  1.
          2   -1    0    0  501    0  0.00000000000E+00 -0.00000000000E+00 -0.46172615415E+03  0.46172615415E+03  0.00000000000E+00 0. -1.
         23    2    1    2    0    0 -0.26181266874E+03  0.37806410599E+03  0.57338612472E+03  0.74062717547E+03  0.90986940097E+02 0.  0.
         13    1    3    3    0    0 -0.15414587856E+03  0.29235256466E+03  0.38653366760E+03  0.50856587590E+03  0.00000000000E+00 0.  1.
        -13    1    3    3    0    0 -0.10766679018E+03  0.85711541323E+02  0.18685245712E+03  0.23206129957E+03  0.00000000000E+00 0. -1.
         22    1    1    2    0    0  0.26181266874E+03 -0.37806410599E+03 -0.23827807422E+03  0.51793318333E+03  0.00000000000E+00 0. -1.
<mgrwt>
<rscale>  0 0.12131269E+04</rscale>
<asrwt>0</asrwt>
<pdfrwt beam="1">  1        2 0.71034793E-01 0.12131269E+04</pdfrwt>
<pdfrwt beam="2">  1       -2 0.12258988E+00 0.12131269E+04</pdfrwt>
<totfact> 0.33503171E+01</totfact>
</mgrwt>
</event>
<event>
 6    1  0.1528034E-005  0.2440853E+04  0.7818608E-02  0.8424365E-01
         -1   -1    0    0    0  501 -0.00000000000E+00  0.00000000000E+00  0.81601022257E+03  0.81601022257E+03  0.00000000000E+00 0.  1.
          1   -1    0    0  501    0  0.00000000000E+00 -0.00000000000E+00 -0.18252730202E+04  0.18252730202E+04  0.00000000000E+00 0. -1.
         23    2    1    2    0    0 -0.45915421879E+03  0.85582862094E+03 -0.13020093521E+04  0.16269037427E+04  0.91226147110E+02 0.  0.
         13    1    3    3    0    0 -0.98325459171E+02  0.22197071321E+03 -0.38581376130E+03  0.45584114761E+03  0.00000000000E+00 0.  1.
        -13    1    3    3    0    0 -0.36082875962E+03  0.63385790772E+03 -0.91619559079E+03  0.11710625951E+04  0.00000000000E+00 0. -1.
         22    1    1    2    0    0  0.45915421879E+03 -0.85582862094E+03  0.29274655448E+03  0.10143795001E+04  0.00000000000E+00 0.  1.
<mgrwt>
<rscale>  0 0.24408535E+04</rscale>
<asrwt>0</asrwt>
<pdfrwt beam="1">  1        1 0.28081123E+00 0.24408535E+04</pdfrwt>
<pdfrwt beam="2">  1       -1 0.12554003E+00 0.24408535E+04</pdfrwt>
<totfact> 0.19358044E+00</totfact>
</mgrwt>
</event>
<event>
 6    1  0.1528034E-005  0.4198952E+04  0.7818608E-02  0.7965572E-01
          1   -1    0    0  501    0  0.00000000000E+00  0.00000000000E+00  0.37451070908E+04  0.37451070908E+04  0.00000000000E+00 0. -1.
         -1   -1    0    0    0  501 -0.00000000000E+00 -0.00000000000E+00 -0.11769490466E+04  0.11769490466E+04  0.00000000000E+00 0.  1.
         23    2    1    2    0    0 -0.12982915283E+03 -0.17170829195E+04 -0.12119429729E+03  0.17286495899E+04  0.91170092665E+02 0.  0.
         13    1    3    3    0    0 -0.39928519717E+02 -0.10038582685E+04 -0.43474007430E+02  0.10055922132E+04  0.00000000000E+00 0. -1.
        -13    1    3    3    0    0 -0.89900633110E+02 -0.71322465097E+03 -0.77720289860E+02  0.72305737673E+03  0.00000000000E+00 0.  1.
         22    1    1    2    0    0  0.12982915283E+03  0.17170829195E+04  0.26893523415E+04  0.31934065475E+04  0.00000000000E+00 0. -1.
<mgrwt>
<rscale>  0 0.41989524E+04</rscale>
<asrwt>0</asrwt>
<pdfrwt beam="1">  1        1 0.57617031E+00 0.41989524E+04</pdfrwt>
<pdfrwt beam="2">  1       -1 0.18106909E+00 0.41989524E+04</pdfrwt>
<totfact> 0.24876962E-02</totfact>
</mgrwt>
</event>
<event>
 6    1  0.1528034E-005  0.1117948E+04  0.7818608E-02  0.9187873E-01
          1   -1    0    0  501    0  0.00000000000E+00  0.00000000000E+00  0.38118648078E+03  0.38118648078E+03  0.00000000000E+00 0. -1.
         -1   -1    0    0    0  501 -0.00000000000E+00 -0.00000000000E+00 -0.81968278388E+03  0.81968278388E+03  0.00000000000E+00 0.  1.
         23    2    1    2    0    0  0.37821538787E+02  0.52860095564E+03 -0.39918196522E+03  0.66946070596E+03  0.89341795189E+02 0.  0.
         13    1    3    3    0    0 -0.19059703598E+02  0.27294741271E+03 -0.17570994896E+03  0.32517310555E+03  0.00000000000E+00 0.  1.
        -13    1    3    3    0    0  0.56881242384E+02  0.25565354293E+03 -0.22347201626E+03  0.34428760042E+03  0.00000000000E+00 0. -1.
         22    1    1    2    0    0 -0.37821538787E+02 -0.52860095564E+03 -0.39314337882E+02  0.53140855870E+03  0.00000000000E+00 0. -1.
<mgrwt>
<rscale>  0 0.11179481E+04</rscale>
<asrwt>0</asrwt>
<pdfrwt beam="1">  1        1 0.58644074E-01 0.11179481E+04</pdfrwt>
<pdfrwt beam="2">  1       -1 0.12610504E+00 0.11179481E+04</pdfrwt>
<totfact> 0.34868554E+01</totfact>
</mgrwt>
</event>
<event>
 6    1  0.1528034E-005  0.2310850E+04  0.7818608E-02  0.8473655E-01
         -2   -1    0    0    0  501 -0.00000000000E+00  0.00000000000E+00  0.42356832674E+03  0.42356832674E+03  0.00000000000E+00 0. -1.
          2   -1    0    0  501    0  0.00000000000E+00 -0.00000000000E+00 -0.31518111689E+04  0.31518111689E+04  0.00000000000E+00 0.  1.
         23    2    1    2    0    0 -0.53028430453E+02  0.10324415700E+04 -0.21583697516E+04  0.23949122367E+04  0.91088018265E+02 0.  0.
         13    1    3    3    0    0 -0.15612732622E+02  0.50570128146E+03 -0.95393445586E+03  0.10798002082E+04  0.00000000000E+00 0. -1.
        -13    1    3    3    0    0 -0.37415697831E+02  0.52674028859E+03 -0.12044352957E+04  0.13151120285E+04  0.00000000000E+00 0.  1.
         22    1    1    2    0    0  0.53028430453E+02 -0.10324415700E+04 -0.56987309057E+03  0.11804672589E+04  0.00000000000E+00 0. -1.
<mgrwt>
<rscale>  0 0.23108504E+04</rscale>
<asrwt>0</asrwt>
<pdfrwt beam="1">  1        2 0.48489401E+00 0.23108504E+04</pdfrwt>
<pdfrwt beam="2">  1       -2 0.65164359E-01 0.23108504E+04</pdfrwt>
<totfact> 0.27444775E+00</totfact>
</mgrwt>
</event>
<event>
 6    1  0.1528034E-005  0.2006776E+04  0.7818608E-02  0.8603459E-01
          2   -1    0    0  501    0  0.00000000000E+00  0.00000000000E+00  0.57875469308E+03  0.57875469308E+03  0.00000000000E+00 0. -1.
         -2   -1    0    0    0  501 -0.00000000000E+00 -0.00000000000E+00 -0.17395756746E+04  0.17395756746E+04  0.00000000000E+00 0.  1.
         23    2    1    2    0    0 -0.21745453922E+03 -0.32644017063E+03 -0.16458816506E+04  0.16945246973E+04  0.92940197448E+02 0.  0.
         13    1    3    3    0    0 -0.19656307775E+03 -0.22236818378E+03 -0.12329373296E+04  0.12681557914E+04  0.00000000000E+00 0.  1.
        -13    1    3    3    0    0 -0.20891461471E+02 -0.10407198685E+03 -0.41294432107E+03  0.42636890589E+03  0.00000000000E+00 0. -1.
         22    1    1    2    0    0  0.21745453922E+03  0.32644017063E+03  0.48506066912E+03  0.62380567035E+03  0.00000000000E+00 0. -1.
<mgrwt>
<rscale>  0 0.20067761E+04</rscale>
<asrwt>0</asrwt>
<pdfrwt beam="1">  1        2 0.89039185E-01 0.20067761E+04</pdfrwt>
<pdfrwt beam="2">  1       -2 0.26762702E+00 0.20067761E+04</pdfrwt>
<totfact> 0.24108279E+00</totfact>
</mgrwt>
</event>
<event>
 6    1  0.1528034E-005  0.3242141E+04  0.7818608E-02  0.8177776E-01
         -2   -1    0    0    0  501 -0.00000000000E+00  0.00000000000E+00  0.12174967559E+04  0.12174967559E+04  0.00000000000E+00 0. -1.
          2   -1    0    0  501    0  0.00000000000E+00 -0.00000000000E+00 -0.21584204697E+04  0.21584204697E+04  0.00000000000E+00 0.  1.
         23    2    1    2    0    0  0.13299862794E+04 -0.88852765849E+03 -0.73706379977E+03  0.17634955166E+04  0.91150913287E+02 0.  0.
         11    1    3    3    0    0  0.39634458561E+03 -0.26699441474E+03 -0.26659019038E+03  0.54721602467E+03  0.00000000000E+00 0. -1.
        -11    1    3    3    0    0  0.93364169378E+03 -0.62153324374E+03 -0.47047360938E+03  0.12162794920E+04  0.00000000000E+00 0.  1.
         22    1    1    2    0    0 -0.13299862794E+04  0.88852765849E+03 -0.20385991402E+03  0.16124217090E+04  0.00000000000E+00 0. -1.
<mgrwt>
<rscale>  0 0.32421412E+04</rscale>
<asrwt>0</asrwt>
<pdfrwt beam="1">  1        2 0.33206468E+00 0.32421412E+04</pdfrwt>
<pdfrwt beam="2">  1       -2 0.18730720E+00 0.32421412E+04</pdfrwt>
<totfact> 0.73905922E-01</totfact>
</mgrwt>
</event>
<event>
 6    1  0.1528034E-005  0.1331691E+04  0.7818608E-02  0.9004805E-01
         -1   -1    0    0    0  501 -0.00000000000E+00  0.00000000000E+00  0.18505625729E+03  0.18505625729E+03  0.00000000000E+00 0.  1.
          1   -1    0    0  501    0  0.00000000000E+00 -0.00000000000E+00 -0.23957576480E+04  0.23957576480E+04  0.00000000000E+00 0. -1.
         23    2    1    2    0    0 -0.74198727248E+02 -0.44830313819E+03 -0.17511955780E+03  0.49513067112E+03  0.89478305329E+02 0.  0.
         11    1    3    3    0    0 -0.54662780363E+02 -0.10329382588E+03 -0.56220097821E+02  0.12968551739E+03  0.00000000000E+00 0. -1.
        -11    1    3    3    0    0 -0.19535946885E+02 -0.34500931231E+03 -0.11889945998E+03  0.36544515373E+03  0.00000000000E+00 0.  1.
         22    1    1    2    0    0  0.74198727248E+02  0.44830313819E+03 -0.20355818329E+04  0.20856832342E+04  0.00000000000E+00 0. -1.
<mgrwt>
<rscale>  0 0.13316906E+04</rscale>
<asrwt>0</asrwt>
<pdfrwt beam="1">  1        1 0.36857808E+00 0.13316906E+04</pdfrwt>
<pdfrwt beam="2">  1       -1 0.28470195E-01 0.13316906E+04</pdfrwt>
<totfact> 0.17594125E+01</totfact>
</mgrwt>
</event>
<event>
 6    1  0.1528034E-005  0.1183558E+04  0.7818608E-02  0.9127371E-01
         -1   -1    0    0    0  501 -0.00000000000E+00  0.00000000000E+00  0.70346494968E+03  0.70346494968E+03  0.00000000000E+00 0.  1.
          1   -1    0    0  501    0  0.00000000000E+00 -0.00000000000E+00 -0.49782505399E+03  0.49782505399E+03  0.00000000000E+00 0. -1.
         23    2    1    2    0    0  0.78920200152E+02 -0.58037658317E+03  0.15782658504E+03  0.61362386635E+03  0.92518334010E+02 0.  0.
         13    1    3    3    0    0  0.11054078474E+02 -0.29906920865E+03  0.11721803535E+03  0.32141041057E+03  0.00000000000E+00 0. -1.
        -13    1    3    3    0    0  0.67866121678E+02 -0.28130737451E+03  0.40608549693E+02  0.29221345578E+03  0.00000000000E+00 0.  1.
         22    1    1    2    0    0 -0.78920200152E+02  0.58037658317E+03  0.47813310644E+02  0.58766613732E+03  0.00000000000E+00 0. -1.
<mgrwt>
<rscale>  0 0.11835582E+04</rscale>
<asrwt>0</asrwt>
<pdfrwt beam="1">  1        1 0.76588470E-01 0.11835582E+04</pdfrwt>
<pdfrwt beam="2">  1       -1 0.10822538E+00 0.11835582E+04</pdfrwt>
<totfact> 0.35058379E+01</totfact>
</mgrwt>
</event>
<event>
 6    1  0.1528034E-005  0.2522901E+04  0.7818608E-02  0.8394872E-01
          2   -1    0    0  501    0  0.00000000000E+00  0.00000000000E+00  0.21835443806E+04  0.21835443806E+04  0.00000000000E+00 0. -1.
         -2   -1    0    0    0  501 -0.00000000000E+00 -0.00000000000E+00 -0.72874966702E+03  0.72874966702E+03  0.00000000000E+00 0.  1.
         23    2    1    2    0    0  0.86546984763E+03  0.77471476038E+03  0.16531553188E+03  0.11767890557E+04  0.91006809259E+02 0.  0.
         13    1    3    3    0    0  0.62195713189E+03  0.51456714913E+03  0.86536756564E+02  0.81184889919E+03  0.00000000000E+00 0.  1.
        -13    1    3    3    0    0  0.24351271574E+03  0.26014761125E+03  0.78778775321E+02  0.36494015648E+03  0.00000000000E+00 0. -1.
         22    1    1    2    0    0 -0.86546984763E+03 -0.77471476038E+03  0.12894791817E+04  0.17355049920E+04  0.00000000000E+00 0. -1.
<mgrwt>
<rscale>  0 0.25229009E+04</rscale>
<asrwt>0</asrwt>
<pdfrwt beam="1">  1        2 0.33592990E+00 0.25229009E+04</pdfrwt>
<pdfrwt beam="2">  1       -2 0.11211533E+00 0.25229009E+04</pdfrwt>
<totfact> 0.29455227E+00</totfact>
</mgrwt>
</event>
<event>
 6    1  0.1528034E-005  0.3250873E+04  0.7818608E-02  0.8175509E-01
         -2   -1    0    0    0  501 -0.00000000000E+00  0.00000000000E+00  0.10857490446E+04  0.10857490446E+04  0.00000000000E+00 0.  1.
          2   -1    0    0  501    0  0.00000000000E+00 -0.00000000000E+00 -0.24333834906E+04  0.24333834906E+04  0.00000000000E+00 0. -1.
         23    2    1    2    0    0 -0.43880591526E+03  0.14070605902E+04  0.64076570654E+02  0.14782263320E+04  0.93151200081E+02 0.  0.
         11    1    3    3    0    0 -0.28187606590E+03  0.84666366768E+03 -0.35107026992E+01  0.89235968518E+03  0.00000000000E+00 0.  1.
        -11    1    3    3    0    0 -0.15692984936E+03  0.56039692250E+03  0.67587273353E+02  0.58586664685E+03  0.00000000000E+00 0. -1.
         22    1    1    2    0    0  0.43880591526E+03 -0.14070605902E+04 -0.14117110166E+04  0.20409062032E+04  0.00000000000E+00 0. -1.
<mgrwt>
<rscale>  0 0.32508730E+04</rscale>
<asrwt>0</asrwt>
<pdfrwt beam="1">  1        2 0.37436669E+00 0.32508730E+04</pdfrwt>
<pdfrwt beam="2">  1       -2 0.16703831E+00 0.32508730E+04</pdfrwt>
<totfact> 0.71373833E-01</totfact>
</mgrwt>
</event>
<event>
 6    1  0.1528034E-005  0.3420854E+04  0.7818608E-02  0.8132807E-01
          2   -1    0    0  501    0  0.00000000000E+00  0.00000000000E+00  0.18600944356E+04  0.18600944356E+04  0.00000000000E+00 0. -1.
         -2   -1    0    0    0  501 -0.00000000000E+00 -0.00000000000E+00 -0.15728019498E+04  0.15728019498E+04  0.00000000000E+00 0.  1.
         23    2    1    2    0    0  0.16164480438E+04  0.10084174068E+03  0.69173465508E+03  0.17635711315E+04  0.92806077757E+02 0.  0.
         11    1    3    3    0    0  0.72843602840E+03  0.85823388326E+02  0.28836942515E+03  0.78812538775E+03  0.00000000000E+00 0. -1.
        -11    1    3    3    0    0  0.88801201535E+03  0.15018352354E+02  0.40336522993E+03  0.97544574377E+03  0.00000000000E+00 0.  1.
         22    1    1    2    0    0 -0.16164480438E+04 -0.10084174068E+03 -0.40444216932E+03  0.16693252539E+04  0.00000000000E+00 0.  1.
<mgrwt>
<rscale>  0 0.34208538E+04</rscale>
<asrwt>0</asrwt>
<pdfrwt beam="1">  1        2 0.28616837E+00 0.34208538E+04</pdfrwt>
<pdfrwt beam="2">  1       -2 0.24196953E+00 0.34208538E+04</pdfrwt>
<totfact> 0.47601783E-01</totfact>
</mgrwt>
</event>
<event>
 6    1  0.1528034E-005  0.3830149E+04  0.7818608E-02  0.8039716E-01
          2   -1    0    0  501    0  0.00000000000E+00  0.00000000000E+00  0.16318785450E+04  0.16318785450E+04  0.00000000000E+00 0. -1.
         -2   -1    0    0    0  501 -0.00000000000E+00 -0.00000000000E+00 -0.22474167914E+04  0.22474167914E+04  0.00000000000E+00 0.  1.
         23    2    1    2    0    0 -0.99839960306E+03 -0.14238903581E+03  0.13396918785E+04  0.16792950532E+04  0.90449662511E+02 0.  0.
         11    1    3    3    0    0 -0.15462718474E+03  0.10721151511E+02  0.20484178065E+03  0.25687480307E+03  0.00000000000E+00 0.  1.
        -11    1    3    3    0    0 -0.84377241831E+03 -0.15311018732E+03  0.11348500979E+04  0.14224202501E+04  0.00000000000E+00 0. -1.
         22    1    1    2    0    0  0.99839960306E+03  0.14238903581E+03 -0.19552301249E+04  0.22000002832E+04  0.00000000000E+00 0.  1.
<mgrwt>
<rscale>  0 0.38301495E+04</rscale>
<asrwt>0</asrwt>
<pdfrwt beam="1">  1        2 0.25105824E+00 0.38301495E+04</pdfrwt>
<pdfrwt beam="2">  1       -2 0.34575643E+00 0.38301495E+04</pdfrwt>
<totfact> 0.14160347E-01</totfact>
</mgrwt>
</event>
<event>
 6    1  0.1528034E-005  0.3872878E+04  0.7818608E-02  0.8030694E-01
          2   -1    0    0  501    0  0.00000000000E+00  0.00000000000E+00  0.31608542890E+04  0.31608542890E+04  0.00000000000E+00 0.  1.
         -2   -1    0    0    0  501 -0.00000000000E+00 -0.00000000000E+00 -0.11863233666E+04  0.11863233666E+04  0.00000000000E+00 0. -1.
         23    2    1    2    0    0  0.43825316970E+03 -0.13226479961E+04  0.24955253707E+04  0.28595961360E+04  0.90441266898E+02 0.  0.
         11    1    3    3    0    0  0.25817439768E+03 -0.75310350320E+03  0.13349307760E+04  0.15543034076E+04  0.00000000000E+00 0. -1.
        -11    1    3    3    0    0  0.18007877202E+03 -0.56954449294E+03  0.11605945947E+04  0.13052927284E+04  0.00000000000E+00 0.  1.
         22    1    1    2    0    0 -0.43825316970E+03  0.13226479961E+04 -0.52099444833E+03  0.14875815197E+04  0.00000000000E+00 0. -1.
<mgrwt>
<rscale>  0 0.38728776E+04</rscale>
<asrwt>0</asrwt>
<pdfrwt beam="1">  1        2 0.48628527E+00 0.38728776E+04</pdfrwt>
<pdfrwt beam="2">  1       -2 0.18251129E+00 0.38728776E+04</pdfrwt>
<totfact> 0.19079056E-01</totfact>
</mgrwt>
</event>
<event>
 6    1  0.1528034E-005  0.2361319E+04  0.7818608E-02  0.8454129E-01
         -2   -1    0    0    0  501 -0.00000000000E+00  0.00000000000E+00  0.63976038388E+03  0.63976038388E+03  0.00000000000E+00 0.  1.
          2   -1    0    0  501    0  0.00000000000E+00 -0.00000000000E+00 -0.21788726128E+04  0.21788726128E+04  0.00000000000E+00 0. -1.
         23    2    1    2    0    0 -0.61607823831E+03 -0.10436610829E+03 -0.19639731106E+04  0.20630197033E+04  0.91734600201E+02 0.  0.
         13    1    3    3    0    0 -0.33776313488E+03 -0.59520875155E+02 -0.92698400635E+03  0.98839567881E+03  0.00000000000E+00 0.  1.
        -13    1    3    3    0    0 -0.27831510343E+03 -0.44845233132E+02 -0.10369891042E+04  0.10746240245E+04  0.00000000000E+00 0. -1.
         22    1    1    2    0    0  0.61607823831E+03  0.10436610829E+03  0.42486088169E+03  0.75561329334E+03  0.00000000000E+00 0.  1.
<mgrwt>
<rscale>  0 0.23613186E+04</rscale>
<asrwt>0</asrwt>
<pdfrwt beam="1">  1        2 0.33521117E+00 0.23613186E+04</pdfrwt>
<pdfrwt beam="2">  1       -2 0.98424674E-01 0.23613186E+04</pdfrwt>
<totfact> 0.41052426E+00</totfact>
</mgrwt>
</event>
<event>
 6    1  0.1528034E-005  0.2903055E+04  0.7818608E-02  0.8271969E-01
          1   -1    0    0  501    0  0.00000000000E+00  0.00000000000E+00  0.12610206720E+04  0.12610206720E+04  0.00000000000E+00 0. -1.
         -1   -1    0    0    0  501 -0.00000000000E+00 -0.00000000000E+00 -0.16708152485E+04  0.16708152485E+04  0.00000000000E+00 0.  1.
         23    2    1    2    0    0  0.99844678954E+03  0.12629202919E+03 -0.12593625466E+04  0.16147894505E+04  0.93302076515E+02 0.  0.
         13    1    3    3    0    0  0.40745235111E+03  0.73807180620E+02 -0.58267958286E+03  0.71482894081E+03  0.00000000000E+00 0.  1.
        -13    1    3    3    0    0  0.59099443843E+03  0.52484848566E+02 -0.67668296375E+03  0.89996050970E+03  0.00000000000E+00 0. -1.
         22    1    1    2    0    0 -0.99844678954E+03 -0.12629202919E+03  0.84956797015E+03  0.13170464700E+04  0.00000000000E+00 0. -1.
<mgrwt>
<rscale>  0 0.29030553E+04</rscale>
<asrwt>0</asrwt>
<pdfrwt beam="1">  1        1 0.19400318E+00 0.29030553E+04</pdfrwt>
<pdfrwt beam="2">  1       -1 0.25704850E+00 0.29030553E+04</pdfrwt>
<totfact> 0.51922543E-01</totfact>
</mgrwt>
</event>
<event>
 6    1  0.1528034E-005  0.3867592E+04  0.7818608E-02  0.8031803E-01
          2   -1    0    0  501    0  0.00000000000E+00  0.00000000000E+00  0.22127356746E+04  0.22127356746E+04  0.00000000000E+00 0.  1.
         -2   -1    0    0    0  501 -0.00000000000E+00 -0.00000000000E+00 -0.16900197992E+04  0.16900197992E+04  0.00000000000E+00 0. -1.
         23    2    1    2    0    0 -0.10976517527E+04 -0.10244307264E+04 -0.96678688748E+03  0.17878284860E+04  0.85767862281E+02 0.  0.
         13    1    3    3    0    0 -0.23594107752E+03 -0.26882901283E+03 -0.23982566359E+03  0.43064321557E+03  0.00000000000E+00 0.  1.
        -13    1    3    3    0    0 -0.86171067514E+03 -0.75560171354E+03 -0.72696122389E+03  0.13571852704E+04  0.00000000000E+00 0. -1.
         22    1    1    2    0    0  0.10976517527E+04  0.10244307264E+04  0.14895027628E+04  0.21149269878E+04  0.00000000000E+00 0.  1.
<mgrwt>
<rscale>  0 0.38675921E+04</rscale>
<asrwt>0</asrwt>
<pdfrwt beam="1">  1        2 0.34042087E+00 0.38675921E+04</pdfrwt>
<pdfrwt beam="2">  1       -2 0.26000304E+00 0.38675921E+04</pdfrwt>
<totfact> 0.22597433E-01</totfact>
</mgrwt>
</event>
<event>
 6    1  0.1528034E-005  0.1482736E+04  0.7818608E-02  0.8896015E-01
         -1   -1    0    0    0  501 -0.00000000000E+00  0.00000000000E+00  0.28419762350E+03  0.28419762350E+03  0.00000000000E+00 0.  1.
          1   -1    0    0  501    0  0.00000000000E+00 -0.00000000000E+00 -0.19339585344E+04  0.19339585344E+04  0.00000000000E+00 0. -1.
         23    2    1    2    0    0 -0.45102443507E+02 -0.43912743981E+03 -0.17138036615E+04  0.17720971789E+04  0.91314197406E+02 0.  0.
         11    1    3    3    0    0 -0.39934176408E+02 -0.91710889073E+02 -0.47946160973E+03  0.48978470865E+03  0.00000000000E+00 0.  1.
        -11    1    3    3    0    0 -0.51682670991E+01 -0.34741655074E+03 -0.12343420517E+04  0.12823124703E+04  0.00000000000E+00 0. -1.
         22    1    1    2    0    0  0.45102443507E+02  0.43912743981E+03  0.64042750586E+02  0.44605897896E+03  0.00000000000E+00 0.  1.
<mgrwt>
<rscale>  0 0.14827359E+04</rscale>
<asrwt>0</asrwt>
<pdfrwt beam="1">  1        1 0.29753208E+00 0.14827359E+04</pdfrwt>
<pdfrwt beam="2">  1       -1 0.43722711E-01 0.14827359E+04</pdfrwt>
<totfact> 0.16548036E+01</totfact>
</mgrwt>
</event>
<event>
 6    1  0.1528034E-005  0.3345187E+04  0.7818608E-02  0.8151492E-01
          2   -1    0    0  501    0  0.00000000000E+00  0.00000000000E+00  0.10307812206E+04  0.10307812206E+04  0.00000000000E+00 0. -1.
         -2   -1    0    0    0  501 -0.00000000000E+00 -0.00000000000E+00 -0.27140274050E+04  0.27140274050E+04  0.00000000000E+00 0.  1.
         23    2    1    2    0    0  0.31594983064E+03  0.14621809435E+04 -0.56787551990E+01  0.14971365217E+04  0.59900827946E+02 0.  0.
         11    1    3    3    0    0  0.15620522638E+03  0.85810057148E+03 -0.10865426029E+02  0.87226986708E+03  0.00000000000E+00 0.  1.
        -11    1    3    3    0    0  0.15974460426E+03  0.60408037204E+03  0.51866708305E+01  0.62486665459E+03  0.00000000000E+00 0. -1.
         22    1    1    2    0    0 -0.31594983064E+03 -0.14621809435E+04 -0.16775674293E+04  0.22476721039E+04  0.00000000000E+00 0.  1.
<mgrwt>
<rscale>  0 0.33451867E+04</rscale>
<asrwt>0</asrwt>
<pdfrwt beam="1">  1        2 0.15858173E+00 0.33451867E+04</pdfrwt>
<pdfrwt beam="2">  1       -2 0.41754267E+00 0.33451867E+04</pdfrwt>
<totfact> 0.11389458E-01</totfact>
</mgrwt>
</event>
<event>
 6    1  0.1528034E-005  0.1777302E+04  0.7818608E-02  0.8718464E-01
          1   -1    0    0  501    0  0.00000000000E+00  0.00000000000E+00  0.13036385624E+04  0.13036385624E+04  0.00000000000E+00 0.  1.
         -1   -1    0    0    0  501 -0.00000000000E+00 -0.00000000000E+00 -0.60576685050E+03  0.60576685050E+03  0.00000000000E+00 0. -1.
         23    2    1    2    0    0  0.59732958355E+03  0.29214895467E+03 -0.27989846564E+03  0.72695534495E+03  0.89259617906E+02 0.  0.
         11    1    3    3    0    0  0.35428534065E+03  0.21071849479E+03 -0.14264060187E+03  0.43619574500E+03  0.00000000000E+00 0.  1.
        -11    1    3    3    0    0  0.24304424290E+03  0.81430459876E+02 -0.13725786377E+03  0.29075959996E+03  0.00000000000E+00 0. -1.
         22    1    1    2    0    0 -0.59732958355E+03 -0.29214895467E+03  0.97777017755E+03  0.11824500680E+04  0.00000000000E+00 0.  1.
<mgrwt>
<rscale>  0 0.17773025E+04</rscale>
<asrwt>0</asrwt>
<pdfrwt beam="1">  1        1 0.20055978E+00 0.17773025E+04</pdfrwt>
<pdfrwt beam="2">  1       -1 0.93194900E-01 0.17773025E+04</pdfrwt>
<totfact> 0.95029844E+00</totfact>
</mgrwt>
</event>
<event>
 6    1  0.1528034E-005  0.1322584E+04  0.7818608E-02  0.9011845E-01
          2   -1    0    0  501    0  0.00000000000E+00  0.00000000000E+00  0.27584530992E+04  0.27584530992E+04  0.00000000000E+00 0. -1.
         -2   -1    0    0    0  501 -0.00000000000E+00 -0.00000000000E+00 -0.15853357367E+03  0.15853357367E+03  0.00000000000E+00 0.  1.
         23    2    1    2    0    0 -0.30415052111E+03  0.58356014985E+03  0.13087469097E+04  0.14677880281E+04  0.92375505021E+02 0.  0.
         13    1    3    3    0    0 -0.18712829560E+03  0.39545179156E+03  0.95428845030E+03  0.10497931057E+04  0.00000000000E+00 0. -1.
        -13    1    3    3    0    0 -0.11702222551E+03  0.18810835829E+03  0.35445845936E+03  0.41799492238E+03  0.00000000000E+00 0.  1.
         22    1    1    2    0    0  0.30415052111E+03 -0.58356014985E+03  0.12911726158E+04  0.14491986447E+04  0.00000000000E+00 0. -1.
<mgrwt>
<rscale>  0 0.13225845E+04</rscale>
<asrwt>0</asrwt>
<pdfrwt beam="1">  1        2 0.42437736E+00 0.13225845E+04</pdfrwt>
<pdfrwt beam="2">  1       -2 0.24389783E-01 0.13225845E+04</pdfrwt>
<totfact> 0.36240435E+01</totfact>
</mgrwt>
</event>
<event>
 6    1  0.1528034E-005  0.1028183E+04  0.7818608E-02  0.9278163E-01
         -2   -1    0    0    0  501 -0.00000000000E+00  0.00000000000E+00  0.26373460722E+03  0.26373460722E+03  0.00000000000E+00 0.  1.
          2   -1    0    0  501    0  0.00000000000E+00 -0.00000000000E+00 -0.10021069895E+04  0.10021069895E+04  0.00000000000E+00 0. -1.
         23    2    1    2    0    0 -0.35178655125E+03 -0.34532283529E+03 -0.21018971809E+03  0.54336075616E+03  0.89775027379E+02 0.  0.
         13    1    3    3    0    0 -0.77416996776E+02 -0.13290600863E+03 -0.56461151536E+02  0.16384523232E+03  0.00000000000E+00 0.  1.
        -13    1    3    3    0    0 -0.27436955447E+03 -0.21241682665E+03 -0.15372856655E+03  0.37951552384E+03  0.00000000000E+00 0. -1.
         22    1    1    2    0    0  0.35178655125E+03  0.34532283529E+03 -0.52818266417E+03  0.72248084053E+03  0.00000000000E+00 0.  1.
<mgrwt>
<rscale>  0 0.10281834E+04</rscale>
<asrwt>0</asrwt>
<pdfrwt beam="1">  1        2 0.15417031E+00 0.10281834E+04</pdfrwt>
<pdfrwt beam="2">  1       -2 0.40574554E-01 0.10281834E+04</pdfrwt>
<totfact> 0.14384355E+02</totfact>
</mgrwt>
</event>
<event>
 6    1  0.1528034E-005  0.1979365E+04  0.7818608E-02  0.8616330E-01
         -1   -1    0    0    0  501 -0.00000000000E+00  0.00000000000E+00  0.97730601073E+03  0.97730601073E+03  0.00000000000E+00 0.  1.
          1   -1    0    0  501    0  0.00000000000E+00 -0.00000000000E+00 -0.10022152405E+04  0.10022152405E+04  0.00000000000E+00 0. -1.
         23    2    1    2    0    0 -0.80548361709E+03 -0.34439268555E+03  0.44361617520E+03  0.98607964030E+03  0.90263873486E+02 0.  0.
         13    1    3    3    0    0 -0.54556279116E+02 -0.31984381859E+02  0.58654546607E+02  0.86253951281E+02  0.00000000000E+00 0.  1.
        -13    1    3    3    0    0 -0.75092733797E+03 -0.31240830369E+03  0.38496162859E+03  0.89982568902E+03  0.00000000000E+00 0. -1.
         22    1    1    2    0    0  0.80548361709E+03  0.34439268555E+03 -0.46852540500E+03  0.99344161096E+03  0.00000000000E+00 0. -1.
<mgrwt>
<rscale>  0 0.19793645E+04</rscale>
<asrwt>0</asrwt>
<pdfrwt beam="1">  1        1 0.15418696E+00 0.19793645E+04</pdfrwt>
<pdfrwt beam="2">  1       -1 0.15035477E+00 0.19793645E+04</pdfrwt>
<totfact> 0.48557138E+00</totfact>
</mgrwt>
</event>
<event>
 6    1  0.1528034E-005  0.2069849E+04  0.7818608E-02  0.8574643E-01
         -2   -1    0    0    0  501 -0.00000000000E+00  0.00000000000E+00  0.10436344788E+04  0.10436344788E+04  0.00000000000E+00 0. -1.
          2   -1    0    0  501    0  0.00000000000E+00 -0.00000000000E+00 -0.10262872815E+04  0.10262872815E+04  0.00000000000E+00 0.  1.
         23    2    1    2    0    0 -0.55230881568E+03  0.86753426040E+03  0.10454249541E+03  0.10378056134E+04  0.91927346600E+02 0.  0.
         13    1    3    3    0    0 -0.30174477232E+03  0.40672096595E+03  0.22786721463E+02  0.50694288282E+03  0.00000000000E+00 0. -1.
        -13    1    3    3    0    0 -0.25056404336E+03  0.46081329445E+03  0.81755773943E+02  0.53086273060E+03  0.00000000000E+00 0.  1.
         22    1    1    2    0    0  0.55230881568E+03 -0.86753426040E+03 -0.87195298112E+02  0.10321161470E+04  0.00000000000E+00 0. -1.
<mgrwt>
<rscale>  0 0.20698491E+04</rscale>
<asrwt>0</asrwt>
<pdfrwt beam="1">  1        2 0.15789035E+00 0.20698491E+04</pdfrwt>
<pdfrwt beam="2">  1       -2 0.16055915E+00 0.20698491E+04</pdfrwt>
<totfact> 0.55846452E+00</totfact>
</mgrwt>
</event>
<event>
 6    1  0.1528034E-005  0.4587379E+04  0.7818608E-02  0.7895515E-01
          1   -1    0    0  501    0  0.00000000000E+00  0.00000000000E+00  0.23119816270E+04  0.23119816270E+04  0.00000000000E+00 0. -1.
         -1   -1    0    0    0  501 -0.00000000000E+00 -0.00000000000E+00 -0.22755424464E+04  0.22755424464E+04  0.00000000000E+00 0.  1.
         23    2    1    2    0    0 -0.98427639350E+03  0.57311222858E+03 -0.19713637213E+04  0.22791631531E+04  0.10512902256E+03 0.  0.
         11    1    3    3    0    0 -0.47124832406E+03  0.31987287265E+03 -0.10530205775E+04  0.11971825150E+04  0.00000000000E+00 0. -1.
        -11    1    3    3    0    0 -0.51302806944E+03  0.25323935592E+03 -0.91834314376E+03  0.10819806380E+04  0.00000000000E+00 0.  1.
         22    1    1    2    0    0  0.98427639350E+03 -0.57311222858E+03  0.20078029019E+04  0.23083609203E+04  0.00000000000E+00 0. -1.
<mgrwt>
<rscale>  0 0.45873794E+04</rscale>
<asrwt>0</asrwt>
<pdfrwt beam="1">  1        1 0.35568948E+00 0.45873794E+04</pdfrwt>
<pdfrwt beam="2">  1       -1 0.35008345E+00 0.45873794E+04</pdfrwt>
<totfact> 0.21144830E-02</totfact>
</mgrwt>
</event>
<event>
 6    1  0.1528034E-005  0.2656320E+04  0.7818608E-02  0.8349318E-01
          1   -1    0    0  501    0  0.00000000000E+00  0.00000000000E+00  0.22150142978E+04  0.22150142978E+04  0.00000000000E+00 0. -1.
         -1   -1    0    0    0  501 -0.00000000000E+00 -0.00000000000E+00 -0.79638701205E+03  0.79638701205E+03  0.00000000000E+00 0.  1.
         23    2    1    2    0    0  0.71882227544E+03 -0.10738863748E+04  0.10504150383E+04  0.16677057830E+04  0.89069726815E+02 0.  0.
         11    1    3    3    0    0  0.58568112943E+03 -0.89179967156E+03  0.90749308009E+03  0.14006686725E+04  0.00000000000E+00 0. -1.
        -11    1    3    3    0    0  0.13314114601E+03 -0.18208670328E+03  0.14292195816E+03  0.26703711053E+03  0.00000000000E+00 0.  1.
         22    1    1    2    0    0 -0.71882227544E+03  0.10738863748E+04  0.36821224750E+03  0.13436955269E+04  0.00000000000E+00 0.  1.
<mgrwt>
<rscale>  0 0.26563197E+04</rscale>
<asrwt>0</asrwt>
<pdfrwt beam="1">  1        1 0.34077143E+00 0.26563197E+04</pdfrwt>
<pdfrwt beam="2">  1       -1 0.12252108E+00 0.26563197E+04</pdfrwt>
<totfact> 0.10965390E+00</totfact>
</mgrwt>
</event>
<event>
 6    1  0.1528034E-005  0.6455149E+03  0.7818608E-02  0.9815232E-01
         -2   -1    0    0    0  501 -0.00000000000E+00  0.00000000000E+00  0.10607842550E+03  0.10607842550E+03  0.00000000000E+00 0.  1.
          2   -1    0    0  501    0  0.00000000000E+00 -0.00000000000E+00 -0.98203174697E+03  0.98203174697E+03  0.00000000000E+00 0. -1.
         23    2    1    2    0    0 -0.92007637393E+02 -0.19212020425E+03 -0.52189694665E+02  0.23725055357E+03  0.90490235505E+02 0.  0.
         13    1    3    3    0    0 -0.54872078862E+02 -0.10303837942E+03  0.17723867588E+02  0.11807619639E+03  0.00000000000E+00 0.  1.
        -13    1    3    3    0    0 -0.37135558531E+02 -0.89081824828E+02 -0.69913562254E+02  0.11917435718E+03  0.00000000000E+00 0. -1.
         22    1    1    2    0    0  0.92007637393E+02  0.19212020425E+03 -0.82376362680E+03  0.85085961889E+03  0.00000000000E+00 0. -1.
<mgrwt>
<rscale>  0 0.64551493E+03</rscale>
<asrwt>0</asrwt>
<pdfrwt beam="1">  1        2 0.15108180E+00 0.64551493E+03</pdfrwt>
<pdfrwt beam="2">  1       -2 0.16319758E-01 0.64551493E+03</pdfrwt>
<totfact> 0.79113512E+02</totfact>
</mgrwt>
</event>
<event>
 6    1  0.1528034E-005  0.2346644E+04  0.7818608E-02  0.8459754E-01
         -2   -1    0    0    0  501 -0.00000000000E+00  0.00000000000E+00  0.58781504960E+03  0.58781504960E+03  0.00000000000E+00 0.  1.
          2   -1    0    0  501    0  0.00000000000E+00 -0.00000000000E+00 -0.23420374156E+04  0.23420374156E+04  0.00000000000E+00 0. -1.
         23    2    1    2    0    0 -0.11041756276E+04 -0.33164498173E+03 -0.61901427177E+03  0.13118630871E+04  0.92810991489E+02 0.  0.
         13    1    3    3    0    0 -0.93081019133E+03 -0.24367590840E+03 -0.51955629513E+03  0.10934917944E+04  0.00000000000E+00 0. -1.
        -13    1    3    3    0    0 -0.17336543627E+03 -0.87969073329E+02 -0.99457976647E+02  0.21837129270E+03  0.00000000000E+00 0.  1.
         22    1    1    2    0    0  0.11041756276E+04  0.33164498173E+03 -0.11352080942E+04  0.16179893781E+04  0.00000000000E+00 0.  1.
<mgrwt>
<rscale>  0 0.23466443E+04</rscale>
<asrwt>0</asrwt>
<pdfrwt beam="1">  1        2 0.36031345E+00 0.23466443E+04</pdfrwt>
<pdfrwt beam="2">  1       -2 0.90433084E-01 0.23466443E+04</pdfrwt>
<totfact> 0.40496634E+00</totfact>
</mgrwt>
</event>
<event>
 6    1  0.1528034E-005  0.3952888E+04  0.7818608E-02  0.8014118E-01
         -2   -1    0    0    0  501 -0.00000000000E+00  0.00000000000E+00  0.25224475819E+04  0.25224475819E+04  0.00000000000E+00 0.  1.
          2   -1    0    0  501    0  0.00000000000E+00 -0.00000000000E+00 -0.15486274916E+04  0.15486274916E+04  0.00000000000E+00 0. -1.
         23    2    1    2    0    0 -0.47324872378E+03  0.16868553419E+04 -0.45256537583E+03  0.18118670712E+04  0.92744624093E+02 0.  0.
         13    1    3    3    0    0 -0.30380649859E+03  0.11307175451E+04 -0.25912292718E+03  0.11991518864E+04  0.00000000000E+00 0.  1.
        -13    1    3    3    0    0 -0.16944222519E+03  0.55613779686E+03 -0.19344244865E+03  0.61271518482E+03  0.00000000000E+00 0. -1.
         22    1    1    2    0    0  0.47324872378E+03 -0.16868553419E+04  0.14263854661E+04  0.22592080022E+04  0.00000000000E+00 0. -1.
<mgrwt>
<rscale>  0 0.39528884E+04</rscale>
<asrwt>0</asrwt>
<pdfrwt beam="1">  1        2 0.23825038E+00 0.39528884E+04</pdfrwt>
<pdfrwt beam="2">  1       -2 0.38806886E+00 0.39528884E+04</pdfrwt>
<totfact> 0.83737686E-02</totfact>
</mgrwt>
</event>
<event>
 6    1  0.1528034E-005  0.2736363E+04  0.7818608E-02  0.8323302E-01
         -1   -1    0    0    0  501 -0.00000000000E+00  0.00000000000E+00  0.68514308694E+03  0.68514308694E+03  0.00000000000E+00 0.  1.
          1   -1    0    0  501    0  0.00000000000E+00 -0.00000000000E+00 -0.27321594875E+04  0.27321594875E+04  0.00000000000E+00 0. -1.
         23    2    1    2    0    0 -0.11044852482E+04 -0.80258613184E+03 -0.11138538070E+04  0.17635720678E+04  0.74053847397E+02 0.  0.
         13    1    3    3    0    0 -0.31913461293E+03 -0.21335327854E+03 -0.27532373636E+03  0.47240838523E+03  0.00000000000E+00 0.  1.
        -13    1    3    3    0    0 -0.78535063531E+03 -0.58923285331E+03 -0.83853007060E+03  0.12911636825E+04  0.00000000000E+00 0. -1.
         22    1    1    2    0    0  0.11044852482E+04  0.80258613184E+03 -0.93316259356E+03  0.16537305066E+04  0.00000000000E+00 0. -1.
<mgrwt>
<rscale>  0 0.27363627E+04</rscale>
<asrwt>0</asrwt>
<pdfrwt beam="1">  1        1 0.42033223E+00 0.27363627E+04</pdfrwt>
<pdfrwt beam="2">  1       -1 0.10540663E+00 0.27363627E+04</pdfrwt>
<totfact> 0.68359069E-01</totfact>
</mgrwt>
</event>
<event>
 6    1  0.1528034E-005  0.4006989E+04  0.7818608E-02  0.8003138E-01
          1   -1    0    0  501    0  0.00000000000E+00  0.00000000000E+00  0.21264098401E+04  0.21264098401E+04  0.00000000000E+00 0. -1.
         -1   -1    0    0    0  501 -0.00000000000E+00 -0.00000000000E+00 -0.18876837666E+04  0.18876837666E+04  0.00000000000E+00 0.  1.
         23    2    1    2    0    0  0.12218636907E+04 -0.15298896630E+03  0.17012096603E+04  0.21022320154E+04  0.94385569809E+02 0.  0.
         13    1    3    3    0    0  0.86890286491E+03 -0.75789642424E+02  0.12493510722E+04  0.15236844687E+04  0.00000000000E+00 0. -1.
        -13    1    3    3    0    0  0.35296082577E+03 -0.77199323874E+02  0.45185858814E+03  0.57854754672E+03  0.00000000000E+00 0.  1.
         22    1    1    2    0    0 -0.12218636907E+04  0.15298896630E+03 -0.14624835868E+04  0.19118615912E+04  0.00000000000E+00 0.  1.
<mgrwt>
<rscale>  0 0.40069886E+04</rscale>
<asrwt>0</asrwt>
<pdfrwt beam="1">  1        1 0.32713998E+00 0.40069886E+04</pdfrwt>
<pdfrwt beam="2">  1       -1 0.29041289E+00 0.40069886E+04</pdfrwt>
<totfact> 0.72882070E-02</totfact>
</mgrwt>
</event>
<event>
 6    1  0.1528034E-005  0.3901246E+04  0.7818608E-02  0.8024770E-01
         -1   -1    0    0    0  501 -0.00000000000E+00  0.00000000000E+00  0.15220921457E+04  0.15220921457E+04  0.00000000000E+00 0.  1.
          1   -1    0    0  501    0  0.00000000000E+00 -0.00000000000E+00 -0.24998020828E+04  0.24998020828E+04  0.00000000000E+00 0. -1.
         23    2    1    2    0    0  0.18980603231E+04 -0.27464457818E+03 -0.85016505152E+03  0.20998301474E+04  0.91887967943E+02 0.  0.
         13    1    3    3    0    0  0.39410950938E+03 -0.90074168474E+02 -0.19915104510E+03  0.45066262323E+03  0.00000000000E+00 0. -1.
        -13    1    3    3    0    0  0.15039508137E+04 -0.18457040970E+03 -0.65101400641E+03  0.16491675242E+04  0.00000000000E+00 0.  1.
         22    1    1    2    0    0 -0.18980603231E+04  0.27464457818E+03 -0.12754488560E+03  0.19220640812E+04  0.00000000000E+00 0.  1.
<mgrwt>
<rscale>  0 0.39012455E+04</rscale>
<asrwt>0</asrwt>
<pdfrwt beam="1">  1        1 0.38458493E+00 0.39012455E+04</pdfrwt>
<pdfrwt beam="2">  1       -1 0.23416802E+00 0.39012455E+04</pdfrwt>
<totfact> 0.94708814E-02</totfact>
</mgrwt>
</event>
<event>
 6    1  0.1528034E-005  0.3496171E+04  0.7818608E-02  0.8114698E-01
          2   -1    0    0  501    0  0.00000000000E+00  0.00000000000E+00  0.31375508822E+04  0.31375508822E+04  0.00000000000E+00 0.  1.
         -2   -1    0    0    0  501 -0.00000000000E+00 -0.00000000000E+00 -0.97394524779E+03  0.97394524779E+03  0.00000000000E+00 0. -1.
         23    2    1    2    0    0  0.36922918514E+03  0.16161851835E+04  0.43460477803E+03  0.17161196043E+04  0.88320125476E+02 0.  0.
         13    1    3    3    0    0  0.21386237605E+03  0.74563659624E+03  0.19077032278E+03  0.79881434989E+03  0.00000000000E+00 0.  1.
        -13    1    3    3    0    0  0.15536680909E+03  0.87054858727E+03  0.24383445526E+03  0.91730525439E+03  0.00000000000E+00 0. -1.
         22    1    1    2    0    0 -0.36922918514E+03 -0.16161851835E+04  0.17290008563E+04  0.23953765257E+04  0.00000000000E+00 0.  1.
<mgrwt>
<rscale>  0 0.34961709E+04</rscale>
<asrwt>0</asrwt>
<pdfrwt beam="1">  1        2 0.48270013E+00 0.34961709E+04</pdfrwt>
<pdfrwt beam="2">  1       -2 0.14983773E+00 0.34961709E+04</pdfrwt>
<totfact> 0.35127255E-01</totfact>
</mgrwt>
</event>
<event>
 6    1  0.1528034E-005  0.2219138E+04  0.7818608E-02  0.8510504E-01
         -2   -1    0    0    0  501 -0.00000000000E+00  0.00000000000E+00  0.40366101207E+03  0.40366101207E+03  0.00000000000E+00 0.  1.
          2   -1    0    0  501    0  0.00000000000E+00 -0.00000000000E+00 -0.30499447643E+04  0.30499447643E+04  0.00000000000E+00 0. -1.
         23    2    1    2    0    0 -0.10252689107E+04  0.40014025756E+03 -0.11325236727E+04  0.15820400834E+04  0.94617076436E+02 0.  0.
         13    1    3    3    0    0 -0.20012351494E+03  0.10287246121E+03 -0.18926053843E+03  0.29402672653E+03  0.00000000000E+00 0.  1.
        -13    1    3    3    0    0 -0.82514539574E+03  0.29726779635E+03 -0.94326313428E+03  0.12880133568E+04  0.00000000000E+00 0. -1.
         22    1    1    2    0    0  0.10252689107E+04 -0.40014025756E+03 -0.15137600795E+04  0.18715656930E+04  0.00000000000E+00 0. -1.
<mgrwt>
<rscale>  0 0.22191384E+04</rscale>
<asrwt>0</asrwt>
<pdfrwt beam="1">  1        2 0.46922227E+00 0.22191384E+04</pdfrwt>
<pdfrwt beam="2">  1       -2 0.62101694E-01 0.22191384E+04</pdfrwt>
<totfact> 0.35622466E+00</totfact>
</mgrwt>
</event>
<event>
 6    1  0.1528034E-005  0.1296857E+04  0.7818608E-02  0.9032061E-01
         -1   -1    0    0    0  501 -0.00000000000E+00  0.00000000000E+00  0.50168083621E+03  0.50168083621E+03  0.00000000000E+00 0.  1.
          1   -1    0    0  501    0  0.00000000000E+00 -0.00000000000E+00 -0.83810173488E+03  0.83810173488E+03  0.00000000000E+00 0. -1.
         23    2    1    2    0    0  0.44529754993E+03 -0.36552184052E+03  0.13039391971E+03  0.59828934891E+03  0.95139092132E+02 0.  0.
         13    1    3    3    0    0  0.34552628229E+03 -0.28180781448E+03  0.58988424081E+02  0.44975959159E+03  0.00000000000E+00 0. -1.
        -13    1    3    3    0    0  0.99771267637E+02 -0.83714026045E+02  0.71405495632E+02  0.14852975732E+03  0.00000000000E+00 0.  1.
         22    1    1    2    0    0 -0.44529754993E+03  0.36552184052E+03 -0.46681481839E+03  0.74149322218E+03  0.00000000000E+00 0. -1.
<mgrwt>
<rscale>  0 0.12968571E+04</rscale>
<asrwt>0</asrwt>
<pdfrwt beam="1">  1        1 0.12893873E+00 0.12968571E+04</pdfrwt>
<pdfrwt beam="2">  1       -1 0.77181668E-01 0.12968571E+04</pdfrwt>
<totfact> 0.33921846E+01</totfact>
</mgrwt>
</event>
<event>
 6    1  0.1528034E-005  0.2868448E+04  0.7818608E-02  0.8282328E-01
         -2   -1    0    0    0  501 -0.00000000000E+00  0.00000000000E+00  0.17446252830E+04  0.17446252830E+04  0.00000000000E+00 0.  1.
          2   -1    0    0  501    0  0.00000000000E+00 -0.00000000000E+00 -0.11790487735E+04  0.11790487735E+04  0.00000000000E+00 0. -1.
         23    2    1    2    0    0 -0.13504409736E+04 -0.26748005863E+03 -0.12164521715E+03  0.13850025169E+04  0.90542851717E+02 0.  0.
         13    1    3    3    0    0 -0.16890244360E+03 -0.43078717911E+02 -0.44343653722E+02  0.17986153289E+03  0.00000000000E+00 0. -1.
        -13    1    3    3    0    0 -0.11815385300E+04 -0.22440134072E+03 -0.77301563426E+02  0.12051409840E+04  0.00000000000E+00 0.  1.
         22    1    1    2    0    0  0.13504409736E+04  0.26748005863E+03  0.68722172663E+03  0.15386715395E+04  0.00000000000E+00 0.  1.
<mgrwt>
<rscale>  0 0.28684479E+04</rscale>
<asrwt>0</asrwt>
<pdfrwt beam="1">  1        2 0.18139212E+00 0.28684479E+04</pdfrwt>
<pdfrwt beam="2">  1       -2 0.26840389E+00 0.28684479E+04</pdfrwt>
<totfact> 0.83623634E-01</totfact>
</mgrwt>
</event>
<event>
 6    1  0.1528034E-005  0.3249700E+04  0.7818608E-02  0.8175814E-01
         -1   -1    0    0    0  501 -0.00000000000E+00  0.00000000000E+00  0.16183954629E+04  0.16183954629E+04  0.00000000000E+00 0.  1.
          1   -1    0    0  501    0  0.00000000000E+00 -0.00000000000E+00 -0.16313299601E+04  0.16313299601E+04  0.00000000000E+00 0. -1.
         23    2    1    2    0    0 -0.53289663909E+03 -0.91861161318E+03  0.12215162050E+04  0.16213229359E+04  0.93595404941E+02 0.  0.
         11    1    3    3    0    0 -0.41865472951E+03 -0.78931261140E+03  0.10319546042E+04  0.13649968814E+04  0.00000000000E+00 0.  1.
        -11    1    3    3    0    0 -0.11424190958E+03 -0.12929900178E+03  0.18956160077E+03  0.25632605458E+03  0.00000000000E+00 0. -1.
         22    1    1    2    0    0  0.53289663909E+03  0.91861161318E+03 -0.12344507021E+04  0.16284024870E+04  0.00000000000E+00 0. -1.
<mgrwt>
<rscale>  0 0.32496997E+04</rscale>
<asrwt>0</asrwt>
<pdfrwt beam="1">  1        1 0.25097384E+00 0.32496997E+04</pdfrwt>
<pdfrwt beam="2">  1       -1 0.24898392E+00 0.32496997E+04</pdfrwt>
<totfact> 0.31322175E-01</totfact>
</mgrwt>
</event>
<event>
 6    1  0.2212013E-005  0.3072367E+04  0.7818608E-02  0.8223363E-01
          2   -1    0    0  501    0  0.00000000000E+00  0.00000000000E+00  0.12363618488E+04  0.12363618488E+04  0.00000000000E+00 0. -1.
         -2   -1    0    0    0  501 -0.00000000000E+00 -0.00000000000E+00 -0.19087126885E+04  0.19087126885E+04  0.00000000000E+00 0.  1.
         23    2    1    2    0    0 -0.82632744369E+03  0.87815444663E+03  0.63564894411E+03  0.13660760239E+04  0.90232180859E+02 0.  0.
         13    1    3    3    0    0 -0.39582423494E+03  0.47801873793E+03  0.35142843794E+03  0.71321853998E+03  0.00000000000E+00 0.  1.
        -13    1    3    3    0    0 -0.43050320874E+03  0.40013570871E+03  0.28422050617E+03  0.65285748387E+03  0.00000000000E+00 0. -1.
         22    1    1    2    0    0  0.82632744369E+03 -0.87815444663E+03 -0.13079997838E+04  0.17789985134E+04  0.00000000000E+00 0.  1.
<mgrwt>
<rscale>  0 0.30723669E+04</rscale>
<asrwt>0</asrwt>
<pdfrwt beam="1">  1        2 0.19020952E+00 0.30723669E+04</pdfrwt>
<pdfrwt beam="2">  1       -2 0.29364811E+00 0.30723669E+04</pdfrwt>
<totfact> 0.53293768E-01</totfact>
</mgrwt>
</event>
<event>
 6    1  0.1528034E-005  0.2179345E+04  0.7818608E-02  0.8527075E-01
          2   -1    0    0  501    0  0.00000000000E+00  0.00000000000E+00  0.81885719430E+03  0.81885719430E+03  0.00000000000E+00 0. -1.
         -2   -1    0    0    0  501 -0.00000000000E+00 -0.00000000000E+00 -0.14500525115E+04  0.14500525115E+04  0.00000000000E+00 0.  1.
         23    2    1    2    0    0 -0.93412558400E+03  0.53684827567E+03 -0.15981560278E+03  0.10929014095E+04  0.89976587538E+02 0.  0.
         13    1    3    3    0    0 -0.48083468172E+03  0.25773759179E+03 -0.12333318760E+03  0.55932256572E+03  0.00000000000E+00 0. -1.
        -13    1    3    3    0    0 -0.45329090228E+03  0.27911068388E+03 -0.36482415173E+02  0.53357884381E+03  0.00000000000E+00 0.  1.
         22    1    1    2    0    0  0.93412558400E+03 -0.53684827567E+03 -0.47137971445E+03  0.11760082963E+04  0.00000000000E+00 0.  1.
<mgrwt>
<rscale>  0 0.21793448E+04</rscale>
<asrwt>0</asrwt>
<pdfrwt beam="1">  1        2 0.12597803E+00 0.21793448E+04</pdfrwt>
<pdfrwt beam="2">  1       -2 0.22308500E+00 0.21793448E+04</pdfrwt>
<totfact> 0.28875271E+00</totfact>
</mgrwt>
</event>
<event>
 6    1  0.1528034E-005  0.3610123E+04  0.7818608E-02  0.8088177E-01
         -1   -1    0    0    0  501 -0.00000000000E+00  0.00000000000E+00  0.21380992218E+04  0.21380992218E+04  0.00000000000E+00 0.  1.
          1   -1    0    0  501    0  0.00000000000E+00 -0.00000000000E+00 -0.15238990673E+04  0.15238990673E+04  0.00000000000E+00 0. -1.
         23    2    1    2    0    0  0.56203116458E+03 -0.88007559365E+03  0.17993416077E+04  0.20824501434E+04  0.92500259385E+02 0.  0.
         13    1    3    3    0    0  0.38432970188E+03 -0.66535526065E+03  0.13638431416E+04  0.15653993285E+04  0.00000000000E+00 0. -1.
        -13    1    3    3    0    0  0.17770146270E+03 -0.21472033300E+03  0.43549846610E+03  0.51705081494E+03  0.00000000000E+00 0.  1.
         22    1    1    2    0    0 -0.56203116458E+03  0.88007559365E+03 -0.11851414532E+04  0.15795481457E+04  0.00000000000E+00 0. -1.
<mgrwt>
<rscale>  0 0.36101232E+04</rscale>
<asrwt>0</asrwt>
<pdfrwt beam="1">  1        1 0.23444601E+00 0.36101232E+04</pdfrwt>
<pdfrwt beam="2">  1       -1 0.32893834E+00 0.36101232E+04</pdfrwt>
<totfact> 0.10885538E-01</totfact>
</mgrwt>
</event>
<event>
 6    1  0.1528034E-005  0.3529091E+04  0.7818608E-02  0.8106930E-01
         -2   -1    0    0    0  501 -0.00000000000E+00  0.00000000000E+00  0.20951707940E+04  0.20951707940E+04  0.00000000000E+00 0.  1.
          2   -1    0    0  501    0  0.00000000000E+00 -0.00000000000E+00 -0.14860939453E+04  0.14860939453E+04  0.00000000000E+00 0. -1.
         23    2    1    2    0    0  0.12275246883E+04 -0.12294622872E+04  0.61083597227E+03  0.18439111568E+04  0.92159607357E+02 0.  0.
         13    1    3    3    0    0  0.96484036295E+03 -0.10088413035E+04  0.46785124613E+03  0.14722644090E+04  0.00000000000E+00 0. -1.
        -13    1    3    3    0    0  0.26268432535E+03 -0.22062098372E+03  0.14298472614E+03  0.37164674780E+03  0.00000000000E+00 0.  1.
         22    1    1    2    0    0 -0.12275246883E+04  0.12294622872E+04 -0.17591235044E+01  0.17373535825E+04  0.00000000000E+00 0.  1.
<mgrwt>
<rscale>  0 0.35290909E+04</rscale>
<asrwt>0</asrwt>
<pdfrwt beam="1">  1        2 0.22862984E+00 0.35290909E+04</pdfrwt>
<pdfrwt beam="2">  1       -2 0.32233397E+00 0.35290909E+04</pdfrwt>
<totfact> 0.24536656E-01</totfact>
</mgrwt>
</event>
<event>
 6    1  0.1528034E-005  0.5537725E+03  0.7818608E-02  0.1000624E+00
          1   -1    0    0  501    0  0.00000000000E+00  0.00000000000E+00  0.16432503358E+03  0.16432503358E+03  0.00000000000E+00 0. -1.
         -1   -1    0    0    0  501 -0.00000000000E+00 -0.00000000000E+00 -0.46655091739E+03  0.46655091739E+03  0.00000000000E+00 0.  1.
         23    2    1    2    0    0  0.55592827536E+02 -0.44128610707E+02 -0.45142354814E+03  0.46565537175E+03  0.89519878585E+02 0.  0.
         11    1    3    3    0    0  0.69342073657E+01 -0.60525628344E+02 -0.20134263756E+03  0.21035753521E+03  0.00000000000E+00 0. -1.
        -11    1    3    3    0    0  0.48658620171E+02  0.16397017637E+02 -0.25008091058E+03  0.25529783654E+03  0.00000000000E+00 0.  1.
         22    1    1    2    0    0 -0.55592827536E+02  0.44128610707E+02  0.14919766434E+03  0.16522057923E+03  0.00000000000E+00 0. -1.
<mgrwt>
<rscale>  0 0.55377250E+03</rscale>
<asrwt>0</asrwt>
<pdfrwt beam="1">  1        1 0.25280774E-01 0.55377250E+03</pdfrwt>
<pdfrwt beam="2">  1       -1 0.71777065E-01 0.55377250E+03</pdfrwt>
<totfact> 0.38234133E+02</totfact>
</mgrwt>
</event>
<event>
 6    1  0.1528034E-005  0.3051299E+04  0.7818608E-02  0.8229232E-01
         -1   -1    0    0    0  501 -0.00000000000E+00  0.00000000000E+00  0.14361133482E+04  0.14361133482E+04  0.00000000000E+00 0.  1.
          1   -1    0    0  501    0  0.00000000000E+00 -0.00000000000E+00 -0.16207675609E+04  0.16207675609E+04  0.00000000000E+00 0. -1.
         23    2    1    2    0    0  0.10634016720E+04 -0.88135546657E+03  0.55396164157E+03  0.14906229627E+04  0.86445024885E+02 0.  0.
         11    1    3    3    0    0  0.42268444407E+02 -0.29918755164E+02  0.39067585351E+02  0.64869326560E+02  0.00000000000E+00 0.  1.
        -11    1    3    3    0    0  0.10211332276E+04 -0.85143671140E+03  0.51489405622E+03  0.14257536362E+04  0.00000000000E+00 0. -1.
         22    1    1    2    0    0 -0.10634016720E+04  0.88135546657E+03 -0.73861585431E+03  0.15662579464E+04  0.00000000000E+00 0. -1.
<mgrwt>
<rscale>  0 0.30512987E+04</rscale>
<asrwt>0</asrwt>
<pdfrwt beam="1">  1        1 0.24934885E+00 0.30512987E+04</pdfrwt>
<pdfrwt beam="2">  1       -1 0.22094052E+00 0.30512987E+04</pdfrwt>
<totfact> 0.49630587E-01</totfact>
</mgrwt>
</event>
<event>
 6    1  0.1528034E-005  0.3214764E+04  0.7818608E-02  0.8184929E-01
         -1   -1    0    0    0  501 -0.00000000000E+00  0.00000000000E+00  0.19674733670E+04  0.19674733670E+04  0.00000000000E+00 0.  1.
          1   -1    0    0  501    0  0.00000000000E+00 -0.00000000000E+00 -0.13131957318E+04  0.13131957318E+04  0.00000000000E+00 0. -1.
         23    2    1    2    0    0 -0.12816472069E+04 -0.39082530283E+03  0.12311917395E+04  0.18218360500E+04  0.88822932758E+02 0.  0.
         13    1    3    3    0    0 -0.10719560962E+04 -0.32574118859E+03  0.10722998106E+04  0.15508140049E+04  0.00000000000E+00 0. -1.
        -13    1    3    3    0    0 -0.20969111075E+03 -0.65084114242E+02  0.15889192887E+03  0.27102204507E+03  0.00000000000E+00 0.  1.
         22    1    1    2    0    0  0.12816472069E+04  0.39082530283E+03 -0.57691410433E+03  0.14588330488E+04  0.00000000000E+00 0. -1.
<mgrwt>
<rscale>  0 0.32147645E+04</rscale>
<asrwt>0</asrwt>
<pdfrwt beam="1">  1        1 0.20203011E+00 0.32147645E+04</pdfrwt>
<pdfrwt beam="2">  1       -1 0.30268821E+00 0.32147645E+04</pdfrwt>
<totfact> 0.23460591E-01</totfact>
</mgrwt>
</event>
<event>
 6    1  0.1528034E-005  0.2051038E+04  0.7818608E-02  0.8583124E-01
          1   -1    0    0  501    0  0.00000000000E+00  0.00000000000E+00  0.42216875709E+04  0.42216875709E+04  0.00000000000E+00 0. -1.
         -1   -1    0    0    0  501 -0.00000000000E+00 -0.00000000000E+00 -0.24911571868E+03  0.24911571868E+03  0.00000000000E+00 0.  1.
         23    2    1    2    0    0  0.96579613190E+03  0.10366532671E+03  0.12860975848E+04  0.16141176825E+04  0.88432046739E+02 0.  0.
         11    1    3    3    0    0  0.39687777617E+03  0.73390114690E+02  0.58505482837E+03  0.71076524278E+03  0.00000000000E+00 0. -1.
        -11    1    3    3    0    0  0.56891835573E+03  0.30275212016E+02  0.70104275646E+03  0.90335243971E+03  0.00000000000E+00 0.  1.
         22    1    1    2    0    0 -0.96579613190E+03 -0.10366532671E+03  0.26864742674E+04  0.28566856071E+04  0.00000000000E+00 0. -1.
<mgrwt>
<rscale>  0 0.20510375E+04</rscale>
<asrwt>0</asrwt>
<pdfrwt beam="1">  1        1 0.64949034E+00 0.20510375E+04</pdfrwt>
<pdfrwt beam="2">  1       -1 0.38325498E-01 0.20510375E+04</pdfrwt>
<totfact> 0.37071067E-01</totfact>
</mgrwt>
</event>
<event>
 6    1  0.1528034E-005  0.2047105E+04  0.7818608E-02  0.8584909E-01
          2   -1    0    0  501    0  0.00000000000E+00  0.00000000000E+00  0.13709323172E+04  0.13709323172E+04  0.00000000000E+00 0. -1.
         -2   -1    0    0    0  501 -0.00000000000E+00 -0.00000000000E+00 -0.76419512129E+03  0.76419512129E+03  0.00000000000E+00 0.  1.
         23    2    1    2    0    0 -0.19589726188E+03  0.27609361067E+03 -0.70146000380E+03  0.78383793126E+03  0.88047410444E+02 0.  0.
         11    1    3    3    0    0 -0.11942573296E+02  0.79787667860E+02 -0.16944581551E+03  0.18767147197E+03  0.00000000000E+00 0. -1.
        -11    1    3    3    0    0 -0.18395468858E+03  0.19630594281E+03 -0.53201418829E+03  0.59616645928E+03  0.00000000000E+00 0.  1.
         22    1    1    2    0    0  0.19589726188E+03 -0.27609361067E+03  0.13081971997E+04  0.13512895072E+04  0.00000000000E+00 0. -1.
<mgrwt>
<rscale>  0 0.20471051E+04</rscale>
<asrwt>0</asrwt>
<pdfrwt beam="1">  1        2 0.21091266E+00 0.20471051E+04</pdfrwt>
<pdfrwt beam="2">  1       -2 0.11756848E+00 0.20471051E+04</pdfrwt>
<totfact> 0.77758432E+00</totfact>
</mgrwt>
</event>
<event>
 6    1  0.1528034E-005  0.1468174E+04  0.7818608E-02  0.8905897E-01
         -2   -1    0    0    0  501 -0.00000000000E+00  0.00000000000E+00  0.88717074780E+03  0.88717074780E+03  0.00000000000E+00 0.  1.
          2   -1    0    0  501    0  0.00000000000E+00 -0.00000000000E+00 -0.60741800749E+03  0.60741800749E+03  0.00000000000E+00 0. -1.
         23    2    1    2    0    0 -0.75683830633E+02  0.40768854425E+03 -0.47289844804E+03  0.63527402677E+03  0.89454768404E+02 0.  0.
         11    1    3    3    0    0 -0.90559577961E+02  0.26410907649E+03 -0.32806680371E+03  0.43079283785E+03  0.00000000000E+00 0. -1.
        -11    1    3    3    0    0  0.14875747329E+02  0.14357946776E+03 -0.14483164433E+03  0.20448118892E+03  0.00000000000E+00 0.  1.
         22    1    1    2    0    0  0.75683830633E+02 -0.40768854425E+03  0.75265118835E+03  0.85931472853E+03  0.00000000000E+00 0.  1.
<mgrwt>
<rscale>  0 0.14681737E+04</rscale>
<asrwt>0</asrwt>
<pdfrwt beam="1">  1        2 0.93448924E-01 0.14681737E+04</pdfrwt>
<pdfrwt beam="2">  1       -2 0.13648781E+00 0.14681737E+04</pdfrwt>
<totfact> 0.18142761E+01</totfact>
</mgrwt>
</event>
<event>
 6    1  0.1528034E-005  0.1076779E+04  0.7818608E-02  0.9228125E-01
          2   -1    0    0  501    0  0.00000000000E+00  0.00000000000E+00  0.25175856143E+04  0.25175856143E+04  0.00000000000E+00 0. -1.
         -2   -1    0    0    0  501 -0.00000000000E+00 -0.00000000000E+00 -0.11513540471E+03  0.11513540471E+03  0.00000000000E+00 0.  1.
         23    2    1    2    0    0 -0.19407379468E+03  0.32412240415E+03  0.21344282919E+04  0.21695194225E+04  0.91161508179E+02 0.  0.
         11    1    3    3    0    0 -0.98010836939E+02  0.21010717551E+03  0.10801073791E+04  0.11047095093E+04  0.00000000000E+00 0.  1.
        -11    1    3    3    0    0 -0.96062957737E+02  0.11401522864E+03  0.10543209128E+04  0.10648099133E+04  0.00000000000E+00 0. -1.
         22    1    1    2    0    0  0.19407379468E+03 -0.32412240415E+03  0.26802191765E+03  0.46320159650E+03  0.00000000000E+00 0.  1.
<mgrwt>
<rscale>  0 0.10767790E+04</rscale>
<asrwt>0</asrwt>
<pdfrwt beam="1">  1        2 0.38732082E+00 0.10767790E+04</pdfrwt>
<pdfrwt beam="2">  1       -2 0.17713141E-01 0.10767790E+04</pdfrwt>
<totfact> 0.90184345E+01</totfact>
</mgrwt>
</event>
<event>
 6    1  0.1528034E-005  0.1181288E+04  0.7818608E-02  0.9129394E-01
         -2   -1    0    0    0  501 -0.00000000000E+00  0.00000000000E+00  0.88605762714E+03  0.88605762714E+03  0.00000000000E+00 0.  1.
          2   -1    0    0  501    0  0.00000000000E+00 -0.00000000000E+00 -0.39372216415E+03  0.39372216415E+03  0.00000000000E+00 0. -1.
         23    2    1    2    0    0  0.22501035257E+03 -0.42887759130E+03 -0.11186453483E+03  0.50542632908E+03  0.91522963733E+02 0.  0.
         13    1    3    3    0    0  0.97379241077E+02 -0.23146035931E+03 -0.16223961219E+02  0.25163432088E+03  0.00000000000E+00 0.  1.
        -13    1    3    3    0    0  0.12763111149E+03 -0.19741723199E+03 -0.95640573610E+02  0.25379200820E+03  0.00000000000E+00 0. -1.
         22    1    1    2    0    0 -0.22501035257E+03  0.42887759130E+03  0.60419999782E+03  0.77435346222E+03  0.00000000000E+00 0.  1.
<mgrwt>
<rscale>  0 0.11812883E+04</rscale>
<asrwt>0</asrwt>
<pdfrwt beam="1">  1        2 0.60572641E-01 0.11812883E+04</pdfrwt>
<pdfrwt beam="2">  1       -2 0.13631656E+00 0.11812883E+04</pdfrwt>
<totfact> 0.30751676E+01</totfact>
</mgrwt>
</event>
<event>
 6    1  0.1528034E-005  0.7473298E+03  0.7818608E-02  0.9639549E-01
         -2   -1    0    0    0  501 -0.00000000000E+00  0.00000000000E+00  0.22502608198E+03  0.22502608198E+03  0.00000000000E+00 0.  1.
          2   -1    0    0  501    0  0.00000000000E+00 -0.00000000000E+00 -0.62048570681E+03  0.62048570681E+03  0.00000000000E+00 0. -1.
         23    2    1    2    0    0 -0.17706456744E+02 -0.35593706327E+03 -0.95650467346E+02  0.37979702358E+03  0.89955853608E+02 0.  0.
         13    1    3    3    0    0 -0.25714657636E+02 -0.98242921162E+02  0.81240820853E+01  0.10187696445E+03  0.00000000000E+00 0.  1.
        -13    1    3    3    0    0  0.80082008921E+01 -0.25769414211E+03 -0.10377454943E+03  0.27792005913E+03  0.00000000000E+00 0. -1.
         22    1    1    2    0    0  0.17706456744E+02  0.35593706327E+03 -0.29980915748E+03  0.46571476521E+03  0.00000000000E+00 0. -1.
<mgrwt>
<rscale>  0 0.74732983E+03</rscale>
<asrwt>0</asrwt>
<pdfrwt beam="1">  1        2 0.95459340E-01 0.74732983E+03</pdfrwt>
<pdfrwt beam="2">  1       -2 0.34619397E-01 0.74732983E+03</pdfrwt>
<totfact> 0.37479406E+02</totfact>
</mgrwt>
</event>
<event>
 6    1  0.1533142E-005  0.2715856E+04  0.7818608E-02  0.8329879E-01
         -1   -1    0    0    0  501 -0.00000000000E+00  0.00000000000E+00  0.63946894184E+03  0.63946894184E+03  0.00000000000E+00 0.  1.
          1   -1    0    0  501    0  0.00000000000E+00 -0.00000000000E+00 -0.28835933326E+04  0.28835933326E+04  0.00000000000E+00 0. -1.
         23    2    1    2    0    0 -0.50775625137E+03  0.80121096748E+03 -0.23811311250E+04  0.25646645123E+04  0.89236770896E+02 0.  0.
         11    1    3    3    0    0 -0.22417286511E+03  0.42133874136E+03 -0.11243231126E+04  0.12214263261E+04  0.00000000000E+00 0. -1.
        -11    1    3    3    0    0 -0.28358338627E+03  0.37987222612E+03 -0.12568080123E+04  0.13432381863E+04  0.00000000000E+00 0.  1.
         22    1    1    2    0    0  0.50775625137E+03 -0.80121096748E+03  0.13700673420E+03  0.95839776212E+03  0.00000000000E+00 0.  1.
<mgrwt>
<rscale>  0 0.27158559E+04</rscale>
<asrwt>0</asrwt>
<pdfrwt beam="1">  1        1 0.44362974E+00 0.27158559E+04</pdfrwt>
<pdfrwt beam="2">  1       -1 0.98379838E-01 0.27158559E+04</pdfrwt>
<totfact> 0.62597023E-01</totfact>
</mgrwt>
</event>
<event>
 6    1  0.1528034E-005  0.9736295E+03  0.7818608E-02  0.9337950E-01
          2   -1    0    0  501    0  0.00000000000E+00  0.00000000000E+00  0.38746336112E+03  0.38746336112E+03  0.00000000000E+00 0. -1.
         -2   -1    0    0    0  501 -0.00000000000E+00 -0.00000000000E+00 -0.61164127395E+03  0.61164127395E+03  0.00000000000E+00 0.  1.
         23    2    1    2    0    0  0.46416376787E+02  0.40694442229E+03 -0.37888902913E+03  0.56127616138E+03  0.60957280628E+02 0.  0.
         11    1    3    3    0    0  0.56700283132E+02  0.28287649171E+03 -0.24552784394E+03  0.37883763517E+03  0.00000000000E+00 0.  1.
        -11    1    3    3    0    0 -0.10283906345E+02  0.12406793059E+03 -0.13336118520E+03  0.18243852621E+03  0.00000000000E+00 0. -1.
         22    1    1    2    0    0 -0.46416376787E+02 -0.40694442229E+03  0.15471111631E+03  0.43782847370E+03  0.00000000000E+00 0. -1.
<mgrwt>
<rscale>  0 0.97362947E+03</rscale>
<asrwt>0</asrwt>
<pdfrwt beam="1">  1        2 0.59609749E-01 0.97362947E+03</pdfrwt>
<pdfrwt beam="2">  1       -2 0.94098656E-01 0.97362947E+03</pdfrwt>
<totfact> 0.78567623E+01</totfact>
</mgrwt>
</event>
<event>
 6    1  0.1528034E-005  0.1807796E+04  0.7818608E-02  0.8702165E-01
          2   -1    0    0  501    0  0.00000000000E+00  0.00000000000E+00  0.10578741573E+04  0.10578741573E+04  0.00000000000E+00 0. -1.
         -2   -1    0    0    0  501 -0.00000000000E+00 -0.00000000000E+00 -0.77233335037E+03  0.77233335037E+03  0.00000000000E+00 0.  1.
         23    2    1    2    0    0 -0.32848233267E+03  0.48938651605E+03 -0.54773302162E+03  0.80954836854E+03  0.89203660550E+02 0.  0.
         11    1    3    3    0    0 -0.41431505361E+02  0.11709799324E+03 -0.89813250550E+02  0.15328055856E+03  0.00000000000E+00 0. -1.
        -11    1    3    3    0    0 -0.28705082731E+03  0.37228852281E+03 -0.45791977107E+03  0.65626780998E+03  0.00000000000E+00 0.  1.
         22    1    1    2    0    0  0.32848233267E+03 -0.48938651605E+03  0.83327382856E+03  0.10206591392E+04  0.00000000000E+00 0. -1.
<mgrwt>
<rscale>  0 0.18077959E+04</rscale>
<asrwt>0</asrwt>
<pdfrwt beam="1">  1        2 0.16274987E+00 0.18077959E+04</pdfrwt>
<pdfrwt beam="2">  1       -2 0.11882052E+00 0.18077959E+04</pdfrwt>
<totfact> 0.11883766E+01</totfact>
</mgrwt>
</event>
<event>
 6    1  0.1528034E-005  0.1743430E+04  0.7818608E-02  0.8736975E-01
         -2   -1    0    0    0  501 -0.00000000000E+00  0.00000000000E+00  0.12976610701E+04  0.12976610701E+04  0.00000000000E+00 0.  1.
          2   -1    0    0  501    0  0.00000000000E+00 -0.00000000000E+00 -0.58558213279E+03  0.58558213279E+03  0.00000000000E+00 0. -1.
         23    2    1    2    0    0 -0.71109362025E+03  0.49820283392E+03  0.40436223942E+03  0.96207559237E+03  0.90666555462E+02 0.  0.
         11    1    3    3    0    0 -0.41377256600E+03  0.23533991140E+03  0.22762687970E+03  0.52764249889E+03  0.00000000000E+00 0.  1.
        -11    1    3    3    0    0 -0.29732105425E+03  0.26286292252E+03  0.17673535971E+03  0.43443309348E+03  0.00000000000E+00 0. -1.
         22    1    1    2    0    0  0.71109362025E+03 -0.49820283392E+03  0.30771669788E+03  0.92116761051E+03  0.00000000000E+00 0. -1.
<mgrwt>
<rscale>  0 0.17434301E+04</rscale>
<asrwt>0</asrwt>
<pdfrwt beam="1">  1        2 0.90089559E-01 0.17434301E+04</pdfrwt>
<pdfrwt beam="2">  1       -2 0.19964016E+00 0.17434301E+04</pdfrwt>
<totfact> 0.64714614E+00</totfact>
</mgrwt>
</event>
<event>
 6    1  0.1528034E-005  0.2944373E+04  0.7818608E-02  0.8259796E-01
          2   -1    0    0  501    0  0.00000000000E+00  0.00000000000E+00  0.25440921376E+04  0.25440921376E+04  0.00000000000E+00 0. -1.
         -2   -1    0    0    0  501 -0.00000000000E+00 -0.00000000000E+00 -0.85190821308E+03  0.85190821308E+03  0.00000000000E+00 0.  1.
         23    2    1    2    0    0  0.13946575554E+04  0.11634196955E+03  0.32550670919E+03  0.14398787385E+04  0.93225604813E+02 0.  0.
         11    1    3    3    0    0  0.10258937935E+04  0.65172296274E+02  0.27549052275E+03  0.10642370656E+04  0.00000000000E+00 0. -1.
        -11    1    3    3    0    0  0.36876376184E+03  0.51169673275E+02  0.50016186443E+02  0.37564167289E+03  0.00000000000E+00 0.  1.
         22    1    1    2    0    0 -0.13946575554E+04 -0.11634196955E+03  0.13666772153E+04  0.19561216121E+04  0.00000000000E+00 0.  1.
<mgrwt>
<rscale>  0 0.29443729E+04</rscale>
<asrwt>0</asrwt>
<pdfrwt beam="1">  1        2 0.39139879E+00 0.29443729E+04</pdfrwt>
<pdfrwt beam="2">  1       -2 0.13106280E+00 0.29443729E+04</pdfrwt>
<totfact> 0.12001734E+00</totfact>
</mgrwt>
</event>
<event>
 6    1  0.1528034E-005  0.2116879E+04  0.7818608E-02  0.8553844E-01
         -2   -1    0    0    0  501 -0.00000000000E+00  0.00000000000E+00  0.32584998019E+03  0.32584998019E+03  0.00000000000E+00 0.  1.
          2   -1    0    0  501    0  0.00000000000E+00 -0.00000000000E+00 -0.34380668009E+04  0.34380668009E+04  0.00000000000E+00 0. -1.
         23    2    1    2    0    0  0.93715595145E+03  0.47392401000E+03 -0.13520471255E+04  0.17142673963E+04  0.88408324751E+02 0.  0.
         13    1    3    3    0    0  0.38565461631E+03  0.14708092588E+03 -0.53862216114E+03  0.67858390366E+03  0.00000000000E+00 0.  1.
        -13    1    3    3    0    0  0.55150133514E+03  0.32684308412E+03 -0.81342496438E+03  0.10356834927E+04  0.00000000000E+00 0. -1.
         22    1    1    2    0    0 -0.93715595145E+03 -0.47392401000E+03 -0.17601696951E+04  0.20496493847E+04  0.00000000000E+00 0. -1.
<mgrwt>
<rscale>  0 0.21168788E+04</rscale>
<asrwt>0</asrwt>
<pdfrwt beam="1">  1        2 0.52893335E+00 0.21168788E+04</pdfrwt>
<pdfrwt beam="2">  1       -2 0.50130766E-01 0.21168788E+04</pdfrwt>
<totfact> 0.31220213E+00</totfact>
</mgrwt>
</event>
<event>
 6    1  0.1528034E-005  0.4225452E+04  0.7818608E-02  0.7960548E-01
         -1   -1    0    0    0  501 -0.00000000000E+00  0.00000000000E+00  0.14477209030E+04  0.14477209030E+04  0.00000000000E+00 0.  1.
          1   -1    0    0  501    0  0.00000000000E+00 -0.00000000000E+00 -0.30831987988E+04  0.30831987988E+04  0.00000000000E+00 0. -1.
         23    2    1    2    0    0  0.87501296241E+03 -0.19008724092E+04 -0.51086734262E+03  0.21552697914E+04  0.72379773327E+02 0.  0.
         13    1    3    3    0    0  0.36984907020E+03 -0.87680147177E+03 -0.25171014421E+03  0.98434097361E+03  0.00000000000E+00 0.  1.
        -13    1    3    3    0    0  0.50516389221E+03 -0.10240709374E+04 -0.25915719840E+03  0.11709288178E+04  0.00000000000E+00 0. -1.
         22    1    1    2    0    0 -0.87501296241E+03  0.19008724092E+04 -0.11246105533E+04  0.23756499104E+04  0.00000000000E+00 0.  1.
<mgrwt>
<rscale>  0 0.42254521E+04</rscale>
<asrwt>0</asrwt>
<pdfrwt beam="1">  1        1 0.47433828E+00 0.42254521E+04</pdfrwt>
<pdfrwt beam="2">  1       -1 0.22272629E+00 0.42254521E+04</pdfrwt>
<totfact> 0.42083945E-02</totfact>
</mgrwt>
</event>
<event>
 6    1  0.1528034E-005  0.4013190E+03  0.7818608E-02  0.1043324E+00
         -2   -1    0    0    0  501 -0.00000000000E+00  0.00000000000E+00  0.20265345674E+02  0.20265345674E+02  0.00000000000E+00 0.  1.
          2   -1    0    0  501    0  0.00000000000E+00 -0.00000000000E+00 -0.19868511371E+04  0.19868511371E+04  0.00000000000E+00 0. -1.
         23    2    1    2    0    0 -0.37075928558E+02  0.50138653314E+02 -0.19335176670E+04  0.19365331286E+04  0.88212699785E+02 0.  0.
         13    1    3    3    0    0 -0.24460391536E+00  0.30674874710E+02 -0.16163910115E+04  0.16166820683E+04  0.00000000000E+00 0.  1.
        -13    1    3    3    0    0 -0.36831324642E+02  0.19463778604E+02 -0.31712665553E+03  0.31985106034E+03  0.00000000000E+00 0. -1.
         22    1    1    2    0    0  0.37075928558E+02 -0.50138653314E+02 -0.33068124381E+02  0.70583354161E+02  0.00000000000E+00 0.  1.
<mgrwt>
<rscale>  0 0.40131895E+03</rscale>
<asrwt>0</asrwt>
<pdfrwt beam="1">  1        2 0.30566944E+00 0.40131895E+03</pdfrwt>
<pdfrwt beam="2">  1       -2 0.31177452E-02 0.40131895E+03</pdfrwt>
<totfact> 0.30038815E+03</totfact>
</mgrwt>
</event>
<event>
 6    1  0.1528034E-005  0.7341786E+03  0.7818608E-02  0.9660504E-01
         -2   -1    0    0    0  501 -0.00000000000E+00  0.00000000000E+00  0.81398316196E+02  0.81398316196E+02  0.00000000000E+00 0.  1.
          2   -1    0    0  501    0  0.00000000000E+00 -0.00000000000E+00 -0.16554956211E+04  0.16554956211E+04  0.00000000000E+00 0. -1.
         23    2    1    2    0    0  0.17781021308E+03  0.28728039279E+03 -0.49584754819E+03  0.60695188842E+03  0.91538559386E+02 0.  0.
         11    1    3    3    0    0  0.13423030222E+03  0.25264124433E+03 -0.45666108507E+03  0.53887356494E+03  0.00000000000E+00 0. -1.
        -11    1    3    3    0    0  0.43579910857E+02  0.34639148463E+02 -0.39186463119E+02  0.68078323483E+02  0.00000000000E+00 0.  1.
         22    1    1    2    0    0 -0.17781021308E+03 -0.28728039279E+03 -0.10782497567E+04  0.11299420488E+04  0.00000000000E+00 0. -1.
<mgrwt>
<rscale>  0 0.73417861E+03</rscale>
<asrwt>0</asrwt>
<pdfrwt beam="1">  1        2 0.25469165E+00 0.73417861E+03</pdfrwt>
<pdfrwt beam="2">  1       -2 0.12522817E-01 0.73417861E+03</pdfrwt>
<totfact> 0.50046989E+02</totfact>
</mgrwt>
</event>
<event>
 6    1  0.1528034E-005  0.5439869E+04  0.7818608E-02  0.7764018E-01
         -2   -1    0    0    0  501 -0.00000000000E+00  0.00000000000E+00  0.25330137128E+04  0.25330137128E+04  0.00000000000E+00 0. -1.
          2   -1    0    0  501    0  0.00000000000E+00 -0.00000000000E+00 -0.29206492852E+04  0.29206492852E+04  0.00000000000E+00 0.  1.
         23    2    1    2    0    0 -0.12901258388E+04  0.23902959866E+04 -0.67969775246E+02  0.27186811324E+04  0.93100084729E+02 0.  0.
         11    1    3    3    0    0 -0.61476316729E+03  0.11813796035E+04 -0.75300857523E+02  0.13338897026E+04  0.00000000000E+00 0. -1.
        -11    1    3    3    0    0 -0.67536267149E+03  0.12089163831E+04  0.73310822773E+01  0.13847914298E+04  0.00000000000E+00 0.  1.
         22    1    1    2    0    0  0.12901258388E+04 -0.23902959866E+04 -0.31966579721E+03  0.27349818656E+04  0.00000000000E+00 0. -1.
<mgrwt>
<rscale>  0 0.54398694E+04</rscale>
<asrwt>0</asrwt>
<pdfrwt beam="1">  1        2 0.44933066E+00 0.54398694E+04</pdfrwt>
<pdfrwt beam="2">  1       -2 0.38969442E+00 0.54398694E+04</pdfrwt>
<totfact> 0.11890593E-02</totfact>
</mgrwt>
</event>
<event>
 6    1  0.1528034E-005  0.4011868E+04  0.7818608E-02  0.8002157E-01
         -1   -1    0    0    0  501 -0.00000000000E+00  0.00000000000E+00  0.18439518392E+04  0.18439518392E+04  0.00000000000E+00 0.  1.
          1   -1    0    0  501    0  0.00000000000E+00 -0.00000000000E+00 -0.21821456720E+04  0.21821456720E+04  0.00000000000E+00 0. -1.
         23    2    1    2    0    0  0.54508865595E+01 -0.18479271092E+04 -0.94901086291E+03  0.20798288357E+04  0.10100522184E+03 0.  0.
         11    1    3    3    0    0  0.40274685413E+02 -0.97311928811E+03 -0.53774522038E+03  0.11125435368E+04  0.00000000000E+00 0. -1.
        -11    1    3    3    0    0 -0.34823798854E+02 -0.87480782110E+03 -0.41126564253E+03  0.96728529894E+03  0.00000000000E+00 0.  1.
         22    1    1    2    0    0 -0.54508865595E+01  0.18479271092E+04  0.61081703013E+03  0.19462686755E+04  0.00000000000E+00 0.  1.
<mgrwt>
<rscale>  0 0.40118682E+04</rscale>
<asrwt>0</asrwt>
<pdfrwt beam="1">  1        1 0.33571472E+00 0.40118682E+04</pdfrwt>
<pdfrwt beam="2">  1       -1 0.28368490E+00 0.40118682E+04</pdfrwt>
<totfact> 0.73804622E-02</totfact>
</mgrwt>
</event>
<event>
 6    1  0.1528034E-005  0.4181995E+04  0.7818608E-02  0.7968806E-01
          1   -1    0    0  501    0  0.00000000000E+00  0.00000000000E+00  0.36909609774E+04  0.36909609774E+04  0.00000000000E+00 0. -1.
         -1   -1    0    0    0  501 -0.00000000000E+00 -0.00000000000E+00 -0.11845887880E+04  0.11845887880E+04  0.00000000000E+00 0.  1.
         23    2    1    2    0    0 -0.68681244896E+03  0.24922796906E+03 -0.10290840972E+04  0.12653867394E+04  0.91452722445E+02 0.  0.
         11    1    3    3    0    0 -0.38131435047E+03  0.13566881487E+03 -0.49118062267E+03  0.63644722113E+03  0.00000000000E+00 0. -1.
        -11    1    3    3    0    0 -0.30549809849E+03  0.11355915419E+03 -0.53790347453E+03  0.62893951823E+03  0.00000000000E+00 0.  1.
         22    1    1    2    0    0  0.68681244896E+03 -0.24922796906E+03  0.35354562865E+04  0.36101630261E+04  0.00000000000E+00 0. -1.
<mgrwt>
<rscale>  0 0.41819952E+04</rscale>
<asrwt>0</asrwt>
<pdfrwt beam="1">  1        1 0.56784015E+00 0.41819952E+04</pdfrwt>
<pdfrwt beam="2">  1       -1 0.18224443E+00 0.41819952E+04</pdfrwt>
<totfact> 0.27081685E-02</totfact>
</mgrwt>
</event>
<event>
 6    1  0.1528034E-005  0.2276545E+04  0.7818608E-02  0.8487227E-01
         -2   -1    0    0    0  501 -0.00000000000E+00  0.00000000000E+00  0.16295897948E+04  0.16295897948E+04  0.00000000000E+00 0.  1.
          2   -1    0    0  501    0  0.00000000000E+00 -0.00000000000E+00 -0.79508649124E+03  0.79508649124E+03  0.00000000000E+00 0. -1.
         23    2    1    2    0    0  0.11263142822E+04  0.14357137105E+03  0.46857042249E+03  0.12317372791E+04  0.91770818147E+02 0.  0.
         13    1    3    3    0    0  0.34970735094E+03  0.67312890769E+02  0.18629167059E+03  0.40190899852E+03  0.00000000000E+00 0.  1.
        -13    1    3    3    0    0  0.77660693123E+03  0.76258480280E+02  0.28227875190E+03  0.82982828057E+03  0.00000000000E+00 0. -1.
         22    1    1    2    0    0 -0.11263142822E+04 -0.14357137105E+03  0.36593288105E+03  0.11929390069E+04  0.00000000000E+00 0. -1.
<mgrwt>
<rscale>  0 0.22765455E+04</rscale>
<asrwt>0</asrwt>
<pdfrwt beam="1">  1        2 0.12232100E+00 0.22765455E+04</pdfrwt>
<pdfrwt beam="2">  1       -2 0.25070612E+00 0.22765455E+04</pdfrwt>
<totfact> 0.20067086E+00</totfact>
</mgrwt>
</event>
<event>
 6    1  0.1528034E-005  0.3668898E+04  0.7818608E-02  0.8074890E-01
         -1   -1    0    0    0  501 -0.00000000000E+00  0.00000000000E+00  0.21810078100E+04  0.21810078100E+04  0.00000000000E+00 0.  1.
          1   -1    0    0  501    0  0.00000000000E+00 -0.00000000000E+00 -0.15429575109E+04  0.15429575109E+04  0.00000000000E+00 0. -1.
         23    2    1    2    0    0  0.13203341947E+04 -0.73976244100E+03 -0.73091091739E+03  0.16832336710E+04  0.92271161823E+02 0.  0.
         11    1    3    3    0    0  0.10743107587E+04 -0.63492034716E+03 -0.57922288853E+03  0.13757785461E+04  0.00000000000E+00 0.  1.
        -11    1    3    3    0    0  0.24602343600E+03 -0.10484209384E+03 -0.15168802886E+03  0.30745512486E+03  0.00000000000E+00 0. -1.
         22    1    1    2    0    0 -0.13203341947E+04  0.73976244100E+03  0.13689612165E+04  0.20407316499E+04  0.00000000000E+00 0.  1.
<mgrwt>
<rscale>  0 0.36688976E+04</rscale>
<asrwt>0</asrwt>
<pdfrwt beam="1">  1        1 0.23737808E+00 0.36688976E+04</pdfrwt>
<pdfrwt beam="2">  1       -1 0.33553966E+00 0.36688976E+04</pdfrwt>
<totfact> 0.95100283E-02</totfact>
</mgrwt>
</event>
<event>
 6    1  0.1528034E-005  0.1993356E+04  0.7818608E-02  0.8609733E-01
          1   -1    0    0  501    0  0.00000000000E+00  0.00000000000E+00  0.10976095366E+04  0.10976095366E+04  0.00000000000E+00 0. -1.
         -1   -1    0    0    0  501 -0.00000000000E+00 -0.00000000000E+00 -0.90502753084E+03  0.90502753084E+03  0.00000000000E+00 0.  1.
         23    2    1    2    0    0  0.93275711084E+03  0.20308071935E+03  0.37700719839E+03  0.10303766815E+04  0.90906939884E+02 0.  0.
         13    1    3    3    0    0  0.60681707511E+03  0.14732143147E+03  0.20236013395E+03  0.65641464839E+03  0.00000000000E+00 0.  1.
        -13    1    3    3    0    0  0.32594003573E+03  0.55759287879E+02  0.17464706444E+03  0.37396203309E+03  0.00000000000E+00 0. -1.
         22    1    1    2    0    0 -0.93275711084E+03 -0.20308071935E+03 -0.18442519264E+03  0.97226038595E+03  0.00000000000E+00 0.  1.
<mgrwt>
<rscale>  0 0.19933558E+04</rscale>
<asrwt>0</asrwt>
<pdfrwt beam="1">  1        1 0.16886301E+00 0.19933558E+04</pdfrwt>
<pdfrwt beam="2">  1       -1 0.13923500E+00 0.19933558E+04</pdfrwt>
<totfact> 0.50252813E+00</totfact>
</mgrwt>
</event>
<event>
 6    1  0.1528034E-005  0.1263981E+04  0.7818608E-02  0.9058627E-01
         -2   -1    0    0    0  501 -0.00000000000E+00  0.00000000000E+00  0.31319587167E+03  0.31319587167E+03  0.00000000000E+00 0.  1.
          2   -1    0    0  501    0  0.00000000000E+00 -0.00000000000E+00 -0.12752785934E+04  0.12752785934E+04  0.00000000000E+00 0. -1.
         23    2    1    2    0    0  0.14739877685E+03  0.56748235361E+03 -0.76910680747E+03  0.97122060761E+03  0.89339612036E+02 0.  0.
         13    1    3    3    0    0  0.80727737141E+02  0.16655028921E+03 -0.27404865182E+03  0.33069416376E+03  0.00000000000E+00 0.  1.
        -13    1    3    3    0    0  0.66671039705E+02  0.40093206440E+03 -0.49505815565E+03  0.64052644386E+03  0.00000000000E+00 0. -1.
         22    1    1    2    0    0 -0.14739877685E+03 -0.56748235361E+03 -0.19297591428E+03  0.61725385748E+03  0.00000000000E+00 0.  1.
<mgrwt>
<rscale>  0 0.12639810E+04</rscale>
<asrwt>0</asrwt>
<pdfrwt beam="1">  1        2 0.19619671E+00 0.12639810E+04</pdfrwt>
<pdfrwt beam="2">  1       -2 0.48183980E-01 0.12639810E+04</pdfrwt>
<totfact> 0.68501302E+01</totfact>
</mgrwt>
</event>
<event>
 6    1  0.1528034E-005  0.2603110E+04  0.7818608E-02  0.8367146E-01
         -1   -1    0    0    0  501 -0.00000000000E+00  0.00000000000E+00  0.10688545894E+04  0.10688545894E+04  0.00000000000E+00 0.  1.
          1   -1    0    0  501    0  0.00000000000E+00 -0.00000000000E+00 -0.15849163360E+04  0.15849163360E+04  0.00000000000E+00 0. -1.
         23    2    1    2    0    0 -0.69834953174E+03 -0.10914580203E+04 -0.15182921258E+03  0.13077998941E+04  0.91190868224E+02 0.  0.
         13    1    3    3    0    0 -0.40511140434E+03 -0.70622399888E+03 -0.11515895600E+03  0.82227074110E+03  0.00000000000E+00 0. -1.
        -13    1    3    3    0    0 -0.29323812740E+03 -0.38523402146E+03 -0.36670256572E+02  0.48552915295E+03  0.00000000000E+00 0.  1.
         22    1    1    2    0    0  0.69834953174E+03  0.10914580203E+04 -0.36423253402E+03  0.13459710314E+04  0.00000000000E+00 0.  1.
<mgrwt>
<rscale>  0 0.26031098E+04</rscale>
<asrwt>0</asrwt>
<pdfrwt beam="1">  1        1 0.24383328E+00 0.26031098E+04</pdfrwt>
<pdfrwt beam="2">  1       -1 0.16443917E+00 0.26031098E+04</pdfrwt>
<totfact> 0.13616622E+00</totfact>
</mgrwt>
</event>
<event>
 6    1  0.1528034E-005  0.1464621E+04  0.7818608E-02  0.8908326E-01
         -1   -1    0    0    0  501 -0.00000000000E+00  0.00000000000E+00  0.83954157107E+03  0.83954157107E+03  0.00000000000E+00 0.  1.
          1   -1    0    0  501    0  0.00000000000E+00 -0.00000000000E+00 -0.63877562398E+03  0.63877562398E+03  0.00000000000E+00 0. -1.
         23    2    1    2    0    0 -0.11895680854E+03 -0.71962880193E+03  0.12653894763E+03  0.74515556055E+03  0.85019816994E+02 0.  0.
         11    1    3    3    0    0 -0.10291798886E+03 -0.59200740633E+03  0.13633035237E+03  0.61615813438E+03  0.00000000000E+00 0.  1.
        -11    1    3    3    0    0 -0.16038819682E+02 -0.12762139560E+03 -0.97914047454E+01  0.12899742617E+03  0.00000000000E+00 0. -1.
         22    1    1    2    0    0  0.11895680854E+03  0.71962880193E+03  0.74226999470E+02  0.73316163451E+03  0.00000000000E+00 0.  1.
<mgrwt>
<rscale>  0 0.14646210E+04</rscale>
<asrwt>0</asrwt>
<pdfrwt beam="1">  1        1 0.98273173E-01 0.14646210E+04</pdfrwt>
<pdfrwt beam="2">  1       -1 0.12916024E+00 0.14646210E+04</pdfrwt>
<totfact> 0.15633437E+01</totfact>
</mgrwt>
</event>
<event>
 6    1  0.1528034E-005  0.2016298E+04  0.7818608E-02  0.8599038E-01
         -1   -1    0    0    0  501 -0.00000000000E+00  0.00000000000E+00  0.68000304189E+03  0.68000304189E+03  0.00000000000E+00 0.  1.
          1   -1    0    0  501    0  0.00000000000E+00 -0.00000000000E+00 -0.14946471285E+04  0.14946471285E+04  0.00000000000E+00 0. -1.
         23    2    1    2    0    0 -0.11263404646E+03  0.40963366078E+03  0.57542755947E+03  0.72110782643E+03  0.91615810211E+02 0.  0.
         13    1    3    3    0    0 -0.17395206826E+02  0.10574152395E+03  0.87020911589E+02  0.13804529025E+03  0.00000000000E+00 0.  1.
        -13    1    3    3    0    0 -0.95238839631E+02  0.30389213683E+03  0.48840664788E+03  0.58306253618E+03  0.00000000000E+00 0. -1.
         22    1    1    2    0    0  0.11263404646E+03 -0.40963366078E+03 -0.13900716460E+04  0.14535423439E+04  0.00000000000E+00 0. -1.
<mgrwt>
<rscale>  0 0.20162982E+04</rscale>
<asrwt>0</asrwt>
<pdfrwt beam="1">  1        1 0.22994571E+00 0.20162982E+04</pdfrwt>
<pdfrwt beam="2">  1       -1 0.10461585E+00 0.20162982E+04</pdfrwt>
<totfact> 0.52479667E+00</totfact>
</mgrwt>
</event>
<event>
 6    1  0.1528034E-005  0.1701066E+04  0.7818608E-02  0.8760756E-01
         -2   -1    0    0    0  501 -0.00000000000E+00  0.00000000000E+00  0.30272959866E+04  0.30272959866E+04  0.00000000000E+00 0.  1.
          2   -1    0    0  501    0  0.00000000000E+00 -0.00000000000E+00 -0.23896132240E+03  0.23896132240E+03  0.00000000000E+00 0. -1.
         23    2    1    2    0    0 -0.91291939959E+02 -0.82063480444E+02  0.30095257486E+04  0.30132867002E+04  0.87079693588E+02 0.  0.
         11    1    3    3    0    0 -0.96756658886E+02 -0.60710959172E+02  0.18336461580E+04  0.18372005618E+04  0.00000000000E+00 0. -1.
        -11    1    3    3    0    0  0.54647189271E+01 -0.21352521272E+02  0.11758795906E+04  0.11760861384E+04  0.00000000000E+00 0.  1.
         22    1    1    2    0    0  0.91291939959E+02  0.82063480444E+02 -0.22119108437E+03  0.25297060882E+03  0.00000000000E+00 0. -1.
<mgrwt>
<rscale>  0 0.17010663E+04</rscale>
<asrwt>0</asrwt>
<pdfrwt beam="1">  1        2 0.36763283E-01 0.17010663E+04</pdfrwt>
<pdfrwt beam="2">  1       -2 0.46573782E+00 0.17010663E+04</pdfrwt>
<totfact> 0.36967041E-01</totfact>
</mgrwt>
</event>
<event>
 6    1  0.1528034E-005  0.1457662E+04  0.7818608E-02  0.8913106E-01
         -3   -1    0    0    0  501 -0.00000000000E+00  0.00000000000E+00  0.77737773516E+03  0.77737773516E+03  0.00000000000E+00 0.  1.
          3   -1    0    0  501    0  0.00000000000E+00 -0.00000000000E+00 -0.68331592617E+03  0.68331592617E+03  0.00000000000E+00 0. -1.
         23    2    1    2    0    0  0.23179177486E+03  0.57083492754E+03 -0.33738798556E+03  0.70854416381E+03  0.92866774860E+02 0.  0.
         11    1    3    3    0    0  0.15729685268E+03  0.29819076591E+03 -0.21957501952E+03  0.40233471381E+03  0.00000000000E+00 0.  1.
        -11    1    3    3    0    0  0.74494922179E+02  0.27264416163E+03 -0.11781296603E+03  0.30620945000E+03  0.00000000000E+00 0. -1.
         22    1    1    2    0    0 -0.23179177486E+03 -0.57083492754E+03  0.43144979455E+03  0.75214949752E+03  0.00000000000E+00 0.  1.
<mgrwt>
<rscale>  0 0.14576619E+04</rscale>
<asrwt>0</asrwt>
<pdfrwt beam="1">  1        3 0.10512553E+00 0.14576619E+04</pdfrwt>
<pdfrwt beam="2">  1       -3 0.11959657E+00 0.14576619E+04</pdfrwt>
<totfact> 0.11258165E+00</totfact>
</mgrwt>
</event>
<event>
 6    1  0.1528034E-005  0.2652395E+04  0.7818608E-02  0.8350619E-01
          1   -1    0    0  501    0  0.00000000000E+00  0.00000000000E+00  0.71263919541E+03  0.71263919541E+03  0.00000000000E+00 0. -1.
         -1   -1    0    0    0  501 -0.00000000000E+00 -0.00000000000E+00 -0.24680086515E+04  0.24680086515E+04  0.00000000000E+00 0.  1.
         23    2    1    2    0    0 -0.25042679844E+03  0.69710781476E+03 -0.21958110656E+04  0.23188696282E+04  0.83049563129E+02 0.  0.
         11    1    3    3    0    0 -0.92936848808E+02  0.21197482546E+03 -0.58039976497E+03  0.62484755875E+03  0.00000000000E+00 0.  1.
        -11    1    3    3    0    0 -0.15748994963E+03  0.48513298930E+03 -0.16154113006E+04  0.16940220694E+04  0.00000000000E+00 0. -1.
         22    1    1    2    0    0  0.25042679844E+03 -0.69710781476E+03  0.44044160955E+03  0.86177821868E+03  0.00000000000E+00 0. -1.
<mgrwt>
<rscale>  0 0.26523949E+04</rscale>
<asrwt>0</asrwt>
<pdfrwt beam="1">  1        1 0.10963680E+00 0.26523949E+04</pdfrwt>
<pdfrwt beam="2">  1       -1 0.37969364E+00 0.26523949E+04</pdfrwt>
<totfact> 0.22846530E-01</totfact>
</mgrwt>
</event>
<event>
 6    1  0.1528034E-005  0.1127325E+04  0.7818608E-02  0.9178961E-01
         -2   -1    0    0    0  501 -0.00000000000E+00  0.00000000000E+00  0.44036844677E+03  0.44036844677E+03  0.00000000000E+00 0. -1.
          2   -1    0    0  501    0  0.00000000000E+00 -0.00000000000E+00 -0.72147598345E+03  0.72147598345E+03  0.00000000000E+00 0.  1.
         23    2    1    2    0    0 -0.81442459450E+02 -0.15977185495E+03  0.40561585243E+03  0.45209170356E+03  0.87765419448E+02 0.  0.
         13    1    3    3    0    0 -0.16772594771E+02 -0.10857638709E+03  0.28964148755E+03  0.30977789314E+03  0.00000000000E+00 0.  1.
        -13    1    3    3    0    0 -0.64669864679E+02 -0.51195467861E+02  0.11597436488E+03  0.14231381042E+03  0.00000000000E+00 0. -1.
         22    1    1    2    0    0  0.81442459450E+02  0.15977185495E+03 -0.68672338911E+03  0.70975272665E+03  0.00000000000E+00 0.  1.
<mgrwt>
<rscale>  0 0.11273247E+04</rscale>
<asrwt>0</asrwt>
<pdfrwt beam="1">  1        2 0.11099630E+00 0.11273247E+04</pdfrwt>
<pdfrwt beam="2">  1       -2 0.67748992E-01 0.11273247E+04</pdfrwt>
<totfact> 0.78049190E+01</totfact>
</mgrwt>
</event>
<event>
 6    1  0.2199033E-005  0.3878963E+04  0.7818608E-02  0.8029419E-01
         -2   -1    0    0    0  501 -0.00000000000E+00  0.00000000000E+00  0.13613532029E+04  0.13613532029E+04  0.00000000000E+00 0.  1.
          2   -1    0    0  501    0  0.00000000000E+00 -0.00000000000E+00 -0.27631252148E+04  0.27631252148E+04  0.00000000000E+00 0. -1.
         23    2    1    2    0    0  0.15412770734E+04  0.27851931899E+03 -0.19165900568E+04  0.24757984464E+04  0.56146890937E+02 0.  0.
         13    1    3    3    0    0  0.61687540455E+03  0.94982325159E+02 -0.72870278061E+03  0.95946060331E+03  0.00000000000E+00 0. -1.
        -13    1    3    3    0    0  0.92440166887E+03  0.18353699383E+03 -0.11878872762E+04  0.15163378431E+04  0.00000000000E+00 0.  1.
         22    1    1    2    0    0 -0.15412770734E+04 -0.27851931899E+03  0.51481804491E+03  0.16486799712E+04  0.00000000000E+00 0.  1.
<mgrwt>
<rscale>  0 0.38789634E+04</rscale>
<asrwt>0</asrwt>
<pdfrwt beam="1">  1        2 0.42509618E+00 0.38789634E+04</pdfrwt>
<pdfrwt beam="2">  1       -2 0.20943896E+00 0.38789634E+04</pdfrwt>
<totfact> 0.22383939E-01</totfact>
</mgrwt>
</event>
<event>
 6    1  0.1528034E-005  0.1534543E+04  0.7818608E-02  0.8861802E-01
         -2   -1    0    0    0  501 -0.00000000000E+00  0.00000000000E+00  0.59702695361E+03  0.59702695361E+03  0.00000000000E+00 0. -1.
          2   -1    0    0  501    0  0.00000000000E+00 -0.00000000000E+00 -0.98606139945E+03  0.98606139945E+03  0.00000000000E+00 0.  1.
         23    2    1    2    0    0 -0.39561934284E+03 -0.55713862656E+03 -0.54896209797E+03  0.88130849615E+03  0.91799600936E+02 0.  0.
         13    1    3    3    0    0 -0.17725278400E+03 -0.31533196482E+03 -0.25606450607E+03  0.44319502337E+03  0.00000000000E+00 0. -1.
        -13    1    3    3    0    0 -0.21836655885E+03 -0.24180666174E+03 -0.29289759190E+03  0.43811347277E+03  0.00000000000E+00 0.  1.
         22    1    1    2    0    0  0.39561934284E+03  0.55713862656E+03  0.15992765214E+03  0.70177985691E+03  0.00000000000E+00 0. -1.
<mgrwt>
<rscale>  0 0.15345426E+04</rscale>
<asrwt>0</asrwt>
<pdfrwt beam="1">  1        2 0.15170175E+00 0.15345426E+04</pdfrwt>
<pdfrwt beam="2">  1       -2 0.91850301E-01 0.15345426E+04</pdfrwt>
<totfact> 0.24990708E+01</totfact>
</mgrwt>
</event>
<event>
 6    1  0.1528034E-005  0.8670361E+03  0.7818608E-02  0.9467753E-01
          2   -1    0    0  501    0  0.00000000000E+00  0.00000000000E+00  0.12263739919E+04  0.12263739919E+04  0.00000000000E+00 0. -1.
         -2   -1    0    0    0  501 -0.00000000000E+00 -0.00000000000E+00 -0.15324679606E+03  0.15324679606E+03  0.00000000000E+00 0.  1.
         23    2    1    2    0    0 -0.36028270095E+03  0.99271544913E+01  0.19198828008E+03  0.42761870714E+03  0.12687035118E+03 0.  0.
         13    1    3    3    0    0 -0.22572025414E+03 -0.19983235777E+02  0.17973350855E+03  0.28922845112E+03  0.00000000000E+00 0.  1.
        -13    1    3    3    0    0 -0.13456244681E+03  0.29910390268E+02  0.12254771536E+02  0.13839025602E+03  0.00000000000E+00 0. -1.
         22    1    1    2    0    0  0.36028270095E+03 -0.99271544913E+01  0.88113891575E+03  0.95200208080E+03  0.00000000000E+00 0. -1.
<mgrwt>
<rscale>  0 0.86703607E+03</rscale>
<asrwt>0</asrwt>
<pdfrwt beam="1">  1        2 0.18867292E+00 0.86703607E+03</pdfrwt>
<pdfrwt beam="2">  1       -2 0.23576431E-01 0.86703607E+03</pdfrwt>
<totfact> 0.29204717E+02</totfact>
</mgrwt>
</event>
<event>
 6    1  0.1528034E-005  0.3979090E+04  0.7818608E-02  0.8008778E-01
         -1   -1    0    0    0  501 -0.00000000000E+00  0.00000000000E+00  0.19869954683E+04  0.19869954683E+04  0.00000000000E+00 0.  1.
          1   -1    0    0  501    0  0.00000000000E+00 -0.00000000000E+00 -0.19920976646E+04  0.19920976646E+04  0.00000000000E+00 0. -1.
         23    2    1    2    0    0 -0.40941058585E+03 -0.16890789276E+04 -0.96876881913E+03  0.19918191178E+04  0.90695763946E+02 0.  0.
         11    1    3    3    0    0 -0.33021378495E+02 -0.80354633303E+02 -0.65934174835E+02  0.10906233971E+03  0.00000000000E+00 0. -1.
        -11    1    3    3    0    0 -0.37638920735E+03 -0.16087242943E+04 -0.90283464430E+03  0.18827567781E+04  0.00000000000E+00 0.  1.
         22    1    1    2    0    0  0.40941058585E+03  0.16890789276E+04  0.96366662282E+03  0.19872740151E+04  0.00000000000E+00 0.  1.
<mgrwt>
<rscale>  0 0.39790899E+04</rscale>
<asrwt>0</asrwt>
<pdfrwt beam="1">  1        1 0.30647656E+00 0.39790899E+04</pdfrwt>
<pdfrwt beam="2">  1       -1 0.30569161E+00 0.39790899E+04</pdfrwt>
<totfact> 0.71739533E-02</totfact>
</mgrwt>
</event>
<event>
 6    1  0.1528034E-005  0.2293955E+04  0.7818608E-02  0.8480308E-01
         -1   -1    0    0    0  501 -0.00000000000E+00  0.00000000000E+00  0.19936140282E+04  0.19936140282E+04  0.00000000000E+00 0.  1.
          1   -1    0    0  501    0  0.00000000000E+00 -0.00000000000E+00 -0.65988556218E+03  0.65988556218E+03  0.00000000000E+00 0. -1.
         23    2    1    2    0    0  0.15866454458E+03 -0.15150854219E+03  0.19680178488E+04  0.19823421594E+04  0.91961445794E+02 0.  0.
         11    1    3    3    0    0  0.11449037645E+03 -0.15476440141E+03  0.15207431848E+04  0.15328796105E+04  0.00000000000E+00 0.  1.
        -11    1    3    3    0    0  0.44174168127E+02  0.32558592165E+01  0.44727466406E+03  0.44946254889E+03  0.00000000000E+00 0. -1.
         22    1    1    2    0    0 -0.15866454458E+03  0.15150854219E+03 -0.63428938280E+03  0.67115743100E+03  0.00000000000E+00 0. -1.
<mgrwt>
<rscale>  0 0.22939548E+04</rscale>
<asrwt>0</asrwt>
<pdfrwt beam="1">  1        1 0.10152086E+00 0.22939548E+04</pdfrwt>
<pdfrwt beam="2">  1       -1 0.30670985E+00 0.22939548E+04</pdfrwt>
<totfact> 0.80477510E-01</totfact>
</mgrwt>
</event>
<event>
 6    1  0.1528034E-005  0.4124870E+04  0.7818608E-02  0.7979819E-01
          2   -1    0    0  501    0  0.00000000000E+00  0.00000000000E+00  0.23256167349E+04  0.23256167349E+04  0.00000000000E+00 0. -1.
         -2   -1    0    0    0  501 -0.00000000000E+00 -0.00000000000E+00 -0.18290368097E+04  0.18290368097E+04  0.00000000000E+00 0.  1.
         23    2    1    2    0    0 -0.19619467723E+04  0.33231034808E+02  0.88410953852E+03  0.21545238888E+04  0.99920330352E+02 0.  0.
         13    1    3    3    0    0 -0.12051518488E+04 -0.68093426163E+01  0.49839338430E+03  0.13041600022E+04  0.00000000000E+00 0.  1.
        -13    1    3    3    0    0 -0.75679492343E+03  0.40040377424E+02  0.38571615422E+03  0.85036388657E+03  0.00000000000E+00 0. -1.
         22    1    1    2    0    0  0.19619467723E+04 -0.33231034808E+02 -0.38752961323E+03  0.20001296558E+04  0.00000000000E+00 0.  1.
<mgrwt>
<rscale>  0 0.41248702E+04</rscale>
<asrwt>0</asrwt>
<pdfrwt beam="1">  1        2 0.35778719E+00 0.41248702E+04</pdfrwt>
<pdfrwt beam="2">  1       -2 0.28139028E+00 0.41248702E+04</pdfrwt>
<totfact> 0.14140885E-01</totfact>
</mgrwt>
</event>
<event>
 6    1  0.1528034E-005  0.2608881E+04  0.7818608E-02  0.8365191E-01
         -1   -1    0    0    0  501 -0.00000000000E+00  0.00000000000E+00  0.75021929001E+03  0.75021929001E+03  0.00000000000E+00 0.  1.
          1   -1    0    0  501    0  0.00000000000E+00 -0.00000000000E+00 -0.22680909944E+04  0.22680909944E+04  0.00000000000E+00 0. -1.
         23    2    1    2    0    0 -0.25688710011E+03  0.98873609240E+03 -0.16952965114E+04  0.19814546509E+04  0.92424182104E+02 0.  0.
         13    1    3    3    0    0 -0.14295592144E+03  0.71613990013E+03 -0.12015205996E+04  0.14060385853E+04  0.00000000000E+00 0. -1.
        -13    1    3    3    0    0 -0.11393117867E+03  0.27259619227E+03 -0.49377591174E+03  0.57541606558E+03  0.00000000000E+00 0.  1.
         22    1    1    2    0    0  0.25688710011E+03 -0.98873609240E+03  0.17742480700E+03  0.10368556335E+04  0.00000000000E+00 0.  1.
<mgrwt>
<rscale>  0 0.26088815E+04</rscale>
<asrwt>0</asrwt>
<pdfrwt beam="1">  1        1 0.34893708E+00 0.26088815E+04</pdfrwt>
<pdfrwt beam="2">  1       -1 0.11541835E+00 0.26088815E+04</pdfrwt>
<totfact> 0.11716711E+00</totfact>
</mgrwt>
</event>
<event>
 6    1  0.1528034E-005  0.3657075E+04  0.7818608E-02  0.8077542E-01
         -2   -1    0    0    0  501 -0.00000000000E+00  0.00000000000E+00  0.11000520555E+04  0.11000520555E+04  0.00000000000E+00 0.  1.
          2   -1    0    0  501    0  0.00000000000E+00 -0.00000000000E+00 -0.30394470866E+04  0.30394470866E+04  0.00000000000E+00 0. -1.
         23    2    1    2    0    0 -0.31260298425E+03 -0.13300184961E+04  0.40334099791E+03  0.14274737132E+04  0.91254672943E+02 0.  0.
         13    1    3    3    0    0 -0.19493105628E+03 -0.66255758105E+03  0.17750385620E+03  0.71308364437E+03  0.00000000000E+00 0. -1.
        -13    1    3    3    0    0 -0.11767192798E+03 -0.66746091508E+03  0.22583714171E+03  0.71439006878E+03  0.00000000000E+00 0.  1.
         22    1    1    2    0    0  0.31260298425E+03  0.13300184961E+04 -0.23427360290E+04  0.27120254290E+04  0.00000000000E+00 0. -1.
<mgrwt>
<rscale>  0 0.36570753E+04</rscale>
<asrwt>0</asrwt>
<pdfrwt beam="1">  1        2 0.46760724E+00 0.36570753E+04</pdfrwt>
<pdfrwt beam="2">  1       -2 0.16923878E+00 0.36570753E+04</pdfrwt>
<totfact> 0.28767400E-01</totfact>
</mgrwt>
</event>
<event>
 6    1  0.1528034E-005  0.3168994E+04  0.7818608E-02  0.8197054E-01
         -1   -1    0    0    0  501 -0.00000000000E+00  0.00000000000E+00  0.15378599035E+04  0.15378599035E+04  0.00000000000E+00 0.  1.
          1   -1    0    0  501    0  0.00000000000E+00 -0.00000000000E+00 -0.16325488945E+04  0.16325488945E+04  0.00000000000E+00 0. -1.
         23    2    1    2    0    0 -0.50976630882E+03  0.12199004966E+04 -0.91869208203E+03  0.16125256171E+04  0.90690754202E+02 0.  0.
         13    1    3    3    0    0 -0.32452981904E+03  0.78377058453E+03 -0.64165864971E+03  0.10636455027E+04  0.00000000000E+00 0. -1.
        -13    1    3    3    0    0 -0.18523648978E+03  0.43612991206E+03 -0.27703343233E+03  0.54888011438E+03  0.00000000000E+00 0.  1.
         22    1    1    2    0    0  0.50976630882E+03 -0.12199004966E+04  0.82400309103E+03  0.15578831809E+04  0.00000000000E+00 0.  1.
<mgrwt>
<rscale>  0 0.31689945E+04</rscale>
<asrwt>0</asrwt>
<pdfrwt beam="1">  1        1 0.25116137E+00 0.31689945E+04</pdfrwt>
<pdfrwt beam="2">  1       -1 0.23659383E+00 0.31689945E+04</pdfrwt>
<totfact> 0.37959644E-01</totfact>
</mgrwt>
</event>
<event>
 6    1  0.1528034E-005  0.2954748E+04  0.7818608E-02  0.8256772E-01
          2   -1    0    0  501    0  0.00000000000E+00  0.00000000000E+00  0.33030624758E+04  0.33030624758E+04  0.00000000000E+00 0. -1.
         -2   -1    0    0    0  501 -0.00000000000E+00 -0.00000000000E+00 -0.66079116522E+03  0.66079116522E+03  0.00000000000E+00 0.  1.
         23    2    1    2    0    0  0.45569477657E+03  0.95722448931E+02  0.32013524749E+04  0.32362601659E+04  0.88891376064E+02 0.  0.
         11    1    3    3    0    0  0.39095058757E+03  0.54004380754E+02  0.25480470211E+04  0.25784302311E+04  0.00000000000E+00 0.  1.
        -11    1    3    3    0    0  0.64744188999E+02  0.41718068177E+02  0.65330545379E+03  0.65782993484E+03  0.00000000000E+00 0. -1.
         22    1    1    2    0    0 -0.45569477657E+03 -0.95722448931E+02 -0.55908116432E+03  0.72759347504E+03  0.00000000000E+00 0.  1.
<mgrwt>
<rscale>  0 0.29547484E+04</rscale>
<asrwt>0</asrwt>
<pdfrwt beam="1">  1        2 0.50816345E+00 0.29547484E+04</pdfrwt>
<pdfrwt beam="2">  1       -2 0.10166018E+00 0.29547484E+04</pdfrwt>
<totfact> 0.75603164E-01</totfact>
</mgrwt>
</event>
<event>
 6    1  0.1528034E-005  0.1601058E+04  0.7818608E-02  0.8819898E-01
          2   -1    0    0  501    0  0.00000000000E+00  0.00000000000E+00  0.19729280445E+04  0.19729280445E+04  0.00000000000E+00 0. -1.
         -2   -1    0    0    0  501 -0.00000000000E+00 -0.00000000000E+00 -0.32482009041E+03  0.32482009041E+03  0.00000000000E+00 0.  1.
         23    2    1    2    0    0 -0.47806680045E+03  0.57082485862E+03  0.12385807030E+04  0.14479826059E+04  0.90457637990E+02 0.  0.
         11    1    3    3    0    0 -0.15263573562E+03  0.22973471807E+03  0.39806935394E+03  0.48428805377E+03  0.00000000000E+00 0. -1.
        -11    1    3    3    0    0 -0.32543106483E+03  0.34109014054E+03  0.84051134906E+03  0.96369455215E+03  0.00000000000E+00 0.  1.
         22    1    1    2    0    0  0.47806680045E+03 -0.57082485862E+03  0.40952725110E+03  0.84976552901E+03  0.00000000000E+00 0.  1.
<mgrwt>
<rscale>  0 0.16010580E+04</rscale>
<asrwt>0</asrwt>
<pdfrwt beam="1">  1        2 0.30352738E+00 0.16010580E+04</pdfrwt>
<pdfrwt beam="2">  1       -2 0.49972323E-01 0.16010580E+04</pdfrwt>
<totfact> 0.25131361E+01</totfact>
</mgrwt>
</event>
<event>
 6    1  0.1528034E-005  0.4085117E+04  0.7818608E-02  0.7987592E-01
          2   -1    0    0  501    0  0.00000000000E+00  0.00000000000E+00  0.26680581034E+04  0.26680581034E+04  0.00000000000E+00 0. -1.
         -2   -1    0    0    0  501 -0.00000000000E+00 -0.00000000000E+00 -0.15637010285E+04  0.15637010285E+04  0.00000000000E+00 0.  1.
         23    2    1    2    0    0  0.76139228776E+03 -0.18788106165E+04  0.30253048652E+03  0.20517193555E+04  0.91542722231E+02 0.  0.
         11    1    3    3    0    0  0.38884574051E+03 -0.83945728525E+03  0.14473990664E+03  0.93639691598E+03  0.00000000000E+00 0. -1.
        -11    1    3    3    0    0  0.37254654726E+03 -0.10393533312E+04  0.15779057988E+03  0.11153224395E+04  0.00000000000E+00 0.  1.
         22    1    1    2    0    0 -0.76139228776E+03  0.18788106165E+04  0.80182658838E+03  0.21800397763E+04  0.00000000000E+00 0. -1.
<mgrwt>
<rscale>  0 0.40851170E+04</rscale>
<asrwt>0</asrwt>
<pdfrwt beam="1">  1        2 0.41047048E+00 0.40851170E+04</pdfrwt>
<pdfrwt beam="2">  1       -2 0.24056939E+00 0.40851170E+04</pdfrwt>
<totfact> 0.15968908E-01</totfact>
</mgrwt>
</event>
<event>
 6    1  0.1528034E-005  0.3865475E+04  0.7818608E-02  0.8032248E-01
          1   -1    0    0  501    0  0.00000000000E+00  0.00000000000E+00  0.21098525348E+04  0.21098525348E+04  0.00000000000E+00 0. -1.
         -1   -1    0    0    0  501 -0.00000000000E+00 -0.00000000000E+00 -0.17704902880E+04  0.17704902880E+04  0.00000000000E+00 0.  1.
         23    2    1    2    0    0  0.11832583395E+04  0.66656207052E+03 -0.12090946499E+04  0.18207010936E+04  0.92937117094E+02 0.  0.
         13    1    3    3    0    0  0.62663315658E+03  0.34884331634E+03 -0.70020620865E+03  0.10023220575E+04  0.00000000000E+00 0. -1.
        -13    1    3    3    0    0  0.55662518292E+03  0.31771875417E+03 -0.50888844127E+03  0.81837903607E+03  0.00000000000E+00 0.  1.
         22    1    1    2    0    0 -0.11832583395E+04 -0.66656207052E+03  0.15484568967E+04  0.20596417292E+04  0.00000000000E+00 0. -1.
<mgrwt>
<rscale>  0 0.38654746E+04</rscale>
<asrwt>0</asrwt>
<pdfrwt beam="1">  1        1 0.32459270E+00 0.38654746E+04</pdfrwt>
<pdfrwt beam="2">  1       -1 0.27238312E+00 0.38654746E+04</pdfrwt>
<totfact> 0.99023804E-02</totfact>
</mgrwt>
</event>
<event>
 6    1  0.1528034E-005  0.9651030E+03  0.7818608E-02  0.9347670E-01
          2   -1    0    0  501    0  0.00000000000E+00  0.00000000000E+00  0.61548404508E+03  0.61548404508E+03  0.00000000000E+00 0. -1.
         -2   -1    0    0    0  501 -0.00000000000E+00 -0.00000000000E+00 -0.37832982613E+03  0.37832982613E+03  0.00000000000E+00 0.  1.
         23    2    1    2    0    0 -0.35621727079E+03 -0.24334531050E+03  0.33122932675E+03  0.55227360117E+03  0.95841428951E+02 0.  0.
         13    1    3    3    0    0 -0.26776757583E+03 -0.20976733533E+03  0.29730792109E+03  0.45176742864E+03  0.00000000000E+00 0.  1.
        -13    1    3    3    0    0 -0.88449694967E+02 -0.33577975164E+02  0.33921405661E+02  0.10050617254E+03  0.00000000000E+00 0. -1.
         22    1    1    2    0    0  0.35621727079E+03  0.24334531050E+03 -0.94075107805E+02  0.44154027003E+03  0.00000000000E+00 0.  1.
<mgrwt>
<rscale>  0 0.96510304E+03</rscale>
<asrwt>0</asrwt>
<pdfrwt beam="1">  1        2 0.94689854E-01 0.96510304E+03</pdfrwt>
<pdfrwt beam="2">  1       -2 0.58204588E-01 0.96510304E+03</pdfrwt>
<totfact> 0.13287381E+02</totfact>
</mgrwt>
</event>
<event>
 6    1  0.1528034E-005  0.1076689E+04  0.7818608E-02  0.9228215E-01
         -1   -1    0    0    0  501 -0.00000000000E+00  0.00000000000E+00  0.11073228578E+04  0.11073228578E+04  0.00000000000E+00 0.  1.
          1   -1    0    0  501    0  0.00000000000E+00 -0.00000000000E+00 -0.26172543961E+03  0.26172543961E+03  0.00000000000E+00 0. -1.
         23    2    1    2    0    0  0.25698313550E+03  0.10575075332E+03 -0.15482431396E+03  0.33074815009E+03  0.90555048649E+02 0.  0.
         11    1    3    3    0    0  0.13275066937E+03  0.15213156621E+02 -0.10235475867E+03  0.16831719156E+03  0.00000000000E+00 0. -1.
        -11    1    3    3    0    0  0.12423246614E+03  0.90537596697E+02 -0.52469555289E+02  0.16243095853E+03  0.00000000000E+00 0.  1.
         22    1    1    2    0    0 -0.25698313550E+03 -0.10575075332E+03  0.10004217321E+04  0.10383001473E+04  0.00000000000E+00 0.  1.
<mgrwt>
<rscale>  0 0.10766886E+04</rscale>
<asrwt>0</asrwt>
<pdfrwt beam="1">  1        1 0.40265453E-01 0.10766886E+04</pdfrwt>
<pdfrwt beam="2">  1       -1 0.17035736E+00 0.10766886E+04</pdfrwt>
<totfact> 0.25576944E+01</totfact>
</mgrwt>
</event>
<event>
 6    1  0.1528034E-005  0.1400041E+04  0.7818608E-02  0.8953789E-01
         -1   -1    0    0    0  501 -0.00000000000E+00  0.00000000000E+00  0.21182722627E+03  0.21182722627E+03  0.00000000000E+00 0.  1.
          1   -1    0    0  501    0  0.00000000000E+00 -0.00000000000E+00 -0.23133410132E+04  0.23133410132E+04  0.00000000000E+00 0. -1.
         23    2    1    2    0    0  0.51238629459E+03  0.28464685446E+03 -0.17355046680E+04  0.18341355183E+04  0.92266462558E+02 0.  0.
         11    1    3    3    0    0  0.44465600566E+03  0.22302187898E+03 -0.13762319819E+04  0.14633769814E+04  0.00000000000E+00 0. -1.
        -11    1    3    3    0    0  0.67730288938E+02  0.61624975480E+02 -0.35927268613E+03  0.37075853684E+03  0.00000000000E+00 0.  1.
         22    1    1    2    0    0 -0.51238629459E+03 -0.28464685446E+03 -0.36600911897E+03  0.69103272123E+03  0.00000000000E+00 0.  1.
<mgrwt>
<rscale>  0 0.14000409E+04</rscale>
<asrwt>0</asrwt>
<pdfrwt beam="1">  1        1 0.35589859E+00 0.14000409E+04</pdfrwt>
<pdfrwt beam="2">  1       -1 0.32588807E-01 0.14000409E+04</pdfrwt>
<totfact> 0.15700407E+01</totfact>
</mgrwt>
</event>
<event>
 6    1  0.1528034E-005  0.4152914E+04  0.7818608E-02  0.7974390E-01
          1   -1    0    0  501    0  0.00000000000E+00  0.00000000000E+00  0.12511304730E+04  0.12511304730E+04  0.00000000000E+00 0. -1.
         -1   -1    0    0    0  501 -0.00000000000E+00 -0.00000000000E+00 -0.34462223246E+04  0.34462223246E+04  0.00000000000E+00 0.  1.
         23    2    1    2    0    0 -0.10953115456E+04 -0.76260946426E+03 -0.28958384544E+04  0.31899290423E+04  0.92121463473E+02 0.  0.
         11    1    3    3    0    0 -0.80629509673E+03 -0.51613186479E+03 -0.20283133699E+04  0.22428907712E+04  0.00000000000E+00 0. -1.
        -11    1    3    3    0    0 -0.28901644883E+03 -0.24647759947E+03 -0.86752508446E+03  0.94703827108E+03  0.00000000000E+00 0.  1.
         22    1    1    2    0    0  0.10953115456E+04  0.76260946426E+03  0.70074660279E+03  0.15074237553E+04  0.00000000000E+00 0. -1.
<mgrwt>
<rscale>  0 0.41529140E+04</rscale>
<asrwt>0</asrwt>
<pdfrwt beam="1">  1        1 0.19248161E+00 0.41529140E+04</pdfrwt>
<pdfrwt beam="2">  1       -1 0.53018805E+00 0.41529140E+04</pdfrwt>
<totfact> 0.73686264E-03</totfact>
</mgrwt>
</event>
<event>
 6    1  0.1528034E-005  0.1684562E+04  0.7818608E-02  0.8770219E-01
         -2   -1    0    0    0  501 -0.00000000000E+00  0.00000000000E+00  0.40181730942E+03  0.40181730942E+03  0.00000000000E+00 0.  1.
          2   -1    0    0  501    0  0.00000000000E+00 -0.00000000000E+00 -0.17655708629E+04  0.17655708629E+04  0.00000000000E+00 0. -1.
         23    2    1    2    0    0 -0.59700509064E+03 -0.67164315894E+02  0.71204463163E+02  0.61174340789E+03  0.90740277370E+02 0.  0.
         11    1    3    3    0    0 -0.19182754105E+03  0.41131533324E+01  0.56758591014E+02  0.20009063244E+03  0.00000000000E+00 0. -1.
        -11    1    3    3    0    0 -0.40517754959E+03 -0.71277469226E+02  0.14445872149E+02  0.41165277545E+03  0.00000000000E+00 0.  1.
         22    1    1    2    0    0  0.59700509064E+03  0.67164315894E+02 -0.14349580166E+04  0.15556447644E+04  0.00000000000E+00 0. -1.
<mgrwt>
<rscale>  0 0.16845616E+04</rscale>
<asrwt>0</asrwt>
<pdfrwt beam="1">  1        2 0.27162628E+00 0.16845616E+04</pdfrwt>
<pdfrwt beam="2">  1       -2 0.61818048E-01 0.16845616E+04</pdfrwt>
<totfact> 0.20880570E+01</totfact>
</mgrwt>
</event>
<event>
 6    1  0.1528034E-005  0.3581486E+04  0.7818608E-02  0.8094746E-01
         -1   -1    0    0    0  501 -0.00000000000E+00  0.00000000000E+00  0.11451195837E+04  0.11451195837E+04  0.00000000000E+00 0.  1.
          1   -1    0    0  501    0  0.00000000000E+00 -0.00000000000E+00 -0.28003709894E+04  0.28003709894E+04  0.00000000000E+00 0. -1.
         23    2    1    2    0    0  0.31612044902E+03  0.11381771212E+04  0.65277789888E+03  0.13527355580E+04  0.91625362742E+02 0.  0.
         13    1    3    3    0    0  0.30434434870E+03  0.10087457109E+04  0.59954445933E+03  0.12122899614E+04  0.00000000000E+00 0. -1.
        -13    1    3    3    0    0  0.11776100319E+02  0.12943141036E+03  0.53233439549E+02  0.14044559663E+03  0.00000000000E+00 0.  1.
         22    1    1    2    0    0 -0.31612044902E+03 -0.11381771212E+04 -0.23080293046E+04  0.25927550151E+04  0.00000000000E+00 0. -1.
<mgrwt>
<rscale>  0 0.35814855E+04</rscale>
<asrwt>0</asrwt>
<pdfrwt beam="1">  1        1 0.43082630E+00 0.35814855E+04</pdfrwt>
<pdfrwt beam="2">  1       -1 0.17617225E+00 0.35814855E+04</pdfrwt>
<totfact> 0.14961903E-01</totfact>
</mgrwt>
</event>
<event>
 6    1  0.1528034E-005  0.1276756E+04  0.7818608E-02  0.9048203E-01
         -2   -1    0    0    0  501 -0.00000000000E+00  0.00000000000E+00  0.10143658597E+04  0.10143658597E+04  0.00000000000E+00 0.  1.
          2   -1    0    0  501    0  0.00000000000E+00 -0.00000000000E+00 -0.40175519152E+03  0.40175519152E+03  0.00000000000E+00 0. -1.
         23    2    1    2    0    0  0.14076088843E+03  0.13386917107E+03 -0.36215021036E+03  0.42219280783E+03  0.96744040873E+02 0.  0.
         13    1    3    3    0    0  0.36522984614E+02  0.97524042431E+02 -0.14410529031E+03  0.17779539351E+03  0.00000000000E+00 0. -1.
        -13    1    3    3    0    0  0.10423790381E+03  0.36345128637E+02 -0.21804492004E+03  0.24439741432E+03  0.00000000000E+00 0.  1.
         22    1    1    2    0    0 -0.14076088843E+03 -0.13386917107E+03  0.97476087857E+03  0.99392824342E+03  0.00000000000E+00 0.  1.
<mgrwt>
<rscale>  0 0.12767564E+04</rscale>
<asrwt>0</asrwt>
<pdfrwt beam="1">  1        2 0.61808491E-01 0.12767564E+04</pdfrwt>
<pdfrwt beam="2">  1       -2 0.15605629E+00 0.12767564E+04</pdfrwt>
<totfact> 0.20914946E+01</totfact>
</mgrwt>
</event>
<event>
 6    1  0.1528034E-005  0.3898988E+04  0.7818608E-02  0.8025240E-01
          1   -1    0    0  501    0  0.00000000000E+00  0.00000000000E+00  0.21109254624E+04  0.21109254624E+04  0.00000000000E+00 0. -1.
         -1   -1    0    0    0  501 -0.00000000000E+00 -0.00000000000E+00 -0.18004081366E+04  0.18004081366E+04  0.00000000000E+00 0.  1.
         23    2    1    2    0    0  0.48982541795E+03 -0.66385383686E+03  0.19251338243E+04  0.20981548175E+04  0.12442885490E+03 0.  0.
         11    1    3    3    0    0  0.29422639638E+03 -0.34609317784E+03  0.11897701005E+04  0.12735393799E+04  0.00000000000E+00 0. -1.
        -11    1    3    3    0    0  0.19559902156E+03 -0.31776065903E+03  0.73536372375E+03  0.82461543756E+03  0.00000000000E+00 0.  1.
         22    1    1    2    0    0 -0.48982541795E+03  0.66385383686E+03 -0.16146164985E+04  0.18131787816E+04  0.00000000000E+00 0.  1.
<mgrwt>
<rscale>  0 0.38989883E+04</rscale>
<asrwt>0</asrwt>
<pdfrwt beam="1">  1        1 0.32475776E+00 0.38989883E+04</pdfrwt>
<pdfrwt beam="2">  1       -1 0.27698587E+00 0.38989883E+04</pdfrwt>
<totfact> 0.92038301E-02</totfact>
</mgrwt>
</event>
<event>
 6    1  0.1528034E-005  0.5149110E+04  0.7818608E-02  0.7805908E-01
          2   -1    0    0  501    0  0.00000000000E+00  0.00000000000E+00  0.29764806433E+04  0.29764806433E+04  0.00000000000E+00 0. -1.
         -2   -1    0    0    0  501 -0.00000000000E+00 -0.00000000000E+00 -0.22269031930E+04  0.22269031930E+04  0.00000000000E+00 0.  1.
         23    2    1    2    0    0 -0.66547551940E+03  0.23691047671E+04 -0.38723978237E+03  0.24926886331E+04  0.89593014589E+02 0.  0.
         13    1    3    3    0    0 -0.42247289806E+03  0.13578200913E+04 -0.20351963165E+03  0.14365162688E+04  0.00000000000E+00 0. -1.
        -13    1    3    3    0    0 -0.24300262134E+03  0.10112846758E+04 -0.18372015072E+03  0.10561723643E+04  0.00000000000E+00 0.  1.
         22    1    1    2    0    0  0.66547551940E+03 -0.23691047671E+04  0.11368172326E+04  0.27106952032E+04  0.00000000000E+00 0. -1.
<mgrwt>
<rscale>  0 0.51491103E+04</rscale>
<asrwt>0</asrwt>
<pdfrwt beam="1">  1        2 0.45792010E+00 0.51491103E+04</pdfrwt>
<pdfrwt beam="2">  1       -2 0.34260049E+00 0.51491103E+04</pdfrwt>
<totfact> 0.22434853E-02</totfact>
</mgrwt>
</event>
<event>
 6    1  0.1528034E-005  0.1542677E+04  0.7818608E-02  0.8856559E-01
         -2   -1    0    0    0  501 -0.00000000000E+00  0.00000000000E+00  0.65238170148E+03  0.65238170148E+03  0.00000000000E+00 0.  1.
          2   -1    0    0  501    0  0.00000000000E+00 -0.00000000000E+00 -0.91198608294E+03  0.91198608294E+03  0.00000000000E+00 0. -1.
         23    2    1    2    0    0  0.34843544608E+03  0.45254130830E+03  0.39159156180E+03  0.69819398412E+03  0.89050504727E+02 0.  0.
         13    1    3    3    0    0  0.22794478265E+03  0.33461437932E+03  0.23522761429E+03  0.46824954598E+03  0.00000000000E+00 0. -1.
        -13    1    3    3    0    0  0.12049066343E+03  0.11792692897E+03  0.15636394751E+03  0.22994443814E+03  0.00000000000E+00 0.  1.
         22    1    1    2    0    0 -0.34843544608E+03 -0.45254130830E+03 -0.65119594327E+03  0.86617380030E+03  0.00000000000E+00 0. -1.
<mgrwt>
<rscale>  0 0.15426769E+04</rscale>
<asrwt>0</asrwt>
<pdfrwt beam="1">  1        2 0.14030555E+00 0.15426769E+04</pdfrwt>
<pdfrwt beam="2">  1       -2 0.10036642E+00 0.15426769E+04</pdfrwt>
<totfact> 0.22701999E+01</totfact>
</mgrwt>
</event>
<event>
 6    1  0.1528034E-005  0.4452906E+04  0.7818608E-02  0.7918934E-01
          1   -1    0    0  501    0  0.00000000000E+00  0.00000000000E+00  0.43321804129E+04  0.43321804129E+04  0.00000000000E+00 0. -1.
         -1   -1    0    0    0  501 -0.00000000000E+00 -0.00000000000E+00 -0.11442489004E+04  0.11442489004E+04  0.00000000000E+00 0.  1.
         23    2    1    2    0    0 -0.20575753558E+04  0.15683353938E+02  0.26373158148E+04  0.33463964593E+04  0.95248326939E+02 0.  0.
         13    1    3    3    0    0 -0.14890100772E+04  0.45374640060E+02  0.19492643034E+04  0.24533326706E+04  0.00000000000E+00 0. -1.
        -13    1    3    3    0    0 -0.56856527858E+03 -0.29691286122E+02  0.68805151143E+03  0.89306378879E+03  0.00000000000E+00 0.  1.
         22    1    1    2    0    0  0.20575753558E+04 -0.15683353938E+02  0.55061569764E+03  0.21300328539E+04  0.00000000000E+00 0.  1.
<mgrwt>
<rscale>  0 0.44529059E+04</rscale>
<asrwt>0</asrwt>
<pdfrwt beam="1">  1        1 0.66648928E+00 0.44529059E+04</pdfrwt>
<pdfrwt beam="2">  1       -1 0.17603830E+00 0.44529059E+04</pdfrwt>
<totfact> 0.78986233E-03</totfact>
</mgrwt>
</event>
<event>
 6    1  0.1528034E-005  0.5487815E+04  0.7818608E-02  0.7757368E-01
         -2   -1    0    0    0  501 -0.00000000000E+00  0.00000000000E+00  0.18412365276E+04  0.18412365276E+04  0.00000000000E+00 0.  1.
          2   -1    0    0  501    0  0.00000000000E+00 -0.00000000000E+00 -0.40891151928E+04  0.40891151928E+04  0.00000000000E+00 0. -1.
         23    2    1    2    0    0 -0.10110431492E+04 -0.14381793649E+04 -0.33998619187E+04  0.38285349940E+04  0.89727359000E+02 0.  0.
         11    1    3    3    0    0 -0.65812041650E+03 -0.89727403004E+03 -0.22309200883E+04  0.24930358217E+04  0.00000000000E+00 0.  1.
        -11    1    3    3    0    0 -0.35292273270E+03 -0.54090533487E+03 -0.11689418304E+04  0.13354991723E+04  0.00000000000E+00 0. -1.
         22    1    1    2    0    0  0.10110431492E+04  0.14381793649E+04  0.11519832534E+04  0.21018167264E+04  0.00000000000E+00 0.  1.
<mgrwt>
<rscale>  0 0.54878150E+04</rscale>
<asrwt>0</asrwt>
<pdfrwt beam="1">  1        2 0.62909464E+00 0.54878150E+04</pdfrwt>
<pdfrwt beam="2">  1       -2 0.28326716E+00 0.54878150E+04</pdfrwt>
<totfact> 0.80950582E-03</totfact>
</mgrwt>
</event>
<event>
 6    1  0.1528034E-005  0.1308195E+04  0.7818608E-02  0.9023092E-01
         -2   -1    0    0    0  501 -0.00000000000E+00  0.00000000000E+00  0.35728217354E+03  0.35728217354E+03  0.00000000000E+00 0.  1.
          2   -1    0    0  501    0  0.00000000000E+00 -0.00000000000E+00 -0.11974940880E+04  0.11974940880E+04  0.00000000000E+00 0. -1.
         23    2    1    2    0    0 -0.25947445910E+02  0.32580396962E+03 -0.10911740658E+04  0.11427040616E+04  0.91050721789E+02 0.  0.
         13    1    3    3    0    0  0.21713954881E+02  0.23659833963E+03 -0.79439779588E+03  0.82916712926E+03  0.00000000000E+00 0. -1.
        -13    1    3    3    0    0 -0.47661400791E+02  0.89205629988E+02 -0.29677626993E+03  0.31353693234E+03  0.00000000000E+00 0.  1.
         22    1    1    2    0    0  0.25947445910E+02 -0.32580396962E+03  0.25096215133E+03  0.41207219995E+03  0.00000000000E+00 0.  1.
<mgrwt>
<rscale>  0 0.13081946E+04</rscale>
<asrwt>0</asrwt>
<pdfrwt beam="1">  1        2 0.18422986E+00 0.13081946E+04</pdfrwt>
<pdfrwt beam="2">  1       -2 0.54966487E-01 0.13081946E+04</pdfrwt>
<totfact> 0.57953315E+01</totfact>
</mgrwt>
</event>
<event>
 6    1  0.1528034E-005  0.1341912E+04  0.7818608E-02  0.8996973E-01
         -1   -1    0    0    0  501 -0.00000000000E+00  0.00000000000E+00  0.40231664418E+03  0.40231664418E+03  0.00000000000E+00 0.  1.
          1   -1    0    0  501    0  0.00000000000E+00 -0.00000000000E+00 -0.11189739394E+04  0.11189739394E+04  0.00000000000E+00 0. -1.
         23    2    1    2    0    0  0.52990891673E+03  0.40189747672E+03 -0.28677913293E+03  0.72938132350E+03  0.86196300095E+02 0.  0.
         13    1    3    3    0    0  0.45274065495E+03  0.32662861462E+03 -0.27054947171E+03  0.62036873646E+03  0.00000000000E+00 0.  1.
        -13    1    3    3    0    0  0.77168261779E+02  0.75268862107E+02 -0.16229661221E+02  0.10901258704E+03  0.00000000000E+00 0. -1.
         22    1    1    2    0    0 -0.52990891673E+03 -0.40189747672E+03 -0.42987816233E+03  0.79190926013E+03  0.00000000000E+00 0.  1.
<mgrwt>
<rscale>  0 0.13419118E+04</rscale>
<asrwt>0</asrwt>
<pdfrwt beam="1">  1        1 0.17214983E+00 0.13419118E+04</pdfrwt>
<pdfrwt beam="2">  1       -1 0.61894870E-01 0.13419118E+04</pdfrwt>
<totfact> 0.31815166E+01</totfact>
</mgrwt>
</event>
<event>
 6    1  0.1528034E-005  0.1147284E+04  0.7818608E-02  0.9160292E-01
          1   -1    0    0  501    0  0.00000000000E+00  0.00000000000E+00  0.98031821685E+03  0.98031821685E+03  0.00000000000E+00 0. -1.
         -1   -1    0    0    0  501 -0.00000000000E+00 -0.00000000000E+00 -0.33567203736E+03  0.33567203736E+03  0.00000000000E+00 0.  1.
         23    2    1    2    0    0 -0.27402397156E+03 -0.46971097193E+03  0.51718798776E+03  0.75745366206E+03  0.10264064177E+03 0.  0.
         13    1    3    3    0    0 -0.25888437498E+03 -0.37473429313E+03  0.40298097020E+03  0.60814519023E+03  0.00000000000E+00 0.  1.
        -13    1    3    3    0    0 -0.15139596582E+02 -0.94976678791E+02  0.11420701756E+03  0.14930847182E+03  0.00000000000E+00 0. -1.
         22    1    1    2    0    0  0.27402397156E+03  0.46971097193E+03  0.12745819173E+03  0.55853659216E+03  0.00000000000E+00 0. -1.
<mgrwt>
<rscale>  0 0.11472845E+04</rscale>
<asrwt>0</asrwt>
<pdfrwt beam="1">  1        1 0.15081819E+00 0.11472845E+04</pdfrwt>
<pdfrwt beam="2">  1       -1 0.51641853E-01 0.11472845E+04</pdfrwt>
<totfact> 0.58756454E+01</totfact>
</mgrwt>
</event>
<event>
 6    1  0.1528034E-005  0.4107653E+04  0.7818608E-02  0.7983175E-01
         -2   -1    0    0    0  501 -0.00000000000E+00  0.00000000000E+00  0.18697151611E+04  0.18697151611E+04  0.00000000000E+00 0.  1.
          2   -1    0    0  501    0  0.00000000000E+00 -0.00000000000E+00 -0.22560671484E+04  0.22560671484E+04  0.00000000000E+00 0. -1.
         23    2    1    2    0    0 -0.14398736899E+04  0.11610800944E+04  0.70075468055E+03  0.19802883954E+04  0.95612645571E+02 0.  0.
         13    1    3    3    0    0 -0.97581058486E+02  0.50188882220E+02  0.45377618192E+02  0.11874390556E+03  0.00000000000E+00 0. -1.
        -13    1    3    3    0    0 -0.13422926314E+04  0.11108912121E+04  0.65537706235E+03  0.18615444898E+04  0.00000000000E+00 0.  1.
         22    1    1    2    0    0  0.14398736899E+04 -0.11610800944E+04 -0.10871066678E+04  0.21454939141E+04  0.00000000000E+00 0. -1.
<mgrwt>
<rscale>  0 0.41076528E+04</rscale>
<asrwt>0</asrwt>
<pdfrwt beam="1">  1        2 0.34708725E+00 0.41076528E+04</pdfrwt>
<pdfrwt beam="2">  1       -2 0.28764849E+00 0.41076528E+04</pdfrwt>
<totfact> 0.14201357E-01</totfact>
</mgrwt>
</event>
<event>
 6    1  0.1528034E-005  0.2810262E+04  0.7818608E-02  0.8300090E-01
          2   -1    0    0  501    0  0.00000000000E+00  0.00000000000E+00  0.20130751632E+04  0.20130751632E+04  0.00000000000E+00 0. -1.
         -2   -1    0    0    0  501 -0.00000000000E+00 -0.00000000000E+00 -0.98078453094E+03  0.98078453094E+03  0.00000000000E+00 0.  1.
         23    2    1    2    0    0  0.45937877902E+03  0.68182638813E+03 -0.69556075978E+03  0.10803847089E+04  0.86661770717E+02 0.  0.
         13    1    3    3    0    0  0.15267572165E+03  0.16971221617E+03 -0.22192368435E+03  0.31837436136E+03  0.00000000000E+00 0.  1.
        -13    1    3    3    0    0  0.30670305738E+03  0.51211417196E+03 -0.47363707543E+03  0.76201034753E+03  0.00000000000E+00 0. -1.
         22    1    1    2    0    0 -0.45937877902E+03 -0.68182638813E+03  0.17278513920E+04  0.19134749852E+04  0.00000000000E+00 0. -1.
<mgrwt>
<rscale>  0 0.28102619E+04</rscale>
<asrwt>0</asrwt>
<pdfrwt beam="1">  1        2 0.30970387E+00 0.28102619E+04</pdfrwt>
<pdfrwt beam="2">  1       -2 0.15088993E+00 0.28102619E+04</pdfrwt>
<totfact> 0.16849281E+00</totfact>
</mgrwt>
</event>
<event>
 6    1  0.1528034E-005  0.2444549E+04  0.7818608E-02  0.8423011E-01
          2   -1    0    0  501    0  0.00000000000E+00  0.00000000000E+00  0.33526645005E+04  0.33526645005E+04  0.00000000000E+00 0.  1.
         -2   -1    0    0    0  501 -0.00000000000E+00 -0.00000000000E+00 -0.44560229817E+03  0.44560229817E+03  0.00000000000E+00 0. -1.
         23    2    1    2    0    0 -0.70991734352E+03  0.38130548546E+03  0.28799619732E+04  0.29919722308E+04  0.91325541555E+02 0.  0.
         11    1    3    3    0    0 -0.34679739878E+03  0.18099088485E+03  0.15659939994E+04  0.16141137947E+04  0.00000000000E+00 0. -1.
        -11    1    3    3    0    0 -0.36311994474E+03  0.20031460061E+03  0.13139679739E+04  0.13778584361E+04  0.00000000000E+00 0.  1.
         22    1    1    2    0    0  0.70991734352E+03 -0.38130548546E+03  0.27100229131E+02  0.80629456794E+03  0.00000000000E+00 0. -1.
<mgrwt>
<rscale>  0 0.24445490E+04</rscale>
<asrwt>0</asrwt>
<pdfrwt beam="1">  1        2 0.51579452E+00 0.24445490E+04</pdfrwt>
<pdfrwt beam="2">  1       -2 0.68554202E-01 0.24445490E+04</pdfrwt>
<totfact> 0.17917417E+00</totfact>
</mgrwt>
</event>
<event>
 6    1  0.1528034E-005  0.2762961E+04  0.7818608E-02  0.8314861E-01
          1   -1    0    0  501    0  0.00000000000E+00  0.00000000000E+00  0.27873910489E+04  0.27873910489E+04  0.00000000000E+00 0. -1.
         -1   -1    0    0    0  501 -0.00000000000E+00 -0.00000000000E+00 -0.68468637326E+03  0.68468637326E+03  0.00000000000E+00 0.  1.
         23    2    1    2    0    0 -0.11751610764E+04  0.62162039958E+03  0.58676012915E+03  0.14557680846E+04  0.86935553074E+02 0.  0.
         13    1    3    3    0    0 -0.92396779556E+03  0.44764762596E+03  0.45621112531E+03  0.11234916444E+04  0.00000000000E+00 0. -1.
        -13    1    3    3    0    0 -0.25119328084E+03  0.17397277362E+03  0.13054900384E+03  0.33227644019E+03  0.00000000000E+00 0.  1.
         22    1    1    2    0    0  0.11751610764E+04 -0.62162039958E+03  0.15159445465E+04  0.20163093376E+04  0.00000000000E+00 0. -1.
<mgrwt>
<rscale>  0 0.27629612E+04</rscale>
<asrwt>0</asrwt>
<pdfrwt beam="1">  1        1 0.42882939E+00 0.27629612E+04</pdfrwt>
<pdfrwt beam="2">  1       -1 0.10533637E+00 0.27629612E+04</pdfrwt>
<totfact> 0.62406439E-01</totfact>
</mgrwt>
</event>
<event>
 6    1  0.1528034E-005  0.2465700E+04  0.7818608E-02  0.8415308E-01
         -1   -1    0    0    0  501 -0.00000000000E+00  0.00000000000E+00  0.28327293184E+04  0.28327293184E+04  0.00000000000E+00 0.  1.
          1   -1    0    0  501    0  0.00000000000E+00 -0.00000000000E+00 -0.53655642603E+03  0.53655642603E+03  0.00000000000E+00 0. -1.
         23    2    1    2    0    0 -0.40481000757E+03 -0.74972626474E+02  0.27351147367E+04  0.27674867916E+04  0.92943433534E+02 0.  0.
         11    1    3    3    0    0 -0.25660406692E+03 -0.86843669553E+02  0.16180849631E+04  0.16406055034E+04  0.00000000000E+00 0. -1.
        -11    1    3    3    0    0 -0.14820594065E+03  0.11871043079E+02  0.11170297737E+04  0.11268812882E+04  0.00000000000E+00 0.  1.
         22    1    1    2    0    0  0.40481000757E+03  0.74972626474E+02 -0.43894184431E+03  0.60179895284E+03  0.00000000000E+00 0. -1.
<mgrwt>
<rscale>  0 0.24657000E+04</rscale>
<asrwt>0</asrwt>
<pdfrwt beam="1">  1        1 0.82547144E-01 0.24657000E+04</pdfrwt>
<pdfrwt beam="2">  1       -1 0.43580450E+00 0.24657000E+04</pdfrwt>
<totfact> 0.14508846E-01</totfact>
</mgrwt>
</event>
<event>
 6    1  0.1528034E-005  0.3758512E+04  0.7818608E-02  0.8055117E-01
          1   -1    0    0  501    0  0.00000000000E+00  0.00000000000E+00  0.24196077706E+04  0.24196077706E+04  0.00000000000E+00 0. -1.
         -1   -1    0    0    0  501 -0.00000000000E+00 -0.00000000000E+00 -0.14595768783E+04  0.14595768783E+04  0.00000000000E+00 0.  1.
         23    2    1    2    0    0  0.57981810891E+03  0.26864026235E+03  0.23030768272E+04  0.23918618819E+04  0.92107330787E+02 0.  0.
         13    1    3    3    0    0  0.50733425487E+03  0.19894130391E+03  0.19266769369E+04  0.20022611488E+04  0.00000000000E+00 0. -1.
        -13    1    3    3    0    0  0.72483854041E+02  0.69698958444E+02  0.37639989028E+03  0.38960073320E+03  0.00000000000E+00 0.  1.
         22    1    1    2    0    0 -0.57981810891E+03 -0.26864026235E+03 -0.13430459349E+04  0.14873227670E+04  0.00000000000E+00 0.  1.
<mgrwt>
<rscale>  0 0.37585122E+04</rscale>
<asrwt>0</asrwt>
<pdfrwt beam="1">  1        1 0.37224735E+00 0.37585122E+04</pdfrwt>
<pdfrwt beam="2">  1       -1 0.22455029E+00 0.37585122E+04</pdfrwt>
<totfact> 0.12615903E-01</totfact>
</mgrwt>
</event>
<event>
 6    1  0.1528034E-005  0.3362350E+04  0.7818608E-02  0.8147209E-01
          2   -1    0    0  501    0  0.00000000000E+00  0.00000000000E+00  0.28255724121E+04  0.28255724121E+04  0.00000000000E+00 0.  1.
         -2   -1    0    0    0  501 -0.00000000000E+00 -0.00000000000E+00 -0.10002747522E+04  0.10002747522E+04  0.00000000000E+00 0. -1.
         23    2    1    2    0    0  0.14597299331E+04 -0.27663000811E+03  0.21202221738E+02  0.14887344181E+04  0.92439139487E+02 0.  0.
         13    1    3    3    0    0  0.37759201493E+03 -0.46239236504E+02  0.37199598886E+02  0.38222716661E+03  0.00000000000E+00 0. -1.
        -13    1    3    3    0    0  0.10821379181E+04 -0.23039077161E+03 -0.15997377148E+02  0.11065072515E+04  0.00000000000E+00 0.  1.
         22    1    1    2    0    0 -0.14597299331E+04  0.27663000811E+03  0.18040954381E+04  0.23371127463E+04  0.00000000000E+00 0.  1.
<mgrwt>
<rscale>  0 0.33623496E+04</rscale>
<asrwt>0</asrwt>
<pdfrwt beam="1">  1        2 0.43470345E+00 0.33623496E+04</pdfrwt>
<pdfrwt beam="2">  1       -2 0.15388842E+00 0.33623496E+04</pdfrwt>
<totfact> 0.51865278E-01</totfact>
</mgrwt>
</event>
<event>
 6    1  0.1528034E-005  0.2780270E+04  0.7818608E-02  0.8309420E-01
          1   -1    0    0  501    0  0.00000000000E+00  0.00000000000E+00  0.16154871973E+04  0.16154871973E+04  0.00000000000E+00 0. -1.
         -1   -1    0    0    0  501 -0.00000000000E+00 -0.00000000000E+00 -0.11962182269E+04  0.11962182269E+04  0.00000000000E+00 0.  1.
         23    2    1    2    0    0 -0.94316412562E+03 -0.70985512910E+03  0.94930689141E+03  0.15177220125E+04  0.94040741088E+02 0.  0.
         11    1    3    3    0    0 -0.23741331466E+03 -0.19919227249E+03  0.29902668870E+03  0.43065021067E+03  0.00000000000E+00 0. -1.
        -11    1    3    3    0    0 -0.70575081096E+03 -0.51066285661E+03  0.65028020271E+03  0.10870718018E+04  0.00000000000E+00 0.  1.
         22    1    1    2    0    0  0.94316412562E+03  0.70985512910E+03 -0.53003792099E+03  0.12939834117E+04  0.00000000000E+00 0.  1.
<mgrwt>
<rscale>  0 0.27802699E+04</rscale>
<asrwt>0</asrwt>
<pdfrwt beam="1">  1        1 0.24853649E+00 0.27802699E+04</pdfrwt>
<pdfrwt beam="2">  1       -1 0.18403357E+00 0.27802699E+04</pdfrwt>
<totfact> 0.91954266E-01</totfact>
</mgrwt>
</event>
<event>
 6    1  0.1984306E-005  0.2061690E+04  0.7818608E-02  0.8578309E-01
          2   -1    0    0  501    0  0.00000000000E+00  0.00000000000E+00  0.22141413828E+04  0.22141413828E+04  0.00000000000E+00 0. -1.
         -2   -1    0    0    0  501 -0.00000000000E+00 -0.00000000000E+00 -0.47993397637E+03  0.47993397637E+03  0.00000000000E+00 0.  1.
         23    2    1    2    0    0 -0.40161618948E+03  0.49924120374E+03  0.19206712877E+04  0.20267627471E+04  0.90838838291E+02 0.  0.
         13    1    3    3    0    0 -0.14926450441E+03  0.25185733734E+03  0.92627975200E+03  0.97144541258E+03  0.00000000000E+00 0.  1.
        -13    1    3    3    0    0 -0.25235168506E+03  0.24738386640E+03  0.99439153569E+03  0.10553173345E+04  0.00000000000E+00 0. -1.
         22    1    1    2    0    0  0.40161618948E+03 -0.49924120374E+03 -0.18646388130E+03  0.66731261204E+03  0.00000000000E+00 0.  1.
<mgrwt>
<rscale>  0 0.20616903E+04</rscale>
<asrwt>0</asrwt>
<pdfrwt beam="1">  1        2 0.34063713E+00 0.20616903E+04</pdfrwt>
<pdfrwt beam="2">  1       -2 0.73835998E-01 0.20616903E+04</pdfrwt>
<totfact> 0.77477394E+00</totfact>
</mgrwt>
</event>
<event>
 6    1  0.1528034E-005  0.3930268E+04  0.7818608E-02  0.8018763E-01
         -2   -1    0    0    0  501 -0.00000000000E+00  0.00000000000E+00  0.12433496765E+04  0.12433496765E+04  0.00000000000E+00 0.  1.
          2   -1    0    0  501    0  0.00000000000E+00 -0.00000000000E+00 -0.31059260412E+04  0.31059260412E+04  0.00000000000E+00 0. -1.
         23    2    1    2    0    0 -0.12687998767E+04 -0.63227653512E+03 -0.24360131700E+04  0.28200744511E+04  0.95042101205E+02 0.  0.
         13    1    3    3    0    0 -0.74854313627E+03 -0.35075466749E+03 -0.13349924833E+04  0.15702071819E+04  0.00000000000E+00 0.  1.
        -13    1    3    3    0    0 -0.52025674045E+03 -0.28152186763E+03 -0.11010206868E+04  0.12498672692E+04  0.00000000000E+00 0. -1.
         22    1    1    2    0    0  0.12687998767E+04  0.63227653512E+03  0.57343680530E+03  0.15292012666E+04  0.00000000000E+00 0.  1.
<mgrwt>
<rscale>  0 0.39302683E+04</rscale>
<asrwt>0</asrwt>
<pdfrwt beam="1">  1        2 0.47783478E+00 0.39302683E+04</pdfrwt>
<pdfrwt beam="2">  1       -2 0.19128456E+00 0.39302683E+04</pdfrwt>
<totfact> 0.17968804E-01</totfact>
</mgrwt>
</event>
<event>
 6    1  0.1528034E-005  0.2544145E+04  0.7818608E-02  0.8387425E-01
          1   -1    0    0  501    0  0.00000000000E+00  0.00000000000E+00  0.16383513645E+04  0.16383513645E+04  0.00000000000E+00 0. -1.
         -1   -1    0    0    0  501 -0.00000000000E+00 -0.00000000000E+00 -0.98768099307E+03  0.98768099307E+03  0.00000000000E+00 0.  1.
         23    2    1    2    0    0 -0.69918206125E+03 -0.10089826117E+04  0.66521284645E+03  0.13983870712E+04  0.77953860928E+02 0.  0.
         11    1    3    3    0    0 -0.26275991640E+03 -0.32533359646E+03  0.24981632310E+03  0.48712720920E+03  0.00000000000E+00 0. -1.
        -11    1    3    3    0    0 -0.43642214485E+03 -0.68364901524E+03  0.41539652334E+03  0.91125986203E+03  0.00000000000E+00 0.  1.
         22    1    1    2    0    0  0.69918206125E+03  0.10089826117E+04 -0.14542475025E+02  0.12276452863E+04  0.00000000000E+00 0. -1.
<mgrwt>
<rscale>  0 0.25441450E+04</rscale>
<asrwt>0</asrwt>
<pdfrwt beam="1">  1        1 0.25205406E+00 0.25441450E+04</pdfrwt>
<pdfrwt beam="2">  1       -1 0.15195092E+00 0.25441450E+04</pdfrwt>
<totfact> 0.15659697E+00</totfact>
</mgrwt>
</event>
<event>
 6    1  0.1528034E-005  0.1933417E+04  0.7818608E-02  0.8638399E-01
          2   -1    0    0  501    0  0.00000000000E+00  0.00000000000E+00  0.79970037651E+03  0.79970037651E+03  0.00000000000E+00 0. -1.
         -2   -1    0    0    0  501 -0.00000000000E+00 -0.00000000000E+00 -0.11685943765E+04  0.11685943765E+04  0.00000000000E+00 0.  1.
         23    2    1    2    0    0 -0.12825293768E+03  0.73867407373E+03 -0.80283443991E+03  0.11020427638E+04  0.88695615586E+02 0.  0.
         11    1    3    3    0    0 -0.69879588377E+02  0.17907910383E+03 -0.21199601229E+03  0.28617266034E+03  0.00000000000E+00 0. -1.
        -11    1    3    3    0    0 -0.58373349302E+02  0.55959496989E+03 -0.59083842762E+03  0.81587010350E+03  0.00000000000E+00 0.  1.
         22    1    1    2    0    0  0.12825293768E+03 -0.73867407373E+03  0.43394043997E+03  0.86625198912E+03  0.00000000000E+00 0.  1.
<mgrwt>
<rscale>  0 0.19334170E+04</rscale>
<asrwt>0</asrwt>
<pdfrwt beam="1">  1        2 0.12303083E+00 0.19334170E+04</pdfrwt>
<pdfrwt beam="2">  1       -2 0.17978375E+00 0.19334170E+04</pdfrwt>
<totfact> 0.58541634E+00</totfact>
</mgrwt>
</event>
<event>
 6    1  0.1528034E-005  0.3535507E+04  0.7818608E-02  0.8105426E-01
          2   -1    0    0  501    0  0.00000000000E+00  0.00000000000E+00  0.27666657872E+04  0.27666657872E+04  0.00000000000E+00 0. -1.
         -2   -1    0    0    0  501 -0.00000000000E+00 -0.00000000000E+00 -0.11295013687E+04  0.11295013687E+04  0.00000000000E+00 0.  1.
         23    2    1    2    0    0  0.92884745043E+03  0.14842706513E+04  0.10779306052E+04  0.20580813553E+04  0.89148881507E+02 0.  0.
         11    1    3    3    0    0  0.84862861196E+03  0.13035426399E+04  0.96094965812E+03  0.18283375456E+04  0.00000000000E+00 0. -1.
        -11    1    3    3    0    0  0.80218838467E+02  0.18072801137E+03  0.11698094711E+03  0.22974380977E+03  0.00000000000E+00 0.  1.
         22    1    1    2    0    0 -0.92884745043E+03 -0.14842706513E+04  0.55923381330E+03  0.18380858006E+04  0.00000000000E+00 0.  1.
<mgrwt>
<rscale>  0 0.35355072E+04</rscale>
<asrwt>0</asrwt>
<pdfrwt beam="1">  1        2 0.42564089E+00 0.35355072E+04</pdfrwt>
<pdfrwt beam="2">  1       -2 0.17376944E+00 0.35355072E+04</pdfrwt>
<totfact> 0.39762914E-01</totfact>
</mgrwt>
</event>
<event>
 6    1  0.1528034E-005  0.4389065E+04  0.7818608E-02  0.7930351E-01
         -2   -1    0    0    0  501 -0.00000000000E+00  0.00000000000E+00  0.19886672687E+04  0.19886672687E+04  0.00000000000E+00 0.  1.
          2   -1    0    0  501    0  0.00000000000E+00 -0.00000000000E+00 -0.24217082986E+04  0.24217082986E+04  0.00000000000E+00 0. -1.
         23    2    1    2    0    0  0.21866526009E+03 -0.21800093444E+04 -0.10832861331E+03  0.21954955724E+04  0.90611711716E+02 0.  0.
         13    1    3    3    0    0  0.19538746213E+03 -0.18645013768E+04 -0.61823038040E+02  0.18757301865E+04  0.00000000000E+00 0.  1.
        -13    1    3    3    0    0  0.23277797967E+02 -0.31550796764E+03 -0.46505575269E+02  0.31976538595E+03  0.00000000000E+00 0. -1.
         22    1    1    2    0    0 -0.21866526009E+03  0.21800093444E+04 -0.32471241660E+03  0.22148799948E+04  0.00000000000E+00 0.  1.
<mgrwt>
<rscale>  0 0.43890646E+04</rscale>
<asrwt>0</asrwt>
<pdfrwt beam="1">  1        2 0.37257051E+00 0.43890646E+04</pdfrwt>
<pdfrwt beam="2">  1       -2 0.30594881E+00 0.43890646E+04</pdfrwt>
<totfact> 0.86308222E-02</totfact>
</mgrwt>
</event>
<event>
 6    1  0.1528034E-005  0.5729511E+04  0.7818608E-02  0.7724874E-01
         -1   -1    0    0    0  501 -0.00000000000E+00  0.00000000000E+00  0.34638144771E+04  0.34638144771E+04  0.00000000000E+00 0.  1.
          1   -1    0    0  501    0  0.00000000000E+00 -0.00000000000E+00 -0.23693022959E+04  0.23693022959E+04  0.00000000000E+00 0. -1.
         23    2    1    2    0    0  0.31017008971E+03 -0.30672549861E+03  0.34292457838E+04  0.34579816167E+04  0.87316663904E+02 0.  0.
         11    1    3    3    0    0  0.53310253609E+01  0.35967701118E+01  0.13313028953E+03  0.13328552276E+03  0.00000000000E+00 0.  1.
        -11    1    3    3    0    0  0.30483906435E+03 -0.31032226872E+03  0.32961154943E+04  0.33246960939E+04  0.00000000000E+00 0. -1.
         22    1    1    2    0    0 -0.31017008971E+03  0.30672549861E+03 -0.23347336026E+04  0.23751351564E+04  0.00000000000E+00 0. -1.
<mgrwt>
<rscale>  0 0.57295108E+04</rscale>
<asrwt>0</asrwt>
<pdfrwt beam="1">  1        1 0.36450805E+00 0.57295108E+04</pdfrwt>
<pdfrwt beam="2">  1       -1 0.53289453E+00 0.57295108E+04</pdfrwt>
<totfact> 0.10778134E-03</totfact>
</mgrwt>
</event>
<event>
 6    1  0.1528034E-005  0.1822081E+04  0.7818608E-02  0.8694644E-01
          1   -1    0    0  501    0  0.00000000000E+00  0.00000000000E+00  0.13182147873E+04  0.13182147873E+04  0.00000000000E+00 0. -1.
         -1   -1    0    0    0  501 -0.00000000000E+00 -0.00000000000E+00 -0.62963580407E+03  0.62963580407E+03  0.00000000000E+00 0.  1.
         23    2    1    2    0    0 -0.35259608962E+03  0.70021009375E+03  0.83651746302E+03  0.11500386013E+04  0.90604308215E+02 0.  0.
         11    1    3    3    0    0 -0.19389347907E+03  0.44331084692E+03  0.46260054973E+03  0.66941650475E+03  0.00000000000E+00 0.  1.
        -11    1    3    3    0    0 -0.15870261055E+03  0.25689924683E+03  0.37391691329E+03  0.48062209652E+03  0.00000000000E+00 0. -1.
         22    1    1    2    0    0  0.35259608962E+03 -0.70021009375E+03 -0.14793847975E+03  0.79781199013E+03  0.00000000000E+00 0.  1.
<mgrwt>
<rscale>  0 0.18220815E+04</rscale>
<asrwt>0</asrwt>
<pdfrwt beam="1">  1        1 0.20280227E+00 0.18220815E+04</pdfrwt>
<pdfrwt beam="2">  1       -1 0.96867047E-01 0.18220815E+04</pdfrwt>
<totfact> 0.84729878E+00</totfact>
</mgrwt>
</event>
<event>
 6    1  0.1528034E-005  0.2345464E+04  0.7818608E-02  0.8460208E-01
          1   -1    0    0  501    0  0.00000000000E+00  0.00000000000E+00  0.17812676156E+04  0.17812676156E+04  0.00000000000E+00 0. -1.
         -1   -1    0    0    0  501 -0.00000000000E+00 -0.00000000000E+00 -0.77209071960E+03  0.77209071960E+03  0.00000000000E+00 0.  1.
         23    2    1    2    0    0  0.43383938711E+03  0.99303231388E+03  0.22241354783E+02  0.10876259064E+04  0.90031351581E+02 0.  0.
         11    1    3    3    0    0  0.29266642043E+03  0.71386236602E+03 -0.21026999856E+02  0.77181296049E+03  0.00000000000E+00 0.  1.
        -11    1    3    3    0    0  0.14117296668E+03  0.27916994786E+03  0.43268354639E+02  0.31581294594E+03  0.00000000000E+00 0. -1.
         22    1    1    2    0    0 -0.43383938711E+03 -0.99303231388E+03  0.98693554122E+03  0.14657324288E+04  0.00000000000E+00 0. -1.
<mgrwt>
<rscale>  0 0.23454639E+04</rscale>
<asrwt>0</asrwt>
<pdfrwt beam="1">  1        1 0.27404117E+00 0.23454639E+04</pdfrwt>
<pdfrwt beam="2">  1       -1 0.11878319E+00 0.23454639E+04</pdfrwt>
<totfact> 0.23973224E+00</totfact>
</mgrwt>
</event>
<event>
 6    1  0.1528034E-005  0.5696229E+04  0.7818608E-02  0.7729250E-01
         -2   -1    0    0    0  501 -0.00000000000E+00  0.00000000000E+00  0.31740833028E+04  0.31740833028E+04  0.00000000000E+00 0.  1.
          2   -1    0    0  501    0  0.00000000000E+00 -0.00000000000E+00 -0.25556219059E+04  0.25556219059E+04  0.00000000000E+00 0. -1.
         23    2    1    2    0    0  0.12880054902E+04  0.24622249611E+03  0.28516307714E+04  0.31399891788E+04  0.90279157118E+02 0.  0.
         13    1    3    3    0    0  0.28585299182E+03  0.80055282560E+02  0.71466857308E+03  0.77386817388E+03  0.00000000000E+00 0.  1.
        -13    1    3    3    0    0  0.10021524984E+04  0.16616721355E+03  0.21369621983E+04  0.23661210049E+04  0.00000000000E+00 0. -1.
         22    1    1    2    0    0 -0.12880054902E+04 -0.24622249611E+03 -0.22331693745E+04  0.25897160299E+04  0.00000000000E+00 0. -1.
<mgrwt>
<rscale>  0 0.56962292E+04</rscale>
<asrwt>0</asrwt>
<pdfrwt beam="1">  1        2 0.39317260E+00 0.56962292E+04</pdfrwt>
<pdfrwt beam="2">  1       -2 0.48832051E+00 0.56962292E+04</pdfrwt>
<totfact> 0.43867211E-03</totfact>
</mgrwt>
</event>
<event>
 6    1  0.1528034E-005  0.1177973E+04  0.7818608E-02  0.9132359E-01
         -2   -1    0    0    0  501 -0.00000000000E+00  0.00000000000E+00  0.80442178216E+03  0.80442178216E+03  0.00000000000E+00 0. -1.
          2   -1    0    0  501    0  0.00000000000E+00 -0.00000000000E+00 -0.43124751476E+03  0.43124751476E+03  0.00000000000E+00 0.  1.
         23    2    1    2    0    0 -0.82975381214E+02  0.20105773630E+03 -0.38272459896E+03  0.44909938688E+03  0.88898894441E+02 0.  0.
         11    1    3    3    0    0 -0.86005075292E+02  0.15341532518E+03 -0.34848197569E+03  0.39034961555E+03  0.00000000000E+00 0.  1.
        -11    1    3    3    0    0  0.30296940775E+01  0.47642411115E+02 -0.34242623270E+02  0.58749771331E+02  0.00000000000E+00 0. -1.
         22    1    1    2    0    0  0.82975381214E+02 -0.20105773630E+03  0.75589886636E+03  0.78656991004E+03  0.00000000000E+00 0. -1.
<mgrwt>
<rscale>  0 0.11779727E+04</rscale>
<asrwt>0</asrwt>
<pdfrwt beam="1">  1        2 0.66345772E-01 0.11779727E+04</pdfrwt>
<pdfrwt beam="2">  1       -2 0.12375720E+00 0.11779727E+04</pdfrwt>
<totfact> 0.35455376E+01</totfact>
</mgrwt>
</event>
<event>
 6    1  0.1528034E-005  0.2472796E+04  0.7818608E-02  0.8412742E-01
          1   -1    0    0  501    0  0.00000000000E+00  0.00000000000E+00  0.13233316881E+04  0.13233316881E+04  0.00000000000E+00 0. -1.
         -1   -1    0    0    0  501 -0.00000000000E+00 -0.00000000000E+00 -0.11551748491E+04  0.11551748491E+04  0.00000000000E+00 0.  1.
         23    2    1    2    0    0  0.16869125367E+03 -0.10644197599E+04  0.68755659175E+03  0.12821695162E+04  0.98885980190E+02 0.  0.
         13    1    3    3    0    0  0.11912787466E+03 -0.75815958142E+03  0.43532975126E+03  0.88233179346E+03  0.00000000000E+00 0. -1.
        -13    1    3    3    0    0  0.49563379017E+02 -0.30626017851E+03  0.25222684049E+03  0.39983772277E+03  0.00000000000E+00 0.  1.
         22    1    1    2    0    0 -0.16869125367E+03  0.10644197599E+04 -0.51939975275E+03  0.11963370209E+04  0.00000000000E+00 0.  1.
<mgrwt>
<rscale>  0 0.24727956E+04</rscale>
<asrwt>0</asrwt>
<pdfrwt beam="1">  1        1 0.20358949E+00 0.24727956E+04</pdfrwt>
<pdfrwt beam="2">  1       -1 0.17771921E+00 0.24727956E+04</pdfrwt>
<totfact> 0.16756262E+00</totfact>
</mgrwt>
</event>
<event>
 6    1  0.1528034E-005  0.3033362E+04  0.7818608E-02  0.8234268E-01
         -2   -1    0    0    0  501 -0.00000000000E+00  0.00000000000E+00  0.22271805431E+04  0.22271805431E+04  0.00000000000E+00 0.  1.
          2   -1    0    0  501    0  0.00000000000E+00 -0.00000000000E+00 -0.10328400110E+04  0.10328400110E+04  0.00000000000E+00 0. -1.
         23    2    1    2    0    0 -0.56171168191E+03 -0.29857557244E+02 -0.91448964230E+03  0.10774587125E+04  0.90633790946E+02 0.  0.
         13    1    3    3    0    0 -0.14468389561E+03  0.30679044721E+02 -0.21894414974E+03  0.26421804279E+03  0.00000000000E+00 0.  1.
        -13    1    3    3    0    0 -0.41702778630E+03 -0.60536601965E+02 -0.69554549256E+03  0.81324066975E+03  0.00000000000E+00 0. -1.
         22    1    1    2    0    0  0.56171168191E+03  0.29857557244E+02  0.21088301744E+04  0.21825618415E+04  0.00000000000E+00 0.  1.
<mgrwt>
<rscale>  0 0.30333619E+04</rscale>
<asrwt>0</asrwt>
<pdfrwt beam="1">  1        2 0.15889846E+00 0.30333619E+04</pdfrwt>
<pdfrwt beam="2">  1       -2 0.34264316E+00 0.30333619E+04</pdfrwt>
<totfact> 0.35452488E-01</totfact>
</mgrwt>
</event>
<event>
 6    1  0.1528034E-005  0.3212732E+04  0.7818608E-02  0.8185463E-01
         -2   -1    0    0    0  501 -0.00000000000E+00  0.00000000000E+00  0.10369479401E+04  0.10369479401E+04  0.00000000000E+00 0.  1.
          2   -1    0    0  501    0  0.00000000000E+00 -0.00000000000E+00 -0.24884685492E+04  0.24884685492E+04  0.00000000000E+00 0. -1.
         23    2    1    2    0    0  0.13792353873E+04 -0.78830457901E+03 -0.47468719301E+03  0.16604988275E+04  0.90631461638E+02 0.  0.
         11    1    3    3    0    0  0.60626074819E+03 -0.29790546407E+03 -0.18587535557E+03  0.70060645738E+03  0.00000000000E+00 0. -1.
        -11    1    3    3    0    0  0.77297463914E+03 -0.49039911494E+03 -0.28881183743E+03  0.95989237008E+03  0.00000000000E+00 0.  1.
         22    1    1    2    0    0 -0.13792353873E+04  0.78830457901E+03 -0.97683341605E+03  0.18649176619E+04  0.00000000000E+00 0.  1.
<mgrwt>
<rscale>  0 0.32127324E+04</rscale>
<asrwt>0</asrwt>
<pdfrwt beam="1">  1        2 0.38284131E+00 0.32127324E+04</pdfrwt>
<pdfrwt beam="2">  1       -2 0.15953045E+00 0.32127324E+04</pdfrwt>
<totfact> 0.75492757E-01</totfact>
</mgrwt>
</event>
<event>
 6    1  0.1528034E-005  0.2693345E+04  0.7818608E-02  0.8337167E-01
          1   -1    0    0  501    0  0.00000000000E+00  0.00000000000E+00  0.86685674420E+03  0.86685674420E+03  0.00000000000E+00 0. -1.
         -1   -1    0    0    0  501 -0.00000000000E+00 -0.00000000000E+00 -0.20920726913E+04  0.20920726913E+04  0.00000000000E+00 0.  1.
         23    2    1    2    0    0 -0.65942034243E+03 -0.45807331588E+03  0.57225064096E+03  0.99028714044E+03  0.92365976989E+02 0.  0.
         11    1    3    3    0    0 -0.44106574193E+03 -0.34313790429E+03  0.35944688371E+03  0.66444312945E+03  0.00000000000E+00 0. -1.
        -11    1    3    3    0    0 -0.21835460050E+03 -0.11493541159E+03  0.21280375725E+03  0.32584401099E+03  0.00000000000E+00 0.  1.
         22    1    1    2    0    0  0.65942034243E+03  0.45807331588E+03 -0.17974665881E+04  0.19686422951E+04  0.00000000000E+00 0.  1.
<mgrwt>
<rscale>  0 0.26933454E+04</rscale>
<asrwt>0</asrwt>
<pdfrwt beam="1">  1        1 0.13336258E+00 0.26933454E+04</pdfrwt>
<pdfrwt beam="2">  1       -1 0.32185733E+00 0.26933454E+04</pdfrwt>
<totfact> 0.40308045E-01</totfact>
</mgrwt>
</event>
<event>
 6    1  0.1528034E-005  0.9686093E+03  0.7818608E-02  0.9343660E-01
         -1   -1    0    0    0  501 -0.00000000000E+00  0.00000000000E+00  0.25176456347E+03  0.25176456347E+03  0.00000000000E+00 0.  1.
          1   -1    0    0  501    0  0.00000000000E+00 -0.00000000000E+00 -0.93162833221E+03  0.93162833221E+03  0.00000000000E+00 0. -1.
         23    2    1    2    0    0 -0.27956302035E+03  0.13839344596E+03  0.10277636566E+03  0.34087654082E+03  0.91244761584E+02 0.  0.
         13    1    3    3    0    0 -0.18172252266E+03  0.95675014484E+02  0.21088343044E+02  0.20644975624E+03  0.00000000000E+00 0.  1.
        -13    1    3    3    0    0 -0.97840497683E+02  0.42718431472E+02  0.81688022614E+02  0.13442678458E+03  0.00000000000E+00 0. -1.
         22    1    1    2    0    0  0.27956302035E+03 -0.13839344596E+03 -0.78264013440E+03  0.84251635486E+03  0.00000000000E+00 0. -1.
<mgrwt>
<rscale>  0 0.96860931E+03</rscale>
<asrwt>0</asrwt>
<pdfrwt beam="1">  1        1 0.14332744E+00 0.96860931E+03</pdfrwt>
<pdfrwt beam="2">  1       -1 0.38733010E-01 0.96860931E+03</pdfrwt>
<totfact> 0.11114448E+02</totfact>
</mgrwt>
</event>
<event>
 6    1  0.1528034E-005  0.4954921E+04  0.7818608E-02  0.7835499E-01
         -1   -1    0    0    0  501 -0.00000000000E+00  0.00000000000E+00  0.24711668185E+04  0.24711668185E+04  0.00000000000E+00 0.  1.
          1   -1    0    0  501    0  0.00000000000E+00 -0.00000000000E+00 -0.24837705588E+04  0.24837705588E+04  0.00000000000E+00 0. -1.
         23    2    1    2    0    0 -0.48857186605E+03  0.17305208755E+03 -0.24280787868E+04  0.24844780691E+04  0.91734333146E+02 0.  0.
         13    1    3    3    0    0 -0.34821396818E+03  0.14474276523E+03 -0.15785704024E+04  0.16229873539E+04  0.00000000000E+00 0. -1.
        -13    1    3    3    0    0 -0.14035789788E+03  0.28309322319E+02 -0.84950838437E+03  0.86149071518E+03  0.00000000000E+00 0.  1.
         22    1    1    2    0    0  0.48857186605E+03 -0.17305208755E+03  0.24154750464E+04  0.24704593082E+04  0.00000000000E+00 0.  1.
<mgrwt>
<rscale>  0 0.49549213E+04</rscale>
<asrwt>0</asrwt>
<pdfrwt beam="1">  1        1 0.38211855E+00 0.49549213E+04</pdfrwt>
<pdfrwt beam="2">  1       -1 0.38017951E+00 0.49549213E+04</pdfrwt>
<totfact> 0.98306065E-03</totfact>
</mgrwt>
</event>
<event>
 6    1  0.1528034E-005  0.1814203E+04  0.7818608E-02  0.8698783E-01
         -1   -1    0    0    0  501 -0.00000000000E+00  0.00000000000E+00  0.48592527441E+03  0.48592527441E+03  0.00000000000E+00 0.  1.
          1   -1    0    0  501    0  0.00000000000E+00 -0.00000000000E+00 -0.16933323939E+04  0.16933323939E+04  0.00000000000E+00 0. -1.
         23    2    1    2    0    0 -0.43811370531E+03  0.78947464217E+03 -0.67360950224E+03  0.11303755369E+04  0.93729736336E+02 0.  0.
         11    1    3    3    0    0 -0.34719980726E+03  0.58836157662E+03 -0.46280394972E+03  0.82516940496E+03  0.00000000000E+00 0.  1.
        -11    1    3    3    0    0 -0.90913898058E+02  0.20111306555E+03 -0.21080555252E+03  0.30520613193E+03  0.00000000000E+00 0. -1.
         22    1    1    2    0    0  0.43811370531E+03 -0.78947464217E+03 -0.53379761725E+03  0.10488821314E+04  0.00000000000E+00 0. -1.
<mgrwt>
<rscale>  0 0.18142029E+04</rscale>
<asrwt>0</asrwt>
<pdfrwt beam="1">  1        1 0.26051267E+00 0.18142029E+04</pdfrwt>
<pdfrwt beam="2">  1       -1 0.74757737E-01 0.18142029E+04</pdfrwt>
<totfact> 0.81701093E+00</totfact>
</mgrwt>
</event>
<event>
 6    1  0.1528034E-005  0.3315448E+04  0.7818608E-02  0.8158976E-01
         -2   -1    0    0    0  501 -0.00000000000E+00  0.00000000000E+00  0.11829678809E+04  0.11829678809E+04  0.00000000000E+00 0.  1.
          2   -1    0    0  501    0  0.00000000000E+00 -0.00000000000E+00 -0.23230122519E+04  0.23230122519E+04  0.00000000000E+00 0. -1.
         23    2    1    2    0    0 -0.91900962939E+03  0.96689580401E+01  0.88684315842E+03  0.12804587906E+04  0.91715533488E+02 0.  0.
         11    1    3    3    0    0 -0.20567601990E+03 -0.35670570564E+02  0.20862939937E+03  0.29512919383E+03  0.00000000000E+00 0. -1.
        -11    1    3    3    0    0 -0.71333360949E+03  0.45339528604E+02  0.67821375905E+03  0.98532959675E+03  0.00000000000E+00 0.  1.
         22    1    1    2    0    0  0.91900962939E+03 -0.96689580401E+01 -0.20268875295E+04  0.22255213422E+04  0.00000000000E+00 0. -1.
<mgrwt>
<rscale>  0 0.33154480E+04</rscale>
<asrwt>0</asrwt>
<pdfrwt beam="1">  1        2 0.35738650E+00 0.33154480E+04</pdfrwt>
<pdfrwt beam="2">  1       -2 0.18199506E+00 0.33154480E+04</pdfrwt>
<totfact> 0.64461886E-01</totfact>
</mgrwt>
</event>
<event>
 6    1  0.1528034E-005  0.1860106E+04  0.7818608E-02  0.8674973E-01
          2   -1    0    0  501    0  0.00000000000E+00  0.00000000000E+00  0.12855600276E+04  0.12855600276E+04  0.00000000000E+00 0. -1.
         -2   -1    0    0    0  501 -0.00000000000E+00 -0.00000000000E+00 -0.67285719834E+03  0.67285719834E+03  0.00000000000E+00 0.  1.
         23    2    1    2    0    0 -0.96467538225E+02  0.22697957938E+03 -0.63458283999E+03  0.68698210919E+03  0.91778658458E+02 0.  0.
         13    1    3    3    0    0 -0.62505322223E+02  0.90712731782E+02 -0.17839764130E+03  0.20966982004E+03  0.00000000000E+00 0.  1.
        -13    1    3    3    0    0 -0.33962216002E+02  0.13626684760E+03 -0.45618519869E+03  0.47731228915E+03  0.00000000000E+00 0. -1.
         22    1    1    2    0    0  0.96467538225E+02 -0.22697957938E+03  0.12472856692E+04  0.12714351167E+04  0.00000000000E+00 0. -1.
<mgrwt>
<rscale>  0 0.18601057E+04</rscale>
<asrwt>0</asrwt>
<pdfrwt beam="1">  1        2 0.19777847E+00 0.18601057E+04</pdfrwt>
<pdfrwt beam="2">  1       -2 0.10351649E+00 0.18601057E+04</pdfrwt>
<totfact> 0.12047929E+01</totfact>
</mgrwt>
</event>
<event>
 6    1  0.1528034E-005  0.3018066E+04  0.7818608E-02  0.8238591E-01
         -2   -1    0    0    0  501 -0.00000000000E+00  0.00000000000E+00  0.67617921015E+03  0.67617921015E+03  0.00000000000E+00 0.  1.
          2   -1    0    0  501    0  0.00000000000E+00 -0.00000000000E+00 -0.33677184527E+04  0.33677184527E+04  0.00000000000E+00 0. -1.
         23    2    1    2    0    0 -0.10782030415E+04  0.12509976445E+03  0.55041966308E+02  0.10906147291E+04  0.90769596192E+02 0.  0.
         11    1    3    3    0    0 -0.33942299666E+03 -0.18923518152E+01  0.26378271378E+02  0.34045170709E+03  0.00000000000E+00 0. -1.
        -11    1    3    3    0    0 -0.73878004483E+03  0.12699211626E+03  0.28663694930E+02  0.75016302204E+03  0.00000000000E+00 0.  1.
         22    1    1    2    0    0  0.10782030415E+04 -0.12509976445E+03 -0.27465812089E+04  0.29532829337E+04  0.00000000000E+00 0. -1.
<mgrwt>
<rscale>  0 0.30180664E+04</rscale>
<asrwt>0</asrwt>
<pdfrwt beam="1">  1        2 0.51811052E+00 0.30180664E+04</pdfrwt>
<pdfrwt beam="2">  1       -2 0.10402757E+00 0.30180664E+04</pdfrwt>
<totfact> 0.64383715E-01</totfact>
</mgrwt>
</event>
<event>
 6    1  0.1528034E-005  0.2639664E+04  0.7818608E-02  0.8354852E-01
          2   -1    0    0  501    0  0.00000000000E+00  0.00000000000E+00  0.13648178297E+04  0.13648178297E+04  0.00000000000E+00 0. -1.
         -2   -1    0    0    0  501 -0.00000000000E+00 -0.00000000000E+00 -0.12763293278E+04  0.12763293278E+04  0.00000000000E+00 0.  1.
         23    2    1    2    0    0 -0.43609884945E+03 -0.89853646980E+02  0.12857710388E+04  0.13637508379E+04  0.91396386127E+02 0.  0.
         13    1    3    3    0    0 -0.16037840777E+03 -0.45863338975E+02  0.35951293731E+03  0.39632591592E+03  0.00000000000E+00 0.  1.
        -13    1    3    3    0    0 -0.27572044168E+03 -0.43990308006E+02  0.92625810147E+03  0.96742492199E+03  0.00000000000E+00 0. -1.
         22    1    1    2    0    0  0.43609884945E+03  0.89853646980E+02 -0.11972825368E+04  0.12773963196E+04  0.00000000000E+00 0.  1.
<mgrwt>
<rscale>  0 0.26396644E+04</rscale>
<asrwt>0</asrwt>
<pdfrwt beam="1">  1        2 0.20997197E+00 0.26396644E+04</pdfrwt>
<pdfrwt beam="2">  1       -2 0.19635836E+00 0.26396644E+04</pdfrwt>
<totfact> 0.18790328E+00</totfact>
</mgrwt>
</event>
<event>
 6    1  0.1528034E-005  0.1353829E+04  0.7818608E-02  0.8987935E-01
         -1   -1    0    0    0  501 -0.00000000000E+00  0.00000000000E+00  0.83061221405E+03  0.83061221405E+03  0.00000000000E+00 0.  1.
          1   -1    0    0  501    0  0.00000000000E+00 -0.00000000000E+00 -0.55165700156E+03  0.55165700156E+03  0.00000000000E+00 0. -1.
         23    2    1    2    0    0 -0.13097639393E+02  0.25784360478E+03 -0.49542729779E+03  0.56598302505E+03  0.90739762836E+02 0.  0.
         11    1    3    3    0    0 -0.36712812637E+02  0.20047209153E+03 -0.31495867767E+03  0.37514778253E+03  0.00000000000E+00 0. -1.
        -11    1    3    3    0    0  0.23615173244E+02  0.57371513257E+02 -0.18046862012E+03  0.19083524252E+03  0.00000000000E+00 0.  1.
         22    1    1    2    0    0  0.13097639393E+02 -0.25784360478E+03  0.77438251028E+03  0.81628619057E+03  0.00000000000E+00 0.  1.
<mgrwt>
<rscale>  0 0.13538287E+04</rscale>
<asrwt>0</asrwt>
<pdfrwt beam="1">  1        1 0.84870308E-01 0.13538287E+04</pdfrwt>
<pdfrwt beam="2">  1       -1 0.12778649E+00 0.13538287E+04</pdfrwt>
<totfact> 0.20022938E+01</totfact>
</mgrwt>
</event>
<event>
 6    1  0.1528034E-005  0.1146454E+04  0.7818608E-02  0.9161061E-01
         -2   -1    0    0    0  501 -0.00000000000E+00  0.00000000000E+00  0.23439505737E+03  0.23439505737E+03  0.00000000000E+00 0.  1.
          2   -1    0    0  501    0  0.00000000000E+00 -0.00000000000E+00 -0.14018613353E+04  0.14018613353E+04  0.00000000000E+00 0. -1.
         23    2    1    2    0    0 -0.49340892664E+02 -0.30065818052E+03  0.99720319707E+02  0.33295606717E+03  0.89920716753E+02 0.  0.
         13    1    3    3    0    0  0.20976357780E+02 -0.14318104548E+03  0.36214470328E+02  0.14917207256E+03  0.00000000000E+00 0. -1.
        -13    1    3    3    0    0 -0.70317250444E+02 -0.15747713504E+03  0.63505849379E+02  0.18378399462E+03  0.00000000000E+00 0.  1.
         22    1    1    2    0    0  0.49340892664E+02  0.30065818052E+03 -0.12671865977E+04  0.13033003255E+04  0.00000000000E+00 0. -1.
<mgrwt>
<rscale>  0 0.11464543E+04</rscale>
<asrwt>0</asrwt>
<pdfrwt beam="1">  1        2 0.21567097E+00 0.11464543E+04</pdfrwt>
<pdfrwt beam="2">  1       -2 0.36060778E-01 0.11464543E+04</pdfrwt>
<totfact> 0.10330713E+02</totfact>
</mgrwt>
</event>
<event>
 6    1  0.1528034E-005  0.8964713E+03  0.7818608E-02  0.9430003E-01
         -1   -1    0    0    0  501 -0.00000000000E+00  0.00000000000E+00  0.14031242613E+03  0.14031242613E+03  0.00000000000E+00 0.  1.
          1   -1    0    0  501    0  0.00000000000E+00 -0.00000000000E+00 -0.14319131203E+04  0.14319131203E+04  0.00000000000E+00 0. -1.
         23    2    1    2    0    0 -0.19794148205E+03  0.38154766570E+03 -0.84519351250E+03  0.95251688637E+03  0.90426178317E+02 0.  0.
         11    1    3    3    0    0 -0.67622414230E+01 -0.38719221359E+01 -0.27032755549E+02  0.28133424297E+02  0.00000000000E+00 0. -1.
        -11    1    3    3    0    0 -0.19117924062E+03  0.38541958784E+03 -0.81816075695E+03  0.92438346207E+03  0.00000000000E+00 0.  1.
         22    1    1    2    0    0  0.19794148205E+03 -0.38154766570E+03 -0.44640718170E+03  0.61970866009E+03  0.00000000000E+00 0.  1.
<mgrwt>
<rscale>  0 0.89647131E+03</rscale>
<asrwt>0</asrwt>
<pdfrwt beam="1">  1        1 0.22029432E+00 0.89647131E+03</pdfrwt>
<pdfrwt beam="2">  1       -1 0.21586528E-01 0.89647131E+03</pdfrwt>
<totfact> 0.13234723E+02</totfact>
</mgrwt>
</event>
<event>
 6    1  0.1528034E-005  0.3473658E+04  0.7818608E-02  0.8120061E-01
         -2   -1    0    0    0  501 -0.00000000000E+00  0.00000000000E+00  0.15167477174E+04  0.15167477174E+04  0.00000000000E+00 0.  1.
          2   -1    0    0  501    0  0.00000000000E+00 -0.00000000000E+00 -0.19888445864E+04  0.19888445864E+04  0.00000000000E+00 0. -1.
         23    2    1    2    0    0 -0.34250050611E+02 -0.40134590442E+03 -0.19399435946E+04  0.19834800835E+04  0.92522917034E+02 0.  0.
         13    1    3    3    0    0 -0.64202531671E+02 -0.29783862115E+03 -0.13749473850E+04  0.14083004370E+04  0.00000000000E+00 0.  1.
        -13    1    3    3    0    0  0.29952481061E+02 -0.10350728327E+03 -0.56499620967E+03  0.57517964650E+03  0.00000000000E+00 0. -1.
         22    1    1    2    0    0  0.34250050611E+02  0.40134590442E+03  0.14678467257E+04  0.15221122202E+04  0.00000000000E+00 0.  1.
<mgrwt>
<rscale>  0 0.34736583E+04</rscale>
<asrwt>0</asrwt>
<pdfrwt beam="1">  1        2 0.30597609E+00 0.34736583E+04</pdfrwt>
<pdfrwt beam="2">  1       -2 0.23334580E+00 0.34736583E+04</pdfrwt>
<totfact> 0.45476772E-01</totfact>
</mgrwt>
</event>
<event>
 6    1  0.1528034E-005  0.1094818E+04  0.7818608E-02  0.9210257E-01
         -1   -1    0    0    0  501 -0.00000000000E+00  0.00000000000E+00  0.12543067431E+03  0.12543067431E+03  0.00000000000E+00 0.  1.
          1   -1    0    0  501    0  0.00000000000E+00 -0.00000000000E+00 -0.23890214624E+04  0.23890214624E+04  0.00000000000E+00 0. -1.
         23    2    1    2    0    0 -0.65304503736E+02  0.40425223928E+03 -0.31863595838E+03  0.52685714759E+03  0.91460531509E+02 0.  0.
         13    1    3    3    0    0  0.13372815133E+02  0.19914037608E+03 -0.16180439751E+03  0.25693653813E+03  0.00000000000E+00 0. -1.
        -13    1    3    3    0    0 -0.78677318869E+02  0.20511186320E+03 -0.15683156087E+03  0.26992060947E+03  0.00000000000E+00 0.  1.
         22    1    1    2    0    0  0.65304503736E+02 -0.40425223928E+03 -0.19449548297E+04  0.19875949892E+04  0.00000000000E+00 0. -1.
<mgrwt>
<rscale>  0 0.10948179E+04</rscale>
<asrwt>0</asrwt>
<pdfrwt beam="1">  1        1 0.36754173E+00 0.10948179E+04</pdfrwt>
<pdfrwt beam="2">  1       -1 0.19297029E-01 0.10948179E+04</pdfrwt>
<totfact> 0.35258713E+01</totfact>
</mgrwt>
</event>
<event>
 6    1  0.1528034E-005  0.3414637E+04  0.7818608E-02  0.8134323E-01
          2   -1    0    0  501    0  0.00000000000E+00  0.00000000000E+00  0.17147470594E+04  0.17147470594E+04  0.00000000000E+00 0. -1.
         -2   -1    0    0    0  501 -0.00000000000E+00 -0.00000000000E+00 -0.16999217096E+04  0.16999217096E+04  0.00000000000E+00 0.  1.
         23    2    1    2    0    0  0.16979656483E+03 -0.32644167571E+03 -0.16578168940E+04  0.17020312952E+04  0.11471109295E+03 0.  0.
         11    1    3    3    0    0 -0.15764550748E+00 -0.55388392525E+02 -0.13408234044E+03  0.14507230231E+03  0.00000000000E+00 0. -1.
        -11    1    3    3    0    0  0.16995421034E+03 -0.27105328318E+03 -0.15237345535E+04  0.15569589929E+04  0.00000000000E+00 0.  1.
         22    1    1    2    0    0 -0.16979656483E+03  0.32644167571E+03  0.16726422437E+04  0.17126374738E+04  0.00000000000E+00 0. -1.
<mgrwt>
<rscale>  0 0.34146366E+04</rscale>
<asrwt>0</asrwt>
<pdfrwt beam="1">  1        2 0.26380724E+00 0.34146366E+04</pdfrwt>
<pdfrwt beam="2">  1       -2 0.26152642E+00 0.34146366E+04</pdfrwt>
<totfact> 0.43482652E-01</totfact>
</mgrwt>
</event>
<event>
 6    1  0.1528034E-005  0.1536418E+04  0.7818608E-02  0.8860590E-01
         -2   -1    0    0    0  501 -0.00000000000E+00  0.00000000000E+00  0.46261029289E+03  0.46261029289E+03  0.00000000000E+00 0.  1.
          2   -1    0    0  501    0  0.00000000000E+00 -0.00000000000E+00 -0.12756855680E+04  0.12756855680E+04  0.00000000000E+00 0. -1.
         23    2    1    2    0    0 -0.57717894419E+03 -0.16604664161E+03 -0.94498445930E+03  0.11233917598E+04  0.91139435768E+02 0.  0.
         13    1    3    3    0    0 -0.49496573394E+03 -0.11969544295E+03 -0.74698508393E+03  0.90404910953E+03  0.00000000000E+00 0.  1.
        -13    1    3    3    0    0 -0.82213210251E+02 -0.46351198660E+02 -0.19799937537E+03  0.21934265022E+03  0.00000000000E+00 0. -1.
         22    1    1    2    0    0  0.57717894419E+03  0.16604664161E+03  0.13190918415E+03  0.61490410119E+03  0.00000000000E+00 0.  1.
<mgrwt>
<rscale>  0 0.15364183E+04</rscale>
<asrwt>0</asrwt>
<pdfrwt beam="1">  1        2 0.19625932E+00 0.15364183E+04</pdfrwt>
<pdfrwt beam="2">  1       -2 0.71170815E-01 0.15364183E+04</pdfrwt>
<totfact> 0.29506879E+01</totfact>
</mgrwt>
</event>
<event>
 6    1  0.1528034E-005  0.1060749E+04  0.7818608E-02  0.9244317E-01
          2   -1    0    0  501    0  0.00000000000E+00  0.00000000000E+00  0.24331164730E+04  0.24331164730E+04  0.00000000000E+00 0. -1.
         -2   -1    0    0    0  501 -0.00000000000E+00 -0.00000000000E+00 -0.11561174733E+03  0.11561174733E+03  0.00000000000E+00 0.  1.
         23    2    1    2    0    0 -0.29923952918E+03 -0.40566321281E+03  0.15332524278E+04  0.16164414593E+04  0.88955303179E+02 0.  0.
         11    1    3    3    0    0 -0.23827359550E+03 -0.32491225846E+03  0.10982579550E+04  0.11698345258E+04  0.00000000000E+00 0.  1.
        -11    1    3    3    0    0 -0.60965933674E+02 -0.80750954350E+02  0.43499447285E+03  0.44660693357E+03  0.00000000000E+00 0. -1.
         22    1    1    2    0    0  0.29923952918E+03  0.40566321281E+03  0.78425229783E+03  0.93228676098E+03  0.00000000000E+00 0. -1.
<mgrwt>
<rscale>  0 0.10607485E+04</rscale>
<asrwt>0</asrwt>
<pdfrwt beam="1">  1        2 0.37432557E+00 0.10607485E+04</pdfrwt>
<pdfrwt beam="2">  1       -2 0.17786424E-01 0.10607485E+04</pdfrwt>
<totfact> 0.10019637E+02</totfact>
</mgrwt>
</event>
<event>
 6    1  0.1528034E-005  0.2084674E+04  0.7818608E-02  0.8568025E-01
          1   -1    0    0  501    0  0.00000000000E+00  0.00000000000E+00  0.14188139344E+04  0.14188139344E+04  0.00000000000E+00 0. -1.
         -1   -1    0    0    0  501 -0.00000000000E+00 -0.00000000000E+00 -0.76575674255E+03  0.76575674255E+03  0.00000000000E+00 0.  1.
         23    2    1    2    0    0  0.27093663862E+03 -0.99327060581E+03  0.48359286702E+03  0.11411573763E+04  0.91569307060E+02 0.  0.
         11    1    3    3    0    0  0.24197184082E+03 -0.73798053002E+03  0.35812238116E+03  0.85522936942E+03  0.00000000000E+00 0. -1.
        -11    1    3    3    0    0  0.28964797804E+02 -0.25529007579E+03  0.12547048586E+03  0.28592800690E+03  0.00000000000E+00 0.  1.
         22    1    1    2    0    0 -0.27093663862E+03  0.99327060581E+03  0.16946432482E+03  0.10434133006E+04  0.00000000000E+00 0.  1.
<mgrwt>
<rscale>  0 0.20846739E+04</rscale>
<asrwt>0</asrwt>
<pdfrwt beam="1">  1        1 0.21827907E+00 0.20846739E+04</pdfrwt>
<pdfrwt beam="2">  1       -1 0.11780873E+00 0.20846739E+04</pdfrwt>
<totfact> 0.44445316E+00</totfact>
</mgrwt>
</event>
<event>
 6    1  0.1528034E-005  0.5418637E+03  0.7818608E-02  0.1003395E+00
         -2   -1    0    0    0  501 -0.00000000000E+00  0.00000000000E+00  0.36412449735E+02  0.36412449735E+02  0.00000000000E+00 0.  1.
          2   -1    0    0  501    0  0.00000000000E+00 -0.00000000000E+00 -0.20159055234E+04  0.20159055234E+04  0.00000000000E+00 0. -1.
         23    2    1    2    0    0  0.16464033300E+03  0.20194373650E+03 -0.11637633628E+04  0.11959870364E+04  0.90289062259E+02 0.  0.
         11    1    3    3    0    0  0.13625811130E+03  0.17831970882E+03 -0.10967262763E+04  0.11194519715E+04  0.00000000000E+00 0. -1.
        -11    1    3    3    0    0  0.28382221702E+02  0.23624027683E+02 -0.67037086491E+02  0.76535064891E+02  0.00000000000E+00 0.  1.
         22    1    1    2    0    0 -0.16464033300E+03 -0.20194373650E+03 -0.81572971090E+03  0.85633093673E+03  0.00000000000E+00 0.  1.
<mgrwt>
<rscale>  0 0.54186367E+03</rscale>
<asrwt>0</asrwt>
<pdfrwt beam="1">  1        2 0.31013944E+00 0.54186367E+03</pdfrwt>
<pdfrwt beam="2">  1       -2 0.56019131E-02 0.54186367E+03</pdfrwt>
<totfact> 0.11729603E+03</totfact>
</mgrwt>
</event>
<event>
 6    1  0.1528034E-005  0.3623879E+04  0.7818608E-02  0.8085044E-01
          1   -1    0    0  501    0  0.00000000000E+00  0.00000000000E+00  0.17587748261E+04  0.17587748261E+04  0.00000000000E+00 0. -1.
         -1   -1    0    0    0  501 -0.00000000000E+00 -0.00000000000E+00 -0.18667112200E+04  0.18667112200E+04  0.00000000000E+00 0.  1.
         23    2    1    2    0    0  0.30664376790E+03  0.17553579209E+04 -0.37650520869E+03  0.18234202762E+04  0.88280806226E+02 0.  0.
         11    1    3    3    0    0  0.30574980296E+03  0.16249349918E+04 -0.34098317823E+03  0.16882435243E+04  0.00000000000E+00 0.  1.
        -11    1    3    3    0    0  0.89396493341E+00  0.13042292910E+03 -0.35522030458E+02  0.13517675190E+03  0.00000000000E+00 0. -1.
         22    1    1    2    0    0 -0.30664376790E+03 -0.17553579209E+04  0.26856881479E+03  0.18020657699E+04  0.00000000000E+00 0. -1.
<mgrwt>
<rscale>  0 0.36238790E+04</rscale>
<asrwt>0</asrwt>
<pdfrwt beam="1">  1        1 0.27058074E+00 0.36238790E+04</pdfrwt>
<pdfrwt beam="2">  1       -1 0.28718634E+00 0.36238790E+04</pdfrwt>
<totfact> 0.14030012E-01</totfact>
</mgrwt>
</event>
<event>
 6    1  0.1528034E-005  0.4136489E+04  0.7818608E-02  0.7977564E-01
         -1   -1    0    0    0  501 -0.00000000000E+00  0.00000000000E+00  0.21723801527E+04  0.21723801527E+04  0.00000000000E+00 0.  1.
          1   -1    0    0  501    0  0.00000000000E+00 -0.00000000000E+00 -0.19691008252E+04  0.19691008252E+04  0.00000000000E+00 0. -1.
         23    2    1    2    0    0 -0.46113796419E+03 -0.96656819670E+02 -0.19136101759E+04  0.19727919885E+04  0.89518500153E+02 0.  0.
         13    1    3    3    0    0 -0.25654809843E+03 -0.93641331088E+02 -0.10067431325E+04  0.10431286405E+04  0.00000000000E+00 0.  1.
        -13    1    3    3    0    0 -0.20458986576E+03 -0.30154885821E+01 -0.90686704336E+03  0.92966334803E+03  0.00000000000E+00 0. -1.
         22    1    1    2    0    0  0.46113796419E+03  0.96656819670E+02  0.21168895034E+04  0.21686889893E+04  0.00000000000E+00 0.  1.
<mgrwt>
<rscale>  0 0.41364891E+04</rscale>
<asrwt>0</asrwt>
<pdfrwt beam="1">  1        1 0.30293859E+00 0.41364891E+04</pdfrwt>
<pdfrwt beam="2">  1       -1 0.33421233E+00 0.41364891E+04</pdfrwt>
<totfact> 0.47804759E-02</totfact>
</mgrwt>
</event>
<event>
 6    1  0.1528034E-005  0.1702009E+04  0.7818608E-02  0.8760220E-01
          2   -1    0    0  501    0  0.00000000000E+00  0.00000000000E+00  0.81180764339E+03  0.81180764339E+03  0.00000000000E+00 0. -1.
         -2   -1    0    0    0  501 -0.00000000000E+00 -0.00000000000E+00 -0.89209357475E+03  0.89209357475E+03  0.00000000000E+00 0.  1.
         23    2    1    2    0    0  0.41581931770E+03  0.94216218890E+01 -0.78093279015E+03  0.88910032671E+03  0.87457968741E+02 0.  0.
         11    1    3    3    0    0  0.36703915805E+03 -0.28154701116E+01 -0.73230598151E+03  0.81914450555E+03  0.00000000000E+00 0.  1.
        -11    1    3    3    0    0  0.48780159649E+02  0.12237092001E+02 -0.48626808634E+02  0.69955821159E+02  0.00000000000E+00 0. -1.
         22    1    1    2    0    0 -0.41581931770E+03 -0.94216218890E+01  0.70064685880E+03  0.81480089143E+03  0.00000000000E+00 0. -1.
<mgrwt>
<rscale>  0 0.17020087E+04</rscale>
<asrwt>0</asrwt>
<pdfrwt beam="1">  1        2 0.12489348E+00 0.17020087E+04</pdfrwt>
<pdfrwt beam="2">  1       -2 0.13724517E+00 0.17020087E+04</pdfrwt>
<totfact> 0.12149425E+01</totfact>
</mgrwt>
</event>
<event>
 6    1  0.1528034E-005  0.1833266E+04  0.7818608E-02  0.8688806E-01
          2   -1    0    0  501    0  0.00000000000E+00  0.00000000000E+00  0.27535444135E+04  0.27535444135E+04  0.00000000000E+00 0. -1.
         -2   -1    0    0    0  501 -0.00000000000E+00 -0.00000000000E+00 -0.30513983621E+03  0.30513983621E+03  0.00000000000E+00 0.  1.
         23    2    1    2    0    0 -0.43300485711E+03  0.75906656677E+03  0.77872305376E+03  0.11741387742E+04  0.92287635418E+02 0.  0.
         13    1    3    3    0    0 -0.12941370707E+03  0.15527633981E+03  0.20064685722E+03  0.28481188633E+03  0.00000000000E+00 0.  1.
        -13    1    3    3    0    0 -0.30359115004E+03  0.60379022696E+03  0.57807619654E+03  0.88932688791E+03  0.00000000000E+00 0. -1.
         22    1    1    2    0    0  0.43300485711E+03 -0.75906656677E+03  0.16696815235E+04  0.18845454754E+04  0.00000000000E+00 0. -1.
<mgrwt>
<rscale>  0 0.18332660E+04</rscale>
<asrwt>0</asrwt>
<pdfrwt beam="1">  1        2 0.42362220E+00 0.18332660E+04</pdfrwt>
<pdfrwt beam="2">  1       -2 0.46944592E-01 0.18332660E+04</pdfrwt>
<totfact> 0.10010714E+01</totfact>
</mgrwt>
</event>
<event>
 6    1  0.1528034E-005  0.3188279E+04  0.7818608E-02  0.8191920E-01
          1   -1    0    0  501    0  0.00000000000E+00  0.00000000000E+00  0.11249060718E+04  0.11249060718E+04  0.00000000000E+00 0. -1.
         -1   -1    0    0    0  501 -0.00000000000E+00 -0.00000000000E+00 -0.22591046324E+04  0.22591046324E+04  0.00000000000E+00 0.  1.
         23    2    1    2    0    0 -0.16486538458E+03 -0.12081119855E+04 -0.16551557311E+04  0.20580727199E+04  0.96993101566E+02 0.  0.
         11    1    3    3    0    0 -0.30003132419E+02 -0.28188405221E+03 -0.31986578893E+03  0.42740253833E+03  0.00000000000E+00 0. -1.
        -11    1    3    3    0    0 -0.13486225216E+03 -0.92622793329E+03 -0.13352899422E+04  0.16306701816E+04  0.00000000000E+00 0.  1.
         22    1    1    2    0    0  0.16486538458E+03  0.12081119855E+04  0.52095717046E+03  0.13259379842E+04  0.00000000000E+00 0. -1.
<mgrwt>
<rscale>  0 0.31882789E+04</rscale>
<asrwt>0</asrwt>
<pdfrwt beam="1">  1        1 0.17306247E+00 0.31882789E+04</pdfrwt>
<pdfrwt beam="2">  1       -1 0.34755455E+00 0.31882789E+04</pdfrwt>
<totfact> 0.16397493E-01</totfact>
</mgrwt>
</event>
<event>
 6    1  0.1528034E-005  0.1826366E+04  0.7818608E-02  0.8692403E-01
         -2   -1    0    0    0  501 -0.00000000000E+00  0.00000000000E+00  0.41005719811E+03  0.41005719811E+03  0.00000000000E+00 0. -1.
          2   -1    0    0  501    0  0.00000000000E+00 -0.00000000000E+00 -0.20336254054E+04  0.20336254054E+04  0.00000000000E+00 0.  1.
         23    2    1    2    0    0 -0.40556192728E+03 -0.63157002156E+03 -0.15043736465E+04  0.16837033193E+04  0.91409137031E+02 0.  0.
         13    1    3    3    0    0 -0.24650280100E+03 -0.45283346457E+03 -0.10721425914E+04  0.11896686571E+04  0.00000000000E+00 0. -1.
        -13    1    3    3    0    0 -0.15905912629E+03 -0.17873655699E+03 -0.43223105513E+03  0.49403466222E+03  0.00000000000E+00 0.  1.
         22    1    1    2    0    0  0.40556192728E+03  0.63157002156E+03 -0.11919456076E+03  0.75997928413E+03  0.00000000000E+00 0. -1.
<mgrwt>
<rscale>  0 0.18263655E+04</rscale>
<asrwt>0</asrwt>
<pdfrwt beam="1">  1        2 0.31286544E+00 0.18263655E+04</pdfrwt>
<pdfrwt beam="2">  1       -2 0.63085724E-01 0.18263655E+04</pdfrwt>
<totfact> 0.14033252E+01</totfact>
</mgrwt>
</event>
<event>
 6    1  0.1528034E-005  0.1377859E+04  0.7818608E-02  0.8970003E-01
          1   -1    0    0  501    0  0.00000000000E+00  0.00000000000E+00  0.11885163959E+04  0.11885163959E+04  0.00000000000E+00 0. -1.
         -1   -1    0    0    0  501 -0.00000000000E+00 -0.00000000000E+00 -0.39934166132E+03  0.39934166132E+03  0.00000000000E+00 0.  1.
         23    2    1    2    0    0  0.28510565215E+03  0.56237308130E+03  0.70801683628E+03  0.95214167396E+03  0.87961419835E+02 0.  0.
         13    1    3    3    0    0  0.13384143951E+03  0.22838153499E+03  0.35808440152E+03  0.44530449702E+03  0.00000000000E+00 0.  1.
        -13    1    3    3    0    0  0.15126421264E+03  0.33399154631E+03  0.34993243475E+03  0.50683717694E+03  0.00000000000E+00 0. -1.
         22    1    1    2    0    0 -0.28510565215E+03 -0.56237308130E+03  0.81157898266E+02  0.63571638323E+03  0.00000000000E+00 0.  1.
<mgrwt>
<rscale>  0 0.13778594E+04</rscale>
<asrwt>0</asrwt>
<pdfrwt beam="1">  1        1 0.18284867E+00 0.13778594E+04</pdfrwt>
<pdfrwt beam="2">  1       -1 0.61437179E-01 0.13778594E+04</pdfrwt>
<totfact> 0.28593690E+01</totfact>
</mgrwt>
</event>
<event>
 6    1  0.1528034E-005  0.2027537E+04  0.7818608E-02  0.8593853E-01
          1   -1    0    0  501    0  0.00000000000E+00  0.00000000000E+00  0.11975103261E+04  0.11975103261E+04  0.00000000000E+00 0. -1.
         -1   -1    0    0    0  501 -0.00000000000E+00 -0.00000000000E+00 -0.85821931867E+03  0.85821931867E+03  0.00000000000E+00 0.  1.
         23    2    1    2    0    0 -0.20037624686E+03  0.33083775498E+03  0.11179524886E+04  0.11862942173E+04  0.88723970151E+02 0.  0.
         13    1    3    3    0    0 -0.12034744846E+03  0.12532012433E+03  0.55993590695E+03  0.58627370895E+03  0.00000000000E+00 0. -1.
        -13    1    3    3    0    0 -0.80028798395E+02  0.20551763065E+03  0.55801658160E+03  0.60002050834E+03  0.00000000000E+00 0.  1.
         22    1    1    2    0    0  0.20037624686E+03 -0.33083775498E+03 -0.77866148111E+03  0.86943542750E+03  0.00000000000E+00 0.  1.
<mgrwt>
<rscale>  0 0.20275369E+04</rscale>
<asrwt>0</asrwt>
<pdfrwt beam="1">  1        1 0.18423236E+00 0.20275369E+04</pdfrwt>
<pdfrwt beam="2">  1       -1 0.13203374E+00 0.20275369E+04</pdfrwt>
<totfact> 0.48422410E+00</totfact>
</mgrwt>
</event>
<event>
 6    1  0.1528034E-005  0.2670200E+04  0.7818608E-02  0.8344739E-01
         -1   -1    0    0    0  501 -0.00000000000E+00  0.00000000000E+00  0.18167857476E+04  0.18167857476E+04  0.00000000000E+00 0.  1.
          1   -1    0    0  501    0  0.00000000000E+00 -0.00000000000E+00 -0.98112395436E+03  0.98112395436E+03  0.00000000000E+00 0. -1.
         23    2    1    2    0    0  0.44574638803E+03  0.15699308295E+03  0.17248494492E+04  0.17909383229E+04  0.94962009528E+02 0.  0.
         13    1    3    3    0    0  0.27991544662E+03  0.71978350937E+02  0.89867322984E+03  0.94400588679E+03  0.00000000000E+00 0. -1.
        -13    1    3    3    0    0  0.16583094141E+03  0.85014732018E+02  0.82617621941E+03  0.84693243609E+03  0.00000000000E+00 0.  1.
         22    1    1    2    0    0 -0.44574638803E+03 -0.15699308295E+03 -0.88918765605E+03  0.10069713790E+04  0.00000000000E+00 0. -1.
<mgrwt>
<rscale>  0 0.26702000E+04</rscale>
<asrwt>0</asrwt>
<pdfrwt beam="1">  1        1 0.15094215E+00 0.26702000E+04</pdfrwt>
<pdfrwt beam="2">  1       -1 0.27950550E+00 0.26702000E+04</pdfrwt>
<totfact> 0.61449533E-01</totfact>
</mgrwt>
</event>
<event>
 6    1  0.1528034E-005  0.1159768E+04  0.7818608E-02  0.9148819E-01
         -2   -1    0    0    0  501 -0.00000000000E+00  0.00000000000E+00  0.78580461696E+03  0.78580461696E+03  0.00000000000E+00 0.  1.
          2   -1    0    0  501    0  0.00000000000E+00 -0.00000000000E+00 -0.42792515430E+03  0.42792515430E+03  0.00000000000E+00 0. -1.
         23    2    1    2    0    0 -0.75519400721E+02 -0.11629099896E+03 -0.40549711838E+03  0.43786214028E+03  0.89825188821E+02 0.  0.
         11    1    3    3    0    0 -0.27707051289E+02 -0.69305809467E+02 -0.98241274260E+02  0.12337878215E+03  0.00000000000E+00 0.  1.
        -11    1    3    3    0    0 -0.47812349432E+02 -0.46985189491E+02 -0.30725584412E+03  0.31448335813E+03  0.00000000000E+00 0. -1.
         22    1    1    2    0    0  0.75519400721E+02  0.11629099896E+03  0.76337658105E+03  0.77586763099E+03  0.00000000000E+00 0.  1.
<mgrwt>
<rscale>  0 0.11597682E+04</rscale>
<asrwt>0</asrwt>
<pdfrwt beam="1">  1        2 0.65834639E-01 0.11597682E+04</pdfrwt>
<pdfrwt beam="2">  1       -2 0.12089302E+00 0.11597682E+04</pdfrwt>
<totfact> 0.37971082E+01</totfact>
</mgrwt>
</event>
<event>
 6    1  0.1528034E-005  0.2116722E+04  0.7818608E-02  0.8553913E-01
          2   -1    0    0  501    0  0.00000000000E+00  0.00000000000E+00  0.26499671398E+04  0.26499671398E+04  0.00000000000E+00 0. -1.
         -2   -1    0    0    0  501 -0.00000000000E+00 -0.00000000000E+00 -0.42269510218E+03  0.42269510218E+03  0.00000000000E+00 0.  1.
         23    2    1    2    0    0  0.37001319148E+03  0.45247458024E+03  0.23930626127E+04  0.24651019385E+04  0.91301100288E+02 0.  0.
         13    1    3    3    0    0  0.28718030105E+02  0.79357667363E+02  0.40886809007E+03  0.41748710124E+03  0.00000000000E+00 0.  1.
        -13    1    3    3    0    0  0.34129516137E+03  0.37311691288E+03  0.19841945226E+04  0.20476148372E+04  0.00000000000E+00 0. -1.
         22    1    1    2    0    0 -0.37001319148E+03 -0.45247458024E+03 -0.16579057509E+03  0.60756030353E+03  0.00000000000E+00 0.  1.
<mgrwt>
<rscale>  0 0.21167221E+04</rscale>
<asrwt>0</asrwt>
<pdfrwt beam="1">  1        2 0.40768724E+00 0.21167221E+04</pdfrwt>
<pdfrwt beam="2">  1       -2 0.65030018E-01 0.21167221E+04</pdfrwt>
<totfact> 0.57107887E+00</totfact>
</mgrwt>
</event>
<event>
 6    1  0.1528034E-005  0.2292311E+03  0.7818608E-02  0.1127182E+00
         -2   -1    0    0    0  501 -0.00000000000E+00  0.00000000000E+00  0.23664571048E+02  0.23664571048E+02  0.00000000000E+00 0.  1.
          2   -1    0    0  501    0  0.00000000000E+00 -0.00000000000E+00 -0.55512222344E+03  0.55512222344E+03  0.00000000000E+00 0. -1.
         23    2    1    2    0    0  0.93030661340E+02  0.10539948027E+02 -0.35625783043E+03  0.38013943843E+03  0.93917817550E+02 0.  0.
         13    1    3    3    0    0  0.15800490142E+02  0.44882236195E+02 -0.11271193319E+03  0.12234398432E+03  0.00000000000E+00 0. -1.
        -13    1    3    3    0    0  0.77230171198E+02 -0.34342288169E+02 -0.24354589724E+03  0.25779545411E+03  0.00000000000E+00 0.  1.
         22    1    1    2    0    0 -0.93030661340E+02 -0.10539948027E+02 -0.17519982197E+03  0.19864735606E+03  0.00000000000E+00 0.  1.
<mgrwt>
<rscale>  0 0.22923114E+03</rscale>
<asrwt>0</asrwt>
<pdfrwt beam="1">  1        2 0.85403412E-01 0.22923114E+03</pdfrwt>
<pdfrwt beam="2">  1       -2 0.36407035E-02 0.22923114E+03</pdfrwt>
<totfact> 0.17195302E+04</totfact>
</mgrwt>
</event>
<event>
 6    1  0.1528034E-005  0.2295266E+04  0.7818608E-02  0.8479790E-01
          2   -1    0    0  501    0  0.00000000000E+00  0.00000000000E+00  0.17839467041E+04  0.17839467041E+04  0.00000000000E+00 0.  1.
         -2   -1    0    0    0  501 -0.00000000000E+00 -0.00000000000E+00 -0.73828496906E+03  0.73828496906E+03  0.00000000000E+00 0. -1.
         23    2    1    2    0    0 -0.27980793289E+03 -0.70962891430E+02  0.17421925826E+04  0.17682532698E+04  0.90312900631E+02 0.  0.
         13    1    3    3    0    0 -0.14456342244E+03 -0.82596311276E+02  0.99350569419E+03  0.10073600638E+04  0.00000000000E+00 0. -1.
        -13    1    3    3    0    0 -0.13524451045E+03  0.11633419846E+02  0.74868688841E+03  0.76089320600E+03  0.00000000000E+00 0.  1.
         22    1    1    2    0    0  0.27980793289E+03  0.70962891430E+02 -0.69653084752E+03  0.75397840341E+03  0.00000000000E+00 0. -1.
<mgrwt>
<rscale>  0 0.22952656E+04</rscale>
<asrwt>0</asrwt>
<pdfrwt beam="1">  1        2 0.27445334E+00 0.22952656E+04</pdfrwt>
<pdfrwt beam="2">  1       -2 0.11358230E+00 0.22952656E+04</pdfrwt>
<totfact> 0.48553979E+00</totfact>
</mgrwt>
</event>
<event>
 6    1  0.1528034E-005  0.2374431E+04  0.7818608E-02  0.8449139E-01
          2   -1    0    0  501    0  0.00000000000E+00  0.00000000000E+00  0.18533615567E+04  0.18533615567E+04  0.00000000000E+00 0. -1.
         -2   -1    0    0    0  501 -0.00000000000E+00 -0.00000000000E+00 -0.76049926908E+03  0.76049926908E+03  0.00000000000E+00 0.  1.
         23    2    1    2    0    0 -0.11098645851E+04 -0.35272648514E+03  0.30350251970E+03  0.12069833564E+04  0.92085136879E+02 0.  0.
         11    1    3    3    0    0 -0.24360739982E+03 -0.56084802401E+02  0.32524682337E+02  0.25208713824E+03  0.00000000000E+00 0.  1.
        -11    1    3    3    0    0 -0.86625718532E+03 -0.29664168274E+03  0.27097783736E+03  0.95489621813E+03  0.00000000000E+00 0. -1.
         22    1    1    2    0    0  0.11098645851E+04  0.35272648514E+03  0.78935976789E+03  0.14068774694E+04  0.00000000000E+00 0.  1.
<mgrwt>
<rscale>  0 0.23744305E+04</rscale>
<asrwt>0</asrwt>
<pdfrwt beam="1">  1        2 0.28513254E+00 0.23744305E+04</pdfrwt>
<pdfrwt beam="2">  1       -2 0.11699989E+00 0.23744305E+04</pdfrwt>
<totfact> 0.41057765E+00</totfact>
</mgrwt>
</event>
<event>
 6    1  0.1528034E-005  0.2202815E+04  0.7818608E-02  0.8517257E-01
         -2   -1    0    0    0  501 -0.00000000000E+00  0.00000000000E+00  0.28939112268E+03  0.28939112268E+03  0.00000000000E+00 0.  1.
          2   -1    0    0  501    0  0.00000000000E+00 -0.00000000000E+00 -0.41918987487E+04  0.41918987487E+04  0.00000000000E+00 0. -1.
         23    2    1    2    0    0  0.60669782832E+02  0.10975059015E+04 -0.20056246837E+04  0.22889475342E+04  0.92468460938E+02 0.  0.
         13    1    3    3    0    0 -0.24498202679E+02  0.30095486216E+03 -0.55557564999E+03  0.63232767918E+03  0.00000000000E+00 0.  1.
        -13    1    3    3    0    0  0.85167985510E+02  0.79655103933E+03 -0.14500490337E+04  0.16566198551E+04  0.00000000000E+00 0. -1.
         22    1    1    2    0    0 -0.60669782832E+02 -0.10975059015E+04 -0.18968829423E+04  0.21923423371E+04  0.00000000000E+00 0.  1.
<mgrwt>
<rscale>  0 0.22028148E+04</rscale>
<asrwt>0</asrwt>
<pdfrwt beam="1">  1        2 0.64490750E+00 0.22028148E+04</pdfrwt>
<pdfrwt beam="2">  1       -2 0.44521711E-01 0.22028148E+04</pdfrwt>
<totfact> 0.10423056E+00</totfact>
</mgrwt>
</event>
<event>
 6    1  0.1528034E-005  0.3391474E+04  0.7818608E-02  0.8140002E-01
         -2   -1    0    0    0  501 -0.00000000000E+00  0.00000000000E+00  0.75511578010E+03  0.75511578010E+03  0.00000000000E+00 0.  1.
          2   -1    0    0  501    0  0.00000000000E+00 -0.00000000000E+00 -0.38080563939E+04  0.38080563939E+04  0.00000000000E+00 0. -1.
         23    2    1    2    0    0  0.27446994718E+03  0.14701264163E+04 -0.45565431292E+03  0.15660899995E+04  0.91714785464E+02 0.  0.
         11    1    3    3    0    0  0.12307809265E+03  0.54686455611E+03 -0.12979023094E+03  0.57537341238E+03  0.00000000000E+00 0. -1.
        -11    1    3    3    0    0  0.15139185453E+03  0.92326186019E+03 -0.32586408198E+03  0.99071658713E+03  0.00000000000E+00 0.  1.
         22    1    1    2    0    0 -0.27446994718E+03 -0.14701264163E+04 -0.25972863009E+04  0.29970821745E+04  0.00000000000E+00 0.  1.
<mgrwt>
<rscale>  0 0.33914737E+04</rscale>
<asrwt>0</asrwt>
<pdfrwt beam="1">  1        2 0.58585483E+00 0.33914737E+04</pdfrwt>
<pdfrwt beam="2">  1       -2 0.11617166E+00 0.33914737E+04</pdfrwt>
<totfact> 0.23043866E-01</totfact>
</mgrwt>
</event>
<event>
 6    1  0.1528034E-005  0.1391654E+04  0.7818608E-02  0.8959882E-01
         -1   -1    0    0    0  501 -0.00000000000E+00  0.00000000000E+00  0.93106648463E+03  0.93106648463E+03  0.00000000000E+00 0.  1.
          1   -1    0    0  501    0  0.00000000000E+00 -0.00000000000E+00 -0.52002203131E+03  0.52002203131E+03  0.00000000000E+00 0. -1.
         23    2    1    2    0    0  0.53723397340E+03 -0.21174136128E+03 -0.19309496360E+03  0.61536177750E+03  0.89048896544E+02 0.  0.
         11    1    3    3    0    0  0.33732547754E+03 -0.15015152565E+03 -0.16455451700E+03  0.40424268394E+03  0.00000000000E+00 0. -1.
        -11    1    3    3    0    0  0.19990849586E+03 -0.61589835629E+02 -0.28540446605E+02  0.21111909356E+03  0.00000000000E+00 0.  1.
         22    1    1    2    0    0 -0.53723397340E+03  0.21174136128E+03  0.60413941693E+03  0.83572673844E+03  0.00000000000E+00 0.  1.
<mgrwt>
<rscale>  0 0.13916538E+04</rscale>
<asrwt>0</asrwt>
<pdfrwt beam="1">  1        1 0.80003389E-01 0.13916538E+04</pdfrwt>
<pdfrwt beam="2">  1       -1 0.14324100E+00 0.13916538E+04</pdfrwt>
<totfact> 0.16162879E+01</totfact>
</mgrwt>
</event>
<event>
 6    1  0.1528034E-005  0.1638200E+04  0.7818608E-02  0.8797418E-01
         -1   -1    0    0    0  501 -0.00000000000E+00  0.00000000000E+00  0.11010845400E+04  0.11010845400E+04  0.00000000000E+00 0.  1.
          1   -1    0    0  501    0  0.00000000000E+00 -0.00000000000E+00 -0.60933071734E+03  0.60933071734E+03  0.00000000000E+00 0. -1.
         23    2    1    2    0    0  0.38471098058E+03 -0.58161022598E+03 -0.19699935758E+03  0.73028570630E+03  0.90749503530E+02 0.  0.
         11    1    3    3    0    0  0.16889847319E+03 -0.19444098349E+03 -0.43481107637E+02  0.26119838634E+03  0.00000000000E+00 0. -1.
        -11    1    3    3    0    0  0.21581250739E+03 -0.38716924249E+03 -0.15351824994E+03  0.46908731996E+03  0.00000000000E+00 0.  1.
         22    1    1    2    0    0 -0.38471098058E+03  0.58161022598E+03  0.68875318024E+03  0.98012955105E+03  0.00000000000E+00 0.  1.
<mgrwt>
<rscale>  0 0.16381998E+04</rscale>
<asrwt>0</asrwt>
<pdfrwt beam="1">  1        1 0.93743188E-01 0.16381998E+04</pdfrwt>
<pdfrwt beam="2">  1       -1 0.16939762E+00 0.16381998E+04</pdfrwt>
<totfact> 0.79626696E+00</totfact>
</mgrwt>
</event>
<event>
 6    1  0.1528034E-005  0.2471058E+04  0.7818608E-02  0.8413369E-01
          1   -1    0    0  501    0  0.00000000000E+00  0.00000000000E+00  0.15939912343E+04  0.15939912343E+04  0.00000000000E+00 0. -1.
         -1   -1    0    0    0  501 -0.00000000000E+00 -0.00000000000E+00 -0.95767930080E+03  0.95767930080E+03  0.00000000000E+00 0.  1.
         23    2    1    2    0    0  0.19044351242E+02  0.32104559836E+03  0.15486637184E+04  0.15842932856E+04  0.90514852774E+02 0.  0.
         11    1    3    3    0    0  0.95439104775E+00  0.26394002930E+03  0.10784384445E+04  0.11102678634E+04  0.00000000000E+00 0.  1.
        -11    1    3    3    0    0  0.18089960195E+02  0.57105569065E+02  0.47022527386E+03  0.47402542216E+03  0.00000000000E+00 0. -1.
         22    1    1    2    0    0 -0.19044351242E+02 -0.32104559836E+03 -0.91235178487E+03  0.96737724953E+03  0.00000000000E+00 0.  1.
<mgrwt>
<rscale>  0 0.24710584E+04</rscale>
<asrwt>0</asrwt>
<pdfrwt beam="1">  1        1 0.24522942E+00 0.24710584E+04</pdfrwt>
<pdfrwt beam="2">  1       -1 0.14733528E+00 0.24710584E+04</pdfrwt>
<totfact> 0.18370218E+00</totfact>
</mgrwt>
</event>
<event>
 6    1  0.1528034E-005  0.2343285E+04  0.7818608E-02  0.8461047E-01
          2   -1    0    0  501    0  0.00000000000E+00  0.00000000000E+00  0.14668505805E+04  0.14668505805E+04  0.00000000000E+00 0. -1.
         -2   -1    0    0    0  501 -0.00000000000E+00 -0.00000000000E+00 -0.93584601089E+03  0.93584601089E+03  0.00000000000E+00 0.  1.
         23    2    1    2    0    0  0.23213793457E+03  0.86412539916E+03  0.10383729967E+04  0.13740939242E+04  0.96513761213E+02 0.  0.
         13    1    3    3    0    0  0.46194744303E+02  0.33599276895E+03  0.36234507701E+03  0.49630539995E+03  0.00000000000E+00 0. -1.
        -13    1    3    3    0    0  0.18594319027E+03  0.52813263021E+03  0.67602791967E+03  0.87778852424E+03  0.00000000000E+00 0.  1.
         22    1    1    2    0    0 -0.23213793457E+03 -0.86412539916E+03 -0.50736842709E+03  0.10286026672E+04  0.00000000000E+00 0.  1.
<mgrwt>
<rscale>  0 0.23432851E+04</rscale>
<asrwt>0</asrwt>
<pdfrwt beam="1">  1        2 0.22566932E+00 0.23432851E+04</pdfrwt>
<pdfrwt beam="2">  1       -2 0.14397631E+00 0.23432851E+04</pdfrwt>
<totfact> 0.39980961E+00</totfact>
</mgrwt>
</event>
<event>
 6    1  0.1528034E-005  0.3462052E+04  0.7818608E-02  0.8122842E-01
          2   -1    0    0  501    0  0.00000000000E+00  0.00000000000E+00  0.12527224527E+04  0.12527224527E+04  0.00000000000E+00 0. -1.
         -2   -1    0    0    0  501 -0.00000000000E+00 -0.00000000000E+00 -0.23919516459E+04  0.23919516459E+04  0.00000000000E+00 0.  1.
         23    2    1    2    0    0  0.46899092866E+03  0.12333704389E+04  0.60758676529E+03  0.14554913462E+04  0.90212254726E+02 0.  0.
         11    1    3    3    0    0  0.22275416657E+03  0.70023975597E+03  0.35840728680E+03  0.81756401450E+03  0.00000000000E+00 0. -1.
        -11    1    3    3    0    0  0.24623676209E+03  0.53313068292E+03  0.24917947849E+03  0.63792733174E+03  0.00000000000E+00 0.  1.
         22    1    1    2    0    0 -0.46899092866E+03 -0.12333704389E+04 -0.17468159584E+04  0.21891827524E+04  0.00000000000E+00 0.  1.
<mgrwt>
<rscale>  0 0.34620523E+04</rscale>
<asrwt>0</asrwt>
<pdfrwt beam="1">  1        2 0.19272653E+00 0.34620523E+04</pdfrwt>
<pdfrwt beam="2">  1       -2 0.36799256E+00 0.34620523E+04</pdfrwt>
<totfact> 0.17359953E-01</totfact>
</mgrwt>
</event>
<event>
 6    1  0.1528034E-005  0.7042389E+04  0.7818608E-02  0.7573080E-01
         -2   -1    0    0    0  501 -0.00000000000E+00  0.00000000000E+00  0.44578172638E+04  0.44578172638E+04  0.00000000000E+00 0.  1.
          2   -1    0    0  501    0  0.00000000000E+00 -0.00000000000E+00 -0.27813636331E+04  0.27813636331E+04  0.00000000000E+00 0. -1.
         23    2    1    2    0    0  0.15571384517E+04  0.30147822009E+04 -0.12652583049E+03  0.33967432834E+04  0.90908035512E+02 0.  0.
         13    1    3    3    0    0  0.49210241135E+03  0.10466130977E+04 -0.44260243180E+02  0.11573775221E+04  0.00000000000E+00 0.  1.
        -13    1    3    3    0    0  0.10650360404E+04  0.19681691032E+04 -0.82265587311E+02  0.22393657613E+04  0.00000000000E+00 0. -1.
         22    1    1    2    0    0 -0.15571384517E+04 -0.30147822009E+04  0.18029794612E+04  0.38424376136E+04  0.00000000000E+00 0.  1.
<mgrwt>
<rscale>  0 0.70423890E+04</rscale>
<asrwt>0</asrwt>
<pdfrwt beam="1">  1        2 0.42790210E+00 0.70423890E+04</pdfrwt>
<pdfrwt beam="2">  1       -2 0.68581804E+00 0.70423890E+04</pdfrwt>
<totfact> 0.38654748E-04</totfact>
</mgrwt>
</event>
<event>
 6    1  0.1528034E-005  0.2805617E+04  0.7818608E-02  0.8301527E-01
         -2   -1    0    0    0  501 -0.00000000000E+00  0.00000000000E+00  0.22134804799E+04  0.22134804799E+04  0.00000000000E+00 0.  1.
          2   -1    0    0  501    0  0.00000000000E+00 -0.00000000000E+00 -0.88903948297E+03  0.88903948297E+03  0.00000000000E+00 0. -1.
         23    2    1    2    0    0 -0.28420265180E+03 -0.11431043379E+04 -0.17655764217E+03  0.11945221670E+04  0.90840143811E+02 0.  0.
         13    1    3    3    0    0 -0.19626927684E+03 -0.61262066784E+03 -0.80942464514E+02  0.64836517046E+03  0.00000000000E+00 0. -1.
        -13    1    3    3    0    0 -0.87933374966E+02 -0.53048367007E+03 -0.95615177654E+02  0.54615699651E+03  0.00000000000E+00 0.  1.
         22    1    1    2    0    0  0.28420265180E+03  0.11431043379E+04  0.15009986391E+04  0.19079977959E+04  0.00000000000E+00 0.  1.
<mgrwt>
<rscale>  0 0.28056169E+04</rscale>
<asrwt>0</asrwt>
<pdfrwt beam="1">  1        2 0.13677531E+00 0.28056169E+04</pdfrwt>
<pdfrwt beam="2">  1       -2 0.34053546E+00 0.28056169E+04</pdfrwt>
<totfact> 0.46289409E-01</totfact>
</mgrwt>
</event>
<event>
 6    1  0.1528034E-005  0.1642399E+04  0.7818608E-02  0.8794916E-01
         -1   -1    0    0    0  501 -0.00000000000E+00  0.00000000000E+00  0.99395837911E+03  0.99395837911E+03  0.00000000000E+00 0.  1.
          1   -1    0    0  501    0  0.00000000000E+00 -0.00000000000E+00 -0.67846781142E+03  0.67846781142E+03  0.00000000000E+00 0. -1.
         23    2    1    2    0    0  0.76622845339E+03  0.28416029694E+03  0.20629992134E+03  0.84794106974E+03  0.92689174476E+02 0.  0.
         11    1    3    3    0    0  0.49237537370E+03  0.22819981824E+03  0.12597580642E+03  0.55711629798E+03  0.00000000000E+00 0.  1.
        -11    1    3    3    0    0  0.27385307969E+03  0.55960478700E+02  0.80324114917E+02  0.29082477176E+03  0.00000000000E+00 0. -1.
         22    1    1    2    0    0 -0.76622845339E+03 -0.28416029694E+03  0.10919064634E+03  0.82448512079E+03  0.00000000000E+00 0. -1.
<mgrwt>
<rscale>  0 0.16423992E+04</rscale>
<asrwt>0</asrwt>
<pdfrwt beam="1">  1        1 0.10437966E+00 0.16423992E+04</pdfrwt>
<pdfrwt beam="2">  1       -1 0.15291667E+00 0.16423992E+04</pdfrwt>
<totfact> 0.90451790E+00</totfact>
</mgrwt>
</event>
<event>
 6    1  0.1528034E-005  0.2284322E+04  0.7818608E-02  0.8484128E-01
         -2   -1    0    0    0  501 -0.00000000000E+00  0.00000000000E+00  0.11365611112E+04  0.11365611112E+04  0.00000000000E+00 0.  1.
          2   -1    0    0  501    0  0.00000000000E+00 -0.00000000000E+00 -0.11477888534E+04  0.11477888534E+04  0.00000000000E+00 0. -1.
         23    2    1    2    0    0 -0.11135945118E+04 -0.17571752182E+03  0.16763043710E+03  0.11428773927E+04  0.84257861516E+02 0.  0.
         11    1    3    3    0    0 -0.52700402115E+03 -0.78862478825E+02  0.36947033769E+02  0.53415130083E+03  0.00000000000E+00 0. -1.
        -11    1    3    3    0    0 -0.58659049063E+03 -0.96855042992E+02  0.13068340334E+03  0.60872609190E+03  0.00000000000E+00 0.  1.
         22    1    1    2    0    0  0.11135945118E+04  0.17571752182E+03 -0.17885817933E+03  0.11414725719E+04  0.00000000000E+00 0.  1.
<mgrwt>
<rscale>  0 0.22843224E+04</rscale>
<asrwt>0</asrwt>
<pdfrwt beam="1">  1        2 0.17658290E+00 0.22843224E+04</pdfrwt>
<pdfrwt beam="2">  1       -2 0.17485556E+00 0.22843224E+04</pdfrwt>
<totfact> 0.36407124E+00</totfact>
</mgrwt>
</event>
<event>
 6    1  0.1528034E-005  0.2967550E+04  0.7818608E-02  0.8253058E-01
         -2   -1    0    0    0  501 -0.00000000000E+00  0.00000000000E+00  0.79576785042E+03  0.79576785042E+03  0.00000000000E+00 0.  1.
          2   -1    0    0  501    0  0.00000000000E+00 -0.00000000000E+00 -0.27666221091E+04  0.27666221091E+04  0.00000000000E+00 0. -1.
         23    2    1    2    0    0  0.14502930728E+04 -0.23147892179E+03 -0.74377497987E+03  0.16485832700E+04  0.87710257094E+02 0.  0.
         13    1    3    3    0    0  0.11818832457E+03 -0.42043705702E+02 -0.54015696161E+02  0.13657909315E+03  0.00000000000E+00 0.  1.
        -13    1    3    3    0    0  0.13321047482E+04 -0.18943521609E+03 -0.68975928371E+03  0.15120041769E+04  0.00000000000E+00 0. -1.
         22    1    1    2    0    0 -0.14502930728E+04  0.23147892179E+03 -0.12270792788E+04  0.19138066895E+04  0.00000000000E+00 0.  1.
<mgrwt>
<rscale>  0 0.29675505E+04</rscale>
<asrwt>0</asrwt>
<pdfrwt beam="1">  1        2 0.42563418E+00 0.29675505E+04</pdfrwt>
<pdfrwt beam="2">  1       -2 0.12242582E+00 0.29675505E+04</pdfrwt>
<totfact> 0.10497899E+00</totfact>
</mgrwt>
</event>
<event>
 6    1  0.1528034E-005  0.1846027E+04  0.7818608E-02  0.8682199E-01
          1   -1    0    0  501    0  0.00000000000E+00  0.00000000000E+00  0.15469194076E+04  0.15469194076E+04  0.00000000000E+00 0. -1.
         -1   -1    0    0    0  501 -0.00000000000E+00 -0.00000000000E+00 -0.55074209443E+03  0.55074209443E+03  0.00000000000E+00 0.  1.
         23    2    1    2    0    0  0.82447544237E+03  0.70318549070E+02  0.40422365721E+02  0.83347323560E+03  0.91319293662E+02 0.  0.
         11    1    3    3    0    0  0.62002732977E+03  0.72987267980E+02  0.64333129634E+02  0.62761435811E+03  0.00000000000E+00 0.  1.
        -11    1    3    3    0    0  0.20444811261E+03 -0.26687189104E+01 -0.23910763913E+02  0.20585887748E+03  0.00000000000E+00 0. -1.
         22    1    1    2    0    0 -0.82447544237E+03 -0.70318549070E+02  0.95575494746E+03  0.12641882664E+04  0.00000000000E+00 0. -1.
<mgrwt>
<rscale>  0 0.18460267E+04</rscale>
<asrwt>0</asrwt>
<pdfrwt beam="1">  1        1 0.23798760E+00 0.18460267E+04</pdfrwt>
<pdfrwt beam="2">  1       -1 0.84729554E-01 0.18460267E+04</pdfrwt>
<totfact> 0.78651257E+00</totfact>
</mgrwt>
</event>
<event>
 6    1  0.1528034E-005  0.5371390E+04  0.7818608E-02  0.7773638E-01
          2   -1    0    0  501    0  0.00000000000E+00  0.00000000000E+00  0.31357452368E+04  0.31357452368E+04  0.00000000000E+00 0. -1.
         -2   -1    0    0    0  501 -0.00000000000E+00 -0.00000000000E+00 -0.23002367586E+04  0.23002367586E+04  0.00000000000E+00 0.  1.
         23    2    1    2    0    0  0.26032699936E+04 -0.60245504570E+03  0.15030649817E+03  0.26774554874E+04  0.78797857474E+02 0.  0.
         13    1    3    3    0    0  0.29510169507E+03 -0.66149238084E+02 -0.78701101628E+01  0.30252714054E+03  0.00000000000E+00 0. -1.
        -13    1    3    3    0    0  0.23081682985E+04 -0.53630580761E+03  0.15817660833E+03  0.23749283469E+04  0.00000000000E+00 0.  1.
         22    1    1    2    0    0 -0.26032699936E+04  0.60245504570E+03  0.68520198003E+03  0.27585265079E+04  0.00000000000E+00 0.  1.
<mgrwt>
<rscale>  0 0.53713896E+04</rscale>
<asrwt>0</asrwt>
<pdfrwt beam="1">  1        2 0.48242235E+00 0.53713896E+04</pdfrwt>
<pdfrwt beam="2">  1       -2 0.35388258E+00 0.53713896E+04</pdfrwt>
<totfact> 0.14828322E-02</totfact>
</mgrwt>
</event>
<event>
 6    1  0.1528034E-005  0.3386060E+04  0.7818608E-02  0.8141336E-01
          2   -1    0    0  501    0  0.00000000000E+00  0.00000000000E+00  0.23817458441E+04  0.23817458441E+04  0.00000000000E+00 0. -1.
         -2   -1    0    0    0  501 -0.00000000000E+00 -0.00000000000E+00 -0.12034660679E+04  0.12034660679E+04  0.00000000000E+00 0.  1.
         23    2    1    2    0    0  0.72597348214E+03 -0.13325930314E+04  0.13816596211E+04  0.20541322127E+04  0.87373649853E+02 0.  0.
         13    1    3    3    0    0  0.20543935511E+03 -0.45579197016E+03  0.47679553163E+03  0.69085861627E+03  0.00000000000E+00 0. -1.
        -13    1    3    3    0    0  0.52053412703E+03 -0.87680106123E+03  0.90486408950E+03  0.13632735965E+04  0.00000000000E+00 0.  1.
         22    1    1    2    0    0 -0.72597348214E+03  0.13325930314E+04 -0.20337984488E+03  0.15310796992E+04  0.00000000000E+00 0.  1.
<mgrwt>
<rscale>  0 0.33860598E+04</rscale>
<asrwt>0</asrwt>
<pdfrwt beam="1">  1        2 0.36642244E+00 0.33860598E+04</pdfrwt>
<pdfrwt beam="2">  1       -2 0.18514863E+00 0.33860598E+04</pdfrwt>
<totfact> 0.56456107E-01</totfact>
</mgrwt>
</event>
<event>
 6    1  0.1528034E-005  0.1568638E+04  0.7818608E-02  0.8840050E-01
          2   -1    0    0  501    0  0.00000000000E+00  0.00000000000E+00  0.91571783371E+03  0.91571783371E+03  0.00000000000E+00 0.  1.
         -2   -1    0    0    0  501 -0.00000000000E+00 -0.00000000000E+00 -0.67177480444E+03  0.67177480444E+03  0.00000000000E+00 0. -1.
         23    2    1    2    0    0 -0.51323301580E+03  0.23857021113E+03 -0.42343342548E+03  0.71244109309E+03  0.89177189660E+02 0.  0.
         13    1    3    3    0    0 -0.45493420151E+03  0.23904289720E+03 -0.36887924403E+03  0.63259665750E+03  0.00000000000E+00 0. -1.
        -13    1    3    3    0    0 -0.58298814296E+02 -0.47268607162E+00 -0.54554181454E+02  0.79844435589E+02  0.00000000000E+00 0.  1.
         22    1    1    2    0    0  0.51323301580E+03 -0.23857021113E+03  0.66737645475E+03  0.87505154506E+03  0.00000000000E+00 0.  1.
<mgrwt>
<rscale>  0 0.15686378E+04</rscale>
<asrwt>0</asrwt>
<pdfrwt beam="1">  1        2 0.14087967E+00 0.15686378E+04</pdfrwt>
<pdfrwt beam="2">  1       -2 0.10334997E+00 0.15686378E+04</pdfrwt>
<totfact> 0.21004895E+01</totfact>
</mgrwt>
</event>
<event>
 6    1  0.1528034E-005  0.2863916E+04  0.7818608E-02  0.8283695E-01
          2   -1    0    0  501    0  0.00000000000E+00  0.00000000000E+00  0.33043857901E+04  0.33043857901E+04  0.00000000000E+00 0. -1.
         -2   -1    0    0    0  501 -0.00000000000E+00 -0.00000000000E+00 -0.62053993742E+03  0.62053993742E+03  0.00000000000E+00 0.  1.
         23    2    1    2    0    0 -0.10648022595E+04 -0.79246124255E+03  0.61256671491E+03  0.14648452534E+04  0.93461025257E+02 0.  0.
         11    1    3    3    0    0 -0.28264038762E+03 -0.23955470032E+03  0.20958897712E+03  0.42567544266E+03  0.00000000000E+00 0. -1.
        -11    1    3    3    0    0 -0.78216187190E+03 -0.55290654224E+03  0.40297773779E+03  0.10391698107E+04  0.00000000000E+00 0.  1.
         22    1    1    2    0    0  0.10648022595E+04  0.79246124255E+03  0.20712791378E+04  0.24600804742E+04  0.00000000000E+00 0. -1.
<mgrwt>
<rscale>  0 0.28639157E+04</rscale>
<asrwt>0</asrwt>
<pdfrwt beam="1">  1        2 0.50836703E+00 0.28639157E+04</pdfrwt>
<pdfrwt beam="2">  1       -2 0.95467685E-01 0.28639157E+04</pdfrwt>
<totfact> 0.88194992E-01</totfact>
</mgrwt>
</event>
<event>
 6    1  0.1528034E-005  0.1205680E+04  0.7818608E-02  0.9107900E-01
          1   -1    0    0  501    0  0.00000000000E+00  0.00000000000E+00  0.14589266840E+03  0.14589266840E+03  0.00000000000E+00 0. -1.
         -1   -1    0    0    0  501 -0.00000000000E+00 -0.00000000000E+00 -0.24909814768E+04  0.24909814768E+04  0.00000000000E+00 0.  1.
         23    2    1    2    0    0 -0.47970965103E+03  0.25266094420E+03 -0.62014150807E+03  0.82872534298E+03  0.90836677884E+02 0.  0.
         13    1    3    3    0    0 -0.21464971236E+03  0.74163226319E+02 -0.21506001306E+03  0.31277067058E+03  0.00000000000E+00 0.  1.
        -13    1    3    3    0    0 -0.26505993867E+03  0.17849771788E+03 -0.40508149501E+03  0.51595467240E+03  0.00000000000E+00 0. -1.
         22    1    1    2    0    0  0.47970965103E+03 -0.25266094420E+03 -0.17249473004E+04  0.18081488022E+04  0.00000000000E+00 0.  1.
<mgrwt>
<rscale>  0 0.12056798E+04</rscale>
<asrwt>0</asrwt>
<pdfrwt beam="1">  1        1 0.22445027E-01 0.12056798E+04</pdfrwt>
<pdfrwt beam="2">  1       -1 0.38322790E+00 0.12056798E+04</pdfrwt>
<totfact> 0.21019907E+00</totfact>
</mgrwt>
</event>
<event>
 6    1  0.1528034E-005  0.1884372E+04  0.7818608E-02  0.8662675E-01
         -1   -1    0    0    0  501 -0.00000000000E+00  0.00000000000E+00  0.33739833150E+03  0.33739833150E+03  0.00000000000E+00 0.  1.
          1   -1    0    0  501    0  0.00000000000E+00 -0.00000000000E+00 -0.26310569361E+04  0.26310569361E+04  0.00000000000E+00 0. -1.
         23    2    1    2    0    0 -0.13353720692E+03 -0.89014159690E+03 -0.15765221700E+04  0.18175995364E+04  0.89786826381E+02 0.  0.
         13    1    3    3    0    0 -0.53025545891E+02 -0.62602865297E+03 -0.10780432060E+04  0.12477582846E+04  0.00000000000E+00 0. -1.
        -13    1    3    3    0    0 -0.80511661026E+02 -0.26411294393E+03 -0.49847896395E+03  0.56984125177E+03  0.00000000000E+00 0.  1.
         22    1    1    2    0    0  0.13353720692E+03  0.89014159690E+03 -0.71713643468E+03  0.11508557312E+04  0.00000000000E+00 0.  1.
<mgrwt>
<rscale>  0 0.18843717E+04</rscale>
<asrwt>0</asrwt>
<pdfrwt beam="1">  1        1 0.40477799E+00 0.18843717E+04</pdfrwt>
<pdfrwt beam="2">  1       -1 0.51907435E-01 0.18843717E+04</pdfrwt>
<totfact> 0.38459527E+00</totfact>
</mgrwt>
</event>
<event>
 6    1  0.1528034E-005  0.1427215E+04  0.7818608E-02  0.8934351E-01
          2   -1    0    0  501    0  0.00000000000E+00  0.00000000000E+00  0.42547228135E+03  0.42547228135E+03  0.00000000000E+00 0. -1.
         -2   -1    0    0    0  501 -0.00000000000E+00 -0.00000000000E+00 -0.11968710929E+04  0.11968710929E+04  0.00000000000E+00 0.  1.
         23    2    1    2    0    0 -0.60927056563E+03  0.19364572213E+02  0.27902638292E+02  0.61712279321E+03  0.92067235678E+02 0.  0.
         13    1    3    3    0    0 -0.26795164601E+03  0.14125065130E+01  0.57492082151E+02  0.27405367956E+03  0.00000000000E+00 0. -1.
        -13    1    3    3    0    0 -0.34131891962E+03  0.17952065700E+02 -0.29589443859E+02  0.34306911365E+03  0.00000000000E+00 0.  1.
         22    1    1    2    0    0  0.60927056563E+03 -0.19364572213E+02 -0.79930144983E+03  0.10052205810E+04  0.00000000000E+00 0.  1.
<mgrwt>
<rscale>  0 0.14272147E+04</rscale>
<asrwt>0</asrwt>
<pdfrwt beam="1">  1        2 0.65457274E-01 0.14272147E+04</pdfrwt>
<pdfrwt beam="2">  1       -2 0.18413401E+00 0.14272147E+04</pdfrwt>
<totfact> 0.12218668E+01</totfact>
</mgrwt>
</event>
<event>
 6    1  0.1528034E-005  0.5462481E+04  0.7818608E-02  0.7760873E-01
          1   -1    0    0  501    0  0.00000000000E+00  0.00000000000E+00  0.40180075569E+04  0.40180075569E+04  0.00000000000E+00 0. -1.
         -1   -1    0    0    0  501 -0.00000000000E+00 -0.00000000000E+00 -0.18565604285E+04  0.18565604285E+04  0.00000000000E+00 0.  1.
         23    2    1    2    0    0 -0.74612758102E+03 -0.22671014470E+04  0.25074872593E+04  0.34628882574E+04  0.87449352514E+02 0.  0.
         13    1    3    3    0    0 -0.41654670947E+03 -0.12507109843E+04  0.13220840585E+04  0.18670017100E+04  0.00000000000E+00 0. -1.
        -13    1    3    3    0    0 -0.32958087154E+03 -0.10163904627E+04  0.11854032008E+04  0.15958865474E+04  0.00000000000E+00 0.  1.
         22    1    1    2    0    0  0.74612758102E+03  0.22671014470E+04 -0.34604013086E+03  0.24116797280E+04  0.00000000000E+00 0.  1.
<mgrwt>
<rscale>  0 0.54624807E+04</rscale>
<asrwt>0</asrwt>
<pdfrwt beam="1">  1        1 0.61815501E+00 0.54624807E+04</pdfrwt>
<pdfrwt beam="2">  1       -1 0.28562468E+00 0.54624807E+04</pdfrwt>
<totfact> 0.26259821E-03</totfact>
</mgrwt>
</event>
<event>
 6    1  0.1528034E-005  0.8216784E+03  0.7818608E-02  0.9529158E-01
          2   -1    0    0  501    0  0.00000000000E+00  0.00000000000E+00  0.72840398877E+03  0.72840398877E+03  0.00000000000E+00 0. -1.
         -2   -1    0    0    0  501 -0.00000000000E+00 -0.00000000000E+00 -0.23172423678E+03  0.23172423678E+03  0.00000000000E+00 0.  1.
         23    2    1    2    0    0 -0.25952747341E+03 -0.57760689601E+02  0.60932594857E+03  0.67137232116E+03  0.93658290065E+02 0.  0.
         11    1    3    3    0    0 -0.18424053627E+03 -0.32943254669E+02  0.31359270246E+03  0.36519887222E+03  0.00000000000E+00 0. -1.
        -11    1    3    3    0    0 -0.75286937138E+02 -0.24817434933E+02  0.29573324610E+03  0.30617344893E+03  0.00000000000E+00 0.  1.
         22    1    1    2    0    0  0.25952747341E+03  0.57760689601E+02 -0.11264619658E+03  0.28875590439E+03  0.00000000000E+00 0.  1.
<mgrwt>
<rscale>  0 0.82167842E+03</rscale>
<asrwt>0</asrwt>
<pdfrwt beam="1">  1        2 0.11206215E+00 0.82167842E+03</pdfrwt>
<pdfrwt beam="2">  1       -2 0.35649883E-01 0.82167842E+03</pdfrwt>
<totfact> 0.28931217E+02</totfact>
</mgrwt>
</event>
<event>
 6    1  0.1528034E-005  0.2514771E+04  0.7818608E-02  0.8397742E-01
          1   -1    0    0  501    0  0.00000000000E+00  0.00000000000E+00  0.15469893104E+04  0.15469893104E+04  0.00000000000E+00 0. -1.
         -1   -1    0    0    0  501 -0.00000000000E+00 -0.00000000000E+00 -0.10219967309E+04  0.10219967309E+04  0.00000000000E+00 0.  1.
         23    2    1    2    0    0  0.27790888269E+03  0.71963865031E+03 -0.74933017082E+03  0.10793513189E+04  0.91599293530E+02 0.  0.
         13    1    3    3    0    0  0.97277099864E+02  0.18354606580E+03 -0.15789529989E+03  0.26092703607E+03  0.00000000000E+00 0. -1.
        -13    1    3    3    0    0  0.18063178282E+03  0.53609258451E+03 -0.59143487094E+03  0.81842428281E+03  0.00000000000E+00 0.  1.
         22    1    1    2    0    0 -0.27790888269E+03 -0.71963865031E+03  0.12743227503E+04  0.14896347223E+04  0.00000000000E+00 0. -1.
<mgrwt>
<rscale>  0 0.25147708E+04</rscale>
<asrwt>0</asrwt>
<pdfrwt beam="1">  1        1 0.23799835E+00 0.25147708E+04</pdfrwt>
<pdfrwt beam="2">  1       -1 0.15723027E+00 0.25147708E+04</pdfrwt>
<totfact> 0.16522384E+00</totfact>
</mgrwt>
</event>
<event>
 6    1  0.1528034E-005  0.4330878E+03  0.7818608E-02  0.1032889E+00
          1   -1    0    0  501    0  0.00000000000E+00  0.00000000000E+00  0.14883617680E+03  0.14883617680E+03  0.00000000000E+00 0. -1.
         -1   -1    0    0    0  501 -0.00000000000E+00 -0.00000000000E+00 -0.31505286716E+03  0.31505286716E+03  0.00000000000E+00 0.  1.
         23    2    1    2    0    0  0.14729070698E+03  0.14452617771E+03 -0.10243213500E+03  0.24790099357E+03  0.91543388235E+02 0.  0.
         11    1    3    3    0    0  0.60529541940E+02  0.12163294647E+03 -0.57157576912E+02  0.14739534495E+03  0.00000000000E+00 0. -1.
        -11    1    3    3    0    0  0.86761165036E+02  0.22893231237E+02 -0.45274558090E+02  0.10050564862E+03  0.00000000000E+00 0.  1.
         22    1    1    2    0    0 -0.14729070698E+03 -0.14452617771E+03 -0.63784555355E+02  0.21598805038E+03  0.00000000000E+00 0. -1.
<mgrwt>
<rscale>  0 0.43308782E+03</rscale>
<asrwt>0</asrwt>
<pdfrwt beam="1">  1        1 0.22897874E-01 0.43308782E+03</pdfrwt>
<pdfrwt beam="2">  1       -1 0.48469671E-01 0.43308782E+03</pdfrwt>
<totfact> 0.93625352E+02</totfact>
</mgrwt>
</event>
<event>
 6    1  0.1528034E-005  0.1141161E+04  0.7818608E-02  0.9165977E-01
         -2   -1    0    0    0  501 -0.00000000000E+00  0.00000000000E+00  0.63392409788E+03  0.63392409788E+03  0.00000000000E+00 0.  1.
          2   -1    0    0  501    0  0.00000000000E+00 -0.00000000000E+00 -0.51356615634E+03  0.51356615634E+03  0.00000000000E+00 0. -1.
         23    2    1    2    0    0 -0.54717990722E+03  0.42355573661E+02 -0.83356791166E+02  0.56208480685E+03  0.88267377697E+02 0.  0.
         13    1    3    3    0    0 -0.55696386863E+02  0.24304193886E+02 -0.28817944054E+02  0.67255150357E+02  0.00000000000E+00 0. -1.
        -13    1    3    3    0    0 -0.49148352036E+03  0.18051379775E+02 -0.54538847112E+02  0.49482965649E+03  0.00000000000E+00 0.  1.
         22    1    1    2    0    0  0.54717990722E+03 -0.42355573661E+02  0.20371473270E+03  0.58540544737E+03  0.00000000000E+00 0.  1.
<mgrwt>
<rscale>  0 0.11411607E+04</rscale>
<asrwt>0</asrwt>
<pdfrwt beam="1">  1        2 0.79010178E-01 0.11411607E+04</pdfrwt>
<pdfrwt beam="2">  1       -2 0.97526785E-01 0.11411607E+04</pdfrwt>
<totfact> 0.51817235E+01</totfact>
</mgrwt>
</event>
<event>
 6    1  0.1528034E-005  0.4268108E+04  0.7818608E-02  0.7952542E-01
         -2   -1    0    0    0  501 -0.00000000000E+00  0.00000000000E+00  0.20740823144E+04  0.20740823144E+04  0.00000000000E+00 0.  1.
          2   -1    0    0  501    0  0.00000000000E+00 -0.00000000000E+00 -0.21957594204E+04  0.21957594204E+04  0.00000000000E+00 0. -1.
         23    2    1    2    0    0  0.15001920021E+04 -0.10633240673E+04 -0.11424065092E+04  0.21667196199E+04  0.91362814978E+02 0.  0.
         13    1    3    3    0    0  0.12430027412E+04 -0.89088676348E+03 -0.98830546637E+03  0.18208467082E+04  0.00000000000E+00 0.  1.
        -13    1    3    3    0    0  0.25718926093E+03 -0.17243730379E+03 -0.15410104287E+03  0.34587291175E+03  0.00000000000E+00 0. -1.
         22    1    1    2    0    0 -0.15001920021E+04  0.10633240673E+04  0.10207294033E+04  0.21031221148E+04  0.00000000000E+00 0.  1.
<mgrwt>
<rscale>  0 0.42681077E+04</rscale>
<asrwt>0</asrwt>
<pdfrwt beam="1">  1        2 0.33780914E+00 0.42681077E+04</pdfrwt>
<pdfrwt beam="2">  1       -2 0.31908959E+00 0.42681077E+04</pdfrwt>
<totfact> 0.97231131E-02</totfact>
</mgrwt>
</event>
<event>
 6    1  0.1528034E-005  0.3018754E+04  0.7818608E-02  0.8238396E-01
          1   -1    0    0  501    0  0.00000000000E+00  0.00000000000E+00  0.16006339944E+04  0.16006339944E+04  0.00000000000E+00 0. -1.
         -1   -1    0    0    0  501 -0.00000000000E+00 -0.00000000000E+00 -0.14233232624E+04  0.14233232624E+04  0.00000000000E+00 0.  1.
         23    2    1    2    0    0 -0.99656826888E+03  0.31987776448E+03  0.11764332436E+04  0.15769894299E+04  0.86199690930E+02 0.  0.
         11    1    3    3    0    0 -0.13830273594E+03  0.45088124030E+02  0.21129424121E+03  0.25652649389E+03  0.00000000000E+00 0. -1.
        -11    1    3    3    0    0 -0.85826553294E+03  0.27478964045E+03  0.96513900240E+03  0.13204629361E+04  0.00000000000E+00 0.  1.
         22    1    1    2    0    0  0.99656826888E+03 -0.31987776448E+03 -0.99912251157E+03  0.14469678268E+04  0.00000000000E+00 0.  1.
<mgrwt>
<rscale>  0 0.30187544E+04</rscale>
<asrwt>0</asrwt>
<pdfrwt beam="1">  1        1 0.24625139E+00 0.30187544E+04</pdfrwt>
<pdfrwt beam="2">  1       -1 0.21897281E+00 0.30187544E+04</pdfrwt>
<totfact> 0.52963509E-01</totfact>
</mgrwt>
</event>
<event>
 6    1  0.1528034E-005  0.1987587E+04  0.7818608E-02  0.8612446E-01
          3   -1    0    0  501    0  0.00000000000E+00  0.00000000000E+00  0.25914580309E+04  0.25914580309E+04  0.00000000000E+00 0. -1.
         -3   -1    0    0    0  501 -0.00000000000E+00 -0.00000000000E+00 -0.38110797117E+03  0.38110797117E+03  0.00000000000E+00 0.  1.
         23    2    1    2    0    0 -0.85837488044E+03  0.26567409596E+03  0.17352017282E+04  0.19561231372E+04  0.90014052684E+02 0.  0.
         11    1    3    3    0    0 -0.49653574847E+03  0.19518055259E+03  0.10684082800E+04  0.11942108065E+04  0.00000000000E+00 0. -1.
        -11    1    3    3    0    0 -0.36183913197E+03  0.70493543369E+02  0.66679344819E+03  0.76191233067E+03  0.00000000000E+00 0.  1.
         22    1    1    2    0    0  0.85837488044E+03 -0.26567409596E+03  0.47514833156E+03  0.10164428649E+04  0.00000000000E+00 0.  1.
<mgrwt>
<rscale>  0 0.19875868E+04</rscale>
<asrwt>0</asrwt>
<pdfrwt beam="1">  1        3 0.39868584E+00 0.19875868E+04</pdfrwt>
<pdfrwt beam="2">  1       -3 0.58631997E-01 0.19875868E+04</pdfrwt>
<totfact> 0.78595746E-02</totfact>
</mgrwt>
</event>
<event>
 6    1  0.1528034E-005  0.2313744E+04  0.7818608E-02  0.8472522E-01
          2   -1    0    0  501    0  0.00000000000E+00  0.00000000000E+00  0.72803084748E+03  0.72803084748E+03  0.00000000000E+00 0. -1.
         -2   -1    0    0    0  501 -0.00000000000E+00 -0.00000000000E+00 -0.18383195660E+04  0.18383195660E+04  0.00000000000E+00 0.  1.
         23    2    1    2    0    0 -0.55115681005E+03 -0.51686454301E+03 -0.15249551774E+04  0.17044507342E+04  0.93494531041E+02 0.  0.
         13    1    3    3    0    0 -0.37626195743E+03 -0.31114566908E+03 -0.10536792645E+04  0.11613030097E+04  0.00000000000E+00 0.  1.
        -13    1    3    3    0    0 -0.17489485262E+03 -0.20571887392E+03 -0.47127591288E+03  0.54314772449E+03  0.00000000000E+00 0. -1.
         22    1    1    2    0    0  0.55115681005E+03  0.51686454301E+03  0.41466645881E+03  0.86189967928E+03  0.00000000000E+00 0. -1.
<mgrwt>
<rscale>  0 0.23137445E+04</rscale>
<asrwt>0</asrwt>
<pdfrwt beam="1">  1        2 0.11200475E+00 0.23137445E+04</pdfrwt>
<pdfrwt beam="2">  1       -2 0.28281839E+00 0.23137445E+04</pdfrwt>
<totfact> 0.14286956E+00</totfact>
</mgrwt>
</event>
<event>
 6    1  0.1528034E-005  0.1474956E+04  0.7818608E-02  0.8901280E-01
         -1   -1    0    0    0  501 -0.00000000000E+00  0.00000000000E+00  0.14080892220E+04  0.14080892220E+04  0.00000000000E+00 0.  1.
          1   -1    0    0  501    0  0.00000000000E+00 -0.00000000000E+00 -0.38624949685E+03  0.38624949685E+03  0.00000000000E+00 0. -1.
         23    2    1    2    0    0 -0.55760049943E+03 -0.47690242379E+03  0.55755014216E+03  0.92605359535E+03  0.91426810406E+02 0.  0.
         13    1    3    3    0    0 -0.16861361082E+03 -0.18505927843E+03  0.22796371091E+03  0.33859258671E+03  0.00000000000E+00 0. -1.
        -13    1    3    3    0    0 -0.38898688861E+03 -0.29184314536E+03  0.32958643125E+03  0.58746100864E+03  0.00000000000E+00 0.  1.
         22    1    1    2    0    0  0.55760049943E+03  0.47690242379E+03  0.46428958296E+03  0.86828512346E+03  0.00000000000E+00 0. -1.
<mgrwt>
<rscale>  0 0.14749559E+04</rscale>
<asrwt>0</asrwt>
<pdfrwt beam="1">  1        1 0.59423000E-01 0.14749559E+04</pdfrwt>
<pdfrwt beam="2">  1       -1 0.21662911E+00 0.14749559E+04</pdfrwt>
<totfact> 0.70643649E+00</totfact>
</mgrwt>
</event>
<event>
 6    1  0.1528034E-005  0.2269926E+04  0.7818608E-02  0.8489874E-01
          2   -1    0    0  501    0  0.00000000000E+00  0.00000000000E+00  0.18089733644E+04  0.18089733644E+04  0.00000000000E+00 0. -1.
         -2   -1    0    0    0  501 -0.00000000000E+00 -0.00000000000E+00 -0.71208383946E+03  0.71208383946E+03  0.00000000000E+00 0.  1.
         23    2    1    2    0    0 -0.14401705126E+03 -0.54859955041E+03 -0.54017181554E+03  0.78852373801E+03  0.91003941333E+02 0.  0.
         11    1    3    3    0    0 -0.30584147126E+01 -0.34481020552E+02 -0.68379234930E+02  0.76642119285E+02  0.00000000000E+00 0. -1.
        -11    1    3    3    0    0 -0.14095863655E+03 -0.51411852985E+03 -0.47179258061E+03  0.71188161873E+03  0.00000000000E+00 0.  1.
         22    1    1    2    0    0  0.14401705126E+03  0.54859955041E+03  0.16370613405E+04  0.17325334659E+04  0.00000000000E+00 0. -1.
<mgrwt>
<rscale>  0 0.22699257E+04</rscale>
<asrwt>0</asrwt>
<pdfrwt beam="1">  1        2 0.27830359E+00 0.22699257E+04</pdfrwt>
<pdfrwt beam="2">  1       -2 0.10955136E+00 0.22699257E+04</pdfrwt>
<totfact> 0.51445732E+00</totfact>
</mgrwt>
</event>
<event>
 6    1  0.1528034E-005  0.3301895E+04  0.7818608E-02  0.8162413E-01
          2   -1    0    0  501    0  0.00000000000E+00  0.00000000000E+00  0.26385468167E+04  0.26385468167E+04  0.00000000000E+00 0. -1.
         -2   -1    0    0    0  501 -0.00000000000E+00 -0.00000000000E+00 -0.10330030318E+04  0.10330030318E+04  0.00000000000E+00 0.  1.
         23    2    1    2    0    0 -0.12916560234E+04 -0.10202452277E+04  0.92630795673E+03  0.18909216116E+04  0.90898312419E+02 0.  0.
         11    1    3    3    0    0 -0.11859230063E+04 -0.90859013183E+03  0.85613479563E+03  0.17218932002E+04  0.00000000000E+00 0. -1.
        -11    1    3    3    0    0 -0.10573301711E+03 -0.11165509589E+03  0.70173161094E+02  0.16902841147E+03  0.00000000000E+00 0.  1.
         22    1    1    2    0    0  0.12916560234E+04  0.10202452277E+04  0.67923582812E+03  0.17806282368E+04  0.00000000000E+00 0. -1.
<mgrwt>
<rscale>  0 0.33018945E+04</rscale>
<asrwt>0</asrwt>
<pdfrwt beam="1">  1        2 0.40593028E+00 0.33018945E+04</pdfrwt>
<pdfrwt beam="2">  1       -2 0.15892354E+00 0.33018945E+04</pdfrwt>
<totfact> 0.61860816E-01</totfact>
</mgrwt>
</event>
<event>
 6    1  0.1528034E-005  0.1859715E+04  0.7818608E-02  0.8675173E-01
          2   -1    0    0  501    0  0.00000000000E+00  0.00000000000E+00  0.19662590265E+04  0.19662590265E+04  0.00000000000E+00 0. -1.
         -2   -1    0    0    0  501 -0.00000000000E+00 -0.00000000000E+00 -0.43973628044E+03  0.43973628044E+03  0.00000000000E+00 0.  1.
         23    2    1    2    0    0 -0.53169209678E+03 -0.32701055113E+03  0.16528232265E+04  0.17691403802E+04  0.91655225309E+02 0.  0.
         13    1    3    3    0    0 -0.17123753172E+03 -0.85268762006E+02  0.61977482481E+03  0.64862461217E+03  0.00000000000E+00 0.  1.
        -13    1    3    3    0    0 -0.36045456506E+03 -0.24174178913E+03  0.10330484017E+04  0.11205157680E+04  0.00000000000E+00 0. -1.
         22    1    1    2    0    0  0.53169209678E+03  0.32701055113E+03 -0.12630048049E+03  0.63685492673E+03  0.00000000000E+00 0.  1.
<mgrwt>
<rscale>  0 0.18597155E+04</rscale>
<asrwt>0</asrwt>
<pdfrwt beam="1">  1        2 0.30250138E+00 0.18597155E+04</pdfrwt>
<pdfrwt beam="2">  1       -2 0.67651736E-01 0.18597155E+04</pdfrwt>
<totfact> 0.13124293E+01</totfact>
</mgrwt>
</event>
<event>
 6    1  0.1528034E-005  0.1066532E+04  0.7818608E-02  0.9238441E-01
         -1   -1    0    0    0  501 -0.00000000000E+00  0.00000000000E+00  0.15900111441E+03  0.15900111441E+03  0.00000000000E+00 0.  1.
          1   -1    0    0  501    0  0.00000000000E+00 -0.00000000000E+00 -0.17884935620E+04  0.17884935620E+04  0.00000000000E+00 0. -1.
         23    2    1    2    0    0 -0.39602677294E+02  0.50185603179E+03 -0.52211340835E+03  0.73105882308E+03  0.91742808623E+02 0.  0.
         13    1    3    3    0    0 -0.39996581196E+02  0.14595319767E+03 -0.20179412465E+03  0.25223586415E+03  0.00000000000E+00 0.  1.
        -13    1    3    3    0    0  0.39390390260E+00  0.35590283412E+03 -0.32031928370E+03  0.47882295894E+03  0.00000000000E+00 0. -1.
         22    1    1    2    0    0  0.39602677294E+02 -0.50185603179E+03 -0.11073790392E+04  0.12164358533E+04  0.00000000000E+00 0. -1.
<mgrwt>
<rscale>  0 0.10665317E+04</rscale>
<asrwt>0</asrwt>
<pdfrwt beam="1">  1        1 0.27515285E+00 0.10665317E+04</pdfrwt>
<pdfrwt beam="2">  1       -1 0.24461710E-01 0.10665317E+04</pdfrwt>
<totfact> 0.60321035E+01</totfact>
</mgrwt>
</event>
<event>
 6    1  0.1528034E-005  0.2178965E+04  0.7818608E-02  0.8527235E-01
          2   -1    0    0  501    0  0.00000000000E+00  0.00000000000E+00  0.25403154526E+04  0.25403154526E+04  0.00000000000E+00 0. -1.
         -2   -1    0    0    0  501 -0.00000000000E+00 -0.00000000000E+00 -0.46725394599E+03  0.46725394599E+03  0.00000000000E+00 0.  1.
         23    2    1    2    0    0  0.16298987425E+03  0.53925520266E+03 -0.24564896433E+03  0.62140508724E+03  0.91864008548E+02 0.  0.
         13    1    3    3    0    0  0.15023103724E+03  0.46702604099E+03 -0.24427536623E+03  0.54804483582E+03  0.00000000000E+00 0.  1.
        -13    1    3    3    0    0  0.12758837002E+02  0.72229161671E+02 -0.13735980957E+01  0.73360251425E+02  0.00000000000E+00 0. -1.
         22    1    1    2    0    0 -0.16298987425E+03 -0.53925520266E+03  0.23187104709E+04  0.23861643113E+04  0.00000000000E+00 0. -1.
<mgrwt>
<rscale>  0 0.21789653E+04</rscale>
<asrwt>0</asrwt>
<pdfrwt beam="1">  1        2 0.39081775E+00 0.21789653E+04</pdfrwt>
<pdfrwt beam="2">  1       -2 0.71885224E-01 0.21789653E+04</pdfrwt>
<totfact> 0.52969365E+00</totfact>
</mgrwt>
</event>
<event>
 6    1  0.1528034E-005  0.4568915E+04  0.7818608E-02  0.7898682E-01
          2   -1    0    0  501    0  0.00000000000E+00  0.00000000000E+00  0.21306943038E+04  0.21306943038E+04  0.00000000000E+00 0. -1.
         -2   -1    0    0    0  501 -0.00000000000E+00 -0.00000000000E+00 -0.24493175058E+04  0.24493175058E+04  0.00000000000E+00 0.  1.
         23    2    1    2    0    0  0.42251263767E+03 -0.19479200940E+04  0.95746527074E+03  0.22133028263E+04  0.95184213023E+02 0.  0.
         11    1    3    3    0    0  0.91730707433E+02 -0.29296894477E+03  0.17037056795E+03  0.35110034991E+03  0.00000000000E+00 0.  1.
        -11    1    3    3    0    0  0.33078193024E+03 -0.16549511493E+04  0.78709470279E+03  0.18622024764E+04  0.00000000000E+00 0. -1.
         22    1    1    2    0    0 -0.42251263767E+03  0.19479200940E+04 -0.12760884727E+04  0.23667089834E+04  0.00000000000E+00 0.  1.
<mgrwt>
<rscale>  0 0.45689153E+04</rscale>
<asrwt>0</asrwt>
<pdfrwt beam="1">  1        2 0.32779912E+00 0.45689153E+04</pdfrwt>
<pdfrwt beam="2">  1       -2 0.37681808E+00 0.45689153E+04</pdfrwt>
<totfact> 0.44672991E-02</totfact>
</mgrwt>
</event>
<event>
 6    1  0.1528034E-005  0.1026966E+04  0.7818608E-02  0.9279453E-01
         -2   -1    0    0    0  501 -0.00000000000E+00  0.00000000000E+00  0.20635989789E+03  0.20635989789E+03  0.00000000000E+00 0.  1.
          2   -1    0    0  501    0  0.00000000000E+00 -0.00000000000E+00 -0.12776948929E+04  0.12776948929E+04  0.00000000000E+00 0. -1.
         23    2    1    2    0    0  0.34718014058E+03 -0.37264123371E+03 -0.52335860969E+03  0.73594139167E+03  0.91158974098E+02 0.  0.
         11    1    3    3    0    0  0.44814978659E+02 -0.10077343174E+03 -0.98731314175E+02  0.14802546827E+03  0.00000000000E+00 0. -1.
        -11    1    3    3    0    0  0.30236516192E+03 -0.27186780197E+03 -0.42462729551E+03  0.58791592340E+03  0.00000000000E+00 0.  1.
         22    1    1    2    0    0 -0.34718014058E+03  0.37264123371E+03 -0.54797638535E+03  0.74811339914E+03  0.00000000000E+00 0.  1.
<mgrwt>
<rscale>  0 0.10269664E+04</rscale>
<asrwt>0</asrwt>
<pdfrwt beam="1">  1        2 0.19656844E+00 0.10269664E+04</pdfrwt>
<pdfrwt beam="2">  1       -2 0.31747677E-01 0.10269664E+04</pdfrwt>
<totfact> 0.15640592E+02</totfact>
</mgrwt>
</event>
<event>
 6    1  0.1528034E-005  0.2741955E+04  0.7818608E-02  0.8321519E-01
          2   -1    0    0  501    0  0.00000000000E+00  0.00000000000E+00  0.32379130361E+04  0.32379130361E+04  0.00000000000E+00 0. -1.
         -2   -1    0    0    0  501 -0.00000000000E+00 -0.00000000000E+00 -0.58049081656E+03  0.58049081656E+03  0.00000000000E+00 0.  1.
         23    2    1    2    0    0  0.19052646307E+03 -0.34043400539E+03  0.31583234923E+04  0.31835040729E+04  0.86575142262E+02 0.  0.
         11    1    3    3    0    0  0.10809963699E+03 -0.14872927352E+03  0.17804850599E+04  0.17899533449E+04  0.00000000000E+00 0. -1.
        -11    1    3    3    0    0  0.82426826084E+02 -0.19170473188E+03  0.13778384324E+04  0.13935507281E+04  0.00000000000E+00 0.  1.
         22    1    1    2    0    0 -0.19052646307E+03  0.34043400539E+03 -0.50090127279E+03  0.63489977968E+03  0.00000000000E+00 0.  1.
<mgrwt>
<rscale>  0 0.27419546E+04</rscale>
<asrwt>0</asrwt>
<pdfrwt beam="1">  1        2 0.49814046E+00 0.27419546E+04</pdfrwt>
<pdfrwt beam="2">  1       -2 0.89306281E-01 0.27419546E+04</pdfrwt>
<totfact> 0.11516103E+00</totfact>
</mgrwt>
</event>
<event>
 6    1  0.1528034E-005  0.2042897E+04  0.7818608E-02  0.8586824E-01
          2   -1    0    0  501    0  0.00000000000E+00  0.00000000000E+00  0.96119011711E+03  0.96119011711E+03  0.00000000000E+00 0. -1.
         -2   -1    0    0    0  501 -0.00000000000E+00 -0.00000000000E+00 -0.10854842800E+04  0.10854842800E+04  0.00000000000E+00 0.  1.
         23    2    1    2    0    0  0.65367135586E+03  0.45693955502E+03  0.57399830204E+03  0.98663082963E+03  0.88805094593E+02 0.  0.
         13    1    3    3    0    0  0.37481248427E+03  0.23828028904E+03  0.36764412192E+03  0.57656230789E+03  0.00000000000E+00 0. -1.
        -13    1    3    3    0    0  0.27885887159E+03  0.21865926599E+03  0.20635418012E+03  0.41006852174E+03  0.00000000000E+00 0.  1.
         22    1    1    2    0    0 -0.65367135586E+03 -0.45693955502E+03 -0.69829246496E+03  0.10600435675E+04  0.00000000000E+00 0.  1.
<mgrwt>
<rscale>  0 0.20428967E+04</rscale>
<asrwt>0</asrwt>
<pdfrwt beam="1">  1        2 0.14787540E+00 0.20428967E+04</pdfrwt>
<pdfrwt beam="2">  1       -2 0.16699758E+00 0.20428967E+04</pdfrwt>
<totfact> 0.55334335E+00</totfact>
</mgrwt>
</event>
<event>
 6    1  0.1528034E-005  0.2184380E+04  0.7818608E-02  0.8524958E-01
          1   -1    0    0  501    0  0.00000000000E+00  0.00000000000E+00  0.98286422617E+03  0.98286422617E+03  0.00000000000E+00 0. -1.
         -1   -1    0    0    0  501 -0.00000000000E+00 -0.00000000000E+00 -0.12136762989E+04  0.12136762989E+04  0.00000000000E+00 0.  1.
         23    2    1    2    0    0  0.16751165311E+03  0.24271381523E+02 -0.11985091644E+04  0.12141521522E+04  0.95351862803E+02 0.  0.
         13    1    3    3    0    0  0.91977342899E+02  0.48340077402E+02 -0.87142220598E+03  0.87759515482E+03  0.00000000000E+00 0.  1.
        -13    1    3    3    0    0  0.75534310211E+02 -0.24068695879E+02 -0.32708695838E+03  0.33655699738E+03  0.00000000000E+00 0. -1.
         22    1    1    2    0    0 -0.16751165311E+03 -0.24271381523E+02  0.96769709166E+03  0.98238837284E+03  0.00000000000E+00 0. -1.
<mgrwt>
<rscale>  0 0.21843800E+04</rscale>
<asrwt>0</asrwt>
<pdfrwt beam="1">  1        1 0.15120988E+00 0.21843800E+04</pdfrwt>
<pdfrwt beam="2">  1       -1 0.18671943E+00 0.21843800E+04</pdfrwt>
<totfact> 0.26555144E+00</totfact>
</mgrwt>
</event>
<event>
 6    1  0.1528034E-005  0.2209974E+04  0.7818608E-02  0.8514288E-01
          1   -1    0    0  501    0  0.00000000000E+00  0.00000000000E+00  0.12460259279E+04  0.12460259279E+04  0.00000000000E+00 0. -1.
         -1   -1    0    0    0  501 -0.00000000000E+00 -0.00000000000E+00 -0.97991271460E+03  0.97991271460E+03  0.00000000000E+00 0.  1.
         23    2    1    2    0    0 -0.90402745699E+03 -0.11562850918E+03  0.75932430547E+03  0.11896506630E+04  0.89775853672E+02 0.  0.
         13    1    3    3    0    0 -0.20016202775E+02  0.75203288704E+01  0.75177815688E+01  0.22665408877E+02  0.00000000000E+00 0.  1.
        -13    1    3    3    0    0 -0.88401125421E+03 -0.12314883805E+03  0.75180652390E+03  0.11669852541E+04  0.00000000000E+00 0. -1.
         22    1    1    2    0    0  0.90402745699E+03  0.11562850918E+03 -0.49321109216E+03  0.10362879795E+04  0.00000000000E+00 0.  1.
<mgrwt>
<rscale>  0 0.22099743E+04</rscale>
<asrwt>0</asrwt>
<pdfrwt beam="1">  1        1 0.19169630E+00 0.22099743E+04</pdfrwt>
<pdfrwt beam="2">  1       -1 0.15075580E+00 0.22099743E+04</pdfrwt>
<totfact> 0.31017829E+00</totfact>
</mgrwt>
</event>
<event>
 6    1  0.1528034E-005  0.1397943E+04  0.7818608E-02  0.8955309E-01
         -1   -1    0    0    0  501 -0.00000000000E+00  0.00000000000E+00  0.25841467372E+03  0.25841467372E+03  0.00000000000E+00 0.  1.
          1   -1    0    0  501    0  0.00000000000E+00 -0.00000000000E+00 -0.18906099743E+04  0.18906099743E+04  0.00000000000E+00 0. -1.
         23    2    1    2    0    0  0.20849166882E+03 -0.18515666013E+03 -0.17997219313E+04  0.18237294948E+04  0.96116987545E+02 0.  0.
         11    1    3    3    0    0  0.49362228999E+02  0.16256829215E+01 -0.27877676934E+03  0.28311792529E+03  0.00000000000E+00 0.  1.
        -11    1    3    3    0    0  0.15912943982E+03 -0.18678234305E+03 -0.15209451620E+04  0.15406115695E+04  0.00000000000E+00 0. -1.
         22    1    1    2    0    0 -0.20849166882E+03  0.18515666013E+03  0.16752663070E+03  0.32529515329E+03  0.00000000000E+00 0.  1.
<mgrwt>
<rscale>  0 0.13979433E+04</rscale>
<asrwt>0</asrwt>
<pdfrwt beam="1">  1        1 0.29086308E+00 0.13979433E+04</pdfrwt>
<pdfrwt beam="2">  1       -1 0.39756103E-01 0.13979433E+04</pdfrwt>
<totfact> 0.21250375E+01</totfact>
</mgrwt>
</event>
<event>
 6    1  0.1528034E-005  0.3053366E+04  0.7818608E-02  0.8228654E-01
         -1   -1    0    0    0  501 -0.00000000000E+00  0.00000000000E+00  0.10085749926E+04  0.10085749926E+04  0.00000000000E+00 0.  1.
          1   -1    0    0  501    0  0.00000000000E+00 -0.00000000000E+00 -0.23109451111E+04  0.23109451111E+04  0.00000000000E+00 0. -1.
         23    2    1    2    0    0 -0.10652733204E+03  0.14751474776E+04 -0.10573262671E+04  0.18203687964E+04  0.91627325512E+02 0.  0.
         11    1    3    3    0    0 -0.78045652824E+02  0.80152710626E+03 -0.52503943225E+03  0.96135489359E+03  0.00000000000E+00 0. -1.
        -11    1    3    3    0    0 -0.28481679213E+02  0.67362037129E+03 -0.53228683483E+03  0.85901390280E+03  0.00000000000E+00 0.  1.
         22    1    1    2    0    0  0.10652733204E+03 -0.14751474776E+04 -0.24504385144E+03  0.14991513073E+04  0.00000000000E+00 0.  1.
<mgrwt>
<rscale>  0 0.30533663E+04</rscale>
<asrwt>0</asrwt>
<pdfrwt beam="1">  1        1 0.35553001E+00 0.30533663E+04</pdfrwt>
<pdfrwt beam="2">  1       -1 0.15516539E+00 0.30533663E+04</pdfrwt>
<totfact> 0.49301140E-01</totfact>
</mgrwt>
</event>
<event>
 6    1  0.1528034E-005  0.1644803E+04  0.7818608E-02  0.8793487E-01
          2   -1    0    0  501    0  0.00000000000E+00  0.00000000000E+00  0.17756496114E+04  0.17756496114E+04  0.00000000000E+00 0. -1.
         -2   -1    0    0    0  501 -0.00000000000E+00 -0.00000000000E+00 -0.38089957624E+03  0.38089957624E+03  0.00000000000E+00 0.  1.
         23    2    1    2    0    0 -0.60831602050E+03 -0.50784101790E+03  0.42430080859E+03  0.90366348592E+03  0.92874320208E+02 0.  0.
         13    1    3    3    0    0 -0.11252235257E+03 -0.11519626525E+03  0.49329035787E+02  0.16841856527E+03  0.00000000000E+00 0.  1.
        -13    1    3    3    0    0 -0.49579366793E+03 -0.39264475265E+03  0.37497177280E+03  0.73524492065E+03  0.00000000000E+00 0. -1.
         22    1    1    2    0    0  0.60831602050E+03  0.50784101790E+03  0.97044922660E+03  0.12528857018E+04  0.00000000000E+00 0. -1.
<mgrwt>
<rscale>  0 0.16448029E+04</rscale>
<asrwt>0</asrwt>
<pdfrwt beam="1">  1        2 0.27317686E+00 0.16448029E+04</pdfrwt>
<pdfrwt beam="2">  1       -2 0.58599936E-01 0.16448029E+04</pdfrwt>
<totfact> 0.23156696E+01</totfact>
</mgrwt>
</event>
<event>
 6    1  0.1528034E-005  0.1809003E+04  0.7818608E-02  0.8701527E-01
          2   -1    0    0  501    0  0.00000000000E+00  0.00000000000E+00  0.19776548029E+04  0.19776548029E+04  0.00000000000E+00 0. -1.
         -2   -1    0    0    0  501 -0.00000000000E+00 -0.00000000000E+00 -0.41368319043E+03  0.41368319043E+03  0.00000000000E+00 0.  1.
         23    2    1    2    0    0 -0.19969441796E+03  0.87724821348E+03  0.86724161974E+03  0.12534122614E+04  0.97426800482E+02 0.  0.
         11    1    3    3    0    0 -0.67372383367E+02  0.47747002505E+03  0.42518725102E+03  0.64288479629E+03  0.00000000000E+00 0. -1.
        -11    1    3    3    0    0 -0.13232203459E+03  0.39977818843E+03  0.44205436872E+03  0.61052746513E+03  0.00000000000E+00 0.  1.
         22    1    1    2    0    0  0.19969441796E+03 -0.87724821348E+03  0.69672999277E+03  0.11379257320E+04  0.00000000000E+00 0. -1.
<mgrwt>
<rscale>  0 0.18090025E+04</rscale>
<asrwt>0</asrwt>
<pdfrwt beam="1">  1        2 0.30425458E+00 0.18090025E+04</pdfrwt>
<pdfrwt beam="2">  1       -2 0.63643569E-01 0.18090025E+04</pdfrwt>
<totfact> 0.14815676E+01</totfact>
</mgrwt>
</event>
<event>
 6    1  0.1528034E-005  0.3536469E+04  0.7818608E-02  0.8105201E-01
         -2   -1    0    0    0  501 -0.00000000000E+00  0.00000000000E+00  0.19839996986E+04  0.19839996986E+04  0.00000000000E+00 0.  1.
          2   -1    0    0  501    0  0.00000000000E+00 -0.00000000000E+00 -0.15759340537E+04  0.15759340537E+04  0.00000000000E+00 0. -1.
         23    2    1    2    0    0 -0.14041626676E+04  0.69986613787E+03  0.10226197630E+04  0.18749523957E+04  0.90608489026E+02 0.  0.
         13    1    3    3    0    0 -0.43258080181E+03  0.18531336887E+03  0.34441827346E+03  0.58317333776E+03  0.00000000000E+00 0.  1.
        -13    1    3    3    0    0 -0.97158186583E+03  0.51455276899E+03  0.67820148953E+03  0.12917790579E+04  0.00000000000E+00 0. -1.
         22    1    1    2    0    0  0.14041626676E+04 -0.69986613787E+03 -0.61455411803E+03  0.16849813566E+04  0.00000000000E+00 0. -1.
<mgrwt>
<rscale>  0 0.35364687E+04</rscale>
<asrwt>0</asrwt>
<pdfrwt beam="1">  1        2 0.24245139E+00 0.35364687E+04</pdfrwt>
<pdfrwt beam="2">  1       -2 0.30523072E+00 0.35364687E+04</pdfrwt>
<totfact> 0.27819602E-01</totfact>
</mgrwt>
</event>
<event>
 6    1  0.1528034E-005  0.1324862E+04  0.7818608E-02  0.9010079E-01
          1   -1    0    0  501    0  0.00000000000E+00  0.00000000000E+00  0.79115689068E+03  0.79115689068E+03  0.00000000000E+00 0. -1.
         -1   -1    0    0    0  501 -0.00000000000E+00 -0.00000000000E+00 -0.55464932379E+03  0.55464932379E+03  0.00000000000E+00 0.  1.
         23    2    1    2    0    0 -0.36849296721E+03 -0.12778438944E+03  0.65899477611E+03  0.77081807631E+03  0.88150296405E+02 0.  0.
         13    1    3    3    0    0 -0.23707446371E+03 -0.44449481021E+02  0.44582067085E+03  0.50688867443E+03  0.00000000000E+00 0. -1.
        -13    1    3    3    0    0 -0.13141850350E+03 -0.83334908421E+02  0.21317410526E+03  0.26392940188E+03  0.00000000000E+00 0.  1.
         22    1    1    2    0    0  0.36849296721E+03  0.12778438944E+03 -0.42248720922E+03  0.57498813816E+03  0.00000000000E+00 0.  1.
<mgrwt>
<rscale>  0 0.13248617E+04</rscale>
<asrwt>0</asrwt>
<pdfrwt beam="1">  1        1 0.12171644E+00 0.13248617E+04</pdfrwt>
<pdfrwt beam="2">  1       -1 0.85330665E-01 0.13248617E+04</pdfrwt>
<totfact> 0.29978869E+01</totfact>
</mgrwt>
</event>
<event>
 6    1  0.1528034E-005  0.1673619E+04  0.7818608E-02  0.8776555E-01
         -1   -1    0    0    0  501 -0.00000000000E+00  0.00000000000E+00  0.37359495355E+03  0.37359495355E+03  0.00000000000E+00 0.  1.
          1   -1    0    0  501    0  0.00000000000E+00 -0.00000000000E+00 -0.18743566216E+04  0.18743566216E+04  0.00000000000E+00 0. -1.
         23    2    1    2    0    0 -0.43340447776E+03 -0.61093763870E+03 -0.26544480190E+03  0.80327444877E+03  0.11706689314E+03 0.  0.
         13    1    3    3    0    0 -0.10998787433E+03 -0.14390432145E+03 -0.11866813551E+03  0.21653616930E+03  0.00000000000E+00 0. -1.
        -13    1    3    3    0    0 -0.32341660343E+03 -0.46703331725E+03 -0.14677666639E+03  0.58673827947E+03  0.00000000000E+00 0.  1.
         22    1    1    2    0    0  0.43340447776E+03  0.61093763870E+03 -0.12353168661E+04  0.14446771264E+04  0.00000000000E+00 0. -1.
<mgrwt>
<rscale>  0 0.16736190E+04</rscale>
<asrwt>0</asrwt>
<pdfrwt beam="1">  1        1 0.28836256E+00 0.16736190E+04</pdfrwt>
<pdfrwt beam="2">  1       -1 0.57476147E-01 0.16736190E+04</pdfrwt>
<totfact> 0.10605079E+01</totfact>
</mgrwt>
</event>
<event>
 6    1  0.1528034E-005  0.7852788E+03  0.7818608E-02  0.9581573E-01
         -3   -1    0    0    0  501 -0.00000000000E+00  0.00000000000E+00  0.31052950069E+03  0.31052950069E+03  0.00000000000E+00 0.  1.
          3   -1    0    0  501    0  0.00000000000E+00 -0.00000000000E+00 -0.49646077080E+03  0.49646077080E+03  0.00000000000E+00 0. -1.
         23    2    1    2    0    0  0.15286011328E+03  0.65297515298E+02 -0.45379215510E+03  0.49174523434E+03  0.90862950243E+02 0.  0.
         11    1    3    3    0    0  0.16618129717E+02  0.32081522542E+02 -0.18580121176E+03  0.18928147457E+03  0.00000000000E+00 0.  1.
        -11    1    3    3    0    0  0.13624198356E+03  0.33215992757E+02 -0.26799094334E+03  0.30246375976E+03  0.00000000000E+00 0. -1.
         22    1    1    2    0    0 -0.15286011328E+03 -0.65297515298E+02  0.26786088499E+03  0.31524503714E+03  0.00000000000E+00 0.  1.
<mgrwt>
<rscale>  0 0.78527884E+03</rscale>
<asrwt>0</asrwt>
<pdfrwt beam="1">  1        3 0.76378579E-01 0.78527884E+03</pdfrwt>
<pdfrwt beam="2">  1       -3 0.47773770E-01 0.78527884E+03</pdfrwt>
<totfact> 0.18501125E+01</totfact>
</mgrwt>
</event>
<event>
 6    1  0.1528034E-005  0.1935478E+04  0.7818608E-02  0.8637395E-01
         -1   -1    0    0    0  501 -0.00000000000E+00  0.00000000000E+00  0.16158214113E+04  0.16158214113E+04  0.00000000000E+00 0.  1.
          1   -1    0    0  501    0  0.00000000000E+00 -0.00000000000E+00 -0.57959305836E+03  0.57959305836E+03  0.00000000000E+00 0. -1.
         23    2    1    2    0    0  0.63613481810E+03 -0.70541435999E+03  0.32183115731E+03  0.10068690228E+04  0.89067441972E+02 0.  0.
         13    1    3    3    0    0  0.59296764087E+03 -0.68258379030E+03  0.31544526491E+03  0.95762047235E+03  0.00000000000E+00 0.  1.
        -13    1    3    3    0    0  0.43167177223E+02 -0.22830569694E+02  0.63858923974E+01  0.49248550473E+02  0.00000000000E+00 0. -1.
         22    1    1    2    0    0 -0.63613481810E+03  0.70541435999E+03  0.71439719565E+03  0.11885454469E+04  0.00000000000E+00 0. -1.
<mgrwt>
<rscale>  0 0.19354781E+04</rscale>
<asrwt>0</asrwt>
<pdfrwt beam="1">  1        1 0.89168163E-01 0.19354781E+04</pdfrwt>
<pdfrwt beam="2">  1       -1 0.24858791E+00 0.19354781E+04</pdfrwt>
<totfact> 0.23915407E+00</totfact>
</mgrwt>
</event>
<event>
 6    1  0.1528034E-005  0.3072970E+04  0.7818608E-02  0.8223195E-01
          1   -1    0    0  501    0  0.00000000000E+00  0.00000000000E+00  0.22818506683E+04  0.22818506683E+04  0.00000000000E+00 0. -1.
         -1   -1    0    0    0  501 -0.00000000000E+00 -0.00000000000E+00 -0.10345926798E+04  0.10345926798E+04  0.00000000000E+00 0.  1.
         23    2    1    2    0    0  0.70996268234E+03  0.13525014784E+04  0.78846330432E+03  0.17215139385E+04  0.92890251559E+02 0.  0.
         11    1    3    3    0    0  0.50529768857E+03  0.87290638335E+03  0.50381446674E+03  0.11274397213E+04  0.00000000000E+00 0. -1.
        -11    1    3    3    0    0  0.20466499377E+03  0.47959509504E+03  0.28464883758E+03  0.59407421724E+03  0.00000000000E+00 0.  1.
         22    1    1    2    0    0 -0.70996268234E+03 -0.13525014784E+04  0.45879468417E+03  0.15949294096E+04  0.00000000000E+00 0.  1.
<mgrwt>
<rscale>  0 0.30729699E+04</rscale>
<asrwt>0</asrwt>
<pdfrwt beam="1">  1        1 0.35105395E+00 0.30729699E+04</pdfrwt>
<pdfrwt beam="2">  1       -1 0.15916810E+00 0.30729699E+04</pdfrwt>
<totfact> 0.48023011E-01</totfact>
</mgrwt>
</event>
<event>
 6    1  0.1528034E-005  0.1569308E+04  0.7818608E-02  0.8839628E-01
          1   -1    0    0  501    0  0.00000000000E+00  0.00000000000E+00  0.93681102448E+03  0.93681102448E+03  0.00000000000E+00 0. -1.
         -1   -1    0    0    0  501 -0.00000000000E+00 -0.00000000000E+00 -0.65721020447E+03  0.65721020447E+03  0.00000000000E+00 0.  1.
         23    2    1    2    0    0 -0.51472551872E+03 -0.58348038363E+03  0.60493615255E+02  0.78568980875E+03  0.90869578929E+02 0.  0.
         13    1    3    3    0    0 -0.15605942238E+03 -0.23901761224E+03  0.70909653955E+01  0.28554201804E+03  0.00000000000E+00 0. -1.
        -13    1    3    3    0    0 -0.35866609634E+03 -0.34446277139E+03  0.53402649860E+02  0.50014779071E+03  0.00000000000E+00 0.  1.
         22    1    1    2    0    0  0.51472551872E+03  0.58348038363E+03  0.21910720476E+03  0.80833142020E+03  0.00000000000E+00 0. -1.
<mgrwt>
<rscale>  0 0.15693078E+04</rscale>
<asrwt>0</asrwt>
<pdfrwt beam="1">  1        1 0.14412477E+00 0.15693078E+04</pdfrwt>
<pdfrwt beam="2">  1       -1 0.10110926E+00 0.15693078E+04</pdfrwt>
<totfact> 0.15186014E+01</totfact>
</mgrwt>
</event>
<event>
 6    1  0.1528034E-005  0.5325296E+04  0.7818608E-02  0.7780197E-01
          2   -1    0    0  501    0  0.00000000000E+00  0.00000000000E+00  0.34965098135E+04  0.34965098135E+04  0.00000000000E+00 0. -1.
         -2   -1    0    0    0  501 -0.00000000000E+00 -0.00000000000E+00 -0.20276487298E+04  0.20276487298E+04  0.00000000000E+00 0.  1.
         23    2    1    2    0    0  0.48462216314E+03  0.66808211924E+03 -0.18905345086E+04  0.20648622124E+04  0.91339306294E+02 0.  0.
         11    1    3    3    0    0  0.21199935670E+03  0.36224648660E+03 -0.10061640329E+04  0.10901982872E+04  0.00000000000E+00 0. -1.
        -11    1    3    3    0    0  0.27262280644E+03  0.30583563264E+03 -0.88437047575E+03  0.97466392524E+03  0.00000000000E+00 0.  1.
         22    1    1    2    0    0 -0.48462216314E+03 -0.66808211924E+03  0.33593955923E+04  0.34592963309E+04  0.00000000000E+00 0. -1.
<mgrwt>
<rscale>  0 0.53252957E+04</rscale>
<asrwt>0</asrwt>
<pdfrwt beam="1">  1        2 0.53792459E+00 0.53252957E+04</pdfrwt>
<pdfrwt beam="2">  1       -2 0.31194596E+00 0.53252957E+04</pdfrwt>
<totfact> 0.15540753E-02</totfact>
</mgrwt>
</event>
<event>
 6    1  0.1528034E-005  0.3713700E+04  0.7818608E-02  0.8064933E-01
         -2   -1    0    0    0  501 -0.00000000000E+00  0.00000000000E+00  0.13427075147E+04  0.13427075147E+04  0.00000000000E+00 0.  1.
          2   -1    0    0  501    0  0.00000000000E+00 -0.00000000000E+00 -0.25678649658E+04  0.25678649658E+04  0.00000000000E+00 0. -1.
         23    2    1    2    0    0  0.15463805472E+04 -0.96460819025E+02  0.46247232622E+03  0.16195701340E+04  0.92354100429E+02 0.  0.
         11    1    3    3    0    0  0.37663609369E+03  0.10485322349E+00  0.79387206471E+02  0.38491179069E+03  0.00000000000E+00 0. -1.
        -11    1    3    3    0    0  0.11697444535E+04 -0.96565672248E+02  0.38308511974E+03  0.12346583433E+04  0.00000000000E+00 0.  1.
         22    1    1    2    0    0 -0.15463805472E+04  0.96460819025E+02 -0.16876297774E+04  0.22910023466E+04  0.00000000000E+00 0. -1.
<mgrwt>
<rscale>  0 0.37136998E+04</rscale>
<asrwt>0</asrwt>
<pdfrwt beam="1">  1        2 0.39505614E+00 0.37136998E+04</pdfrwt>
<pdfrwt beam="2">  1       -2 0.20657039E+00 0.37136998E+04</pdfrwt>
<totfact> 0.30921136E-01</totfact>
</mgrwt>
</event>
<event>
 6    1  0.1528034E-005  0.2715701E+04  0.7818608E-02  0.8329928E-01
         -2   -1    0    0    0  501 -0.00000000000E+00  0.00000000000E+00  0.11082832042E+04  0.11082832042E+04  0.00000000000E+00 0.  1.
          2   -1    0    0  501    0  0.00000000000E+00 -0.00000000000E+00 -0.16636168658E+04  0.16636168658E+04  0.00000000000E+00 0. -1.
         23    2    1    2    0    0  0.65362620260E+03  0.14430445339E+03  0.92612563765E+03  0.11462393910E+04  0.90028088330E+02 0.  0.
         11    1    3    3    0    0  0.50463127286E+03  0.11045923000E+03  0.64591207679E+03  0.82707700608E+03  0.00000000000E+00 0. -1.
        -11    1    3    3    0    0  0.14899492973E+03  0.33845223391E+02  0.28021356086E+03  0.31916238488E+03  0.00000000000E+00 0.  1.
         22    1    1    2    0    0 -0.65362620260E+03 -0.14430445339E+03 -0.14814592993E+04  0.16256606791E+04  0.00000000000E+00 0. -1.
<mgrwt>
<rscale>  0 0.27157015E+04</rscale>
<asrwt>0</asrwt>
<pdfrwt beam="1">  1        2 0.25594105E+00 0.27157015E+04</pdfrwt>
<pdfrwt beam="2">  1       -2 0.17050511E+00 0.27157015E+04</pdfrwt>
<totfact> 0.19033656E+00</totfact>
</mgrwt>
</event>
<event>
 6    1  0.1528034E-005  0.2881511E+04  0.7818608E-02  0.8278400E-01
          2   -1    0    0  501    0  0.00000000000E+00  0.00000000000E+00  0.15123552099E+04  0.15123552099E+04  0.00000000000E+00 0.  1.
         -2   -1    0    0    0  501 -0.00000000000E+00 -0.00000000000E+00 -0.13725455172E+04  0.13725455172E+04  0.00000000000E+00 0. -1.
         23    2    1    2    0    0 -0.68230017632E+03 -0.11444347772E+04  0.61501201473E+03  0.14703047648E+04  0.91059503303E+02 0.  0.
         11    1    3    3    0    0 -0.39205344709E+03 -0.73263450844E+03  0.40669725134E+03  0.92512803578E+03  0.00000000000E+00 0.  1.
        -11    1    3    3    0    0 -0.29024672922E+03 -0.41180026876E+03  0.20831476339E+03  0.54517672898E+03  0.00000000000E+00 0. -1.
         22    1    1    2    0    0  0.68230017632E+03  0.11444347772E+04 -0.47520232209E+03  0.14145959624E+04  0.00000000000E+00 0. -1.
<mgrwt>
<rscale>  0 0.28815110E+04</rscale>
<asrwt>0</asrwt>
<pdfrwt beam="1">  1        2 0.23267003E+00 0.28815110E+04</pdfrwt>
<pdfrwt beam="2">  1       -2 0.21116085E+00 0.28815110E+04</pdfrwt>
<totfact> 0.12153941E+00</totfact>
</mgrwt>
</event>
<event>
 6    1  0.1528034E-005  0.1278611E+04  0.7818608E-02  0.9046701E-01
          2   -1    0    0  501    0  0.00000000000E+00  0.00000000000E+00  0.23787325145E+04  0.23787325145E+04  0.00000000000E+00 0. -1.
         -2   -1    0    0    0  501 -0.00000000000E+00 -0.00000000000E+00 -0.17181916629E+03  0.17181916629E+03  0.00000000000E+00 0.  1.
         23    2    1    2    0    0  0.13248122027E+03 -0.27987552702E+03  0.22173481373E+04  0.22407283937E+04  0.91374986625E+02 0.  0.
         11    1    3    3    0    0  0.92811158316E+01 -0.83382795757E+01  0.30664500310E+03  0.30689871936E+03  0.00000000000E+00 0. -1.
        -11    1    3    3    0    0  0.12320010444E+03 -0.27153724744E+03  0.19107031342E+04  0.19338296744E+04  0.00000000000E+00 0.  1.
         22    1    1    2    0    0 -0.13248122027E+03  0.27987552702E+03 -0.10434789124E+02  0.30982328701E+03  0.00000000000E+00 0.  1.
<mgrwt>
<rscale>  0 0.12786115E+04</rscale>
<asrwt>0</asrwt>
<pdfrwt beam="1">  1        2 0.36595882E+00 0.12786115E+04</pdfrwt>
<pdfrwt beam="2">  1       -2 0.26433720E-01 0.12786115E+04</pdfrwt>
<totfact> 0.52208281E+01</totfact>
</mgrwt>
</event>
<event>
 6    1  0.1528034E-005  0.5250395E+04  0.7818608E-02  0.7791001E-01
          2   -1    0    0  501    0  0.00000000000E+00  0.00000000000E+00  0.29306548310E+04  0.29306548310E+04  0.00000000000E+00 0. -1.
         -2   -1    0    0    0  501 -0.00000000000E+00 -0.00000000000E+00 -0.23515778776E+04  0.23515778776E+04  0.00000000000E+00 0.  1.
         23    2    1    2    0    0  0.47332244332E+03  0.14017885556E+04 -0.18911269109E+04  0.24028313088E+04  0.90509751370E+02 0.  0.
         13    1    3    3    0    0  0.16063782970E+03  0.36584262406E+03 -0.47890532659E+03  0.62369515770E+03  0.00000000000E+00 0. -1.
        -13    1    3    3    0    0  0.31268461362E+03  0.10359459316E+04 -0.14122215843E+04  0.17791361511E+04  0.00000000000E+00 0.  1.
         22    1    1    2    0    0 -0.47332244332E+03 -0.14017885556E+04  0.24702038644E+04  0.28794013999E+04  0.00000000000E+00 0. -1.
<mgrwt>
<rscale>  0 0.52503954E+04</rscale>
<asrwt>0</asrwt>
<pdfrwt beam="1">  1        2 0.45086997E+00 0.52503954E+04</pdfrwt>
<pdfrwt beam="2">  1       -2 0.36178121E+00 0.52503954E+04</pdfrwt>
<totfact> 0.17982293E-02</totfact>
</mgrwt>
</event>
<event>
 6    1  0.1528034E-005  0.7228738E+03  0.7818608E-02  0.9678895E-01
         -1   -1    0    0    0  501 -0.00000000000E+00  0.00000000000E+00  0.51291372556E+03  0.51291372556E+03  0.00000000000E+00 0.  1.
          1   -1    0    0  501    0  0.00000000000E+00 -0.00000000000E+00 -0.25469513637E+03  0.25469513637E+03  0.00000000000E+00 0. -1.
         23    2    1    2    0    0 -0.22866872520E+03 -0.11393412460E+03  0.39399848334E+03  0.47828801876E+03  0.90852921690E+02 0.  0.
         13    1    3    3    0    0 -0.16394813066E+03 -0.36755677480E+02  0.21461925170E+03  0.27256447417E+03  0.00000000000E+00 0. -1.
        -13    1    3    3    0    0 -0.64720594536E+02 -0.77178447119E+02  0.17937923164E+03  0.20572354459E+03  0.00000000000E+00 0.  1.
         22    1    1    2    0    0  0.22866872520E+03  0.11393412460E+03 -0.13577989415E+03  0.28932084316E+03  0.00000000000E+00 0. -1.
<mgrwt>
<rscale>  0 0.72287380E+03</rscale>
<asrwt>0</asrwt>
<pdfrwt beam="1">  1        1 0.39183867E-01 0.72287380E+03</pdfrwt>
<pdfrwt beam="2">  1       -1 0.78909804E-01 0.72287380E+03</pdfrwt>
<totfact> 0.17686988E+02</totfact>
</mgrwt>
</event>
<event>
 6    1  0.1528034E-005  0.9125504E+03  0.7818608E-02  0.9410027E-01
         -2   -1    0    0    0  501 -0.00000000000E+00  0.00000000000E+00  0.10930835500E+03  0.10930835500E+03  0.00000000000E+00 0. -1.
          2   -1    0    0  501    0  0.00000000000E+00 -0.00000000000E+00 -0.19045849021E+04  0.19045849021E+04  0.00000000000E+00 0.  1.
         23    2    1    2    0    0  0.12506647663E+03  0.10997342637E+03 -0.18333046462E+04  0.18430661093E+04  0.90282775024E+02 0.  0.
         11    1    3    3    0    0  0.85105905485E+02  0.12081692598E+03 -0.14698403766E+04  0.14772509866E+04  0.00000000000E+00 0. -1.
        -11    1    3    3    0    0  0.39960571141E+02 -0.10843499607E+02 -0.36346426963E+03  0.36581512274E+03  0.00000000000E+00 0.  1.
         22    1    1    2    0    0 -0.12506647663E+03 -0.10997342637E+03  0.38028099129E+02  0.17082714774E+03  0.00000000000E+00 0. -1.
<mgrwt>
<rscale>  0 0.91255037E+03</rscale>
<asrwt>0</asrwt>
<pdfrwt beam="1">  1        2 0.29301303E+00 0.91255037E+03</pdfrwt>
<pdfrwt beam="2">  1       -2 0.16816672E-01 0.91255037E+03</pdfrwt>
<totfact> 0.21961815E+02</totfact>
</mgrwt>
</event>
<event>
 6    1  0.1528034E-005  0.1942473E+04  0.7818608E-02  0.8633999E-01
         -1   -1    0    0    0  501 -0.00000000000E+00  0.00000000000E+00  0.11964962517E+04  0.11964962517E+04  0.00000000000E+00 0.  1.
          1   -1    0    0  501    0  0.00000000000E+00 -0.00000000000E+00 -0.78838590578E+03  0.78838590578E+03  0.00000000000E+00 0. -1.
         23    2    1    2    0    0  0.21065414312E+03  0.83141426120E+03  0.66564352175E+03  0.10893665638E+04  0.89517431840E+02 0.  0.
         13    1    3    3    0    0  0.18161801585E+02  0.23351136851E+03  0.18204779785E+03  0.29664593535E+03  0.00000000000E+00 0.  1.
        -13    1    3    3    0    0  0.19249234154E+03  0.59790289269E+03  0.48359572390E+03  0.79272062848E+03  0.00000000000E+00 0. -1.
         22    1    1    2    0    0 -0.21065414312E+03 -0.83141426120E+03 -0.25753317586E+03  0.89551559362E+03  0.00000000000E+00 0. -1.
<mgrwt>
<rscale>  0 0.19424735E+04</rscale>
<asrwt>0</asrwt>
<pdfrwt beam="1">  1        1 0.12129014E+00 0.19424735E+04</pdfrwt>
<pdfrwt beam="2">  1       -1 0.18407635E+00 0.19424735E+04</pdfrwt>
<totfact> 0.41056673E+00</totfact>
</mgrwt>
</event>
<event>
 6    1  0.1528034E-005  0.3037292E+04  0.7818608E-02  0.8233161E-01
          2   -1    0    0  501    0  0.00000000000E+00  0.00000000000E+00  0.16612491035E+04  0.16612491035E+04  0.00000000000E+00 0. -1.
         -2   -1    0    0    0  501 -0.00000000000E+00 -0.00000000000E+00 -0.13882844416E+04  0.13882844416E+04  0.00000000000E+00 0.  1.
         23    2    1    2    0    0  0.86123332377E+03  0.69396086563E+03  0.11795364756E+04  0.16194367041E+04  0.89243601852E+02 0.  0.
         11    1    3    3    0    0  0.56529679282E+03  0.50629397894E+03  0.82499875490E+03  0.11209446921E+04  0.00000000000E+00 0. -1.
        -11    1    3    3    0    0  0.29593653095E+03  0.18766688669E+03  0.35453772071E+03  0.49849201209E+03  0.00000000000E+00 0.  1.
         22    1    1    2    0    0 -0.86123332377E+03 -0.69396086563E+03 -0.90657181378E+03  0.14300968410E+04  0.00000000000E+00 0. -1.
<mgrwt>
<rscale>  0 0.30372924E+04</rscale>
<asrwt>0</asrwt>
<pdfrwt beam="1">  1        2 0.25557679E+00 0.30372924E+04</pdfrwt>
<pdfrwt beam="2">  1       -2 0.21358222E+00 0.30372924E+04</pdfrwt>
<totfact> 0.95528728E-01</totfact>
</mgrwt>
</event>
<event>
 6    1  0.1528034E-005  0.1427040E+04  0.7818608E-02  0.8934475E-01
          2   -1    0    0  501    0  0.00000000000E+00  0.00000000000E+00  0.11538336555E+04  0.11538336555E+04  0.00000000000E+00 0.  1.
         -2   -1    0    0    0  501 -0.00000000000E+00 -0.00000000000E+00 -0.44123398740E+03  0.44123398740E+03  0.00000000000E+00 0. -1.
         23    2    1    2    0    0 -0.65071827255E+03  0.28171846972E+03  0.40290615657E+03  0.82130434740E+03  0.96994296984E+02 0.  0.
         11    1    3    3    0    0 -0.64454150360E+03  0.27415596767E+03  0.38105217570E+03  0.79736817411E+03  0.00000000000E+00 0. -1.
        -11    1    3    3    0    0 -0.61767689422E+01  0.75625020523E+01  0.21853980872E+02  0.23936173291E+02  0.00000000000E+00 0.  1.
         22    1    1    2    0    0  0.65071827255E+03 -0.28171846972E+03  0.30969351156E+03  0.77376329553E+03  0.00000000000E+00 0. -1.
<mgrwt>
<rscale>  0 0.14270398E+04</rscale>
<asrwt>0</asrwt>
<pdfrwt beam="1">  1        2 0.17751287E+00 0.14270398E+04</pdfrwt>
<pdfrwt beam="2">  1       -2 0.67882152E-01 0.14270398E+04</pdfrwt>
<totfact> 0.38994658E+01</totfact>
</mgrwt>
</event>
<event>
 6    1  0.1528034E-005  0.3115487E+04  0.7818608E-02  0.8211500E-01
         -2   -1    0    0    0  501 -0.00000000000E+00  0.00000000000E+00  0.11478065523E+04  0.11478065523E+04  0.00000000000E+00 0.  1.
          2   -1    0    0  501    0  0.00000000000E+00 -0.00000000000E+00 -0.21140885711E+04  0.21140885711E+04  0.00000000000E+00 0. -1.
         23    2    1    2    0    0  0.10452474855E+04  0.10948175011E+04 -0.10422166480E+03  0.15199663876E+04  0.90928528840E+02 0.  0.
         11    1    3    3    0    0  0.67438044109E+03  0.75838258871E+03 -0.93027317192E+02  0.10191109910E+04  0.00000000000E+00 0. -1.
        -11    1    3    3    0    0  0.37086704445E+03  0.33643491235E+03 -0.11194347606E+02  0.50085539662E+03  0.00000000000E+00 0.  1.
         22    1    1    2    0    0 -0.10452474855E+04 -0.10948175011E+04 -0.86206035398E+03  0.17419287358E+04  0.00000000000E+00 0. -1.
<mgrwt>
<rscale>  0 0.31154869E+04</rscale>
<asrwt>0</asrwt>
<pdfrwt beam="1">  1        2 0.32524439E+00 0.31154869E+04</pdfrwt>
<pdfrwt beam="2">  1       -2 0.17658563E+00 0.31154869E+04</pdfrwt>
<totfact> 0.93707355E-01</totfact>
</mgrwt>
</event>
<event>
 6    1  0.1528034E-005  0.1269161E+04  0.7818608E-02  0.9054385E-01
          1   -1    0    0  501    0  0.00000000000E+00  0.00000000000E+00  0.13378507722E+04  0.13378507722E+04  0.00000000000E+00 0. -1.
         -1   -1    0    0    0  501 -0.00000000000E+00 -0.00000000000E+00 -0.30099960577E+03  0.30099960577E+03  0.00000000000E+00 0.  1.
         23    2    1    2    0    0  0.45132267147E+03 -0.20985221347E+03  0.19407035546E+02  0.50618861701E+03  0.90112028503E+02 0.  0.
         13    1    3    3    0    0  0.11051671888E+03 -0.89581573666E+02 -0.15482858328E+02  0.14310318793E+03  0.00000000000E+00 0. -1.
        -13    1    3    3    0    0  0.34080595258E+03 -0.12027063981E+03  0.34889893874E+02  0.36308542908E+03  0.00000000000E+00 0.  1.
         22    1    1    2    0    0 -0.45132267147E+03  0.20985221347E+03  0.10174441309E+04  0.11326617610E+04  0.00000000000E+00 0. -1.
<mgrwt>
<rscale>  0 0.12691612E+04</rscale>
<asrwt>0</asrwt>
<pdfrwt beam="1">  1        1 0.20582319E+00 0.12691612E+04</pdfrwt>
<pdfrwt beam="2">  1       -1 0.46307632E-01 0.12691612E+04</pdfrwt>
<totfact> 0.38842330E+01</totfact>
</mgrwt>
</event>
<event>
 6    1  0.1528034E-005  0.2384418E+04  0.7818608E-02  0.8445360E-01
         -1   -1    0    0    0  501 -0.00000000000E+00  0.00000000000E+00  0.61627163433E+03  0.61627163433E+03  0.00000000000E+00 0.  1.
          1   -1    0    0  501    0  0.00000000000E+00 -0.00000000000E+00 -0.23063896850E+04  0.23063896850E+04  0.00000000000E+00 0. -1.
         23    2    1    2    0    0 -0.35623336224E+03  0.88081894437E+03  0.33506156269E+02  0.95450872671E+03  0.84970734480E+02 0.  0.
         13    1    3    3    0    0 -0.20524005836E+03  0.46190880408E+03 -0.21024413531E+02  0.50589055220E+03  0.00000000000E+00 0. -1.
        -13    1    3    3    0    0 -0.15099330388E+03  0.41891014029E+03  0.54530569800E+02  0.44861817450E+03  0.00000000000E+00 0.  1.
         22    1    1    2    0    0  0.35623336224E+03 -0.88081894437E+03 -0.17236242070E+04  0.19681525926E+04  0.00000000000E+00 0. -1.
<mgrwt>
<rscale>  0 0.23844182E+04</rscale>
<asrwt>0</asrwt>
<pdfrwt beam="1">  1        1 0.35482917E+00 0.23844182E+04</pdfrwt>
<pdfrwt beam="2">  1       -1 0.94811023E-01 0.23844182E+04</pdfrwt>
<totfact> 0.17777986E+00</totfact>
</mgrwt>
</event>
<event>
 6    1  0.1528034E-005  0.2383155E+04  0.7818608E-02  0.8445837E-01
          2   -1    0    0  501    0  0.00000000000E+00  0.00000000000E+00  0.11909231046E+04  0.11909231046E+04  0.00000000000E+00 0. -1.
         -2   -1    0    0    0  501 -0.00000000000E+00 -0.00000000000E+00 -0.11922324300E+04  0.11922324300E+04  0.00000000000E+00 0.  1.
         23    2    1    2    0    0  0.68071513958E+03 -0.96205147145E+03 -0.16424521946E+03  0.11934226904E+04  0.91460871201E+02 0.  0.
         11    1    3    3    0    0  0.20742205496E+03 -0.36116941305E+03 -0.77222921440E+02  0.42359253228E+03  0.00000000000E+00 0. -1.
        -11    1    3    3    0    0  0.47329308462E+03 -0.60088205839E+03 -0.87022298024E+02  0.76983015815E+03  0.00000000000E+00 0.  1.
         22    1    1    2    0    0 -0.68071513958E+03  0.96205147145E+03  0.16293589404E+03  0.11897328442E+04  0.00000000000E+00 0. -1.
<mgrwt>
<rscale>  0 0.23831552E+04</rscale>
<asrwt>0</asrwt>
<pdfrwt beam="1">  1        2 0.18321894E+00 0.23831552E+04</pdfrwt>
<pdfrwt beam="2">  1       -2 0.18342037E+00 0.23831552E+04</pdfrwt>
<totfact> 0.29664598E+00</totfact>
</mgrwt>
</event>
<event>
 6    1  0.1528034E-005  0.9846461E+03  0.7818608E-02  0.9325547E-01
         -2   -1    0    0    0  501 -0.00000000000E+00  0.00000000000E+00  0.28841770406E+03  0.28841770406E+03  0.00000000000E+00 0.  1.
          2   -1    0    0  501    0  0.00000000000E+00 -0.00000000000E+00 -0.84038530428E+03  0.84038530428E+03  0.00000000000E+00 0. -1.
         23    2    1    2    0    0 -0.10593044629E+03  0.10122790225E+03  0.25558720799E+03  0.30806363686E+03  0.90055737293E+02 0.  0.
         11    1    3    3    0    0 -0.10319606659E+03  0.97606544378E+02  0.16648661611E+03  0.21884757026E+03  0.00000000000E+00 0. -1.
        -11    1    3    3    0    0 -0.27343797002E+01  0.36213578720E+01  0.89100591882E+02  0.89216066596E+02  0.00000000000E+00 0.  1.
         22    1    1    2    0    0  0.10593044629E+03 -0.10122790225E+03 -0.80755480820E+03  0.82073937148E+03  0.00000000000E+00 0. -1.
<mgrwt>
<rscale>  0 0.98464613E+03</rscale>
<asrwt>0</asrwt>
<pdfrwt beam="1">  1        2 0.12929004E+00 0.98464613E+03</pdfrwt>
<pdfrwt beam="2">  1       -2 0.44371956E-01 0.98464613E+03</pdfrwt>
<totfact> 0.15507227E+02</totfact>
</mgrwt>
</event>
<event>
 6    1  0.1528034E-005  0.1985179E+04  0.7818608E-02  0.8613581E-01
         -2   -1    0    0    0  501 -0.00000000000E+00  0.00000000000E+00  0.77479154202E+03  0.77479154202E+03  0.00000000000E+00 0.  1.
          2   -1    0    0  501    0  0.00000000000E+00 -0.00000000000E+00 -0.12716116140E+04  0.12716116140E+04  0.00000000000E+00 0. -1.
         23    2    1    2    0    0 -0.20702341126E+03  0.10693689567E+03  0.74341363385E+03  0.78447057561E+03  0.91848029604E+02 0.  0.
         11    1    3    3    0    0 -0.12322706019E+03  0.26652837814E+02  0.28582964935E+03  0.31240017697E+03  0.00000000000E+00 0.  1.
        -11    1    3    3    0    0 -0.83796351071E+02  0.80284057852E+02  0.45758398450E+03  0.47207039863E+03  0.00000000000E+00 0. -1.
         22    1    1    2    0    0  0.20702341126E+03 -0.10693689567E+03 -0.12402337058E+04  0.12619325804E+04  0.00000000000E+00 0. -1.
<mgrwt>
<rscale>  0 0.19851790E+04</rscale>
<asrwt>0</asrwt>
<pdfrwt beam="1">  1        2 0.19563256E+00 0.19851790E+04</pdfrwt>
<pdfrwt beam="2">  1       -2 0.11919870E+00 0.19851790E+04</pdfrwt>
<totfact> 0.86279627E+00</totfact>
</mgrwt>
</event>
<event>
 6    1  0.1528034E-005  0.8654406E+03  0.7818608E-02  0.9469844E-01
         -2   -1    0    0    0  501 -0.00000000000E+00  0.00000000000E+00  0.17461170754E+03  0.17461170754E+03  0.00000000000E+00 0.  1.
          2   -1    0    0  501    0  0.00000000000E+00 -0.00000000000E+00 -0.10723614813E+04  0.10723614813E+04  0.00000000000E+00 0. -1.
         23    2    1    2    0    0  0.15807340303E+03 -0.16412727515E+03  0.67103607448E+02  0.25557669377E+03  0.94295222940E+02 0.  0.
         11    1    3    3    0    0  0.79333109131E+02 -0.13279247046E+03  0.13438822392E+02  0.15526810478E+03  0.00000000000E+00 0.  1.
        -11    1    3    3    0    0  0.78740293903E+02 -0.31334804689E+02  0.53664785056E+02  0.10030858898E+03  0.00000000000E+00 0. -1.
         22    1    1    2    0    0 -0.15807340303E+03  0.16412727515E+03 -0.96485338120E+03  0.99139649506E+03  0.00000000000E+00 0. -1.
<mgrwt>
<rscale>  0 0.86544063E+03</rscale>
<asrwt>0</asrwt>
<pdfrwt beam="1">  1        2 0.16497869E+00 0.86544063E+03</pdfrwt>
<pdfrwt beam="2">  1       -2 0.26863339E-01 0.86544063E+03</pdfrwt>
<totfact> 0.28577139E+02</totfact>
</mgrwt>
</event>
<event>
 6    1  0.1528034E-005  0.2731266E+04  0.7818608E-02  0.8324931E-01
         -2   -1    0    0    0  501 -0.00000000000E+00  0.00000000000E+00  0.54520512125E+03  0.54520512125E+03  0.00000000000E+00 0.  1.
          2   -1    0    0  501    0  0.00000000000E+00 -0.00000000000E+00 -0.34206449300E+04  0.34206449300E+04  0.00000000000E+00 0. -1.
         23    2    1    2    0    0  0.13538478604E+04  0.11952791763E+03 -0.16087454697E+04  0.21079734406E+04  0.91099327714E+02 0.  0.
         13    1    3    3    0    0  0.74515614045E+03  0.53336418556E+02 -0.95126399065E+03  0.12095476953E+04  0.00000000000E+00 0. -1.
        -13    1    3    3    0    0  0.60869171992E+03  0.66191499077E+02 -0.65748147910E+03  0.89842574530E+03  0.00000000000E+00 0.  1.
         22    1    1    2    0    0 -0.13538478604E+04 -0.11952791763E+03 -0.12666943390E+04  0.18578766107E+04  0.00000000000E+00 0. -1.
<mgrwt>
<rscale>  0 0.27312657E+04</rscale>
<asrwt>0</asrwt>
<pdfrwt beam="1">  1        2 0.52625305E+00 0.27312657E+04</pdfrwt>
<pdfrwt beam="2">  1       -2 0.83877713E-01 0.27312657E+04</pdfrwt>
<totfact> 0.10028845E+00</totfact>
</mgrwt>
</event>
<event>
 6    1  0.1528034E-005  0.2397703E+04  0.7818608E-02  0.8440364E-01
         -2   -1    0    0    0  501 -0.00000000000E+00  0.00000000000E+00  0.74112752587E+03  0.74112752587E+03  0.00000000000E+00 0.  1.
          2   -1    0    0  501    0  0.00000000000E+00 -0.00000000000E+00 -0.19392686840E+04  0.19392686840E+04  0.00000000000E+00 0. -1.
         23    2    1    2    0    0  0.65243025618E+03  0.98088842095E+03 -0.36074576482E+03  0.12350456025E+04  0.85981392720E+02 0.  0.
         11    1    3    3    0    0  0.18533738779E+03  0.23886145299E+03 -0.61003570012E+02  0.30842531769E+03  0.00000000000E+00 0.  1.
        -11    1    3    3    0    0  0.46709286839E+03  0.74202696796E+03 -0.29974219481E+03  0.92662028482E+03  0.00000000000E+00 0. -1.
         22    1    1    2    0    0 -0.65243025618E+03 -0.98088842095E+03 -0.83739539335E+03  0.14453506074E+04  0.00000000000E+00 0.  1.
<mgrwt>
<rscale>  0 0.23977034E+04</rscale>
<asrwt>0</asrwt>
<pdfrwt beam="1">  1        2 0.29834903E+00 0.23977034E+04</pdfrwt>
<pdfrwt beam="2">  1       -2 0.11401962E+00 0.23977034E+04</pdfrwt>
<totfact> 0.39107154E+00</totfact>
</mgrwt>
</event>
<event>
 6    1  0.1528034E-005  0.3719646E+04  0.7818608E-02  0.8063622E-01
         -1   -1    0    0    0  501 -0.00000000000E+00  0.00000000000E+00  0.21581351419E+04  0.21581351419E+04  0.00000000000E+00 0.  1.
          1   -1    0    0  501    0  0.00000000000E+00 -0.00000000000E+00 -0.16027452473E+04  0.16027452473E+04  0.00000000000E+00 0. -1.
         23    2    1    2    0    0  0.16381138979E+04 -0.83373381994E+03  0.55674565731E+03  0.19228022998E+04  0.93132874044E+02 0.  0.
         11    1    3    3    0    0  0.26857727849E+03 -0.10021818287E+03  0.96199590536E+02  0.30237691697E+03  0.00000000000E+00 0. -1.
        -11    1    3    3    0    0  0.13695366194E+04 -0.73351563707E+03  0.46054606678E+03  0.16204253828E+04  0.00000000000E+00 0.  1.
         22    1    1    2    0    0 -0.16381138979E+04  0.83373381994E+03 -0.13557627501E+01  0.18380780895E+04  0.00000000000E+00 0. -1.
<mgrwt>
<rscale>  0 0.37196456E+04</rscale>
<asrwt>0</asrwt>
<pdfrwt beam="1">  1        1 0.24657619E+00 0.37196456E+04</pdfrwt>
<pdfrwt beam="2">  1       -1 0.33202079E+00 0.37196456E+04</pdfrwt>
<totfact> 0.90842387E-02</totfact>
</mgrwt>
</event>
<event>
 6    1  0.1528034E-005  0.3620941E+04  0.7818608E-02  0.8085712E-01
         -2   -1    0    0    0  501 -0.00000000000E+00  0.00000000000E+00  0.19735734357E+04  0.19735734357E+04  0.00000000000E+00 0.  1.
          2   -1    0    0  501    0  0.00000000000E+00 -0.00000000000E+00 -0.16608469462E+04  0.16608469462E+04  0.00000000000E+00 0. -1.
         23    2    1    2    0    0 -0.17839348462E+04  0.25374872549E+03  0.32101643119E+03  0.18325100971E+04  0.90718000886E+02 0.  0.
         13    1    3    3    0    0 -0.26061895205E+03  0.63021957298E+02  0.28011443085E+02  0.26958977394E+03  0.00000000000E+00 0. -1.
        -13    1    3    3    0    0 -0.15233158942E+04  0.19072676819E+03  0.29300498810E+03  0.15629203232E+04  0.00000000000E+00 0.  1.
         22    1    1    2    0    0  0.17839348462E+04 -0.25374872549E+03 -0.82899416674E+01  0.18019102848E+04  0.00000000000E+00 0.  1.
<mgrwt>
<rscale>  0 0.36209410E+04</rscale>
<asrwt>0</asrwt>
<pdfrwt beam="1">  1        2 0.25551492E+00 0.36209410E+04</pdfrwt>
<pdfrwt beam="2">  1       -2 0.30362668E+00 0.36209410E+04</pdfrwt>
<totfact> 0.25335036E-01</totfact>
</mgrwt>
</event>
<event>
 6    1  0.1528034E-005  0.2268865E+04  0.7818608E-02  0.8490300E-01
          2   -1    0    0  501    0  0.00000000000E+00  0.00000000000E+00  0.12749599585E+04  0.12749599585E+04  0.00000000000E+00 0.  1.
         -2   -1    0    0    0  501 -0.00000000000E+00 -0.00000000000E+00 -0.10093937263E+04  0.10093937263E+04  0.00000000000E+00 0. -1.
         23    2    1    2    0    0  0.20985414374E+03 -0.78496908631E+03 -0.66125793498E+03  0.10517879604E+04  0.93705010537E+02 0.  0.
         11    1    3    3    0    0  0.98677185619E+02 -0.50121045241E+03 -0.45206972297E+03  0.68214084982E+03  0.00000000000E+00 0.  1.
        -11    1    3    3    0    0  0.11117695812E+03 -0.28375863389E+03 -0.20918821201E+03  0.36964711060E+03  0.00000000000E+00 0. -1.
         22    1    1    2    0    0 -0.20985414374E+03  0.78496908631E+03  0.92682416713E+03  0.12325657244E+04  0.00000000000E+00 0.  1.
<mgrwt>
<rscale>  0 0.22688645E+04</rscale>
<asrwt>0</asrwt>
<pdfrwt beam="1">  1        2 0.19614769E+00 0.22688645E+04</pdfrwt>
<pdfrwt beam="2">  1       -2 0.15529134E+00 0.22688645E+04</pdfrwt>
<totfact> 0.42455132E+00</totfact>
</mgrwt>
</event>
<event>
 6    1  0.1528034E-005  0.1509264E+04  0.7818608E-02  0.8878316E-01
         -2   -1    0    0    0  501 -0.00000000000E+00  0.00000000000E+00  0.39505996081E+03  0.39505996081E+03  0.00000000000E+00 0. -1.
          2   -1    0    0  501    0  0.00000000000E+00 -0.00000000000E+00 -0.14414760350E+04  0.14414760350E+04  0.00000000000E+00 0.  1.
         23    2    1    2    0    0 -0.73185214522E+03 -0.84980234432E+01 -0.31519634901E+03  0.80195295642E+03  0.90000150049E+02 0.  0.
         13    1    3    3    0    0 -0.21588635336E+03  0.35680826365E+02 -0.77276296453E+02  0.23205961504E+03  0.00000000000E+00 0. -1.
        -13    1    3    3    0    0 -0.51596579186E+03 -0.44178849808E+02 -0.23792005255E+03  0.56989334138E+03  0.00000000000E+00 0.  1.
         22    1    1    2    0    0  0.73185214522E+03  0.84980234432E+01 -0.73121972516E+03  0.10345830394E+04  0.00000000000E+00 0.  1.
<mgrwt>
<rscale>  0 0.15092640E+04</rscale>
<asrwt>0</asrwt>
<pdfrwt beam="1">  1        2 0.22176554E+00 0.15092640E+04</pdfrwt>
<pdfrwt beam="2">  1       -2 0.60778455E-01 0.15092640E+04</pdfrwt>
<totfact> 0.33337246E+01</totfact>
</mgrwt>
</event>
<event>
 6    1  0.1528034E-005  0.3652130E+04  0.7818608E-02  0.8078654E-01
          2   -1    0    0  501    0  0.00000000000E+00  0.00000000000E+00  0.35798698150E+04  0.35798698150E+04  0.00000000000E+00 0. -1.
         -2   -1    0    0    0  501 -0.00000000000E+00 -0.00000000000E+00 -0.93146240273E+03  0.93146240273E+03  0.00000000000E+00 0.  1.
         23    2    1    2    0    0  0.91984850859E+03  0.81513360486E+03 -0.34137902433E+03  0.12787810567E+04  0.90428314711E+02 0.  0.
         11    1    3    3    0    0  0.53962644770E+03  0.44368543694E+03 -0.15580800878E+03  0.71577203467E+03  0.00000000000E+00 0. -1.
        -11    1    3    3    0    0  0.38022206089E+03  0.37144816791E+03 -0.18557101555E+03  0.56300902199E+03  0.00000000000E+00 0.  1.
         22    1    1    2    0    0 -0.91984850859E+03 -0.81513360486E+03  0.29897864366E+04  0.32325511611E+04  0.00000000000E+00 0. -1.
<mgrwt>
<rscale>  0 0.36521304E+04</rscale>
<asrwt>0</asrwt>
<pdfrwt beam="1">  1        2 0.55074919E+00 0.36521304E+04</pdfrwt>
<pdfrwt beam="2">  1       -2 0.14330191E+00 0.36521304E+04</pdfrwt>
<totfact> 0.19539052E-01</totfact>
</mgrwt>
</event>
<event>
 6    1  0.1528034E-005  0.1382543E+04  0.7818608E-02  0.8966553E-01
         -1   -1    0    0    0  501 -0.00000000000E+00  0.00000000000E+00  0.70408955282E+03  0.70408955282E+03  0.00000000000E+00 0.  1.
          1   -1    0    0  501    0  0.00000000000E+00 -0.00000000000E+00 -0.67868655814E+03  0.67868655814E+03  0.00000000000E+00 0. -1.
         23    2    1    2    0    0 -0.65212546931E+03  0.14703313569E+03  0.17694722835E+03  0.69731858093E+03  0.89758069141E+02 0.  0.
         11    1    3    3    0    0 -0.54855096406E+03  0.11741373337E+03  0.18118131172E+03  0.58950895894E+03  0.00000000000E+00 0. -1.
        -11    1    3    3    0    0 -0.10357450525E+03  0.29619402326E+02 -0.42340833664E+01  0.10780962199E+03  0.00000000000E+00 0.  1.
         22    1    1    2    0    0  0.65212546931E+03 -0.14703313569E+03 -0.15154423368E+03  0.68545753003E+03  0.00000000000E+00 0. -1.
<mgrwt>
<rscale>  0 0.13825428E+04</rscale>
<asrwt>0</asrwt>
<pdfrwt beam="1">  1        1 0.10441332E+00 0.13825428E+04</pdfrwt>
<pdfrwt beam="2">  1       -1 0.10832147E+00 0.13825428E+04</pdfrwt>
<totfact> 0.22071572E+01</totfact>
</mgrwt>
</event>
<event>
 6    1  0.1528034E-005  0.1129182E+04  0.7818608E-02  0.9177207E-01
         -2   -1    0    0    0  501 -0.00000000000E+00  0.00000000000E+00  0.40865536444E+03  0.40865536444E+03  0.00000000000E+00 0.  1.
          2   -1    0    0  501    0  0.00000000000E+00 -0.00000000000E+00 -0.78002841788E+03  0.78002841788E+03  0.00000000000E+00 0. -1.
         23    2    1    2    0    0 -0.24623569785E+03 -0.47209280104E+02  0.34207033397E+03  0.43246807099E+03  0.84591867388E+02 0.  0.
         11    1    3    3    0    0 -0.12092969666E+03  0.18984938057E+02  0.17156411674E+03  0.21075736181E+03  0.00000000000E+00 0.  1.
        -11    1    3    3    0    0 -0.12530600119E+03 -0.66194218161E+02  0.17050621723E+03  0.22171070918E+03  0.00000000000E+00 0. -1.
         22    1    1    2    0    0  0.24623569785E+03  0.47209280104E+02 -0.71344338741E+03  0.75621571133E+03  0.00000000000E+00 0. -1.
<mgrwt>
<rscale>  0 0.11291816E+04</rscale>
<asrwt>0</asrwt>
<pdfrwt beam="1">  1        2 0.12000437E+00 0.11291816E+04</pdfrwt>
<pdfrwt beam="2">  1       -2 0.62870057E-01 0.11291816E+04</pdfrwt>
<totfact> 0.82820301E+01</totfact>
</mgrwt>
</event>
<event>
 6    1  0.1528034E-005  0.1686991E+04  0.7818608E-02  0.8768819E-01
         -2   -1    0    0    0  501 -0.00000000000E+00  0.00000000000E+00  0.72705211536E+03  0.72705211536E+03  0.00000000000E+00 0.  1.
          2   -1    0    0  501    0  0.00000000000E+00 -0.00000000000E+00 -0.97858864081E+03  0.97858864081E+03  0.00000000000E+00 0. -1.
         23    2    1    2    0    0 -0.76082329891E+03  0.33280832086E+03  0.83170062333E+01  0.83550437115E+03  0.91569159807E+02 0.  0.
         13    1    3    3    0    0 -0.76796789355E+02  0.47204510988E+02  0.26713318898E+02  0.94019222074E+02  0.00000000000E+00 0.  1.
        -13    1    3    3    0    0 -0.68402650955E+03  0.28560380987E+03 -0.18396312665E+02  0.74148514908E+03  0.00000000000E+00 0. -1.
         22    1    1    2    0    0  0.76082329891E+03 -0.33280832086E+03 -0.25985353169E+03  0.87013638501E+03  0.00000000000E+00 0.  1.
<mgrwt>
<rscale>  0 0.16869913E+04</rscale>
<asrwt>0</asrwt>
<pdfrwt beam="1">  1        2 0.15055210E+00 0.16869913E+04</pdfrwt>
<pdfrwt beam="2">  1       -2 0.11185417E+00 0.16869913E+04</pdfrwt>
<totfact> 0.15628899E+01</totfact>
</mgrwt>
</event>
<event>
 6    1  0.1528034E-005  0.2406288E+04  0.7818608E-02  0.8437153E-01
          2   -1    0    0  501    0  0.00000000000E+00  0.00000000000E+00  0.13090355637E+04  0.13090355637E+04  0.00000000000E+00 0. -1.
         -2   -1    0    0    0  501 -0.00000000000E+00 -0.00000000000E+00 -0.11058184640E+04  0.11058184640E+04  0.00000000000E+00 0.  1.
         23    2    1    2    0    0  0.99000816353E+03 -0.42556036365E+03 -0.43126746540E+03  0.11643387538E+04  0.92061501200E+02 0.  0.
         13    1    3    3    0    0  0.31943443380E+03 -0.14387943183E+03 -0.94746611871E+02  0.36292777362E+03  0.00000000000E+00 0. -1.
        -13    1    3    3    0    0  0.67057372972E+03 -0.28168093181E+03 -0.33652085353E+03  0.80141098021E+03  0.00000000000E+00 0.  1.
         22    1    1    2    0    0 -0.99000816353E+03  0.42556036365E+03  0.63448456504E+03  0.12505152739E+04  0.00000000000E+00 0. -1.
<mgrwt>
<rscale>  0 0.24062882E+04</rscale>
<asrwt>0</asrwt>
<pdfrwt beam="1">  1        2 0.20139009E+00 0.24062882E+04</pdfrwt>
<pdfrwt beam="2">  1       -2 0.17012592E+00 0.24062882E+04</pdfrwt>
<totfact> 0.31223437E+00</totfact>
</mgrwt>
</event>
<event>
 6    1  0.1528034E-005  0.2903462E+04  0.7818608E-02  0.8271848E-01
          2   -1    0    0  501    0  0.00000000000E+00  0.00000000000E+00  0.13243962761E+04  0.13243962761E+04  0.00000000000E+00 0.  1.
         -2   -1    0    0    0  501 -0.00000000000E+00 -0.00000000000E+00 -0.15913083735E+04  0.15913083735E+04  0.00000000000E+00 0. -1.
         23    2    1    2    0    0  0.11626652212E+04  0.56935664907E+03  0.52307032654E+03  0.13991197886E+04  0.89309607989E+02 0.  0.
         13    1    3    3    0    0  0.62339661264E+03  0.34984122514E+03  0.30902700231E+03  0.77878745984E+03  0.00000000000E+00 0. -1.
        -13    1    3    3    0    0  0.53926860853E+03  0.21951542393E+03  0.21404332423E+03  0.62033232878E+03  0.00000000000E+00 0.  1.
         22    1    1    2    0    0 -0.11626652212E+04 -0.56935664907E+03 -0.78998242400E+03  0.15165848610E+04  0.00000000000E+00 0.  1.
<mgrwt>
<rscale>  0 0.29034620E+04</rscale>
<asrwt>0</asrwt>
<pdfrwt beam="1">  1        2 0.20375327E+00 0.29034620E+04</pdfrwt>
<pdfrwt beam="2">  1       -2 0.24481667E+00 0.29034620E+04</pdfrwt>
<totfact> 0.95482142E-01</totfact>
</mgrwt>
</event>
<event>
 6    1  0.1528034E-005  0.2655600E+04  0.7818608E-02  0.8349557E-01
         -4   -1    0    0    0  501 -0.00000000000E+00  0.00000000000E+00  0.97967376637E+03  0.97967376637E+03  0.00000000000E+00 0.  1.
          4   -1    0    0  501    0  0.00000000000E+00 -0.00000000000E+00 -0.17996319945E+04  0.17996319945E+04  0.00000000000E+00 0. -1.
         23    2    1    2    0    0 -0.11375440603E+04 -0.71948987238E+02 -0.11203231175E+04  0.16005766943E+04  0.86825807538E+02 0.  0.
         11    1    3    3    0    0 -0.10584174089E+04 -0.84255479862E+02 -0.10600458583E+04  0.15003478327E+04  0.00000000000E+00 0. -1.
        -11    1    3    3    0    0 -0.79126651424E+02  0.12306492624E+02 -0.60277259131E+02  0.10022886158E+03  0.00000000000E+00 0.  1.
         22    1    1    2    0    0  0.11375440603E+04  0.71948987238E+02  0.30036488930E+03  0.11787290666E+04  0.00000000000E+00 0.  1.
<mgrwt>
<rscale>  0 0.26555996E+04</rscale>
<asrwt>0</asrwt>
<pdfrwt beam="1">  1        4 0.27686646E+00 0.26555996E+04</pdfrwt>
<pdfrwt beam="2">  1       -4 0.15071904E+00 0.26555996E+04</pdfrwt>
<totfact> 0.22193640E-02</totfact>
</mgrwt>
</event>
<event>
 6    1  0.1528034E-005  0.2256490E+04  0.7818608E-02  0.8495277E-01
         -2   -1    0    0    0  501 -0.00000000000E+00  0.00000000000E+00  0.50660061186E+03  0.50660061186E+03  0.00000000000E+00 0. -1.
          2   -1    0    0  501    0  0.00000000000E+00 -0.00000000000E+00 -0.25127022937E+04  0.25127022937E+04  0.00000000000E+00 0.  1.
         23    2    1    2    0    0  0.10112148335E+04 -0.20656873003E+03 -0.40114419187E+03  0.11111324141E+04  0.92046180339E+02 0.  0.
         13    1    3    3    0    0  0.46464843886E+03 -0.14075695380E+03 -0.19831009633E+03  0.52444025979E+03  0.00000000000E+00 0.  1.
        -13    1    3    3    0    0  0.54656639465E+03 -0.65811776228E+02 -0.20283409554E+03  0.58669215434E+03  0.00000000000E+00 0. -1.
         22    1    1    2    0    0 -0.10112148335E+04  0.20656873003E+03 -0.16049574900E+04  0.19081704915E+04  0.00000000000E+00 0.  1.
<mgrwt>
<rscale>  0 0.22564898E+04</rscale>
<asrwt>0</asrwt>
<pdfrwt beam="1">  1        2 0.38656958E+00 0.22564898E+04</pdfrwt>
<pdfrwt beam="2">  1       -2 0.77938557E-01 0.22564898E+04</pdfrwt>
<totfact> 0.45642711E+00</totfact>
</mgrwt>
</event>
<event>
 6    1  0.1528034E-005  0.4957413E+04  0.7818608E-02  0.7835110E-01
         -2   -1    0    0    0  501 -0.00000000000E+00  0.00000000000E+00  0.41845058241E+04  0.41845058241E+04  0.00000000000E+00 0.  1.
          2   -1    0    0  501    0  0.00000000000E+00 -0.00000000000E+00 -0.14682702567E+04  0.14682702567E+04  0.00000000000E+00 0. -1.
         23    2    1    2    0    0  0.13529898405E+04  0.14129462877E+04 -0.37564073775E+03  0.19939924295E+04  0.88888269231E+02 0.  0.
         13    1    3    3    0    0  0.96468691297E+03  0.10604797546E+04 -0.28951309753E+03  0.14625511901E+04  0.00000000000E+00 0. -1.
        -13    1    3    3    0    0  0.38830292756E+03  0.35246653310E+03 -0.86127640219E+02  0.53144123938E+03  0.00000000000E+00 0.  1.
         22    1    1    2    0    0 -0.13529898405E+04 -0.14129462877E+04  0.30918763052E+04  0.36587836513E+04  0.00000000000E+00 0.  1.
<mgrwt>
<rscale>  0 0.49574128E+04</rscale>
<asrwt>0</asrwt>
<pdfrwt beam="1">  1        2 0.22588773E+00 0.49574128E+04</pdfrwt>
<pdfrwt beam="2">  1       -2 0.64377012E+00 0.49574128E+04</pdfrwt>
<totfact> 0.34412536E-03</totfact>
</mgrwt>
</event>
<event>
 6    1  0.1528034E-005  0.3729649E+04  0.7818608E-02  0.8061423E-01
          1   -1    0    0  501    0  0.00000000000E+00  0.00000000000E+00  0.95783413631E+03  0.95783413631E+03  0.00000000000E+00 0. -1.
         -1   -1    0    0    0  501 -0.00000000000E+00 -0.00000000000E+00 -0.36306602918E+04  0.36306602918E+04  0.00000000000E+00 0.  1.
         23    2    1    2    0    0  0.12705676777E+04 -0.21772220203E+02 -0.30144756199E+04  0.32726142627E+04  0.90136544339E+02 0.  0.
         13    1    3    3    0    0  0.77089834222E+03 -0.45585828139E+02 -0.19053421999E+04  0.20558918309E+04  0.00000000000E+00 0. -1.
        -13    1    3    3    0    0  0.49966933551E+03  0.23813607937E+02 -0.11091334200E+04  0.12167224318E+04  0.00000000000E+00 0.  1.
         22    1    1    2    0    0 -0.12705676777E+04  0.21772220203E+02  0.34164946434E+03  0.13158801654E+04  0.00000000000E+00 0. -1.
<mgrwt>
<rscale>  0 0.37296490E+04</rscale>
<asrwt>0</asrwt>
<pdfrwt beam="1">  1        1 0.14735910E+00 0.37296490E+04</pdfrwt>
<pdfrwt beam="2">  1       -1 0.55856312E+00 0.37296490E+04</pdfrwt>
<totfact> 0.88501585E-03</totfact>
</mgrwt>
</event>
<event>
 6    1  0.1528034E-005  0.1379185E+04  0.7818608E-02  0.8969025E-01
          1   -1    0    0  501    0  0.00000000000E+00  0.00000000000E+00  0.52855382117E+03  0.52855382117E+03  0.00000000000E+00 0. -1.
         -1   -1    0    0    0  501 -0.00000000000E+00 -0.00000000000E+00 -0.89969636295E+03  0.89969636295E+03  0.00000000000E+00 0.  1.
         23    2    1    2    0    0 -0.13356745285E+03  0.54922828700E+03  0.21740783934E+03  0.61223331737E+03  0.89841474734E+02 0.  0.
         13    1    3    3    0    0 -0.40911493079E+02  0.33965175281E+03  0.14854351866E+03  0.37296412748E+03  0.00000000000E+00 0. -1.
        -13    1    3    3    0    0 -0.92655959769E+02  0.20957653419E+03  0.68864320683E+02  0.23926918988E+03  0.00000000000E+00 0.  1.
         22    1    1    2    0    0  0.13356745285E+03 -0.54922828700E+03 -0.58855038112E+03  0.81601686675E+03  0.00000000000E+00 0.  1.
<mgrwt>
<rscale>  0 0.13791852E+04</rscale>
<asrwt>0</asrwt>
<pdfrwt beam="1">  1        1 0.81315974E-01 0.13791852E+04</pdfrwt>
<pdfrwt beam="2">  1       -1 0.13841482E+00 0.13791852E+04</pdfrwt>
<totfact> 0.17304678E+01</totfact>
</mgrwt>
</event>
<event>
 6    1  0.1528034E-005  0.1025529E+04  0.7818608E-02  0.9280980E-01
          2   -1    0    0  501    0  0.00000000000E+00  0.00000000000E+00  0.15855288184E+04  0.15855288184E+04  0.00000000000E+00 0. -1.
         -2   -1    0    0    0  501 -0.00000000000E+00 -0.00000000000E+00 -0.16582935762E+03  0.16582935762E+03  0.00000000000E+00 0.  1.
         23    2    1    2    0    0 -0.21498853650E+03  0.44799945101E+03  0.52882826079E+03  0.73127235908E+03  0.90423198452E+02 0.  0.
         13    1    3    3    0    0 -0.43385859462E+02  0.29450950978E+02  0.47782719225E+02  0.70942790834E+02  0.00000000000E+00 0. -1.
        -13    1    3    3    0    0 -0.17160267704E+03  0.41854850003E+03  0.48104554157E+03  0.66032956825E+03  0.00000000000E+00 0.  1.
         22    1    1    2    0    0  0.21498853650E+03 -0.44799945101E+03  0.89087119999E+03  0.10200858169E+04  0.00000000000E+00 0.  1.
<mgrwt>
<rscale>  0 0.10255286E+04</rscale>
<asrwt>0</asrwt>
<pdfrwt beam="1">  1        2 0.24392750E+00 0.10255286E+04</pdfrwt>
<pdfrwt beam="2">  1       -2 0.25512210E-01 0.10255286E+04</pdfrwt>
<totfact> 0.15656256E+02</totfact>
</mgrwt>
</event>
<event>
 6    1  0.1528034E-005  0.2756885E+04  0.7818608E-02  0.8316780E-01
         -2   -1    0    0    0  501 -0.00000000000E+00  0.00000000000E+00  0.71737563585E+03  0.71737563585E+03  0.00000000000E+00 0.  1.
          2   -1    0    0  501    0  0.00000000000E+00 -0.00000000000E+00 -0.26486871091E+04  0.26486871091E+04  0.00000000000E+00 0. -1.
         23    2    1    2    0    0  0.43070336602E+03 -0.49191494630E+03  0.51279872933E+03  0.83601128575E+03  0.92014288030E+02 0.  0.
         11    1    3    3    0    0  0.35197143272E+03 -0.34326096608E+03  0.39473274736E+03  0.63049656789E+03  0.00000000000E+00 0. -1.
        -11    1    3    3    0    0  0.78731933298E+02 -0.14865398023E+03  0.11806598196E+03  0.20551471786E+03  0.00000000000E+00 0.  1.
         22    1    1    2    0    0 -0.43070336602E+03  0.49191494630E+03 -0.24441102026E+04  0.25300514592E+04  0.00000000000E+00 0. -1.
<mgrwt>
<rscale>  0 0.27568849E+04</rscale>
<asrwt>0</asrwt>
<pdfrwt beam="1">  1        2 0.40749033E+00 0.27568849E+04</pdfrwt>
<pdfrwt beam="2">  1       -2 0.11036548E+00 0.27568849E+04</pdfrwt>
<totfact> 0.16207039E+00</totfact>
</mgrwt>
</event>
<event>
 6    1  0.1528034E-005  0.2938523E+04  0.7818608E-02  0.8261507E-01
          2   -1    0    0  501    0  0.00000000000E+00  0.00000000000E+00  0.17380949760E+04  0.17380949760E+04  0.00000000000E+00 0. -1.
         -2   -1    0    0    0  501 -0.00000000000E+00 -0.00000000000E+00 -0.12420089856E+04  0.12420089856E+04  0.00000000000E+00 0.  1.
         23    2    1    2    0    0  0.83050065867E+03 -0.92539885799E+03  0.10393800995E+04  0.16231725413E+04  0.91014929411E+02 0.  0.
         11    1    3    3    0    0  0.54351662133E+03 -0.56257540125E+03  0.60939043724E+03  0.99159371960E+03  0.00000000000E+00 0. -1.
        -11    1    3    3    0    0  0.28698403734E+03 -0.36282345675E+03  0.42998966222E+03  0.63157882174E+03  0.00000000000E+00 0.  1.
         22    1    1    2    0    0 -0.83050065867E+03  0.92539885799E+03 -0.54329410901E+03  0.13569314203E+04  0.00000000000E+00 0.  1.
<mgrwt>
<rscale>  0 0.29385232E+04</rscale>
<asrwt>0</asrwt>
<pdfrwt beam="1">  1        2 0.26739923E+00 0.29385232E+04</pdfrwt>
<pdfrwt beam="2">  1       -2 0.19107831E+00 0.29385232E+04</pdfrwt>
<totfact> 0.12250923E+00</totfact>
</mgrwt>
</event>
<event>
 6    1  0.1528034E-005  0.1546843E+04  0.7818608E-02  0.8853887E-01
          2   -1    0    0  501    0  0.00000000000E+00  0.00000000000E+00  0.85253904791E+03  0.85253904791E+03  0.00000000000E+00 0. -1.
         -2   -1    0    0    0  501 -0.00000000000E+00 -0.00000000000E+00 -0.70164645630E+03  0.70164645630E+03  0.00000000000E+00 0.  1.
         23    2    1    2    0    0  0.28560478507E+03  0.71266485166E+03  0.14448685292E+03  0.78639496146E+03  0.89884930281E+02 0.  0.
         13    1    3    3    0    0  0.16440995501E+03  0.49958814247E+03  0.12428865785E+03  0.54043187903E+03  0.00000000000E+00 0. -1.
        -13    1    3    3    0    0  0.12119483006E+03  0.21307670920E+03  0.20198195069E+02  0.24596308243E+03  0.00000000000E+00 0.  1.
         22    1    1    2    0    0 -0.28560478507E+03 -0.71266485166E+03  0.64057386909E+01  0.76779054275E+03  0.00000000000E+00 0. -1.
<mgrwt>
<rscale>  0 0.15468432E+04</rscale>
<asrwt>0</asrwt>
<pdfrwt beam="1">  1        2 0.13115985E+00 0.15468432E+04</pdfrwt>
<pdfrwt beam="2">  1       -2 0.10794561E+00 0.15468432E+04</pdfrwt>
<totfact> 0.20931456E+01</totfact>
</mgrwt>
</event>
<event>
 6    1  0.1528034E-005  0.1140771E+04  0.7818608E-02  0.9166340E-01
         -1   -1    0    0    0  501 -0.00000000000E+00  0.00000000000E+00  0.62250139344E+03  0.62250139344E+03  0.00000000000E+00 0.  1.
          1   -1    0    0  501    0  0.00000000000E+00 -0.00000000000E+00 -0.52263278777E+03  0.52263278777E+03  0.00000000000E+00 0. -1.
         23    2    1    2    0    0 -0.23537497133E+03 -0.24902011853E+03 -0.40289088067E+03  0.53671039989E+03  0.91239218911E+02 0.  0.
         13    1    3    3    0    0 -0.68313211950E+01 -0.52864067323E+02 -0.55880327823E+02  0.77226210582E+02  0.00000000000E+00 0. -1.
        -13    1    3    3    0    0 -0.22854365014E+03 -0.19615605121E+03 -0.34701055284E+03  0.45948418931E+03  0.00000000000E+00 0.  1.
         22    1    1    2    0    0  0.23537497133E+03  0.24902011853E+03  0.50275948634E+03  0.60842378132E+03  0.00000000000E+00 0.  1.
<mgrwt>
<rscale>  0 0.11407710E+04</rscale>
<asrwt>0</asrwt>
<pdfrwt beam="1">  1        1 0.80405044E-01 0.11407710E+04</pdfrwt>
<pdfrwt beam="2">  1       -1 0.95769445E-01 0.11407710E+04</pdfrwt>
<totfact> 0.43575412E+01</totfact>
</mgrwt>
</event>
<event>
 6    1  0.1528034E-005  0.2329565E+04  0.7818608E-02  0.8466355E-01
          2   -1    0    0  501    0  0.00000000000E+00  0.00000000000E+00  0.22227154887E+04  0.22227154887E+04  0.00000000000E+00 0.  1.
         -2   -1    0    0    0  501 -0.00000000000E+00 -0.00000000000E+00 -0.61038751991E+03  0.61038751991E+03  0.00000000000E+00 0. -1.
         23    2    1    2    0    0  0.68633517664E+03  0.62281737539E+03 -0.46446379318E+02  0.93297411938E+03  0.96571131804E+02 0.  0.
         13    1    3    3    0    0  0.33167275071E+03  0.26660877407E+03 -0.62196700558E+02  0.43006450857E+03  0.00000000000E+00 0. -1.
        -13    1    3    3    0    0  0.35466242593E+03  0.35620860132E+03  0.15750321240E+02  0.50290961081E+03  0.00000000000E+00 0.  1.
         22    1    1    2    0    0 -0.68633517664E+03 -0.62281737539E+03  0.16587743481E+04  0.19001288893E+04  0.00000000000E+00 0.  1.
<mgrwt>
<rscale>  0 0.23295646E+04</rscale>
<asrwt>0</asrwt>
<pdfrwt beam="1">  1        2 0.34195622E+00 0.23295646E+04</pdfrwt>
<pdfrwt beam="2">  1       -2 0.93905773E-01 0.23295646E+04</pdfrwt>
<totfact> 0.43417035E+00</totfact>
</mgrwt>
</event>
<event>
 6    1  0.1528034E-005  0.2468758E+04  0.7818608E-02  0.8414201E-01
          1   -1    0    0  501    0  0.00000000000E+00  0.00000000000E+00  0.18352254379E+04  0.18352254379E+04  0.00000000000E+00 0. -1.
         -1   -1    0    0    0  501 -0.00000000000E+00 -0.00000000000E+00 -0.83024782075E+03  0.83024782075E+03  0.00000000000E+00 0.  1.
         23    2    1    2    0    0 -0.81712671786E+03 -0.66114863404E+03 -0.19229220722E+03  0.10722787879E+04  0.89397520551E+02 0.  0.
         13    1    3    3    0    0 -0.27732927602E+03 -0.27148197738E+03 -0.94014100957E+02  0.39931521704E+03  0.00000000000E+00 0. -1.
        -13    1    3    3    0    0 -0.53979744184E+03 -0.38966665666E+03 -0.98278106260E+02  0.67296357085E+03  0.00000000000E+00 0.  1.
         22    1    1    2    0    0  0.81712671786E+03  0.66114863404E+03  0.11972698244E+04  0.15931944708E+04  0.00000000000E+00 0.  1.
<mgrwt>
<rscale>  0 0.24687583E+04</rscale>
<asrwt>0</asrwt>
<pdfrwt beam="1">  1        1 0.28234237E+00 0.24687583E+04</pdfrwt>
<pdfrwt beam="2">  1       -1 0.12773043E+00 0.24687583E+04</pdfrwt>
<totfact> 0.18206898E+00</totfact>
</mgrwt>
</event>
<event>
 6    1  0.1528034E-005  0.6655407E+03  0.7818608E-02  0.9778047E-01
          4   -1    0    0  501    0  0.00000000000E+00  0.00000000000E+00  0.16135070333E+03  0.16135070333E+03  0.00000000000E+00 0. -1.
         -4   -1    0    0    0  501 -0.00000000000E+00 -0.00000000000E+00 -0.68630689719E+03  0.68630689719E+03  0.00000000000E+00 0.  1.
         23    2    1    2    0    0  0.31915554521E+03  0.64304465365E+02 -0.23494979191E+03  0.41165411489E+03  0.90897630794E+02 0.  0.
         13    1    3    3    0    0  0.15419428303E+03  0.77017563022E+02 -0.11260478110E+03  0.20588205036E+03  0.00000000000E+00 0. -1.
        -13    1    3    3    0    0  0.16496126218E+03 -0.12713097657E+02 -0.12234501081E+03  0.20577206453E+03  0.00000000000E+00 0.  1.
         22    1    1    2    0    0 -0.31915554521E+03 -0.64304465365E+02 -0.29000640196E+03  0.43600348563E+03  0.00000000000E+00 0.  1.
<mgrwt>
<rscale>  0 0.66554068E+03</rscale>
<asrwt>0</asrwt>
<pdfrwt beam="1">  1        4 0.24823185E-01 0.66554068E+03</pdfrwt>
<pdfrwt beam="2">  1       -4 0.10558568E+00 0.66554068E+03</pdfrwt>
<totfact> 0.22193526E+01</totfact>
</mgrwt>
</event>
<event>
 6    1  0.1528034E-005  0.3865441E+04  0.7818608E-02  0.8032256E-01
          1   -1    0    0  501    0  0.00000000000E+00  0.00000000000E+00  0.88755085188E+03  0.88755085188E+03  0.00000000000E+00 0. -1.
         -1   -1    0    0    0  501 -0.00000000000E+00 -0.00000000000E+00 -0.42086692209E+04  0.42086692209E+04  0.00000000000E+00 0.  1.
         23    2    1    2    0    0  0.75473800006E+03 -0.17645251966E+04 -0.19506403190E+04  0.27379603959E+04  0.90834228161E+02 0.  0.
         11    1    3    3    0    0  0.61282389592E+03 -0.14974006035E+04 -0.16126324084E+04  0.22843697116E+04  0.00000000000E+00 0. -1.
        -11    1    3    3    0    0  0.14191410414E+03 -0.26712459312E+03 -0.33800791067E+03  0.45359068429E+03  0.00000000000E+00 0.  1.
         22    1    1    2    0    0 -0.75473800006E+03  0.17645251966E+04 -0.13704780500E+04  0.23582596769E+04  0.00000000000E+00 0. -1.
<mgrwt>
<rscale>  0 0.38654407E+04</rscale>
<asrwt>0</asrwt>
<pdfrwt beam="1">  1        1 0.13654628E+00 0.38654407E+04</pdfrwt>
<pdfrwt beam="2">  1       -1 0.64748759E+00 0.38654407E+04</pdfrwt>
<totfact> 0.43916511E-03</totfact>
</mgrwt>
</event>
<event>
 6    1  0.1528034E-005  0.1545547E+04  0.7818608E-02  0.8854717E-01
          1   -1    0    0  501    0  0.00000000000E+00  0.00000000000E+00  0.98497528242E+03  0.98497528242E+03  0.00000000000E+00 0. -1.
         -1   -1    0    0    0  501 -0.00000000000E+00 -0.00000000000E+00 -0.60628847080E+03  0.60628847080E+03  0.00000000000E+00 0.  1.
         23    2    1    2    0    0 -0.64429755199E+03 -0.41931583267E+03  0.14242336031E+03  0.78704641851E+03  0.90623111212E+02 0.  0.
         11    1    3    3    0    0 -0.30008987104E+03 -0.18703945499E+03  0.20195970922E+02  0.35418295507E+03  0.00000000000E+00 0.  1.
        -11    1    3    3    0    0 -0.34420768095E+03 -0.23227637769E+03  0.12222738939E+03  0.43286346344E+03  0.00000000000E+00 0. -1.
         22    1    1    2    0    0  0.64429755199E+03  0.41931583267E+03  0.23626345131E+03  0.80421733472E+03  0.00000000000E+00 0.  1.
<mgrwt>
<rscale>  0 0.15455474E+04</rscale>
<asrwt>0</asrwt>
<pdfrwt beam="1">  1        1 0.15153466E+00 0.15455474E+04</pdfrwt>
<pdfrwt beam="2">  1       -1 0.93275149E-01 0.15455474E+04</pdfrwt>
<totfact> 0.16722479E+01</totfact>
</mgrwt>
</event>
<event>
 6    1  0.1528034E-005  0.8391650E+04  0.7818608E-02  0.7448789E-01
          1   -1    0    0  501    0  0.00000000000E+00  0.00000000000E+00  0.36632038143E+04  0.36632038143E+04  0.00000000000E+00 0. -1.
         -1   -1    0    0    0  501 -0.00000000000E+00 -0.00000000000E+00 -0.48058884656E+04  0.48058884656E+04  0.00000000000E+00 0.  1.
         23    2    1    2    0    0  0.12790347125E+04 -0.25270215609E+03  0.34529269542E+04  0.36921231358E+04  0.96335473545E+02 0.  0.
         13    1    3    3    0    0  0.79926184822E+03 -0.19760306252E+03  0.22474217816E+04  0.23934851444E+04  0.00000000000E+00 0.  1.
        -13    1    3    3    0    0  0.47977286429E+03 -0.55099093575E+02  0.12055051726E+04  0.12986379914E+04  0.00000000000E+00 0. -1.
         22    1    1    2    0    0 -0.12790347125E+04  0.25270215609E+03 -0.45956116055E+04  0.47769691442E+04  0.00000000000E+00 0.  1.
<mgrwt>
<rscale>  0 0.83916504E+04</rscale>
<asrwt>0</asrwt>
<pdfrwt beam="1">  1        1 0.56356982E+00 0.83916504E+04</pdfrwt>
<pdfrwt beam="2">  1       -1 0.73936746E+00 0.83916504E+04</pdfrwt>
<totfact> 0.15054998E-05</totfact>
</mgrwt>
</event>
<event>
 6    1  0.1528034E-005  0.3087847E+04  0.7818608E-02  0.8219081E-01
          2   -1    0    0  501    0  0.00000000000E+00  0.00000000000E+00  0.12563761720E+04  0.12563761720E+04  0.00000000000E+00 0.  1.
         -2   -1    0    0    0  501 -0.00000000000E+00 -0.00000000000E+00 -0.18972816231E+04  0.18972816231E+04  0.00000000000E+00 0. -1.
         23    2    1    2    0    0  0.22558054796E+03 -0.15196810393E+04 -0.17885085463E+03  0.15493475087E+04  0.90404809821E+02 0.  0.
         11    1    3    3    0    0  0.18828207187E+03 -0.98325135751E+03 -0.12663063301E+03  0.10090930026E+04  0.00000000000E+00 0. -1.
        -11    1    3    3    0    0  0.37298476097E+02 -0.53642968181E+03 -0.52220221614E+02  0.54025450613E+03  0.00000000000E+00 0.  1.
         22    1    1    2    0    0 -0.22558054796E+03  0.15196810393E+04 -0.46205459646E+03  0.16043102864E+04  0.00000000000E+00 0. -1.
<mgrwt>
<rscale>  0 0.30878468E+04</rscale>
<asrwt>0</asrwt>
<pdfrwt beam="1">  1        2 0.19328864E+00 0.30878468E+04</pdfrwt>
<pdfrwt beam="2">  1       -2 0.29188948E+00 0.30878468E+04</pdfrwt>
<totfact> 0.53093516E-01</totfact>
</mgrwt>
</event>
<event>
 6    1  0.1528034E-005  0.1648008E+04  0.7818608E-02  0.8791586E-01
         -2   -1    0    0    0  501 -0.00000000000E+00  0.00000000000E+00  0.45957655580E+03  0.45957655580E+03  0.00000000000E+00 0. -1.
          2   -1    0    0  501    0  0.00000000000E+00 -0.00000000000E+00 -0.14774093965E+04  0.14774093965E+04  0.00000000000E+00 0.  1.
         23    2    1    2    0    0 -0.50083136382E+03  0.55469152692E+03 -0.10951431535E+03  0.76073883179E+03  0.90639063989E+02 0.  0.
         13    1    3    3    0    0 -0.15136207247E+03  0.23186316194E+03 -0.32727141484E+02  0.27882264728E+03  0.00000000000E+00 0.  1.
        -13    1    3    3    0    0 -0.34946929134E+03  0.32282836498E+03 -0.76787173862E+02  0.48191618451E+03  0.00000000000E+00 0. -1.
         22    1    1    2    0    0  0.50083136382E+03 -0.55469152692E+03 -0.90831852537E+03  0.11762471205E+04  0.00000000000E+00 0.  1.
<mgrwt>
<rscale>  0 0.16480082E+04</rscale>
<asrwt>0</asrwt>
<pdfrwt beam="1">  1        2 0.22729375E+00 0.16480082E+04</pdfrwt>
<pdfrwt beam="2">  1       -2 0.70704085E-01 0.16480082E+04</pdfrwt>
<totfact> 0.22713716E+01</totfact>
</mgrwt>
</event>
<event>
 6    1  0.1528034E-005  0.6419241E+04  0.7818608E-02  0.7640488E-01
          1   -1    0    0  501    0  0.00000000000E+00  0.00000000000E+00  0.32718869437E+04  0.32718869437E+04  0.00000000000E+00 0. -1.
         -1   -1    0    0    0  501 -0.00000000000E+00 -0.00000000000E+00 -0.31485390576E+04  0.31485390576E+04  0.00000000000E+00 0.  1.
         23    2    1    2    0    0 -0.24263592758E+04  0.19082001233E+04  0.93881823829E+03  0.32277094556E+04  0.91003295983E+02 0.  0.
         13    1    3    3    0    0 -0.67759380398E+03  0.58533434762E+03  0.27463296800E+03  0.93657510580E+03  0.00000000000E+00 0. -1.
        -13    1    3    3    0    0 -0.17487654718E+04  0.13228657757E+04  0.66418527029E+03  0.22911343498E+04  0.00000000000E+00 0.  1.
         22    1    1    2    0    0  0.24263592758E+04 -0.19082001233E+04 -0.81547035226E+03  0.31927165457E+04  0.00000000000E+00 0. -1.
<mgrwt>
<rscale>  0 0.64192410E+04</rscale>
<asrwt>0</asrwt>
<pdfrwt beam="1">  1        1 0.50336722E+00 0.64192410E+04</pdfrwt>
<pdfrwt beam="2">  1       -1 0.48439063E+00 0.64192410E+04</pdfrwt>
<totfact> 0.46222547E-04</totfact>
</mgrwt>
</event>
<event>
 6    1  0.1528034E-005  0.7587224E+04  0.7818608E-02  0.7519731E-01
          2   -1    0    0  501    0  0.00000000000E+00  0.00000000000E+00  0.39947108378E+04  0.39947108378E+04  0.00000000000E+00 0. -1.
         -2   -1    0    0    0  501 -0.00000000000E+00 -0.00000000000E+00 -0.36026365490E+04  0.36026365490E+04  0.00000000000E+00 0.  1.
         23    2    1    2    0    0  0.29503427473E+04  0.22991317781E+04 -0.43467639357E+03  0.37666756507E+04  0.91502079355E+02 0.  0.
         11    1    3    3    0    0  0.10920569536E+04  0.80335227587E+03 -0.13454196400E+03  0.13623746948E+04  0.00000000000E+00 0. -1.
        -11    1    3    3    0    0  0.18582857937E+04  0.14957795023E+04 -0.30013442957E+03  0.24043009558E+04  0.00000000000E+00 0.  1.
         22    1    1    2    0    0 -0.29503427473E+04 -0.22991317781E+04  0.82675068238E+03  0.38306717362E+04  0.00000000000E+00 0.  1.
<mgrwt>
<rscale>  0 0.75872238E+04</rscale>
<asrwt>0</asrwt>
<pdfrwt beam="1">  1        2 0.61457090E+00 0.75872238E+04</pdfrwt>
<pdfrwt beam="2">  1       -2 0.55425177E+00 0.75872238E+04</pdfrwt>
<totfact> 0.17126084E-04</totfact>
</mgrwt>
</event>
<event>
 6    1  0.1528034E-005  0.1108197E+04  0.7818608E-02  0.9197239E-01
         -1   -1    0    0    0  501 -0.00000000000E+00  0.00000000000E+00  0.21521172029E+03  0.21521172029E+03  0.00000000000E+00 0. -1.
          1   -1    0    0  501    0  0.00000000000E+00 -0.00000000000E+00 -0.14266193263E+04  0.14266193263E+04  0.00000000000E+00 0.  1.
         23    2    1    2    0    0  0.40450598440E+03  0.18060247783E+02 -0.11621539735E+04  0.12339374523E+04  0.89713511123E+02 0.  0.
         13    1    3    3    0    0  0.11543295827E+03 -0.16881841810E+02 -0.23902508709E+03  0.26597510540E+03  0.00000000000E+00 0. -1.
        -13    1    3    3    0    0  0.28907302613E+03  0.34942089593E+02 -0.92312888638E+03  0.96796234685E+03  0.00000000000E+00 0.  1.
         22    1    1    2    0    0 -0.40450598440E+03 -0.18060247783E+02 -0.49253632525E+02  0.40789359431E+03  0.00000000000E+00 0.  1.
<mgrwt>
<rscale>  0 0.11081971E+04</rscale>
<asrwt>0</asrwt>
<pdfrwt beam="1">  1        1 0.21947989E+00 0.11081971E+04</pdfrwt>
<pdfrwt beam="2">  1       -1 0.33109496E-01 0.11081971E+04</pdfrwt>
<totfact> 0.62785068E+01</totfact>
</mgrwt>
</event>
<event>
 6    1  0.1528034E-005  0.2507743E+04  0.7818608E-02  0.8400232E-01
          1   -1    0    0  501    0  0.00000000000E+00  0.00000000000E+00  0.11831549817E+04  0.11831549817E+04  0.00000000000E+00 0. -1.
         -1   -1    0    0    0  501 -0.00000000000E+00 -0.00000000000E+00 -0.13288148829E+04  0.13288148829E+04  0.00000000000E+00 0.  1.
         23    2    1    2    0    0 -0.31336195455E+03  0.39622284889E+03 -0.12206318072E+04  0.13242186872E+04  0.91787048002E+02 0.  0.
         11    1    3    3    0    0 -0.38926754570E+02  0.14650071607E+02 -0.13362302642E+03  0.13994652553E+03  0.00000000000E+00 0. -1.
        -11    1    3    3    0    0 -0.27443519998E+03  0.38157277729E+03 -0.10870087808E+04  0.11842721617E+04  0.00000000000E+00 0.  1.
         22    1    1    2    0    0  0.31336195455E+03 -0.39622284889E+03  0.10749719060E+04  0.11877511773E+04  0.00000000000E+00 0. -1.
<mgrwt>
<rscale>  0 0.25077432E+04</rscale>
<asrwt>0</asrwt>
<pdfrwt beam="1">  1        1 0.18202384E+00 0.25077432E+04</pdfrwt>
<pdfrwt beam="2">  1       -1 0.20443306E+00 0.25077432E+04</pdfrwt>
<totfact> 0.13694705E+00</totfact>
</mgrwt>
</event>
<event>
 6    1  0.1528034E-005  0.2019888E+04  0.7818608E-02  0.8597379E-01
          2   -1    0    0  501    0  0.00000000000E+00  0.00000000000E+00  0.68495493427E+03  0.68495493427E+03  0.00000000000E+00 0. -1.
         -2   -1    0    0    0  501 -0.00000000000E+00 -0.00000000000E+00 -0.14891294839E+04  0.14891294839E+04  0.00000000000E+00 0.  1.
         23    2    1    2    0    0  0.26546136793E+03  0.90291346927E+03 -0.14330045570E+02  0.94543605048E+03  0.89002834115E+02 0.  0.
         11    1    3    3    0    0  0.58890589633E+02  0.31021675800E+03  0.23527199301E+02  0.31663238558E+03  0.00000000000E+00 0.  1.
        -11    1    3    3    0    0  0.20657077830E+03  0.59269671127E+03 -0.37857244871E+02  0.62880366490E+03  0.00000000000E+00 0. -1.
         22    1    1    2    0    0 -0.26546136793E+03 -0.90291346927E+03 -0.78984450409E+03  0.12286483677E+04  0.00000000000E+00 0.  1.
<mgrwt>
<rscale>  0 0.20198877E+04</rscale>
<asrwt>0</asrwt>
<pdfrwt beam="1">  1        2 0.10537768E+00 0.20198877E+04</pdfrwt>
<pdfrwt beam="2">  1       -2 0.22909684E+00 0.20198877E+04</pdfrwt>
<totfact> 0.33821492E+00</totfact>
</mgrwt>
</event>
<event>
 6    1  0.1528034E-005  0.2992269E+04  0.7818608E-02  0.8245942E-01
          1   -1    0    0  501    0  0.00000000000E+00  0.00000000000E+00  0.25337915501E+04  0.25337915501E+04  0.00000000000E+00 0. -1.
         -1   -1    0    0    0  501 -0.00000000000E+00 -0.00000000000E+00 -0.88342647288E+03  0.88342647288E+03  0.00000000000E+00 0.  1.
         23    2    1    2    0    0  0.11978197635E+04 -0.70906662240E+03  0.14486162830E+04  0.20107151837E+04  0.83299182489E+02 0.  0.
         11    1    3    3    0    0  0.41765005292E+03 -0.20255393792E+03  0.47092125274E+03  0.66123104188E+03  0.00000000000E+00 0. -1.
        -11    1    3    3    0    0  0.78016971058E+03 -0.50651268448E+03  0.97769503026E+03  0.13494841418E+04  0.00000000000E+00 0.  1.
         22    1    1    2    0    0 -0.11978197635E+04  0.70906662240E+03  0.20174879419E+03  0.14065028392E+04  0.00000000000E+00 0.  1.
<mgrwt>
<rscale>  0 0.29922691E+04</rscale>
<asrwt>0</asrwt>
<pdfrwt beam="1">  1        1 0.38981408E+00 0.29922691E+04</pdfrwt>
<pdfrwt beam="2">  1       -1 0.13591177E+00 0.29922691E+04</pdfrwt>
<totfact> 0.49462157E-01</totfact>
</mgrwt>
</event>
<event>
 6    1  0.1528034E-005  0.2436468E+04  0.7818608E-02  0.8425975E-01
          1   -1    0    0  501    0  0.00000000000E+00  0.00000000000E+00  0.10699621914E+04  0.10699621914E+04  0.00000000000E+00 0. -1.
         -1   -1    0    0    0  501 -0.00000000000E+00 -0.00000000000E+00 -0.13870527345E+04  0.13870527345E+04  0.00000000000E+00 0.  1.
         23    2    1    2    0    0 -0.11737199010E+04 -0.13223507436E+03  0.13520771571E+03  0.11922310566E+04  0.89606054595E+02 0.  0.
         11    1    3    3    0    0 -0.78765833811E+03 -0.46297130448E+02  0.92462027776E+02  0.79441696134E+03  0.00000000000E+00 0. -1.
        -11    1    3    3    0    0 -0.38606156290E+03 -0.85937943917E+02  0.42745687937E+02  0.39781409526E+03  0.00000000000E+00 0.  1.
         22    1    1    2    0    0  0.11737199010E+04  0.13223507436E+03 -0.45229825882E+03  0.12647838692E+04  0.00000000000E+00 0.  1.
<mgrwt>
<rscale>  0 0.24364679E+04</rscale>
<asrwt>0</asrwt>
<pdfrwt beam="1">  1        1 0.16460957E+00 0.24364679E+04</pdfrwt>
<pdfrwt beam="2">  1       -1 0.21339273E+00 0.24364679E+04</pdfrwt>
<totfact> 0.14552166E+00</totfact>
</mgrwt>
</event>
<event>
 6    1  0.1528034E-005  0.2849539E+04  0.7818608E-02  0.8288051E-01
         -2   -1    0    0    0  501 -0.00000000000E+00  0.00000000000E+00  0.83261301270E+03  0.83261301270E+03  0.00000000000E+00 0.  1.
          2   -1    0    0  501    0  0.00000000000E+00 -0.00000000000E+00 -0.24380692714E+04  0.24380692714E+04  0.00000000000E+00 0. -1.
         23    2    1    2    0    0  0.98487085689E+03  0.40660564635E+03  0.27959700569E+03  0.11053359917E+04  0.91073665585E+02 0.  0.
         13    1    3    3    0    0  0.50956694495E+03  0.17439787132E+03  0.10889933061E+03  0.54948353307E+03  0.00000000000E+00 0.  1.
        -13    1    3    3    0    0  0.47530391194E+03  0.23220777503E+03  0.17069767508E+03  0.55585245863E+03  0.00000000000E+00 0. -1.
         22    1    1    2    0    0 -0.98487085689E+03 -0.40660564635E+03 -0.18850532644E+04  0.21653462924E+04  0.00000000000E+00 0. -1.
<mgrwt>
<rscale>  0 0.28495391E+04</rscale>
<asrwt>0</asrwt>
<pdfrwt beam="1">  1        2 0.37508757E+00 0.28495391E+04</pdfrwt>
<pdfrwt beam="2">  1       -2 0.12809431E+00 0.28495391E+04</pdfrwt>
<totfact> 0.14766834E+00</totfact>
</mgrwt>
</event>
<event>
 6    1  0.1528034E-005  0.1156665E+04  0.7818608E-02  0.9151657E-01
          2   -1    0    0  501    0  0.00000000000E+00  0.00000000000E+00  0.14377540430E+04  0.14377540430E+04  0.00000000000E+00 0.  1.
         -2   -1    0    0    0  501 -0.00000000000E+00 -0.00000000000E+00 -0.23263264797E+03  0.23263264797E+03  0.00000000000E+00 0. -1.
         23    2    1    2    0    0  0.34024586129E+03 -0.35812365640E+03  0.18195200877E+03  0.53421091567E+03  0.90856862890E+02 0.  0.
         11    1    3    3    0    0  0.21380331685E+03 -0.20680632909E+03  0.63442164096E+02  0.30414737255E+03  0.00000000000E+00 0. -1.
        -11    1    3    3    0    0  0.12644254444E+03 -0.15131732731E+03  0.11850984467E+03  0.23006354312E+03  0.00000000000E+00 0.  1.
         22    1    1    2    0    0 -0.34024586129E+03  0.35812365640E+03  0.10231693863E+04  0.11361757753E+04  0.00000000000E+00 0.  1.
<mgrwt>
<rscale>  0 0.11566651E+04</rscale>
<asrwt>0</asrwt>
<pdfrwt beam="1">  1        2 0.22119292E+00 0.11566651E+04</pdfrwt>
<pdfrwt beam="2">  1       -2 0.35789639E-01 0.11566651E+04</pdfrwt>
<totfact> 0.99925770E+01</totfact>
</mgrwt>
</event>
<event>
 6    1  0.1528034E-005  0.1136311E+04  0.7818608E-02  0.9170506E-01
         -2   -1    0    0    0  501 -0.00000000000E+00  0.00000000000E+00  0.10256773043E+03  0.10256773043E+03  0.00000000000E+00 0.  1.
          2   -1    0    0  501    0  0.00000000000E+00 -0.00000000000E+00 -0.31471968364E+04  0.31471968364E+04  0.00000000000E+00 0. -1.
         23    2    1    2    0    0  0.36579399725E+03 -0.14128158782E+03 -0.26934257999E+04  0.27233526581E+04  0.91331403413E+02 0.  0.
         11    1    3    3    0    0  0.20952159330E+03 -0.33410707211E+02 -0.13488607889E+04  0.13654453490E+04  0.00000000000E+00 0.  1.
        -11    1    3    3    0    0  0.15627240395E+03 -0.10787088061E+03 -0.13445650110E+04  0.13579073090E+04  0.00000000000E+00 0. -1.
         22    1    1    2    0    0 -0.36579399725E+03  0.14128158782E+03 -0.35120330611E+03  0.52641190878E+03  0.00000000000E+00 0.  1.
<mgrwt>
<rscale>  0 0.11363113E+04</rscale>
<asrwt>0</asrwt>
<pdfrwt beam="1">  1        2 0.48418415E+00 0.11363113E+04</pdfrwt>
<pdfrwt beam="2">  1       -2 0.15779650E-01 0.11363113E+04</pdfrwt>
<totfact> 0.45715196E+01</totfact>
</mgrwt>
</event>
<event>
 6    1  0.1528034E-005  0.2106061E+04  0.7818608E-02  0.8558578E-01
         -1   -1    0    0    0  501 -0.00000000000E+00  0.00000000000E+00  0.35970880275E+03  0.35970880275E+03  0.00000000000E+00 0.  1.
          1   -1    0    0  501    0  0.00000000000E+00 -0.00000000000E+00 -0.30826958697E+04  0.30826958697E+04  0.00000000000E+00 0. -1.
         23    2    1    2    0    0  0.86132973516E+03 -0.60238719120E+03 -0.13497423042E+04  0.17130809841E+04  0.89905113467E+02 0.  0.
         13    1    3    3    0    0  0.11278503835E+03 -0.44919362312E+02 -0.16593909031E+03  0.20560640963E+03  0.00000000000E+00 0.  1.
        -13    1    3    3    0    0  0.74854469681E+03 -0.55746782889E+03 -0.11838032139E+04  0.15074745745E+04  0.00000000000E+00 0. -1.
         22    1    1    2    0    0 -0.86132973516E+03  0.60238719120E+03 -0.13732447627E+04  0.17293236883E+04  0.00000000000E+00 0. -1.
<mgrwt>
<rscale>  0 0.21060606E+04</rscale>
<asrwt>0</asrwt>
<pdfrwt beam="1">  1        1 0.47426090E+00 0.21060606E+04</pdfrwt>
<pdfrwt beam="2">  1       -1 0.55339816E-01 0.21060606E+04</pdfrwt>
<totfact> 0.15797633E+00</totfact>
</mgrwt>
</event>
<event>
 6    1  0.1528034E-005  0.1471779E+04  0.7818608E-02  0.8903440E-01
         -1   -1    0    0    0  501 -0.00000000000E+00  0.00000000000E+00  0.20065157183E+03  0.20065157183E+03  0.00000000000E+00 0.  1.
          1   -1    0    0  501    0  0.00000000000E+00 -0.00000000000E+00 -0.26988726449E+04  0.26988726449E+04  0.00000000000E+00 0. -1.
         23    2    1    2    0    0  0.65568245823E+03  0.28227797154E+03 -0.92428987044E+03  0.11712708297E+04  0.89237058508E+02 0.  0.
         13    1    3    3    0    0  0.48001890633E+03  0.23392415851E+03 -0.73552439931E+03  0.90891958079E+03  0.00000000000E+00 0. -1.
        -13    1    3    3    0    0  0.17566355190E+03  0.48353813026E+02 -0.18876547113E+03  0.26235124888E+03  0.00000000000E+00 0.  1.
         22    1    1    2    0    0 -0.65568245823E+03 -0.28227797154E+03 -0.15739312026E+04  0.17282533870E+04  0.00000000000E+00 0. -1.
<mgrwt>
<rscale>  0 0.14717786E+04</rscale>
<asrwt>0</asrwt>
<pdfrwt beam="1">  1        1 0.41521120E+00 0.14717786E+04</pdfrwt>
<pdfrwt beam="2">  1       -1 0.30869471E-01 0.14717786E+04</pdfrwt>
<totfact> 0.92881174E+00</totfact>
</mgrwt>
</event>
<event>
 6    1  0.1528034E-005  0.1733060E+04  0.7818608E-02  0.8742731E-01
          2   -1    0    0  501    0  0.00000000000E+00  0.00000000000E+00  0.24814875868E+04  0.24814875868E+04  0.00000000000E+00 0. -1.
         -2   -1    0    0    0  501 -0.00000000000E+00 -0.00000000000E+00 -0.30259025144E+03  0.30259025144E+03  0.00000000000E+00 0.  1.
         23    2    1    2    0    0  0.39606944364E+03  0.61197457476E+03  0.34750142273E+03  0.81293733762E+03  0.93413017076E+02 0.  0.
         13    1    3    3    0    0  0.25969502456E+03  0.40403959106E+03  0.17906758758E+03  0.51259603768E+03  0.00000000000E+00 0.  1.
        -13    1    3    3    0    0  0.13637441908E+03  0.20793498370E+03  0.16843383515E+03  0.30034129994E+03  0.00000000000E+00 0. -1.
         22    1    1    2    0    0 -0.39606944364E+03 -0.61197457476E+03  0.18313959126E+04  0.19711405006E+04  0.00000000000E+00 0. -1.
<mgrwt>
<rscale>  0 0.17330597E+04</rscale>
<asrwt>0</asrwt>
<pdfrwt beam="1">  1        2 0.38176731E+00 0.17330597E+04</pdfrwt>
<pdfrwt beam="2">  1       -2 0.46552348E-01 0.17330597E+04</pdfrwt>
<totfact> 0.14835605E+01</totfact>
</mgrwt>
</event>
<event>
 6    1  0.1528034E-005  0.1093083E+04  0.7818608E-02  0.9211960E-01
          1   -1    0    0  501    0  0.00000000000E+00  0.00000000000E+00  0.31540694520E+03  0.31540694520E+03  0.00000000000E+00 0. -1.
         -1   -1    0    0    0  501 -0.00000000000E+00 -0.00000000000E+00 -0.94705397666E+03  0.94705397666E+03  0.00000000000E+00 0.  1.
         23    2    1    2    0    0  0.52385444017E+03 -0.63178088870E+02 -0.46579294390E+03  0.70935828784E+03  0.88380815416E+02 0.  0.
         11    1    3    3    0    0  0.22196347018E+03 -0.37038052157E+01 -0.14674275494E+03  0.26611075964E+03  0.00000000000E+00 0. -1.
        -11    1    3    3    0    0  0.30189096999E+03 -0.59474283654E+02 -0.31905018896E+03  0.44324752820E+03  0.00000000000E+00 0.  1.
         22    1    1    2    0    0 -0.52385444017E+03  0.63178088870E+02 -0.16585408756E+03  0.55310263402E+03  0.00000000000E+00 0. -1.
<mgrwt>
<rscale>  0 0.10930826E+04</rscale>
<asrwt>0</asrwt>
<pdfrwt beam="1">  1        1 0.48524145E-01 0.10930826E+04</pdfrwt>
<pdfrwt beam="2">  1       -1 0.14570061E+00 0.10930826E+04</pdfrwt>
<totfact> 0.30883226E+01</totfact>
</mgrwt>
</event>
<event>
 6    1  0.1528034E-005  0.3096988E+04  0.7818608E-02  0.8216565E-01
         -2   -1    0    0    0  501 -0.00000000000E+00  0.00000000000E+00  0.15552932046E+04  0.15552932046E+04  0.00000000000E+00 0.  1.
          2   -1    0    0  501    0  0.00000000000E+00 -0.00000000000E+00 -0.15417241792E+04  0.15417241792E+04  0.00000000000E+00 0. -1.
         23    2    1    2    0    0 -0.11071349359E+04  0.10466595300E+03  0.10824273395E+04  0.15545645244E+04  0.91209577889E+02 0.  0.
         13    1    3    3    0    0 -0.76672148661E+03  0.43538965993E+02  0.70262343002E+03  0.10408828772E+04  0.00000000000E+00 0.  1.
        -13    1    3    3    0    0 -0.34041344930E+03  0.61126987009E+02  0.37980390947E+03  0.51368164719E+03  0.00000000000E+00 0. -1.
         22    1    1    2    0    0  0.11071349359E+04 -0.10466595300E+03 -0.10688583140E+04  0.15424528594E+04  0.00000000000E+00 0. -1.
<mgrwt>
<rscale>  0 0.30969877E+04</rscale>
<asrwt>0</asrwt>
<pdfrwt beam="1">  1        2 0.23718834E+00 0.30969877E+04</pdfrwt>
<pdfrwt beam="2">  1       -2 0.23927588E+00 0.30969877E+04</pdfrwt>
<totfact> 0.76430531E-01</totfact>
</mgrwt>
</event>
<event>
 6    1  0.1528034E-005  0.3169999E+04  0.7818608E-02  0.8196785E-01
          1   -1    0    0  501    0  0.00000000000E+00  0.00000000000E+00  0.19932617935E+04  0.19932617935E+04  0.00000000000E+00 0. -1.
         -1   -1    0    0    0  501 -0.00000000000E+00 -0.00000000000E+00 -0.12603582483E+04  0.12603582483E+04  0.00000000000E+00 0.  1.
         23    2    1    2    0    0  0.62408304118E+03 -0.13221964357E+04 -0.25785784986E+03  0.14874685198E+04  0.91590773941E+02 0.  0.
         13    1    3    3    0    0  0.25299244185E+03 -0.43427657675E+03 -0.90668783153E+02  0.51070749846E+03  0.00000000000E+00 0. -1.
        -13    1    3    3    0    0  0.37109059933E+03 -0.88791985895E+03 -0.16718906671E+03  0.97676102137E+03  0.00000000000E+00 0.  1.
         22    1    1    2    0    0 -0.62408304118E+03  0.13221964357E+04  0.99076139507E+03  0.17661515220E+04  0.00000000000E+00 0.  1.
<mgrwt>
<rscale>  0 0.31699993E+04</rscale>
<asrwt>0</asrwt>
<pdfrwt beam="1">  1        1 0.30665566E+00 0.31699993E+04</pdfrwt>
<pdfrwt beam="2">  1       -1 0.19390127E+00 0.31699993E+04</pdfrwt>
<totfact> 0.41914443E-01</totfact>
</mgrwt>
</event>
<event>
 6    1  0.1528034E-005  0.1488842E+04  0.7818608E-02  0.8891907E-01
         -1   -1    0    0    0  501 -0.00000000000E+00  0.00000000000E+00  0.70868897028E+03  0.70868897028E+03  0.00000000000E+00 0.  1.
          1   -1    0    0  501    0  0.00000000000E+00 -0.00000000000E+00 -0.78195411015E+03  0.78195411015E+03  0.00000000000E+00 0. -1.
         23    2    1    2    0    0 -0.11055755277E+03  0.23037146170E+03 -0.73556822798E+03  0.78075621384E+03  0.56794934521E+02 0.  0.
         11    1    3    3    0    0 -0.85253125763E+02  0.14453701660E+03 -0.54448649488E+03  0.56975835906E+03  0.00000000000E+00 0.  1.
        -11    1    3    3    0    0 -0.25304427011E+02  0.85834445106E+02 -0.19108173311E+03  0.21099785478E+03  0.00000000000E+00 0. -1.
         22    1    1    2    0    0  0.11055755277E+03 -0.23037146170E+03  0.66230308811E+03  0.70988686660E+03  0.00000000000E+00 0.  1.
<mgrwt>
<rscale>  0 0.14888415E+04</rscale>
<asrwt>0</asrwt>
<pdfrwt beam="1">  1        1 0.12030063E+00 0.14888415E+04</pdfrwt>
<pdfrwt beam="2">  1       -1 0.10902907E+00 0.14888415E+04</pdfrwt>
<totfact> 0.17310314E+01</totfact>
</mgrwt>
</event>
<event>
 6    1  0.1528034E-005  0.3773713E+04  0.7818608E-02  0.8051820E-01
         -1   -1    0    0    0  501 -0.00000000000E+00  0.00000000000E+00  0.14617764731E+04  0.14617764731E+04  0.00000000000E+00 0.  1.
          1   -1    0    0  501    0  0.00000000000E+00 -0.00000000000E+00 -0.24355488957E+04  0.24355488957E+04  0.00000000000E+00 0. -1.
         23    2    1    2    0    0  0.80205896674E+03 -0.78509447856E+03  0.10773689583E+04  0.15591951563E+04  0.10341052547E+03 0.  0.
         13    1    3    3    0    0  0.44472460191E+03 -0.50478076287E+03  0.62875898387E+03  0.92082650369E+03  0.00000000000E+00 0. -1.
        -13    1    3    3    0    0  0.35733436484E+03 -0.28031371569E+03  0.44860997439E+03  0.63836865260E+03  0.00000000000E+00 0.  1.
         22    1    1    2    0    0 -0.80205896674E+03  0.78509447856E+03 -0.20511413808E+04  0.23381302125E+04  0.00000000000E+00 0. -1.
<mgrwt>
<rscale>  0 0.37737133E+04</rscale>
<asrwt>0</asrwt>
<pdfrwt beam="1">  1        1 0.37469983E+00 0.37737133E+04</pdfrwt>
<pdfrwt beam="2">  1       -1 0.22488869E+00 0.37737133E+04</pdfrwt>
<totfact> 0.12220791E-01</totfact>
</mgrwt>
</event>
<event>
 6    1  0.1528034E-005  0.2352912E+04  0.7818608E-02  0.8457346E-01
         -1   -1    0    0    0  501 -0.00000000000E+00  0.00000000000E+00  0.65917787049E+03  0.65917787049E+03  0.00000000000E+00 0.  1.
          1   -1    0    0  501    0  0.00000000000E+00 -0.00000000000E+00 -0.20996589602E+04  0.20996589602E+04  0.00000000000E+00 0. -1.
         23    2    1    2    0    0 -0.20557645515E+03  0.71483537801E+03 -0.17873744742E+04  0.19381137856E+04  0.91248223302E+02 0.  0.
         13    1    3    3    0    0 -0.60541313098E+02  0.35958564396E+03 -0.92157297734E+03  0.99109224520E+03  0.00000000000E+00 0.  1.
        -13    1    3    3    0    0 -0.14503514205E+03  0.35524973405E+03 -0.86580149690E+03  0.94702154041E+03  0.00000000000E+00 0. -1.
         22    1    1    2    0    0  0.20557645515E+03 -0.71483537801E+03  0.34689338450E+03  0.82072304511E+03  0.00000000000E+00 0.  1.
<mgrwt>
<rscale>  0 0.23529120E+04</rscale>
<asrwt>0</asrwt>
<pdfrwt beam="1">  1        1 0.32302446E+00 0.23529120E+04</pdfrwt>
<pdfrwt beam="2">  1       -1 0.10141198E+00 0.23529120E+04</pdfrwt>
<totfact> 0.21168395E+00</totfact>
</mgrwt>
</event>
<event>
 6    1  0.1528034E-005  0.3479558E+04  0.7818608E-02  0.8118652E-01
         -2   -1    0    0    0  501 -0.00000000000E+00  0.00000000000E+00  0.96729415289E+03  0.96729415289E+03  0.00000000000E+00 0.  1.
          2   -1    0    0  501    0  0.00000000000E+00 -0.00000000000E+00 -0.31291723333E+04  0.31291723333E+04  0.00000000000E+00 0. -1.
         23    2    1    2    0    0 -0.16916440559E+04 -0.38127062158E+03 -0.12296985333E+04  0.21277141419E+04  0.89342532634E+02 0.  0.
         11    1    3    3    0    0 -0.15313225939E+04 -0.34445615677E+03 -0.10795817311E+04  0.19050185418E+04  0.00000000000E+00 0. -1.
        -11    1    3    3    0    0 -0.16032146200E+03 -0.36814464809E+02 -0.15011680226E+03  0.22269560013E+03  0.00000000000E+00 0.  1.
         22    1    1    2    0    0  0.16916440559E+04  0.38127062158E+03 -0.93217964712E+03  0.19687523443E+04  0.00000000000E+00 0. -1.
<mgrwt>
<rscale>  0 0.34795575E+04</rscale>
<asrwt>0</asrwt>
<pdfrwt beam="1">  1        2 0.48141113E+00 0.34795575E+04</pdfrwt>
<pdfrwt beam="2">  1       -2 0.14881448E+00 0.34795575E+04</pdfrwt>
<totfact> 0.36267883E-01</totfact>
</mgrwt>
</event>
<event>
 6    1  0.1528034E-005  0.1466799E+04  0.7818608E-02  0.8906836E-01
         -2   -1    0    0    0  501 -0.00000000000E+00  0.00000000000E+00  0.39392594380E+03  0.39392594380E+03  0.00000000000E+00 0.  1.
          2   -1    0    0  501    0  0.00000000000E+00 -0.00000000000E+00 -0.13654213387E+04  0.13654213387E+04  0.00000000000E+00 0. -1.
         23    2    1    2    0    0  0.49262064194E+03 -0.43966214054E+03 -0.11349547673E+03  0.67669232626E+03  0.95149285269E+02 0.  0.
         11    1    3    3    0    0  0.32634690668E+03 -0.22893323336E+03 -0.71456774883E+02  0.40499234501E+03  0.00000000000E+00 0.  1.
        -11    1    3    3    0    0  0.16627373526E+03 -0.21072890718E+03 -0.42038701843E+02  0.27169998125E+03  0.00000000000E+00 0. -1.
         22    1    1    2    0    0 -0.49262064194E+03  0.43966214054E+03 -0.85799991817E+03  0.10826549562E+04  0.00000000000E+00 0. -1.
<mgrwt>
<rscale>  0 0.14667991E+04</rscale>
<asrwt>0</asrwt>
<pdfrwt beam="1">  1        2 0.21006482E+00 0.14667991E+04</pdfrwt>
<pdfrwt beam="2">  1       -2 0.60603992E-01 0.14667991E+04</pdfrwt>
<totfact> 0.37198798E+01</totfact>
</mgrwt>
</event>
<event>
 6    1  0.1528034E-005  0.1965965E+04  0.7818608E-02  0.8622700E-01
          1   -1    0    0  501    0  0.00000000000E+00  0.00000000000E+00  0.16748858407E+04  0.16748858407E+04  0.00000000000E+00 0. -1.
         -1   -1    0    0    0  501 -0.00000000000E+00 -0.00000000000E+00 -0.57690799956E+03  0.57690799956E+03  0.00000000000E+00 0.  1.
         23    2    1    2    0    0 -0.56434469312E+03  0.55280397274E+03 -0.11603049536E+03  0.80338319198E+03  0.88793650562E+02 0.  0.
         11    1    3    3    0    0 -0.20857743637E+03  0.18215143313E+03 -0.80548884850E+02  0.28839523991E+03  0.00000000000E+00 0. -1.
        -11    1    3    3    0    0 -0.35576725675E+03  0.37065253961E+03 -0.35481610513E+02  0.51498795207E+03  0.00000000000E+00 0.  1.
         22    1    1    2    0    0  0.56434469312E+03 -0.55280397274E+03  0.12140083365E+04  0.14484106482E+04  0.00000000000E+00 0. -1.
<mgrwt>
<rscale>  0 0.19659655E+04</rscale>
<asrwt>0</asrwt>
<pdfrwt beam="1">  1        1 0.25767474E+00 0.19659655E+04</pdfrwt>
<pdfrwt beam="2">  1       -1 0.88755078E-01 0.19659655E+04</pdfrwt>
<totfact> 0.57453051E+00</totfact>
</mgrwt>
</event>
<event>
 6    1  0.1528034E-005  0.2253084E+04  0.7818608E-02  0.8496653E-01
         -1   -1    0    0    0  501 -0.00000000000E+00  0.00000000000E+00  0.46474097604E+03  0.46474097604E+03  0.00000000000E+00 0.  1.
          1   -1    0    0  501    0  0.00000000000E+00 -0.00000000000E+00 -0.27307620745E+04  0.27307620745E+04  0.00000000000E+00 0. -1.
         23    2    1    2    0    0  0.17066287118E+03  0.93170999186E+03 -0.27443869221E+03  0.99014371350E+03  0.88649044479E+02 0.  0.
         11    1    3    3    0    0  0.11074281229E+03  0.36396783329E+03 -0.10725131276E+03  0.39527129700E+03  0.00000000000E+00 0.  1.
        -11    1    3    3    0    0  0.59920058892E+02  0.56774215857E+03 -0.16718737945E+03  0.59487241651E+03  0.00000000000E+00 0. -1.
         22    1    1    2    0    0 -0.17066287118E+03 -0.93170999186E+03 -0.19915824062E+04  0.22053593370E+04  0.00000000000E+00 0. -1.
<mgrwt>
<rscale>  0 0.22530841E+04</rscale>
<asrwt>0</asrwt>
<pdfrwt beam="1">  1        1 0.42011724E+00 0.22530841E+04</pdfrwt>
<pdfrwt beam="2">  1       -1 0.71498613E-01 0.22530841E+04</pdfrwt>
<totfact> 0.16734147E+00</totfact>
</mgrwt>
</event>
<event>
 6    1  0.1528034E-005  0.3197813E+04  0.7818608E-02  0.8189395E-01
         -1   -1    0    0    0  501 -0.00000000000E+00  0.00000000000E+00  0.24535989192E+04  0.24535989192E+04  0.00000000000E+00 0. -1.
          1   -1    0    0  501    0  0.00000000000E+00 -0.00000000000E+00 -0.10419396818E+04  0.10419396818E+04  0.00000000000E+00 0.  1.
         23    2    1    2    0    0 -0.30462608525E+03 -0.54239445724E+03  0.23149298280E+04  0.23987767495E+04  0.90779878116E+02 0.  0.
         11    1    3    3    0    0 -0.27798018801E+03 -0.52734015551E+03  0.22366317240E+04  0.23147099372E+04  0.00000000000E+00 0.  1.
        -11    1    3    3    0    0 -0.26645897233E+02 -0.15054301726E+02  0.78298104073E+02  0.84066812365E+02  0.00000000000E+00 0. -1.
         22    1    1    2    0    0  0.30462608525E+03  0.54239445724E+03 -0.90327059060E+03  0.10967618515E+04  0.00000000000E+00 0.  1.
<mgrwt>
<rscale>  0 0.31978131E+04</rscale>
<asrwt>0</asrwt>
<pdfrwt beam="1">  1        1 0.16029841E+00 0.31978131E+04</pdfrwt>
<pdfrwt beam="2">  1       -1 0.37747675E+00 0.31978131E+04</pdfrwt>
<totfact> 0.11946201E-01</totfact>
</mgrwt>
</event>
<event>
 6    1  0.1528034E-005  0.2370890E+04  0.7818608E-02  0.8450483E-01
         -1   -1    0    0    0  501 -0.00000000000E+00  0.00000000000E+00  0.80352031392E+03  0.80352031392E+03  0.00000000000E+00 0.  1.
          1   -1    0    0  501    0  0.00000000000E+00 -0.00000000000E+00 -0.17489032258E+04  0.17489032258E+04  0.00000000000E+00 0. -1.
         23    2    1    2    0    0 -0.54074109173E+03  0.92612649726E+03  0.65976121616E+02  0.10783277790E+04  0.91250934431E+02 0.  0.
         13    1    3    3    0    0 -0.37166043964E+03  0.59568257332E+03  0.81385687415E+02  0.70681881743E+03  0.00000000000E+00 0.  1.
        -13    1    3    3    0    0 -0.16908065209E+03  0.33044392394E+03 -0.15409565800E+02  0.37150896153E+03  0.00000000000E+00 0. -1.
         22    1    1    2    0    0  0.54074109173E+03 -0.92612649726E+03 -0.10113590335E+04  0.14740957607E+04  0.00000000000E+00 0. -1.
<mgrwt>
<rscale>  0 0.23708895E+04</rscale>
<asrwt>0</asrwt>
<pdfrwt beam="1">  1        1 0.26906204E+00 0.23708895E+04</pdfrwt>
<pdfrwt beam="2">  1       -1 0.12361851E+00 0.23708895E+04</pdfrwt>
<totfact> 0.22810252E+00</totfact>
</mgrwt>
</event>
<event>
 6    1  0.1528034E-005  0.1697360E+04  0.7818608E-02  0.8762872E-01
         -1   -1    0    0    0  501 -0.00000000000E+00  0.00000000000E+00  0.11512832214E+04  0.11512832214E+04  0.00000000000E+00 0.  1.
          1   -1    0    0  501    0  0.00000000000E+00 -0.00000000000E+00 -0.62561262728E+03  0.62561262728E+03  0.00000000000E+00 0. -1.
         23    2    1    2    0    0 -0.34104777769E+03  0.54123047207E+03 -0.31635466994E+03  0.71942218193E+03  0.90796410154E+02 0.  0.
         11    1    3    3    0    0 -0.13060293529E+03  0.20668226344E+03 -0.17079169904E+03  0.29823562696E+03  0.00000000000E+00 0. -1.
        -11    1    3    3    0    0 -0.21044484240E+03  0.33454820863E+03 -0.14556297090E+03  0.42118655497E+03  0.00000000000E+00 0.  1.
         22    1    1    2    0    0  0.34104777769E+03 -0.54123047207E+03  0.84202526402E+03  0.10574736667E+04  0.00000000000E+00 0.  1.
<mgrwt>
<rscale>  0 0.16973595E+04</rscale>
<asrwt>0</asrwt>
<pdfrwt beam="1">  1        1 0.96248097E-01 0.16973595E+04</pdfrwt>
<pdfrwt beam="2">  1       -1 0.17712050E+00 0.16973595E+04</pdfrwt>
<totfact> 0.66952181E+00</totfact>
</mgrwt>
</event>
<event>
 6    1  0.1528034E-005  0.2499529E+04  0.7818608E-02  0.8403153E-01
          1   -1    0    0  501    0  0.00000000000E+00  0.00000000000E+00  0.18483025873E+04  0.18483025873E+04  0.00000000000E+00 0. -1.
         -1   -1    0    0    0  501 -0.00000000000E+00 -0.00000000000E+00 -0.84505172589E+03  0.84505172589E+03  0.00000000000E+00 0.  1.
         23    2    1    2    0    0 -0.75454157114E+02 -0.96207123597E+03  0.13551633058E+04  0.16661655470E+04  0.91463935994E+02 0.  0.
         11    1    3    3    0    0 -0.37343927052E+02 -0.22871571182E+03  0.26906149281E+03  0.35510496002E+03  0.00000000000E+00 0.  1.
        -11    1    3    3    0    0 -0.38110230063E+02 -0.73335552415E+03  0.10861018130E+04  0.13110605870E+04  0.00000000000E+00 0. -1.
         22    1    1    2    0    0  0.75454157114E+02  0.96207123597E+03 -0.35191244441E+03  0.10271887662E+04  0.00000000000E+00 0.  1.
<mgrwt>
<rscale>  0 0.24995290E+04</rscale>
<asrwt>0</asrwt>
<pdfrwt beam="1">  1        1 0.28435424E+00 0.24995290E+04</pdfrwt>
<pdfrwt beam="2">  1       -1 0.13000796E+00 0.24995290E+04</pdfrwt>
<totfact> 0.17015471E+00</totfact>
</mgrwt>
</event>
<event>
 6    1  0.1528034E-005  0.2394299E+04  0.7818608E-02  0.8441641E-01
         -1   -1    0    0    0  501 -0.00000000000E+00  0.00000000000E+00  0.50032246478E+03  0.50032246478E+03  0.00000000000E+00 0. -1.
          1   -1    0    0  501    0  0.00000000000E+00 -0.00000000000E+00 -0.28644859421E+04  0.28644859421E+04  0.00000000000E+00 0.  1.
         23    2    1    2    0    0  0.92688989593E+03 -0.75119519138E+03 -0.10774103030E+04  0.16100569070E+04  0.89728412524E+02 0.  0.
         13    1    3    3    0    0  0.46212680725E+03 -0.31692400667E+03 -0.50278680404E+03  0.75285893918E+03  0.00000000000E+00 0.  1.
        -13    1    3    3    0    0  0.46476308868E+03 -0.43427118472E+03 -0.57462349898E+03  0.85719796784E+03  0.00000000000E+00 0. -1.
         22    1    1    2    0    0 -0.92688989593E+03  0.75119519138E+03 -0.12867531743E+04  0.17547514999E+04  0.00000000000E+00 0. -1.
<mgrwt>
<rscale>  0 0.23942988E+04</rscale>
<asrwt>0</asrwt>
<pdfrwt beam="1">  1        1 0.44069014E+00 0.23942988E+04</pdfrwt>
<pdfrwt beam="2">  1       -1 0.76972687E-01 0.23942988E+04</pdfrwt>
<totfact> 0.11374280E+00</totfact>
</mgrwt>
</event>
<event>
 6    1  0.1528034E-005  0.4065747E+04  0.7818608E-02  0.7991413E-01
          2   -1    0    0  501    0  0.00000000000E+00  0.00000000000E+00  0.26406967360E+04  0.26406967360E+04  0.00000000000E+00 0. -1.
         -2   -1    0    0    0  501 -0.00000000000E+00 -0.00000000000E+00 -0.15649562195E+04  0.15649562195E+04  0.00000000000E+00 0.  1.
         23    2    1    2    0    0  0.60976584812E+02  0.20244961328E+04  0.70553144554E+03  0.21466829480E+04  0.90389837608E+02 0.  0.
         11    1    3    3    0    0  0.28302148880E+02  0.52547367583E+03  0.22344283437E+03  0.57170822615E+03  0.00000000000E+00 0.  1.
        -11    1    3    3    0    0  0.32674435932E+02  0.14990224570E+04  0.48208861118E+03  0.15749747218E+04  0.00000000000E+00 0. -1.
         22    1    1    2    0    0 -0.60976584812E+02 -0.20244961328E+04  0.37020907089E+03  0.20589700075E+04  0.00000000000E+00 0.  1.
<mgrwt>
<rscale>  0 0.40657471E+04</rscale>
<asrwt>0</asrwt>
<pdfrwt beam="1">  1        2 0.40626104E+00 0.40657471E+04</pdfrwt>
<pdfrwt beam="2">  1       -2 0.24076250E+00 0.40657471E+04</pdfrwt>
<totfact> 0.16556616E-01</totfact>
</mgrwt>
</event>
<event>
 6    1  0.1528034E-005  0.3226728E+04  0.7818608E-02  0.8181794E-01
         -2   -1    0    0    0  501 -0.00000000000E+00  0.00000000000E+00  0.12379643820E+04  0.12379643820E+04  0.00000000000E+00 0. -1.
          2   -1    0    0  501    0  0.00000000000E+00 -0.00000000000E+00 -0.21025999313E+04  0.21025999313E+04  0.00000000000E+00 0.  1.
         23    2    1    2    0    0 -0.78010324464E+03 -0.43884442125E+02  0.10271366609E+04  0.12937890419E+04  0.91615763280E+02 0.  0.
         11    1    3    3    0    0 -0.96078876317E+02 -0.28504433917E+02  0.10050149150E+03  0.14193027521E+03  0.00000000000E+00 0.  1.
        -11    1    3    3    0    0 -0.68402436833E+03 -0.15380008208E+02  0.92663516942E+03  0.11518587667E+04  0.00000000000E+00 0. -1.
         22    1    1    2    0    0  0.78010324464E+03  0.43884442125E+02 -0.18917722102E+04  0.20467752715E+04  0.00000000000E+00 0.  1.
<mgrwt>
<rscale>  0 0.32267283E+04</rscale>
<asrwt>0</asrwt>
<pdfrwt beam="1">  1        2 0.32347691E+00 0.32267283E+04</pdfrwt>
<pdfrwt beam="2">  1       -2 0.19045606E+00 0.32267283E+04</pdfrwt>
<totfact> 0.75735362E-01</totfact>
</mgrwt>
</event>
<event>
 6    1  0.1528034E-005  0.4060592E+04  0.7818608E-02  0.7992434E-01
          4   -1    0    0  501    0  0.00000000000E+00  0.00000000000E+00  0.15736376864E+04  0.15736376864E+04  0.00000000000E+00 0. -1.
         -4   -1    0    0    0  501 -0.00000000000E+00 -0.00000000000E+00 -0.26194727010E+04  0.26194727010E+04  0.00000000000E+00 0.  1.
         23    2    1    2    0    0 -0.16608174263E+04 -0.10029823976E+04 -0.11373229823E+04  0.22507771869E+04  0.90587890643E+02 0.  0.
         11    1    3    3    0    0 -0.12520735766E+04 -0.71434845050E+03 -0.82444112531E+03  0.16606279291E+04  0.00000000000E+00 0. -1.
        -11    1    3    3    0    0 -0.40874384973E+03 -0.28863394709E+03 -0.31288185695E+03  0.59014925783E+03  0.00000000000E+00 0.  1.
         22    1    1    2    0    0  0.16608174263E+04  0.10029823976E+04  0.91487967597E+02  0.19423332004E+04  0.00000000000E+00 0. -1.
<mgrwt>
<rscale>  0 0.40605916E+04</rscale>
<asrwt>0</asrwt>
<pdfrwt beam="1">  1        4 0.24209811E+00 0.40605916E+04</pdfrwt>
<pdfrwt beam="2">  1       -4 0.40299580E+00 0.40605916E+04</pdfrwt>
<totfact> 0.70476296E-04</totfact>
</mgrwt>
</event>
<event>
 6    1  0.1528034E-005  0.3637760E+04  0.7818608E-02  0.8081897E-01
         -1   -1    0    0    0  501 -0.00000000000E+00  0.00000000000E+00  0.87919803226E+03  0.87919803226E+03  0.00000000000E+00 0.  1.
          1   -1    0    0  501    0  0.00000000000E+00 -0.00000000000E+00 -0.37628891466E+04  0.37628891466E+04  0.00000000000E+00 0. -1.
         23    2    1    2    0    0  0.14958734882E+04 -0.88483225212E+03 -0.21223567457E+04  0.27446690309E+04  0.90798272480E+02 0.  0.
         13    1    3    3    0    0  0.94685408552E+03 -0.51520638005E+03 -0.12813071936E+04  0.16744307682E+04  0.00000000000E+00 0.  1.
        -13    1    3    3    0    0  0.54901940269E+03 -0.36962587207E+03 -0.84104955212E+03  0.10702382627E+04  0.00000000000E+00 0. -1.
         22    1    1    2    0    0 -0.14958734882E+04  0.88483225212E+03 -0.76133436862E+03  0.18974181479E+04  0.00000000000E+00 0.  1.
<mgrwt>
<rscale>  0 0.36377602E+04</rscale>
<asrwt>0</asrwt>
<pdfrwt beam="1">  1        1 0.57890603E+00 0.36377602E+04</pdfrwt>
<pdfrwt beam="2">  1       -1 0.13526123E+00 0.36377602E+04</pdfrwt>
<totfact> 0.56464515E-02</totfact>
</mgrwt>
</event>
<event>
 6    1  0.1528034E-005  0.1928115E+04  0.7818608E-02  0.8640987E-01
         -1   -1    0    0    0  501 -0.00000000000E+00  0.00000000000E+00  0.75750090302E+03  0.75750090302E+03  0.00000000000E+00 0.  1.
          1   -1    0    0  501    0  0.00000000000E+00 -0.00000000000E+00 -0.12269386639E+04  0.12269386639E+04  0.00000000000E+00 0. -1.
         23    2    1    2    0    0  0.17245273591E+02  0.36275241695E+03 -0.11515104998E+04  0.12117106775E+04  0.10188041773E+03 0.  0.
         11    1    3    3    0    0 -0.35454166307E+02  0.17149624053E+03 -0.45638053485E+03  0.48882629943E+03  0.00000000000E+00 0. -1.
        -11    1    3    3    0    0  0.52699439899E+02  0.19125617642E+03 -0.69512996490E+03  0.72288437809E+03  0.00000000000E+00 0.  1.
         22    1    1    2    0    0 -0.17245273591E+02 -0.36275241695E+03  0.68207273885E+03  0.77272888942E+03  0.00000000000E+00 0.  1.
<mgrwt>
<rscale>  0 0.19281153E+04</rscale>
<asrwt>0</asrwt>
<pdfrwt beam="1">  1        1 0.18875979E+00 0.19281153E+04</pdfrwt>
<pdfrwt beam="2">  1       -1 0.11653860E+00 0.19281153E+04</pdfrwt>
<totfact> 0.63374807E+00</totfact>
</mgrwt>
</event>
<event>
 6    1  0.1528034E-005  0.1159449E+04  0.7818608E-02  0.9149111E-01
          1   -1    0    0  501    0  0.00000000000E+00  0.00000000000E+00  0.17706153044E+04  0.17706153044E+04  0.00000000000E+00 0. -1.
         -1   -1    0    0    0  501 -0.00000000000E+00 -0.00000000000E+00 -0.18980985119E+03  0.18980985119E+03  0.00000000000E+00 0.  1.
         23    2    1    2    0    0 -0.17183373073E+03 -0.48852046165E+03  0.36865073186E+03  0.64228322811E+03  0.91898370776E+02 0.  0.
         11    1    3    3    0    0 -0.10726077101E+03 -0.30301567302E+03  0.28196383438E+03  0.42758271129E+03  0.00000000000E+00 0.  1.
        -11    1    3    3    0    0 -0.64572959721E+02 -0.18550478863E+03  0.86686897474E+02  0.21470051682E+03  0.00000000000E+00 0. -1.
         22    1    1    2    0    0  0.17183373073E+03  0.48852046165E+03  0.12121547214E+04  0.13181419275E+04  0.00000000000E+00 0. -1.
<mgrwt>
<rscale>  0 0.11594485E+04</rscale>
<asrwt>0</asrwt>
<pdfrwt beam="1">  1        1 0.27240234E+00 0.11594485E+04</pdfrwt>
<pdfrwt beam="2">  1       -1 0.29201517E-01 0.11594485E+04</pdfrwt>
<totfact> 0.45334070E+01</totfact>
</mgrwt>
</event>
<event>
 6    1  0.1528034E-005  0.7929231E+03  0.7818608E-02  0.9570317E-01
         -2   -1    0    0    0  501 -0.00000000000E+00  0.00000000000E+00  0.20180209648E+03  0.20180209648E+03  0.00000000000E+00 0. -1.
          2   -1    0    0  501    0  0.00000000000E+00 -0.00000000000E+00 -0.77889061528E+03  0.77889061528E+03  0.00000000000E+00 0.  1.
         23    2    1    2    0    0  0.60675309068E+02  0.34895108969E+03 -0.49764585139E+03  0.61770580630E+03  0.91982137394E+02 0.  0.
         13    1    3    3    0    0  0.80750470099E+01  0.42196649847E+02 -0.12504738992E+03  0.13222183393E+03  0.00000000000E+00 0.  1.
        -13    1    3    3    0    0  0.52600262059E+02  0.30675443985E+03 -0.37259846147E+03  0.48548397237E+03  0.00000000000E+00 0. -1.
         22    1    1    2    0    0 -0.60675309068E+02 -0.34895108969E+03 -0.79442667409E+02  0.36298690546E+03  0.00000000000E+00 0. -1.
<mgrwt>
<rscale>  0 0.79292310E+03</rscale>
<asrwt>0</asrwt>
<pdfrwt beam="1">  1        2 0.11982933E+00 0.79292310E+03</pdfrwt>
<pdfrwt beam="2">  1       -2 0.31046476E-01 0.79292310E+03</pdfrwt>
<totfact> 0.34480136E+02</totfact>
</mgrwt>
</event>
<event>
 6    1  0.1528034E-005  0.4794578E+04  0.7818608E-02  0.7861001E-01
          2   -1    0    0  501    0  0.00000000000E+00  0.00000000000E+00  0.37171604434E+04  0.37171604434E+04  0.00000000000E+00 0. -1.
         -2   -1    0    0    0  501 -0.00000000000E+00 -0.00000000000E+00 -0.15460709182E+04  0.15460709182E+04  0.00000000000E+00 0.  1.
         23    2    1    2    0    0  0.20299860058E+04  0.48766804923E+03 -0.20558681965E+03  0.20998069896E+04  0.90885329049E+02 0.  0.
         11    1    3    3    0    0  0.10304878331E+04  0.20762157811E+03 -0.12716146223E+03  0.10588587872E+04  0.00000000000E+00 0. -1.
        -11    1    3    3    0    0  0.99949817272E+03  0.28004647111E+03 -0.78425357417E+02  0.10409482023E+04  0.00000000000E+00 0.  1.
         22    1    1    2    0    0 -0.20299860058E+04 -0.48766804923E+03  0.23766763448E+04  0.31634243721E+04  0.00000000000E+00 0. -1.
<mgrwt>
<rscale>  0 0.47945776E+04</rscale>
<asrwt>0</asrwt>
<pdfrwt beam="1">  1        2 0.57187083E+00 0.47945776E+04</pdfrwt>
<pdfrwt beam="2">  1       -2 0.23785707E+00 0.47945776E+04</pdfrwt>
<totfact> 0.31944744E-02</totfact>
</mgrwt>
</event>
<event>
 6    1  0.1528034E-005  0.2598076E+04  0.7818608E-02  0.8368855E-01
          2   -1    0    0  501    0  0.00000000000E+00  0.00000000000E+00  0.88916301781E+03  0.88916301781E+03  0.00000000000E+00 0. -1.
         -2   -1    0    0    0  501 -0.00000000000E+00 -0.00000000000E+00 -0.18978515462E+04  0.18978515462E+04  0.00000000000E+00 0.  1.
         23    2    1    2    0    0  0.55233749083E+03 -0.45907055541E+03  0.65293687086E+03  0.97681528049E+03  0.10963145646E+03 0.  0.
         13    1    3    3    0    0  0.28966657043E+03 -0.31014468037E+03  0.37024276510E+03  0.56318393966E+03  0.00000000000E+00 0. -1.
        -13    1    3    3    0    0  0.26267092040E+03 -0.14892587504E+03  0.28269410577E+03  0.41363134083E+03  0.00000000000E+00 0.  1.
         22    1    1    2    0    0 -0.55233749083E+03  0.45907055541E+03 -0.16616253992E+04  0.18101992835E+04  0.00000000000E+00 0.  1.
<mgrwt>
<rscale>  0 0.25980758E+04</rscale>
<asrwt>0</asrwt>
<pdfrwt beam="1">  1        2 0.13679431E+00 0.25980758E+04</pdfrwt>
<pdfrwt beam="2">  1       -2 0.29197716E+00 0.25980758E+04</pdfrwt>
<totfact> 0.93897225E-01</totfact>
</mgrwt>
</event>
<event>
 6    1  0.1528034E-005  0.1650994E+04  0.7818608E-02  0.8789819E-01
          1   -1    0    0  501    0  0.00000000000E+00  0.00000000000E+00  0.24810486284E+04  0.24810486284E+04  0.00000000000E+00 0. -1.
         -1   -1    0    0    0  501 -0.00000000000E+00 -0.00000000000E+00 -0.27466003284E+03  0.27466003284E+03  0.00000000000E+00 0.  1.
         23    2    1    2    0    0  0.14262909509E+03  0.18106175839E+03  0.24252087224E+04  0.24378900542E+04  0.92434569713E+02 0.  0.
         13    1    3    3    0    0  0.11224833422E+03  0.68177606700E+02  0.13181704690E+04  0.13246966671E+04  0.00000000000E+00 0.  1.
        -13    1    3    3    0    0  0.30380760867E+02  0.11288415169E+03  0.11070382534E+04  0.11131933870E+04  0.00000000000E+00 0. -1.
         22    1    1    2    0    0 -0.14262909509E+03 -0.18106175839E+03 -0.21882012684E+03  0.31781860711E+03  0.00000000000E+00 0.  1.
<mgrwt>
<rscale>  0 0.16509935E+04</rscale>
<asrwt>0</asrwt>
<pdfrwt beam="1">  1        1 0.38169977E+00 0.16509935E+04</pdfrwt>
<pdfrwt beam="2">  1       -1 0.42255391E-01 0.16509935E+04</pdfrwt>
<totfact> 0.73583495E+00</totfact>
</mgrwt>
</event>
<event>
 6    1  0.1528034E-005  0.1733784E+04  0.7818608E-02  0.8742327E-01
         -1   -1    0    0    0  501 -0.00000000000E+00  0.00000000000E+00  0.45192620725E+03  0.45192620725E+03  0.00000000000E+00 0.  1.
          1   -1    0    0  501    0  0.00000000000E+00 -0.00000000000E+00 -0.16628854844E+04  0.16628854844E+04  0.00000000000E+00 0. -1.
         23    2    1    2    0    0  0.65126512810E+03 -0.55515279145E+03 -0.45854735146E+03  0.97530978519E+03  0.92858034752E+02 0.  0.
         13    1    3    3    0    0  0.29626238398E+03 -0.31260702307E+03 -0.23867901457E+03  0.49240453189E+03  0.00000000000E+00 0. -1.
        -13    1    3    3    0    0  0.35500274412E+03 -0.24254576838E+03 -0.21986833689E+03  0.48290525329E+03  0.00000000000E+00 0.  1.
         22    1    1    2    0    0 -0.65126512810E+03  0.55515279145E+03 -0.75241192568E+03  0.11395019065E+04  0.00000000000E+00 0. -1.
<mgrwt>
<rscale>  0 0.17337838E+04</rscale>
<asrwt>0</asrwt>
<pdfrwt beam="1">  1        1 0.25582853E+00 0.17337838E+04</pdfrwt>
<pdfrwt beam="2">  1       -1 0.69527109E-01 0.17337838E+04</pdfrwt>
<totfact> 0.10030632E+01</totfact>
</mgrwt>
</event>
<event>
 6    1  0.1779872E-005  0.3256581E+04  0.7818608E-02  0.8174032E-01
          1   -1    0    0  501    0  0.00000000000E+00  0.00000000000E+00  0.30355648810E+04  0.30355648810E+04  0.00000000000E+00 0. -1.
         -1   -1    0    0    0  501 -0.00000000000E+00 -0.00000000000E+00 -0.87342215762E+03  0.87342215762E+03  0.00000000000E+00 0.  1.
         23    2    1    2    0    0  0.11480108913E+04 -0.13233727933E+03 -0.29278705891E+03  0.11956639104E+04  0.91900830753E+02 0.  0.
         11    1    3    3    0    0  0.64591644923E+03 -0.86455011157E+02 -0.21033665330E+03  0.68478028306E+03  0.00000000000E+00 0. -1.
        -11    1    3    3    0    0  0.50209444210E+03 -0.45882268172E+02 -0.82450405615E+02  0.51088362736E+03  0.00000000000E+00 0.  1.
         22    1    1    2    0    0 -0.11480108913E+04  0.13233727933E+03  0.24549297823E+04  0.27133231282E+04  0.00000000000E+00 0. -1.
<mgrwt>
<rscale>  0 0.32565808E+04</rscale>
<asrwt>0</asrwt>
<pdfrwt beam="1">  1        1 0.46700998E+00 0.32565808E+04</pdfrwt>
<pdfrwt beam="2">  1       -1 0.13437264E+00 0.32565808E+04</pdfrwt>
<totfact> 0.21833015E-01</totfact>
</mgrwt>
</event>
<event>
 6    1  0.1528034E-005  0.4189140E+04  0.7818608E-02  0.7967441E-01
          2   -1    0    0  501    0  0.00000000000E+00  0.00000000000E+00  0.24343809561E+04  0.24343809561E+04  0.00000000000E+00 0. -1.
         -2   -1    0    0    0  501 -0.00000000000E+00 -0.00000000000E+00 -0.18021922964E+04  0.18021922964E+04  0.00000000000E+00 0.  1.
         23    2    1    2    0    0 -0.11679876217E+04  0.33432321933E+02 -0.14404947896E+04  0.18572184060E+04  0.94457207309E+02 0.  0.
         11    1    3    3    0    0 -0.53102570210E+03  0.49741341374E+02 -0.60593654881E+03  0.80723082109E+03  0.00000000000E+00 0.  1.
        -11    1    3    3    0    0 -0.63696191965E+03 -0.16309019441E+02 -0.83455824076E+03  0.10499875849E+04  0.00000000000E+00 0. -1.
         22    1    1    2    0    0  0.11679876217E+04 -0.33432321933E+02  0.20726834493E+04  0.23793548465E+04  0.00000000000E+00 0. -1.
<mgrwt>
<rscale>  0 0.41891396E+04</rscale>
<asrwt>0</asrwt>
<pdfrwt beam="1">  1        2 0.37452014E+00 0.41891396E+04</pdfrwt>
<pdfrwt beam="2">  1       -2 0.27726036E+00 0.41891396E+04</pdfrwt>
<totfact> 0.12917152E-01</totfact>
</mgrwt>
</event>
<event>
 6    1  0.1528034E-005  0.2187821E+04  0.7818608E-02  0.8523514E-01
          2   -1    0    0  501    0  0.00000000000E+00  0.00000000000E+00  0.23634123673E+04  0.23634123673E+04  0.00000000000E+00 0. -1.
         -2   -1    0    0    0  501 -0.00000000000E+00 -0.00000000000E+00 -0.50631892114E+03  0.50631892114E+03  0.00000000000E+00 0.  1.
         23    2    1    2    0    0 -0.10255242617E+04 -0.28502837285E+03  0.12499639254E+04  0.16443548403E+04  0.92476166024E+02 0.  0.
         11    1    3    3    0    0 -0.32750754734E+03 -0.59454982019E+02  0.34457180746E+03  0.47908852934E+03  0.00000000000E+00 0. -1.
        -11    1    3    3    0    0 -0.69801671437E+03 -0.22557339083E+03  0.90539211791E+03  0.11652663109E+04  0.00000000000E+00 0.  1.
         22    1    1    2    0    0  0.10255242617E+04  0.28502837285E+03  0.60712952075E+03  0.12253764481E+04  0.00000000000E+00 0.  1.
<mgrwt>
<rscale>  0 0.21878212E+04</rscale>
<asrwt>0</asrwt>
<pdfrwt beam="1">  1        2 0.36360190E+00 0.21878212E+04</pdfrwt>
<pdfrwt beam="2">  1       -2 0.77895220E-01 0.21878212E+04</pdfrwt>
<totfact> 0.56016086E+00</totfact>
</mgrwt>
</event>
<event>
 6    1  0.1528034E-005  0.1129929E+04  0.7818608E-02  0.9176503E-01
         -2   -1    0    0    0  501 -0.00000000000E+00  0.00000000000E+00  0.54005422116E+03  0.54005422116E+03  0.00000000000E+00 0.  1.
          2   -1    0    0  501    0  0.00000000000E+00 -0.00000000000E+00 -0.59102331963E+03  0.59102331963E+03  0.00000000000E+00 0. -1.
         23    2    1    2    0    0 -0.26627988557E+01  0.14269812281E+03  0.51764641994E+03  0.54482379664E+03  0.92224229790E+02 0.  0.
         11    1    3    3    0    0  0.16913768499E+02  0.12467364701E+03  0.29660663931E+03  0.32218797666E+03  0.00000000000E+00 0. -1.
        -11    1    3    3    0    0 -0.19576567355E+02  0.18024475801E+02  0.22103978063E+03  0.22263581998E+03  0.00000000000E+00 0.  1.
         22    1    1    2    0    0  0.26627988557E+01 -0.14269812281E+03 -0.56861551841E+03  0.58625374415E+03  0.00000000000E+00 0. -1.
<mgrwt>
<rscale>  0 0.11299286E+04</rscale>
<asrwt>0</asrwt>
<pdfrwt beam="1">  1        2 0.90926664E-01 0.11299286E+04</pdfrwt>
<pdfrwt beam="2">  1       -2 0.83085265E-01 0.11299286E+04</pdfrwt>
<totfact> 0.63559510E+01</totfact>
</mgrwt>
</event>
<event>
 6    1  0.1528034E-005  0.2377228E+04  0.7818608E-02  0.8448079E-01
          1   -1    0    0  501    0  0.00000000000E+00  0.00000000000E+00  0.13418333613E+04  0.13418333613E+04  0.00000000000E+00 0. -1.
         -1   -1    0    0    0  501 -0.00000000000E+00 -0.00000000000E+00 -0.10528901825E+04  0.10528901825E+04  0.00000000000E+00 0.  1.
         23    2    1    2    0    0 -0.85718005181E+03  0.63675256483E+03  0.66603550424E+03  0.12622880746E+04  0.97756944606E+02 0.  0.
         13    1    3    3    0    0 -0.13204483151E+03  0.86046863259E+02  0.60731078722E+02  0.16890282451E+03  0.00000000000E+00 0. -1.
        -13    1    3    3    0    0 -0.72513522030E+03  0.55070570157E+03  0.60530442552E+03  0.10933852500E+04  0.00000000000E+00 0.  1.
         22    1    1    2    0    0  0.85718005181E+03 -0.63675256483E+03 -0.37709232542E+03  0.11324354692E+04  0.00000000000E+00 0.  1.
<mgrwt>
<rscale>  0 0.23772279E+04</rscale>
<asrwt>0</asrwt>
<pdfrwt beam="1">  1        1 0.20643590E+00 0.23772279E+04</pdfrwt>
<pdfrwt beam="2">  1       -1 0.16198310E+00 0.23772279E+04</pdfrwt>
<totfact> 0.21409923E+00</totfact>
</mgrwt>
</event>
<event>
 6    1  0.1528034E-005  0.1684343E+04  0.7818608E-02  0.8770345E-01
          1   -1    0    0  501    0  0.00000000000E+00  0.00000000000E+00  0.31518690845E+04  0.31518690845E+04  0.00000000000E+00 0. -1.
         -1   -1    0    0    0  501 -0.00000000000E+00 -0.00000000000E+00 -0.22502605663E+03  0.22502605663E+03  0.00000000000E+00 0.  1.
         23    2    1    2    0    0 -0.53750489971E+03 -0.55760201030E+03  0.81713644166E+03  0.11295203617E+04  0.90954737194E+02 0.  0.
         13    1    3    3    0    0 -0.29278174403E+03 -0.25952415817E+03  0.36285630719E+03  0.53360906849E+03  0.00000000000E+00 0. -1.
        -13    1    3    3    0    0 -0.24472315567E+03 -0.29807785213E+03  0.45428013447E+03  0.59591129325E+03  0.00000000000E+00 0.  1.
         22    1    1    2    0    0  0.53750489971E+03  0.55760201030E+03  0.21097065862E+04  0.22473747793E+04  0.00000000000E+00 0. -1.
<mgrwt>
<rscale>  0 0.16843428E+04</rscale>
<asrwt>0</asrwt>
<pdfrwt beam="1">  1        1 0.48490290E+00 0.16843428E+04</pdfrwt>
<pdfrwt beam="2">  1       -1 0.34619396E-01 0.16843428E+04</pdfrwt>
<totfact> 0.35005746E+00</totfact>
</mgrwt>
</event>
<event>
 6    1  0.1528034E-005  0.3142629E+04  0.7818608E-02  0.8204135E-01
         -2   -1    0    0    0  501 -0.00000000000E+00  0.00000000000E+00  0.89560400290E+03  0.89560400290E+03  0.00000000000E+00 0.  1.
          2   -1    0    0  501    0  0.00000000000E+00 -0.00000000000E+00 -0.27568320808E+04  0.27568320808E+04  0.00000000000E+00 0. -1.
         23    2    1    2    0    0  0.14788252487E+03  0.11851662932E+04  0.25289784191E+03  0.12242645930E+04  0.91531914579E+02 0.  0.
         11    1    3    3    0    0  0.23881093782E+02  0.54902140324E+03  0.10487524712E+03  0.55945833207E+03  0.00000000000E+00 0. -1.
        -11    1    3    3    0    0  0.12400143109E+03  0.63614488997E+03  0.14802259479E+03  0.66480626089E+03  0.00000000000E+00 0.  1.
         22    1    1    2    0    0 -0.14788252487E+03 -0.11851662932E+04 -0.21141259198E+04  0.24281714908E+04  0.00000000000E+00 0. -1.
<mgrwt>
<rscale>  0 0.31426294E+04</rscale>
<asrwt>0</asrwt>
<pdfrwt beam="1">  1        2 0.42412801E+00 0.31426294E+04</pdfrwt>
<pdfrwt beam="2">  1       -2 0.13778523E+00 0.31426294E+04</pdfrwt>
<totfact> 0.77729391E-01</totfact>
</mgrwt>
</event>
<event>
 6    1  0.1528034E-005  0.1370954E+04  0.7818608E-02  0.8975116E-01
         -2   -1    0    0    0  501 -0.00000000000E+00  0.00000000000E+00  0.38163339933E+03  0.38163339933E+03  0.00000000000E+00 0. -1.
          2   -1    0    0  501    0  0.00000000000E+00 -0.00000000000E+00 -0.12312305247E+04  0.12312305247E+04  0.00000000000E+00 0.  1.
         23    2    1    2    0    0  0.56486553240E+03 -0.36500103765E+03 -0.28998711099E+03  0.73795696019E+03  0.90493775357E+02 0.  0.
         11    1    3    3    0    0  0.20883119486E+03 -0.10071346875E+03 -0.13474825846E+03  0.26816182408E+03  0.00000000000E+00 0. -1.
        -11    1    3    3    0    0  0.35603433753E+03 -0.26428756891E+03 -0.15523885252E+03  0.46979513611E+03  0.00000000000E+00 0.  1.
         22    1    1    2    0    0 -0.56486553240E+03  0.36500103765E+03 -0.55961001441E+03  0.87490696386E+03  0.00000000000E+00 0.  1.
<mgrwt>
<rscale>  0 0.13709540E+04</rscale>
<asrwt>0</asrwt>
<pdfrwt beam="1">  1        2 0.18942008E+00 0.13709540E+04</pdfrwt>
<pdfrwt beam="2">  1       -2 0.58712830E-01 0.13709540E+04</pdfrwt>
<totfact> 0.47984504E+01</totfact>
</mgrwt>
</event>
<event>
 6    1  0.1528034E-005  0.1716961E+04  0.7818608E-02  0.8751750E-01
         -2   -1    0    0    0  501 -0.00000000000E+00  0.00000000000E+00  0.88187491136E+03  0.88187491136E+03  0.00000000000E+00 0. -1.
          2   -1    0    0  501    0  0.00000000000E+00 -0.00000000000E+00 -0.83570648898E+03  0.83570648898E+03  0.00000000000E+00 0.  1.
         23    2    1    2    0    0 -0.59530219357E+03  0.54714722903E+03 -0.25736569441E+03  0.85393346746E+03  0.95971215921E+02 0.  0.
         11    1    3    3    0    0 -0.36774526076E+03  0.37392318239E+03 -0.12689120274E+03  0.53958919603E+03  0.00000000000E+00 0.  1.
        -11    1    3    3    0    0 -0.22755693281E+03  0.17322404664E+03 -0.13047449166E+03  0.31434427143E+03  0.00000000000E+00 0. -1.
         22    1    1    2    0    0  0.59530219357E+03 -0.54714722903E+03  0.30353411678E+03  0.86364793287E+03  0.00000000000E+00 0. -1.
<mgrwt>
<rscale>  0 0.17169608E+04</rscale>
<asrwt>0</asrwt>
<pdfrwt beam="1">  1        2 0.12857023E+00 0.17169608E+04</pdfrwt>
<pdfrwt beam="2">  1       -2 0.13567306E+00 0.17169608E+04</pdfrwt>
<totfact> 0.12020542E+01</totfact>
</mgrwt>
</event>
<event>
 6    1  0.1528034E-005  0.2647043E+04  0.7818608E-02  0.8352395E-01
         -2   -1    0    0    0  501 -0.00000000000E+00  0.00000000000E+00  0.78408929442E+03  0.78408929442E+03  0.00000000000E+00 0.  1.
          2   -1    0    0  501    0  0.00000000000E+00 -0.00000000000E+00 -0.22340691055E+04  0.22340691055E+04  0.00000000000E+00 0. -1.
         23    2    1    2    0    0  0.48852975809E+03  0.65167095175E+03  0.46084971252E+03  0.94099547368E+03  0.98760670717E+02 0.  0.
         11    1    3    3    0    0  0.45925095684E+03  0.56104900905E+03  0.41291683380E+03  0.83437865717E+03  0.00000000000E+00 0.  1.
        -11    1    3    3    0    0  0.29278801249E+02  0.90621942696E+02  0.47932878719E+02  0.10661681651E+03  0.00000000000E+00 0. -1.
         22    1    1    2    0    0 -0.48852975809E+03 -0.65167095175E+03 -0.19108295236E+04  0.20771629263E+04  0.00000000000E+00 0. -1.
<mgrwt>
<rscale>  0 0.26470434E+04</rscale>
<asrwt>0</asrwt>
<pdfrwt beam="1">  1        2 0.34370294E+00 0.26470434E+04</pdfrwt>
<pdfrwt beam="2">  1       -2 0.12062912E+00 0.26470434E+04</pdfrwt>
<totfact> 0.22814091E+00</totfact>
</mgrwt>
</event>
<event>
 6    1  0.1528034E-005  0.1422581E+04  0.7818608E-02  0.8937633E-01
          2   -1    0    0  501    0  0.00000000000E+00  0.00000000000E+00  0.29852828524E+04  0.29852828524E+04  0.00000000000E+00 0. -1.
         -2   -1    0    0    0  501 -0.00000000000E+00 -0.00000000000E+00 -0.16947620761E+03  0.16947620761E+03  0.00000000000E+00 0.  1.
         23    2    1    2    0    0  0.51853507403E+03 -0.42039191093E+03  0.19379516413E+04  0.20519275276E+04  0.95613977242E+02 0.  0.
         13    1    3    3    0    0  0.46337592163E+02 -0.64944213358E+02  0.16972863382E+03  0.18754394801E+03  0.00000000000E+00 0.  1.
        -13    1    3    3    0    0  0.47219748187E+03 -0.35544769757E+03  0.17682230075E+04  0.18643835796E+04  0.00000000000E+00 0. -1.
         22    1    1    2    0    0 -0.51853507403E+03  0.42039191093E+03  0.87785500347E+03  0.11028315324E+04  0.00000000000E+00 0.  1.
<mgrwt>
<rscale>  0 0.14225813E+04</rscale>
<asrwt>0</asrwt>
<pdfrwt beam="1">  1        2 0.45927424E+00 0.14225813E+04</pdfrwt>
<pdfrwt beam="2">  1       -2 0.26073265E-01 0.14225813E+04</pdfrwt>
<totfact> 0.23162348E+01</totfact>
</mgrwt>
</event>
<event>
 6    1  0.1528034E-005  0.1014113E+04  0.7818608E-02  0.9293200E-01
          1   -1    0    0  501    0  0.00000000000E+00  0.00000000000E+00  0.53763693744E+03  0.53763693744E+03  0.00000000000E+00 0. -1.
         -1   -1    0    0    0  501 -0.00000000000E+00 -0.00000000000E+00 -0.47821560738E+03  0.47821560738E+03  0.00000000000E+00 0.  1.
         23    2    1    2    0    0 -0.48278462079E+03  0.14038832539E+03  0.40750714519E+02  0.51272386956E+03  0.91843746148E+02 0.  0.
         11    1    3    3    0    0 -0.40105226694E+03  0.10993398416E+03 -0.14049415592E+01  0.41584898166E+03  0.00000000000E+00 0. -1.
        -11    1    3    3    0    0 -0.81732353854E+02  0.30454341228E+02  0.42155656078E+02  0.96874887899E+02  0.00000000000E+00 0.  1.
         22    1    1    2    0    0  0.48278462079E+03 -0.14038832539E+03  0.18670615542E+02  0.50312867525E+03  0.00000000000E+00 0.  1.
<mgrwt>
<rscale>  0 0.10141132E+04</rscale>
<asrwt>0</asrwt>
<pdfrwt beam="1">  1        1 0.82713375E-01 0.10141132E+04</pdfrwt>
<pdfrwt beam="2">  1       -1 0.73571632E-01 0.10141132E+04</pdfrwt>
<totfact> 0.74724094E+01</totfact>
</mgrwt>
</event>
<event>
 6    1  0.1528034E-005  0.2692307E+04  0.7818608E-02  0.8337506E-01
          2   -1    0    0  501    0  0.00000000000E+00  0.00000000000E+00  0.30500652424E+04  0.30500652424E+04  0.00000000000E+00 0. -1.
         -2   -1    0    0    0  501 -0.00000000000E+00 -0.00000000000E+00 -0.59412782912E+03  0.59412782912E+03  0.00000000000E+00 0.  1.
         23    2    1    2    0    0  0.53852684014E+03  0.11960961010E+04  0.82920722137E+03  0.15544782207E+04  0.90337601568E+02 0.  0.
         11    1    3    3    0    0  0.41849728786E+03  0.94086839861E+03  0.60624661715E+03  0.11949511640E+04  0.00000000000E+00 0.  1.
        -11    1    3    3    0    0  0.12002955227E+03  0.25522770241E+03  0.22296060422E+03  0.35952705674E+03  0.00000000000E+00 0. -1.
         22    1    1    2    0    0 -0.53852684014E+03 -0.11960961010E+04  0.16267301919E+04  0.20897148508E+04  0.00000000000E+00 0. -1.
<mgrwt>
<rscale>  0 0.26923066E+04</rscale>
<asrwt>0</asrwt>
<pdfrwt beam="1">  1        2 0.46924080E+00 0.26923066E+04</pdfrwt>
<pdfrwt beam="2">  1       -2 0.91404283E-01 0.26923066E+04</pdfrwt>
<totfact> 0.14488621E+00</totfact>
</mgrwt>
</event>
<event>
 6    1  0.1528034E-005  0.2621141E+04  0.7818608E-02  0.8361055E-01
         -2   -1    0    0    0  501 -0.00000000000E+00  0.00000000000E+00  0.70619805018E+03  0.70619805018E+03  0.00000000000E+00 0.  1.
          2   -1    0    0  501    0  0.00000000000E+00 -0.00000000000E+00 -0.24321717133E+04  0.24321717133E+04  0.00000000000E+00 0. -1.
         23    2    1    2    0    0  0.81536978787E+03  0.73440774019E+03 -0.90237914165E+01  0.11006996524E+04  0.85297573751E+02 0.  0.
         11    1    3    3    0    0  0.43558124871E+03  0.34975501200E+03  0.24009916957E+02  0.55913868473E+03  0.00000000000E+00 0. -1.
        -11    1    3    3    0    0  0.37978853916E+03  0.38465272819E+03 -0.33033708374E+02  0.54156096764E+03  0.00000000000E+00 0.  1.
         22    1    1    2    0    0 -0.81536978787E+03 -0.73440774019E+03 -0.17169498717E+04  0.20376701111E+04  0.00000000000E+00 0. -1.
<mgrwt>
<rscale>  0 0.26211409E+04</rscale>
<asrwt>0</asrwt>
<pdfrwt beam="1">  1        2 0.37418026E+00 0.26211409E+04</pdfrwt>
<pdfrwt beam="2">  1       -2 0.10864585E+00 0.26211409E+04</pdfrwt>
<totfact> 0.22771431E+00</totfact>
</mgrwt>
</event>
<event>
 6    1  0.1528034E-005  0.2153599E+04  0.7818608E-02  0.8537993E-01
          1   -1    0    0  501    0  0.00000000000E+00  0.00000000000E+00  0.69095291965E+03  0.69095291965E+03  0.00000000000E+00 0. -1.
         -1   -1    0    0    0  501 -0.00000000000E+00 -0.00000000000E+00 -0.16781131432E+04  0.16781131432E+04  0.00000000000E+00 0.  1.
         23    2    1    2    0    0  0.18065789307E+03  0.45527964441E+03  0.55819538923E+03  0.74794274895E+03  0.88991202953E+02 0.  0.
         11    1    3    3    0    0  0.62802822246E+02  0.26877807959E+03  0.28434683541E+03  0.39628143201E+03  0.00000000000E+00 0. -1.
        -11    1    3    3    0    0  0.11785507083E+03  0.18650156482E+03  0.27384855382E+03  0.35166131694E+03  0.00000000000E+00 0.  1.
         22    1    1    2    0    0 -0.18065789307E+03 -0.45527964441E+03 -0.15453556128E+04  0.16211233139E+04  0.00000000000E+00 0.  1.
<mgrwt>
<rscale>  0 0.21535990E+04</rscale>
<asrwt>0</asrwt>
<pdfrwt beam="1">  1        1 0.10630045E+00 0.21535990E+04</pdfrwt>
<pdfrwt beam="2">  1       -1 0.25817125E+00 0.21535990E+04</pdfrwt>
<totfact> 0.15686916E+00</totfact>
</mgrwt>
</event>
<event>
 6    1  0.1528034E-005  0.2975303E+04  0.7818608E-02  0.8250819E-01
         -1   -1    0    0    0  501 -0.00000000000E+00  0.00000000000E+00  0.15257662580E+04  0.15257662580E+04  0.00000000000E+00 0.  1.
          1   -1    0    0  501    0  0.00000000000E+00 -0.00000000000E+00 -0.14504885017E+04  0.14504885017E+04  0.00000000000E+00 0. -1.
         23    2    1    2    0    0  0.10392172871E+03 -0.82784446621E+03  0.12678954000E+04  0.15207606752E+04  0.95016314846E+02 0.  0.
         13    1    3    3    0    0  0.60285172530E+02 -0.29127959007E+03  0.52348015520E+03  0.60208768008E+03  0.00000000000E+00 0.  1.
        -13    1    3    3    0    0  0.43636556181E+02 -0.53656487615E+03  0.74441524476E+03  0.91867299513E+03  0.00000000000E+00 0. -1.
         22    1    1    2    0    0 -0.10392172871E+03  0.82784446621E+03 -0.11926176437E+04  0.14554940845E+04  0.00000000000E+00 0. -1.
<mgrwt>
<rscale>  0 0.29753026E+04</rscale>
<asrwt>0</asrwt>
<pdfrwt beam="1">  1        1 0.22315208E+00 0.29753026E+04</pdfrwt>
<pdfrwt beam="2">  1       -1 0.23473327E+00 0.29753026E+04</pdfrwt>
<totfact> 0.53042535E-01</totfact>
</mgrwt>
</event>
<event>
 6    1  0.1528034E-005  0.7266977E+04  0.7818608E-02  0.7550512E-01
          2   -1    0    0  501    0  0.00000000000E+00  0.00000000000E+00  0.52326466902E+04  0.52326466902E+04  0.00000000000E+00 0. -1.
         -2   -1    0    0    0  501 -0.00000000000E+00 -0.00000000000E+00 -0.25230520240E+04  0.25230520240E+04  0.00000000000E+00 0.  1.
         23    2    1    2    0    0 -0.25837782745E+04  0.18324102660E+04  0.32535227951E+04  0.45417454843E+04  0.91672847213E+02 0.  0.
         11    1    3    3    0    0 -0.11026152485E+04  0.81953917033E+03  0.13628566383E+04  0.19351441948E+04  0.00000000000E+00 0. -1.
        -11    1    3    3    0    0 -0.14811630260E+04  0.10128710957E+04  0.18906661568E+04  0.26066012895E+04  0.00000000000E+00 0.  1.
         22    1    1    2    0    0  0.25837782745E+04 -0.18324102660E+04 -0.54392812896E+03  0.32139532299E+04  0.00000000000E+00 0.  1.
<mgrwt>
<rscale>  0 0.72669773E+04</rscale>
<asrwt>0</asrwt>
<pdfrwt beam="1">  1        2 0.80502256E+00 0.72669773E+04</pdfrwt>
<pdfrwt beam="2">  1       -2 0.38816185E+00 0.72669773E+04</pdfrwt>
<totfact> 0.86681824E-05</totfact>
</mgrwt>
</event>
<event>
 6    1  0.1528034E-005  0.2404616E+04  0.7818608E-02  0.8437777E-01
         -2   -1    0    0    0  501 -0.00000000000E+00  0.00000000000E+00  0.17518721310E+04  0.17518721310E+04  0.00000000000E+00 0. -1.
          2   -1    0    0  501    0  0.00000000000E+00 -0.00000000000E+00 -0.82514265748E+03  0.82514265748E+03  0.00000000000E+00 0.  1.
         23    2    1    2    0    0 -0.74260337388E+03 -0.88169348185E+01 -0.54691315544E+03  0.92681476815E+03  0.91291322813E+02 0.  0.
         11    1    3    3    0    0 -0.50969056432E+03 -0.47909179083E+02 -0.36595436733E+03  0.62928718386E+03  0.00000000000E+00 0.  1.
        -11    1    3    3    0    0 -0.23291280956E+03  0.39092244264E+02 -0.18095878811E+03  0.29752758429E+03  0.00000000000E+00 0. -1.
         22    1    1    2    0    0  0.74260337388E+03  0.88169348185E+01  0.14736426290E+04  0.16502000203E+04  0.00000000000E+00 0. -1.
<mgrwt>
<rscale>  0 0.24046159E+04</rscale>
<asrwt>0</asrwt>
<pdfrwt beam="1">  1        2 0.12694502E+00 0.24046159E+04</pdfrwt>
<pdfrwt beam="2">  1       -2 0.26951879E+00 0.24046159E+04</pdfrwt>
<totfact> 0.14494038E+00</totfact>
</mgrwt>
</event>
<event>
 6    1  0.1528034E-005  0.2908596E+04  0.7818608E-02  0.8270325E-01
         -2   -1    0    0    0  501 -0.00000000000E+00  0.00000000000E+00  0.10537333261E+04  0.10537333261E+04  0.00000000000E+00 0.  1.
          2   -1    0    0  501    0  0.00000000000E+00 -0.00000000000E+00 -0.20071321825E+04  0.20071321825E+04  0.00000000000E+00 0. -1.
         23    2    1    2    0    0 -0.12095996013E+04 -0.63285607158E+03 -0.10007601504E+04  0.16948929265E+04  0.86620730715E+02 0.  0.
         11    1    3    3    0    0 -0.90777292564E+03 -0.50562724816E+03 -0.79147336741E+03  0.13061932054E+04  0.00000000000E+00 0.  1.
        -11    1    3    3    0    0 -0.30182667566E+03 -0.12722882342E+03 -0.20928678299E+03  0.38869972110E+03  0.00000000000E+00 0. -1.
         22    1    1    2    0    0  0.12095996013E+04  0.63285607158E+03  0.47361293972E+02  0.13659725821E+04  0.00000000000E+00 0.  1.
<mgrwt>
<rscale>  0 0.29085956E+04</rscale>
<asrwt>0</asrwt>
<pdfrwt beam="1">  1        2 0.30878957E+00 0.29085956E+04</pdfrwt>
<pdfrwt beam="2">  1       -2 0.16211282E+00 0.29085956E+04</pdfrwt>
<totfact> 0.13877247E+00</totfact>
</mgrwt>
</event>
<event>
 6    1  0.1528034E-005  0.1545784E+04  0.7818608E-02  0.8854565E-01
         -2   -1    0    0    0  501 -0.00000000000E+00  0.00000000000E+00  0.57672017148E+03  0.57672017148E+03  0.00000000000E+00 0. -1.
          2   -1    0    0  501    0  0.00000000000E+00 -0.00000000000E+00 -0.10357917644E+04  0.10357917644E+04  0.00000000000E+00 0.  1.
         23    2    1    2    0    0 -0.11174568876E+03  0.75910787704E+03 -0.16257765771E+03  0.78993031589E+03  0.93949674018E+02 0.  0.
         11    1    3    3    0    0 -0.28572045039E+02  0.53609478031E+02 -0.28087814405E+02  0.66927297947E+02  0.00000000000E+00 0.  1.
        -11    1    3    3    0    0 -0.83173643725E+02  0.70549839900E+03 -0.13448984330E+03  0.72300301795E+03  0.00000000000E+00 0. -1.
         22    1    1    2    0    0  0.11174568876E+03 -0.75910787704E+03 -0.29649393522E+03  0.82258162000E+03  0.00000000000E+00 0.  1.
<mgrwt>
<rscale>  0 0.15457839E+04</rscale>
<asrwt>0</asrwt>
<pdfrwt beam="1">  1        2 0.15935258E+00 0.15457839E+04</pdfrwt>
<pdfrwt beam="2">  1       -2 0.88726182E-01 0.15457839E+04</pdfrwt>
<totfact> 0.25135535E+01</totfact>
</mgrwt>
</event>
<event>
 6    1  0.1528034E-005  0.6283116E+04  0.7818608E-02  0.7656257E-01
          2   -1    0    0  501    0  0.00000000000E+00  0.00000000000E+00  0.26202756483E+04  0.26202756483E+04  0.00000000000E+00 0. -1.
         -2   -1    0    0    0  501 -0.00000000000E+00 -0.00000000000E+00 -0.37665451534E+04  0.37665451534E+04  0.00000000000E+00 0.  1.
         23    2    1    2    0    0 -0.18984130577E+04  0.24279999870E+04  0.42012293839E+02  0.30836148275E+04  0.88086872090E+02 0.  0.
         13    1    3    3    0    0 -0.99398149575E+03  0.12258381374E+04 -0.12490926117E+02  0.15782377439E+04  0.00000000000E+00 0. -1.
        -13    1    3    3    0    0 -0.90443156199E+03  0.12021618496E+04  0.54503219956E+02  0.15053770836E+04  0.00000000000E+00 0.  1.
         22    1    1    2    0    0  0.18984130577E+04 -0.24279999870E+04 -0.11882817988E+04  0.33032059742E+04  0.00000000000E+00 0. -1.
<mgrwt>
<rscale>  0 0.62831160E+04</rscale>
<asrwt>0</asrwt>
<pdfrwt beam="1">  1        2 0.40311933E+00 0.62831160E+04</pdfrwt>
<pdfrwt beam="2">  1       -2 0.57946849E+00 0.62831160E+04</pdfrwt>
<totfact> 0.12325047E-03</totfact>
</mgrwt>
</event>
<event>
 6    1  0.1528034E-005  0.1009897E+04  0.7818608E-02  0.9297756E-01
          1   -1    0    0  501    0  0.00000000000E+00  0.00000000000E+00  0.45733713513E+03  0.45733713513E+03  0.00000000000E+00 0. -1.
         -1   -1    0    0    0  501 -0.00000000000E+00 -0.00000000000E+00 -0.55751654862E+03  0.55751654862E+03  0.00000000000E+00 0.  1.
         23    2    1    2    0    0  0.49294923286E+02 -0.40670031859E+03 -0.33995064460E+03  0.54016917603E+03  0.91548672142E+02 0.  0.
         13    1    3    3    0    0  0.56812376145E+02 -0.11805332337E+03 -0.10878950479E+03  0.17029207143E+03  0.00000000000E+00 0. -1.
        -13    1    3    3    0    0 -0.75174528593E+01 -0.28864699522E+03 -0.23116113982E+03  0.36987710460E+03  0.00000000000E+00 0.  1.
         22    1    1    2    0    0 -0.49294923286E+02  0.40670031859E+03  0.23977123111E+03  0.47468450772E+03  0.00000000000E+00 0. -1.
<mgrwt>
<rscale>  0 0.10098971E+04</rscale>
<asrwt>0</asrwt>
<pdfrwt beam="1">  1        1 0.70359560E-01 0.10098971E+04</pdfrwt>
<pdfrwt beam="2">  1       -1 0.85771776E-01 0.10098971E+04</pdfrwt>
<totfact> 0.67423982E+01</totfact>
</mgrwt>
</event>
<event>
 6    1  0.1528034E-005  0.2443473E+04  0.7818608E-02  0.8423405E-01
         -1   -1    0    0    0  501 -0.00000000000E+00  0.00000000000E+00  0.11280982944E+04  0.11280982944E+04  0.00000000000E+00 0.  1.
          1   -1    0    0  501    0  0.00000000000E+00 -0.00000000000E+00 -0.13231466439E+04  0.13231466439E+04  0.00000000000E+00 0. -1.
         23    2    1    2    0    0  0.39247837205E+03 -0.51414258374E+02 -0.12553493701E+04  0.13194671542E+04  0.91699680616E+02 0.  0.
         13    1    3    3    0    0  0.34133953403E+03 -0.20459939347E+02 -0.98754936993E+03  0.10450765736E+04  0.00000000000E+00 0. -1.
        -13    1    3    3    0    0  0.51138838021E+02 -0.30954319027E+02 -0.26780000018E+03  0.27439058059E+03  0.00000000000E+00 0.  1.
         22    1    1    2    0    0 -0.39247837205E+03  0.51414258374E+02  0.10603010206E+04  0.11317777842E+04  0.00000000000E+00 0.  1.
<mgrwt>
<rscale>  0 0.24434725E+04</rscale>
<asrwt>0</asrwt>
<pdfrwt beam="1">  1        1 0.20356102E+00 0.24434725E+04</pdfrwt>
<pdfrwt beam="2">  1       -1 0.17355358E+00 0.24434725E+04</pdfrwt>
<totfact> 0.18017412E+00</totfact>
</mgrwt>
</event>
<event>
 6    1  0.1528034E-005  0.3195614E+04  0.7818608E-02  0.8189976E-01
         -2   -1    0    0    0  501 -0.00000000000E+00  0.00000000000E+00  0.84207834041E+03  0.84207834041E+03  0.00000000000E+00 0. -1.
          2   -1    0    0  501    0  0.00000000000E+00 -0.00000000000E+00 -0.30317690473E+04  0.30317690473E+04  0.00000000000E+00 0.  1.
         23    2    1    2    0    0  0.87465905728E+03 -0.12955676795E+04 -0.70232018690E+03  0.17161182244E+04  0.91016681954E+02 0.  0.
         13    1    3    3    0    0  0.70890982203E+03 -0.10367264333E+04 -0.52471588481E+03  0.13611324672E+04  0.00000000000E+00 0. -1.
        -13    1    3    3    0    0  0.16574923526E+03 -0.25884124616E+03 -0.17760430208E+03  0.35498575721E+03  0.00000000000E+00 0.  1.
         22    1    1    2    0    0 -0.87465905728E+03  0.12955676795E+04 -0.14873705200E+04  0.21577291634E+04  0.00000000000E+00 0.  1.
<mgrwt>
<rscale>  0 0.31956139E+04</rscale>
<asrwt>0</asrwt>
<pdfrwt beam="1">  1        2 0.46642600E+00 0.31956139E+04</pdfrwt>
<pdfrwt beam="2">  1       -2 0.12955052E+00 0.31956139E+04</pdfrwt>
<totfact> 0.61322985E-01</totfact>
</mgrwt>
</event>
<event>
 6    1  0.1528034E-005  0.1168207E+04  0.7818608E-02  0.9141149E-01
          2   -1    0    0  501    0  0.00000000000E+00  0.00000000000E+00  0.29371243455E+04  0.29371243455E+04  0.00000000000E+00 0. -1.
         -2   -1    0    0    0  501 -0.00000000000E+00 -0.00000000000E+00 -0.11616015602E+03  0.11616015602E+03  0.00000000000E+00 0.  1.
         23    2    1    2    0    0  0.27123141009E+03 -0.38033847208E+03  0.23190988261E+04  0.23676514552E+04  0.96593049918E+02 0.  0.
         11    1    3    3    0    0  0.16305112216E+03 -0.27270318031E+03  0.13699427948E+04  0.14063057825E+04  0.00000000000E+00 0.  1.
        -11    1    3    3    0    0  0.10818028792E+03 -0.10763529177E+03  0.94915603128E+03  0.96134567271E+03  0.00000000000E+00 0. -1.
         22    1    1    2    0    0 -0.27123141009E+03  0.38033847208E+03  0.50186536343E+03  0.68563304630E+03  0.00000000000E+00 0.  1.
<mgrwt>
<rscale>  0 0.11682069E+04</rscale>
<asrwt>0</asrwt>
<pdfrwt beam="1">  1        2 0.45186523E+00 0.11682069E+04</pdfrwt>
<pdfrwt beam="2">  1       -2 0.17870795E-01 0.11682069E+04</pdfrwt>
<totfact> 0.49735275E+01</totfact>
</mgrwt>
</event>
<event>
 6    1  0.1528034E-005  0.3772845E+04  0.7818608E-02  0.8052008E-01
          1   -1    0    0  501    0  0.00000000000E+00  0.00000000000E+00  0.34958965624E+04  0.34958965624E+04  0.00000000000E+00 0. -1.
         -1   -1    0    0    0  501 -0.00000000000E+00 -0.00000000000E+00 -0.10179333556E+04  0.10179333556E+04  0.00000000000E+00 0.  1.
         23    2    1    2    0    0 -0.17753078378E+03 -0.15912180343E+04  0.24306591190E+04  0.29120403911E+04  0.91561316033E+02 0.  0.
         13    1    3    3    0    0 -0.10051029819E+03 -0.11400616014E+04  0.17929435018E+04  0.21270846658E+04  0.00000000000E+00 0. -1.
        -13    1    3    3    0    0 -0.77020485589E+02 -0.45115643292E+03  0.63771561725E+03  0.78495572528E+03  0.00000000000E+00 0.  1.
         22    1    1    2    0    0  0.17753078378E+03  0.15912180343E+04  0.47304087719E+02  0.16017895269E+04  0.00000000000E+00 0.  1.
<mgrwt>
<rscale>  0 0.37728449E+04</rscale>
<asrwt>0</asrwt>
<pdfrwt beam="1">  1        1 0.53783023E+00 0.37728449E+04</pdfrwt>
<pdfrwt beam="2">  1       -1 0.15660513E+00 0.37728449E+04</pdfrwt>
<totfact> 0.62179150E-02</totfact>
</mgrwt>
</event>
<event>
 6    1  0.1528034E-005  0.2608944E+04  0.7818608E-02  0.8365170E-01
         -2   -1    0    0    0  501 -0.00000000000E+00  0.00000000000E+00  0.23832919427E+04  0.23832919427E+04  0.00000000000E+00 0.  1.
          2   -1    0    0  501    0  0.00000000000E+00 -0.00000000000E+00 -0.71399016226E+03  0.71399016226E+03  0.00000000000E+00 0. -1.
         23    2    1    2    0    0 -0.33610234481E+03  0.83353328951E+03  0.19551367514E+04  0.21541786316E+04  0.10091248187E+03 0.  0.
         13    1    3    3    0    0 -0.15888139648E+03  0.50384243739E+03  0.12104223979E+04  0.13206903048E+04  0.00000000000E+00 0. -1.
        -13    1    3    3    0    0 -0.17722094833E+03  0.32969085213E+03  0.74471435354E+03  0.83348832677E+03  0.00000000000E+00 0.  1.
         22    1    1    2    0    0  0.33610234481E+03 -0.83353328951E+03 -0.28583497098E+03  0.94310347340E+03  0.00000000000E+00 0. -1.
<mgrwt>
<rscale>  0 0.26089438E+04</rscale>
<asrwt>0</asrwt>
<pdfrwt beam="1">  1        2 0.10984464E+00 0.26089438E+04</pdfrwt>
<pdfrwt beam="2">  1       -2 0.36666029E+00 0.26089438E+04</pdfrwt>
<totfact> 0.43078537E-01</totfact>
</mgrwt>
</event>
<event>
 6    1  0.1528034E-005  0.2075270E+04  0.7818608E-02  0.8572216E-01
          2   -1    0    0  501    0  0.00000000000E+00  0.00000000000E+00  0.13942989931E+04  0.13942989931E+04  0.00000000000E+00 0.  1.
         -2   -1    0    0    0  501 -0.00000000000E+00 -0.00000000000E+00 -0.77220605162E+03  0.77220605162E+03  0.00000000000E+00 0. -1.
         23    2    1    2    0    0 -0.87693651121E+03  0.19340103581E+03 -0.22669591703E+03  0.93084160687E+03  0.93023937436E+02 0.  0.
         13    1    3    3    0    0 -0.53133446304E+03  0.71868077396E+02 -0.14632668096E+03  0.55578127868E+03  0.00000000000E+00 0.  1.
        -13    1    3    3    0    0 -0.34560204816E+03  0.12153295842E+03 -0.80369236074E+02  0.37506032819E+03  0.00000000000E+00 0. -1.
         22    1    1    2    0    0  0.87693651121E+03 -0.19340103581E+03  0.84878885854E+03  0.12356634379E+04  0.00000000000E+00 0.  1.
<mgrwt>
<rscale>  0 0.20752697E+04</rscale>
<asrwt>0</asrwt>
<pdfrwt beam="1">  1        2 0.21450754E+00 0.20752697E+04</pdfrwt>
<pdfrwt beam="2">  1       -2 0.11880093E+00 0.20752697E+04</pdfrwt>
<totfact> 0.73309493E+00</totfact>
</mgrwt>
</event>
<event>
 6    1  0.1528034E-005  0.1687276E+04  0.7818608E-02  0.8768655E-01
          1   -1    0    0  501    0  0.00000000000E+00  0.00000000000E+00  0.18895165717E+04  0.18895165717E+04  0.00000000000E+00 0. -1.
         -1   -1    0    0    0  501 -0.00000000000E+00 -0.00000000000E+00 -0.37667038398E+03  0.37667038398E+03  0.00000000000E+00 0.  1.
         23    2    1    2    0    0  0.18198080706E+03 -0.59404624568E+03 -0.35071141305E+01  0.62748768731E+03  0.87866613265E+02 0.  0.
         13    1    3    3    0    0  0.64996734226E+02 -0.14509358341E+03  0.32044724673E+02  0.16218380865E+03  0.00000000000E+00 0. -1.
        -13    1    3    3    0    0  0.11698407283E+03 -0.44895266227E+03 -0.35551838804E+02  0.46530387866E+03  0.00000000000E+00 0.  1.
         22    1    1    2    0    0 -0.18198080706E+03  0.59404624568E+03  0.15163533018E+04  0.16386992683E+04  0.00000000000E+00 0. -1.
<mgrwt>
<rscale>  0 0.16872758E+04</rscale>
<asrwt>0</asrwt>
<pdfrwt beam="1">  1        1 0.29069485E+00 0.16872758E+04</pdfrwt>
<pdfrwt beam="2">  1       -1 0.57949291E-01 0.16872758E+04</pdfrwt>
<totfact> 0.10179574E+01</totfact>
</mgrwt>
</event>
<event>
 6    1  0.1528034E-005  0.1509695E+04  0.7818608E-02  0.8878032E-01
          1   -1    0    0  501    0  0.00000000000E+00  0.00000000000E+00  0.77023735495E+03  0.77023735495E+03  0.00000000000E+00 0.  1.
         -1   -1    0    0    0  501 -0.00000000000E+00 -0.00000000000E+00 -0.73976482056E+03  0.73976482056E+03  0.00000000000E+00 0. -1.
         23    2    1    2    0    0 -0.16439394556E+03 -0.55485429563E+03 -0.46596396404E+03  0.74754702556E+03  0.82555926028E+02 0.  0.
         13    1    3    3    0    0 -0.79722842436E+02 -0.36751285954E+03 -0.26497531814E+03  0.46003625157E+03  0.00000000000E+00 0. -1.
        -13    1    3    3    0    0 -0.84671103124E+02 -0.18734143609E+03 -0.20098864590E+03  0.28751077399E+03  0.00000000000E+00 0.  1.
         22    1    1    2    0    0  0.16439394556E+03  0.55485429563E+03  0.49643649843E+03  0.76245514995E+03  0.00000000000E+00 0.  1.
<mgrwt>
<rscale>  0 0.15096947E+04</rscale>
<asrwt>0</asrwt>
<pdfrwt beam="1">  1        1 0.11849805E+00 0.15096947E+04</pdfrwt>
<pdfrwt beam="2">  1       -1 0.11380997E+00 0.15096947E+04</pdfrwt>
<totfact> 0.15982969E+01</totfact>
</mgrwt>
</event>
<event>
 6    1  0.1528034E-005  0.1379702E+04  0.7818608E-02  0.8968644E-01
         -2   -1    0    0    0  501 -0.00000000000E+00  0.00000000000E+00  0.51599552086E+03  0.51599552086E+03  0.00000000000E+00 0. -1.
          2   -1    0    0  501    0  0.00000000000E+00 -0.00000000000E+00 -0.92228332303E+03  0.92228332303E+03  0.00000000000E+00 0.  1.
         23    2    1    2    0    0 -0.20381078329E+03 -0.17306639166E+03  0.45402764820E+03  0.53737180902E+03  0.10552982750E+03 0.  0.
         11    1    3    3    0    0 -0.18325955733E+03 -0.17375362841E+03  0.35155936451E+03  0.43286068834E+03  0.00000000000E+00 0.  1.
        -11    1    3    3    0    0 -0.20551225960E+02  0.68723674947E+00  0.10246828369E+03  0.10451112068E+03  0.00000000000E+00 0. -1.
         22    1    1    2    0    0  0.20381078329E+03  0.17306639166E+03 -0.86031545038E+03  0.90090703486E+03  0.00000000000E+00 0.  1.
<mgrwt>
<rscale>  0 0.13797015E+04</rscale>
<asrwt>0</asrwt>
<pdfrwt beam="1">  1        2 0.14188974E+00 0.13797015E+04</pdfrwt>
<pdfrwt beam="2">  1       -2 0.79383926E-01 0.13797015E+04</pdfrwt>
<totfact> 0.38846539E+01</totfact>
</mgrwt>
</event>
<event>
 6    1  0.1528034E-005  0.1443003E+04  0.7818608E-02  0.8923266E-01
          2   -1    0    0  501    0  0.00000000000E+00  0.00000000000E+00  0.12105224304E+04  0.12105224304E+04  0.00000000000E+00 0. -1.
         -2   -1    0    0    0  501 -0.00000000000E+00 -0.00000000000E+00 -0.43003293271E+03  0.43003293271E+03  0.00000000000E+00 0.  1.
         23    2    1    2    0    0  0.27842710917E+03  0.60519688846E+02 -0.35614310033E+03  0.46875420646E+03  0.10820494582E+03 0.  0.
         11    1    3    3    0    0  0.18126833134E+03  0.44609817286E+01 -0.27852568210E+03  0.33234720383E+03  0.00000000000E+00 0.  1.
        -11    1    3    3    0    0  0.97158777836E+02  0.56058707118E+02 -0.77617418232E+02  0.13640700263E+03  0.00000000000E+00 0. -1.
         22    1    1    2    0    0 -0.27842710917E+03 -0.60519688846E+02  0.11366325980E+04  0.11718011566E+04  0.00000000000E+00 0. -1.
<mgrwt>
<rscale>  0 0.14430031E+04</rscale>
<asrwt>0</asrwt>
<pdfrwt beam="1">  1        2 0.18623422E+00 0.14430031E+04</pdfrwt>
<pdfrwt beam="2">  1       -2 0.66158913E-01 0.14430031E+04</pdfrwt>
<totfact> 0.38067953E+01</totfact>
</mgrwt>
</event>
<event>
 6    1  0.1528034E-005  0.1834060E+04  0.7818608E-02  0.8688394E-01
         -2   -1    0    0    0  501 -0.00000000000E+00  0.00000000000E+00  0.34344828473E+03  0.34344828473E+03  0.00000000000E+00 0.  1.
          2   -1    0    0  501    0  0.00000000000E+00 -0.00000000000E+00 -0.24485312169E+04  0.24485312169E+04  0.00000000000E+00 0. -1.
         23    2    1    2    0    0  0.77989697179E+03 -0.46399077415E+03 -0.12263165003E+04  0.15287466779E+04  0.98425206104E+02 0.  0.
         11    1    3    3    0    0  0.29230883129E+03 -0.16223278497E+03 -0.53118863079E+03  0.62763467945E+03  0.00000000000E+00 0. -1.
        -11    1    3    3    0    0  0.48758814050E+03 -0.30175798919E+03 -0.69512786954E+03  0.90111199848E+03  0.00000000000E+00 0.  1.
         22    1    1    2    0    0 -0.77989697179E+03  0.46399077415E+03 -0.87876643181E+03  0.12632328237E+04  0.00000000000E+00 0.  1.
<mgrwt>
<rscale>  0 0.18340598E+04</rscale>
<asrwt>0</asrwt>
<pdfrwt beam="1">  1        2 0.37669711E+00 0.18340598E+04</pdfrwt>
<pdfrwt beam="2">  1       -2 0.52838198E-01 0.18340598E+04</pdfrwt>
<totfact> 0.11868796E+01</totfact>
</mgrwt>
</event>
<event>
 6    1  0.1528034E-005  0.1461016E+04  0.7818608E-02  0.8910799E-01
         -2   -1    0    0    0  501 -0.00000000000E+00  0.00000000000E+00  0.19214170378E+03  0.19214170378E+03  0.00000000000E+00 0.  1.
          2   -1    0    0  501    0  0.00000000000E+00 -0.00000000000E+00 -0.27773365482E+04  0.27773365482E+04  0.00000000000E+00 0. -1.
         23    2    1    2    0    0 -0.15780870952E+03 -0.60644245492E+03 -0.20491909823E+04  0.21448715699E+04  0.92813412376E+02 0.  0.
         13    1    3    3    0    0 -0.86586963716E+02 -0.45650393927E+03 -0.15948901230E+04  0.16611946464E+04  0.00000000000E+00 0. -1.
        -13    1    3    3    0    0 -0.71221745801E+02 -0.14993851565E+03 -0.45430085931E+03  0.48367692349E+03  0.00000000000E+00 0.  1.
         22    1    1    2    0    0  0.15780870952E+03  0.60644245492E+03 -0.53600386214E+03  0.82460668210E+03  0.00000000000E+00 0.  1.
<mgrwt>
<rscale>  0 0.14610163E+04</rscale>
<asrwt>0</asrwt>
<pdfrwt beam="1">  1        2 0.42728255E+00 0.14610163E+04</pdfrwt>
<pdfrwt beam="2">  1       -2 0.29560262E-01 0.14610163E+04</pdfrwt>
<totfact> 0.24511820E+01</totfact>
</mgrwt>
</event>
<event>
 6    1  0.1528034E-005  0.4684037E+04  0.7818608E-02  0.7879186E-01
         -1   -1    0    0    0  501 -0.00000000000E+00  0.00000000000E+00  0.13631777180E+04  0.13631777180E+04  0.00000000000E+00 0.  1.
          1   -1    0    0  501    0  0.00000000000E+00 -0.00000000000E+00 -0.40237243275E+04  0.40237243275E+04  0.00000000000E+00 0. -1.
         23    2    1    2    0    0  0.48489511865E+03  0.10342873969E+04  0.10191281309E+04  0.15339966625E+04  0.98233996299E+02 0.  0.
         13    1    3    3    0    0  0.28946643930E+03  0.72376259993E+03  0.70334426040E+03  0.10499125055E+04  0.00000000000E+00 0. -1.
        -13    1    3    3    0    0  0.19542867935E+03  0.31052479697E+03  0.31578387045E+03  0.48408415702E+03  0.00000000000E+00 0.  1.
         22    1    1    2    0    0 -0.48489511865E+03 -0.10342873969E+04 -0.36796747403E+04  0.38529053830E+04  0.00000000000E+00 0. -1.
<mgrwt>
<rscale>  0 0.46840373E+04</rscale>
<asrwt>0</asrwt>
<pdfrwt beam="1">  1        1 0.61903452E+00 0.46840373E+04</pdfrwt>
<pdfrwt beam="2">  1       -1 0.20971965E+00 0.46840373E+04</pdfrwt>
<totfact> 0.87083204E-03</totfact>
</mgrwt>
</event>
<event>
 6    1  0.1528034E-005  0.2757385E+04  0.7818608E-02  0.8316622E-01
          2   -1    0    0  501    0  0.00000000000E+00  0.00000000000E+00  0.18235023512E+04  0.18235023512E+04  0.00000000000E+00 0.  1.
         -2   -1    0    0    0  501 -0.00000000000E+00 -0.00000000000E+00 -0.10423859920E+04  0.10423859920E+04  0.00000000000E+00 0. -1.
         23    2    1    2    0    0 -0.71037422941E+03  0.18610901251E+03  0.16018874320E+04  0.17645558483E+04  0.91355823623E+02 0.  0.
         13    1    3    3    0    0 -0.19239658332E+03  0.91015913795E+02  0.43113471626E+03  0.48080919854E+03  0.00000000000E+00 0. -1.
        -13    1    3    3    0    0 -0.51797764609E+03  0.95093098715E+02  0.11707527158E+04  0.12837466497E+04  0.00000000000E+00 0.  1.
         22    1    1    2    0    0  0.71037422941E+03 -0.18610901251E+03 -0.82077107282E+03  0.11013324949E+04  0.00000000000E+00 0. -1.
<mgrwt>
<rscale>  0 0.27573852E+04</rscale>
<asrwt>0</asrwt>
<pdfrwt beam="1">  1        2 0.28053882E+00 0.27573852E+04</pdfrwt>
<pdfrwt beam="2">  1       -2 0.16036708E+00 0.27573852E+04</pdfrwt>
<totfact> 0.18305172E+00</totfact>
</mgrwt>
</event>
<event>
 6    1  0.1528034E-005  0.6009179E+03  0.7818608E-02  0.9903504E-01
          2   -1    0    0  501    0  0.00000000000E+00  0.00000000000E+00  0.47125014775E+03  0.47125014775E+03  0.00000000000E+00 0. -1.
         -2   -1    0    0    0  501 -0.00000000000E+00 -0.00000000000E+00 -0.19156615970E+03  0.19156615970E+03  0.00000000000E+00 0.  1.
         23    2    1    2    0    0  0.22470773889E+03  0.82314133198E+02 -0.44578720929E+02  0.25980825681E+03  0.90795834191E+02 0.  0.
         13    1    3    3    0    0  0.74355363361E+01  0.83438099975E+01 -0.27465689723E+02  0.29652495306E+02  0.00000000000E+00 0.  1.
        -13    1    3    3    0    0  0.21727220256E+03  0.73970323201E+02 -0.17113031206E+02  0.23015576151E+03  0.00000000000E+00 0. -1.
         22    1    1    2    0    0 -0.22470773889E+03 -0.82314133198E+02  0.32426270897E+03  0.40300805063E+03  0.00000000000E+00 0. -1.
<mgrwt>
<rscale>  0 0.60091790E+03</rscale>
<asrwt>0</asrwt>
<pdfrwt beam="1">  1        2 0.72500023E-01 0.60091790E+03</pdfrwt>
<pdfrwt beam="2">  1       -2 0.29471717E-01 0.60091790E+03</pdfrwt>
<totfact> 0.70275843E+02</totfact>
</mgrwt>
</event>
<event>
 6    1  0.1528034E-005  0.9560569E+03  0.7818608E-02  0.9358099E-01
          1   -1    0    0  501    0  0.00000000000E+00  0.00000000000E+00  0.19686636569E+04  0.19686636569E+04  0.00000000000E+00 0. -1.
         -1   -1    0    0    0  501 -0.00000000000E+00 -0.00000000000E+00 -0.11607426067E+03  0.11607426067E+03  0.00000000000E+00 0.  1.
         23    2    1    2    0    0 -0.24223452014E+03  0.39675923365E+03  0.11332307175E+04  0.12282495284E+04  0.91047199340E+02 0.  0.
         13    1    3    3    0    0 -0.22641467221E+03  0.32373674013E+03  0.10047091482E+04  0.10795876774E+04  0.00000000000E+00 0. -1.
        -13    1    3    3    0    0 -0.15819847931E+02  0.73022493519E+02  0.12852156938E+03  0.14866185101E+03  0.00000000000E+00 0.  1.
         22    1    1    2    0    0  0.24223452014E+03 -0.39675923365E+03  0.71935867869E+03  0.85648838921E+03  0.00000000000E+00 0.  1.
<mgrwt>
<rscale>  0 0.95605686E+03</rscale>
<asrwt>0</asrwt>
<pdfrwt beam="1">  1        1 0.30287131E+00 0.95605686E+03</pdfrwt>
<pdfrwt beam="2">  1       -1 0.17857580E-01 0.95605686E+03</pdfrwt>
<totfact> 0.78141866E+01</totfact>
</mgrwt>
</event>
<event>
 6    1  0.1528034E-005  0.2420861E+04  0.7818608E-02  0.8431735E-01
          2   -1    0    0  501    0  0.00000000000E+00  0.00000000000E+00  0.27467056761E+04  0.27467056761E+04  0.00000000000E+00 0. -1.
         -2   -1    0    0    0  501 -0.00000000000E+00 -0.00000000000E+00 -0.53341795069E+03  0.53341795069E+03  0.00000000000E+00 0.  1.
         23    2    1    2    0    0 -0.97821166087E+03 -0.69733705407E+03  0.93102898682E+03  0.15230338473E+04  0.98184038190E+02 0.  0.
         13    1    3    3    0    0 -0.42771690822E+03 -0.35211969608E+03  0.46683160650E+03  0.72447345208E+03  0.00000000000E+00 0. -1.
        -13    1    3    3    0    0 -0.55049475266E+03 -0.34521735799E+03  0.46419738032E+03  0.79856039525E+03  0.00000000000E+00 0.  1.
         22    1    1    2    0    0  0.97821166087E+03  0.69733705407E+03  0.12822587386E+04  0.17570897795E+04  0.00000000000E+00 0. -1.
<mgrwt>
<rscale>  0 0.24208611E+04</rscale>
<asrwt>0</asrwt>
<pdfrwt beam="1">  1        2 0.42257009E+00 0.24208611E+04</pdfrwt>
<pdfrwt beam="2">  1       -2 0.82064302E-01 0.24208611E+04</pdfrwt>
<totfact> 0.29172480E+00</totfact>
</mgrwt>
</event>
<event>
 6    1  0.1528034E-005  0.1712788E+04  0.7818608E-02  0.8754104E-01
         -1   -1    0    0    0  501 -0.00000000000E+00  0.00000000000E+00  0.43912960679E+03  0.43912960679E+03  0.00000000000E+00 0.  1.
          1   -1    0    0  501    0  0.00000000000E+00 -0.00000000000E+00 -0.16701469100E+04  0.16701469100E+04  0.00000000000E+00 0. -1.
         23    2    1    2    0    0 -0.35644323726E+03  0.28204790959E+03 -0.15074402667E+04  0.15772873633E+04  0.94108789306E+02 0.  0.
         11    1    3    3    0    0 -0.23470532554E+03  0.13189646755E+03 -0.94205094721E+03  0.97976693919E+03  0.00000000000E+00 0. -1.
        -11    1    3    3    0    0 -0.12173791172E+03  0.15015144204E+03 -0.56538931946E+03  0.59752042413E+03  0.00000000000E+00 0.  1.
         22    1    1    2    0    0  0.35644323726E+03 -0.28204790959E+03  0.27642296344E+03  0.53198915347E+03  0.00000000000E+00 0.  1.
<mgrwt>
<rscale>  0 0.17127883E+04</rscale>
<asrwt>0</asrwt>
<pdfrwt beam="1">  1        1 0.25694568E+00 0.17127883E+04</pdfrwt>
<pdfrwt beam="2">  1       -1 0.67558400E-01 0.17127883E+04</pdfrwt>
<totfact> 0.10535625E+01</totfact>
</mgrwt>
</event>
<event>
 6    1  0.1528034E-005  0.1460574E+04  0.7818608E-02  0.8911103E-01
         -2   -1    0    0    0  501 -0.00000000000E+00  0.00000000000E+00  0.41736239191E+03  0.41736239191E+03  0.00000000000E+00 0.  1.
          2   -1    0    0  501    0  0.00000000000E+00 -0.00000000000E+00 -0.12778318183E+04  0.12778318183E+04  0.00000000000E+00 0. -1.
         23    2    1    2    0    0 -0.30779419510E+03  0.55725702915E+02  0.32740286360E+03  0.46682814187E+03  0.11354848499E+03 0.  0.
         11    1    3    3    0    0 -0.16621002658E+03  0.25121911403E+02  0.25360947276E+03  0.30426082239E+03  0.00000000000E+00 0. -1.
        -11    1    3    3    0    0 -0.14158416852E+03  0.30603791513E+02  0.73793390842E+02  0.16256731948E+03  0.00000000000E+00 0.  1.
         22    1    1    2    0    0  0.30779419510E+03 -0.55725702915E+02 -0.11878722899E+04  0.12283660683E+04  0.00000000000E+00 0. -1.
<mgrwt>
<rscale>  0 0.14605738E+04</rscale>
<asrwt>0</asrwt>
<pdfrwt beam="1">  1        2 0.19658951E+00 0.14605738E+04</pdfrwt>
<pdfrwt beam="2">  1       -2 0.64209600E-01 0.14605738E+04</pdfrwt>
<totfact> 0.36993302E+01</totfact>
</mgrwt>
</event>
<event>
 6    1  0.1528034E-005  0.1532616E+04  0.7818608E-02  0.8863049E-01
          2   -1    0    0  501    0  0.00000000000E+00  0.00000000000E+00  0.12430258299E+04  0.12430258299E+04  0.00000000000E+00 0. -1.
         -2   -1    0    0    0  501 -0.00000000000E+00 -0.00000000000E+00 -0.47241809145E+03  0.47241809145E+03  0.00000000000E+00 0.  1.
         23    2    1    2    0    0 -0.31733405475E+03 -0.27150277255E+02 -0.39016982870E+03  0.51176514350E+03  0.90736029319E+02 0.  0.
         11    1    3    3    0    0 -0.26621543343E+03 -0.56607583378E+02 -0.32046791965E+03  0.42044590974E+03  0.00000000000E+00 0. -1.
        -11    1    3    3    0    0 -0.51118621324E+02  0.29457306123E+02 -0.69701909046E+02  0.91319233762E+02  0.00000000000E+00 0.  1.
         22    1    1    2    0    0  0.31733405475E+03  0.27150277255E+02  0.11607775671E+04  0.12036787778E+04  0.00000000000E+00 0. -1.
<mgrwt>
<rscale>  0 0.15326159E+04</rscale>
<asrwt>0</asrwt>
<pdfrwt beam="1">  1        2 0.19123474E+00 0.15326159E+04</pdfrwt>
<pdfrwt beam="2">  1       -2 0.72679707E-01 0.15326159E+04</pdfrwt>
<totfact> 0.29462476E+01</totfact>
</mgrwt>
</event>
<event>
 6    1  0.1528034E-005  0.4746843E+03  0.7818608E-02  0.1020606E+00
         -2   -1    0    0    0  501 -0.00000000000E+00  0.00000000000E+00  0.42335027378E+02  0.42335027378E+02  0.00000000000E+00 0.  1.
          2   -1    0    0  501    0  0.00000000000E+00 -0.00000000000E+00 -0.13306071250E+04  0.13306071250E+04  0.00000000000E+00 0. -1.
         23    2    1    2    0    0  0.10160288330E+03  0.20097618002E+03 -0.78297664639E+03  0.81973508096E+03  0.90546139284E+02 0.  0.
         11    1    3    3    0    0  0.13020216211E+02  0.95333039195E+02 -0.21995536593E+03  0.24007973133E+03  0.00000000000E+00 0.  1.
        -11    1    3    3    0    0  0.88582667085E+02  0.10564314082E+03 -0.56302128046E+03  0.57965534963E+03  0.00000000000E+00 0. -1.
         22    1    1    2    0    0 -0.10160288330E+03 -0.20097618002E+03 -0.50529545124E+03  0.55320707142E+03  0.00000000000E+00 0. -1.
<mgrwt>
<rscale>  0 0.47468427E+03</rscale>
<asrwt>0</asrwt>
<pdfrwt beam="1">  1        2 0.20470880E+00 0.47468427E+03</pdfrwt>
<pdfrwt beam="2">  1       -2 0.65130806E-02 0.47468427E+03</pdfrwt>
<totfact> 0.21944802E+03</totfact>
</mgrwt>
</event>
<event>
 6    1  0.1528034E-005  0.3724550E+04  0.7818608E-02  0.8062543E-01
          1   -1    0    0  501    0  0.00000000000E+00  0.00000000000E+00  0.43378955166E+04  0.43378955166E+04  0.00000000000E+00 0.  1.
         -1   -1    0    0    0  501 -0.00000000000E+00 -0.00000000000E+00 -0.79948177805E+03  0.79948177805E+03  0.00000000000E+00 0. -1.
         23    2    1    2    0    0 -0.14455349554E+04 -0.89367682983E+02  0.33825375554E+04  0.36807183523E+04  0.92570973303E+02 0.  0.
         11    1    3    3    0    0 -0.28434710749E+03 -0.31017358942E+01  0.58163396328E+03  0.64742641709E+03  0.00000000000E+00 0.  1.
        -11    1    3    3    0    0 -0.11611878479E+04 -0.86265947089E+02  0.28009035922E+04  0.30332919352E+04  0.00000000000E+00 0. -1.
         22    1    1    2    0    0  0.14455349554E+04  0.89367682983E+02  0.15587618312E+03  0.14566589424E+04  0.00000000000E+00 0. -1.
<mgrwt>
<rscale>  0 0.37245501E+04</rscale>
<asrwt>0</asrwt>
<pdfrwt beam="1">  1        1 0.66736853E+00 0.37245501E+04</pdfrwt>
<pdfrwt beam="2">  1       -1 0.12299720E+00 0.37245501E+04</pdfrwt>
<totfact> 0.21723170E-02</totfact>
</mgrwt>
</event>
<event>
 6    1  0.1528034E-005  0.1345541E+04  0.7818608E-02  0.8994210E-01
         -1   -1    0    0    0  501 -0.00000000000E+00  0.00000000000E+00  0.16611309630E+03  0.16611309630E+03  0.00000000000E+00 0.  1.
          1   -1    0    0  501    0  0.00000000000E+00 -0.00000000000E+00 -0.27247720412E+04  0.27247720412E+04  0.00000000000E+00 0. -1.
         23    2    1    2    0    0 -0.11190433430E+03 -0.55698718905E+03 -0.52058200883E+03  0.77510752485E+03  0.83837571321E+02 0.  0.
         11    1    3    3    0    0 -0.60850504557E+02 -0.39295774535E+03 -0.40795017788E+03  0.56968580917E+03  0.00000000000E+00 0.  1.
        -11    1    3    3    0    0 -0.51053829739E+02 -0.16402944370E+03 -0.11263183095E+03  0.20542171568E+03  0.00000000000E+00 0. -1.
         22    1    1    2    0    0  0.11190433430E+03  0.55698718905E+03 -0.20380769360E+04  0.21157776126E+04  0.00000000000E+00 0. -1.
<mgrwt>
<rscale>  0 0.13455413E+04</rscale>
<asrwt>0</asrwt>
<pdfrwt beam="1">  1        1 0.41919571E+00 0.13455413E+04</pdfrwt>
<pdfrwt beam="2">  1       -1 0.25555860E-01 0.13455413E+04</pdfrwt>
<totfact> 0.12523551E+01</totfact>
</mgrwt>
</event>
<event>
 6    1  0.1528034E-005  0.1143757E+04  0.7818608E-02  0.9163562E-01
         -2   -1    0    0    0  501 -0.00000000000E+00  0.00000000000E+00  0.45874435944E+03  0.45874435944E+03  0.00000000000E+00 0.  1.
          2   -1    0    0  501    0  0.00000000000E+00 -0.00000000000E+00 -0.71291339028E+03  0.71291339028E+03  0.00000000000E+00 0. -1.
         23    2    1    2    0    0 -0.56504676358E+03  0.13003829693E+02 -0.69156495166E+02  0.57695060921E+03  0.92964724581E+02 0.  0.
         13    1    3    3    0    0 -0.19447605705E+03  0.41025540572E+02 -0.49367381652E+02  0.20479543481E+03  0.00000000000E+00 0. -1.
        -13    1    3    3    0    0 -0.37057070653E+03 -0.28021710879E+02 -0.19789113514E+02  0.37215517440E+03  0.00000000000E+00 0.  1.
         22    1    1    2    0    0  0.56504676358E+03 -0.13003829693E+02 -0.18501253567E+03  0.59470714051E+03  0.00000000000E+00 0. -1.
<mgrwt>
<rscale>  0 0.11437570E+04</rscale>
<asrwt>0</asrwt>
<pdfrwt beam="1">  1        2 0.10967898E+00 0.11437570E+04</pdfrwt>
<pdfrwt beam="2">  1       -2 0.70576056E-01 0.11437570E+04</pdfrwt>
<totfact> 0.72418632E+01</totfact>
</mgrwt>
</event>
<event>
 6    1  0.1528034E-005  0.4143950E+04  0.7818608E-02  0.7976121E-01
         -1   -1    0    0    0  501 -0.00000000000E+00  0.00000000000E+00  0.14006363284E+04  0.14006363284E+04  0.00000000000E+00 0.  1.
          1   -1    0    0  501    0  0.00000000000E+00 -0.00000000000E+00 -0.30650929721E+04  0.30650929721E+04  0.00000000000E+00 0. -1.
         23    2    1    2    0    0 -0.81545495529E+03 -0.18347922035E+04 -0.13795690723E+04  0.24377770963E+04  0.90095125441E+02 0.  0.
         11    1    3    3    0    0 -0.16519476726E+03 -0.45101442693E+03 -0.35539328087E+03  0.59750122052E+03  0.00000000000E+00 0.  1.
        -11    1    3    3    0    0 -0.65026018802E+03 -0.13837777766E+04 -0.10241757914E+04  0.18402758757E+04  0.00000000000E+00 0. -1.
         22    1    1    2    0    0  0.81545495529E+03  0.18347922035E+04 -0.28488757149E+03  0.20279522042E+04  0.00000000000E+00 0.  1.
<mgrwt>
<rscale>  0 0.41439501E+04</rscale>
<asrwt>0</asrwt>
<pdfrwt beam="1">  1        1 0.47155276E+00 0.41439501E+04</pdfrwt>
<pdfrwt beam="2">  1       -1 0.21548251E+00 0.41439501E+04</pdfrwt>
<totfact> 0.48862664E-02</totfact>
</mgrwt>
</event>
<event>
 6    1  0.1528034E-005  0.4486536E+04  0.7818608E-02  0.7912998E-01
         -2   -1    0    0    0  501 -0.00000000000E+00  0.00000000000E+00  0.18972727276E+04  0.18972727276E+04  0.00000000000E+00 0.  1.
          2   -1    0    0  501    0  0.00000000000E+00 -0.00000000000E+00 -0.26523599759E+04  0.26523599759E+04  0.00000000000E+00 0. -1.
         23    2    1    2    0    0  0.97299322508E+03 -0.18372451585E+04  0.47422861229E+03  0.21343888082E+04  0.92397073528E+02 0.  0.
         13    1    3    3    0    0  0.20107292734E+03 -0.32821025128E+03  0.60639922108E+02  0.38965303965E+03  0.00000000000E+00 0. -1.
        -13    1    3    3    0    0  0.77192029774E+03 -0.15090349072E+04  0.41358869018E+03  0.17447357685E+04  0.00000000000E+00 0.  1.
         22    1    1    2    0    0 -0.97299322508E+03  0.18372451585E+04 -0.12293158606E+04  0.24152438953E+04  0.00000000000E+00 0. -1.
<mgrwt>
<rscale>  0 0.44865355E+04</rscale>
<asrwt>0</asrwt>
<pdfrwt beam="1">  1        2 0.40805538E+00 0.44865355E+04</pdfrwt>
<pdfrwt beam="2">  1       -2 0.29188811E+00 0.44865355E+04</pdfrwt>
<totfact> 0.76597491E-02</totfact>
</mgrwt>
</event>
<event>
 6    1  0.1528034E-005  0.9093498E+04  0.7818608E-02  0.7393207E-01
          2   -1    0    0  501    0  0.00000000000E+00  0.00000000000E+00  0.44325609448E+04  0.44325609448E+04  0.00000000000E+00 0.  1.
         -2   -1    0    0    0  501 -0.00000000000E+00 -0.00000000000E+00 -0.46638785490E+04  0.46638785490E+04  0.00000000000E+00 0. -1.
         23    2    1    2    0    0  0.92940371757E+03  0.35426915794E+04  0.25785145481E+04  0.44802060052E+04  0.95150813288E+02 0.  0.
         13    1    3    3    0    0  0.18638892310E+03  0.85358757851E+03  0.59297355352E+03  0.10559215028E+04  0.00000000000E+00 0. -1.
        -13    1    3    3    0    0  0.74301479447E+03  0.26891040009E+04  0.19855409946E+04  0.34242845024E+04  0.00000000000E+00 0.  1.
         22    1    1    2    0    0 -0.92940371757E+03 -0.35426915794E+04 -0.28098321523E+04  0.46162334885E+04  0.00000000000E+00 0. -1.
<mgrwt>
<rscale>  0 0.90934979E+04</rscale>
<asrwt>0</asrwt>
<pdfrwt beam="1">  1        2 0.68193245E+00 0.90934979E+04</pdfrwt>
<pdfrwt beam="2">  1       -2 0.71751978E+00 0.90934979E+04</pdfrwt>
<totfact> 0.15299329E-05</totfact>
</mgrwt>
</event>
<event>
 6    1  0.1528034E-005  0.3442014E+04  0.7818608E-02  0.8127671E-01
         -1   -1    0    0    0  501 -0.00000000000E+00  0.00000000000E+00  0.19702371057E+04  0.19702371057E+04  0.00000000000E+00 0.  1.
          1   -1    0    0  501    0  0.00000000000E+00 -0.00000000000E+00 -0.15033038460E+04  0.15033038460E+04  0.00000000000E+00 0. -1.
         23    2    1    2    0    0  0.10770440054E+04  0.13336444749E+04  0.93413012844E+02  0.17190755773E+04  0.88676233815E+02 0.  0.
         13    1    3    3    0    0  0.15108250766E+03  0.16806239854E+03 -0.15202103062E+02  0.22649944340E+03  0.00000000000E+00 0. -1.
        -13    1    3    3    0    0  0.92596149777E+03  0.11655820764E+04  0.10861511591E+03  0.14925761339E+04  0.00000000000E+00 0.  1.
         22    1    1    2    0    0 -0.10770440054E+04 -0.13336444749E+04  0.37352024682E+03  0.17544653744E+04  0.00000000000E+00 0.  1.
<mgrwt>
<rscale>  0 0.34420140E+04</rscale>
<asrwt>0</asrwt>
<pdfrwt beam="1">  1        1 0.23127751E+00 0.34420140E+04</pdfrwt>
<pdfrwt beam="2">  1       -1 0.30311340E+00 0.34420140E+04</pdfrwt>
<totfact> 0.16814501E-01</totfact>
</mgrwt>
</event>
<event>
 6    1  0.1528034E-005  0.4417129E+03  0.7818608E-02  0.1030223E+00
         -1   -1    0    0    0  501 -0.00000000000E+00  0.00000000000E+00  0.47984569435E+02  0.47984569435E+02  0.00000000000E+00 0.  1.
          1   -1    0    0  501    0  0.00000000000E+00 -0.00000000000E+00 -0.10165260257E+04  0.10165260257E+04  0.00000000000E+00 0. -1.
         23    2    1    2    0    0 -0.10742295540E+03 -0.23335029004E+02 -0.94046173648E+03  0.95105273695E+03  0.89156131327E+02 0.  0.
         13    1    3    3    0    0 -0.54721781327E+02 -0.56879087257E+02 -0.50395145039E+03  0.51009486203E+03  0.00000000000E+00 0. -1.
        -13    1    3    3    0    0 -0.52701174073E+02  0.33544058253E+02 -0.43651028609E+03  0.44095787492E+03  0.00000000000E+00 0.  1.
         22    1    1    2    0    0  0.10742295540E+03  0.23335029004E+02 -0.28079719814E+02  0.11345785821E+03  0.00000000000E+00 0.  1.
<mgrwt>
<rscale>  0 0.44171286E+03</rscale>
<asrwt>0</asrwt>
<pdfrwt beam="1">  1        1 0.15638861E+00 0.44171286E+03</pdfrwt>
<pdfrwt beam="2">  1       -1 0.73822419E-02 0.44171286E+03</pdfrwt>
<totfact> 0.15118373E+03</totfact>
</mgrwt>
</event>
<event>
 6    1  0.1528034E-005  0.1581203E+04  0.7818608E-02  0.8832180E-01
          2   -1    0    0  501    0  0.00000000000E+00  0.00000000000E+00  0.61667457531E+03  0.61667457531E+03  0.00000000000E+00 0.  1.
         -2   -1    0    0    0  501 -0.00000000000E+00 -0.00000000000E+00 -0.10135824011E+04  0.10135824011E+04  0.00000000000E+00 0. -1.
         23    2    1    2    0    0  0.41663886870E+03 -0.66530220537E+03 -0.14346000753E+03  0.80536257833E+03  0.10868825802E+03 0.  0.
         13    1    3    3    0    0  0.14664586648E+03 -0.15243833021E+03 -0.17533601864E+02  0.21224957448E+03  0.00000000000E+00 0. -1.
        -13    1    3    3    0    0  0.26999300222E+03 -0.51286387516E+03 -0.12592640567E+03  0.59311300385E+03  0.00000000000E+00 0.  1.
         22    1    1    2    0    0 -0.41663886870E+03  0.66530220537E+03 -0.25344781824E+03  0.82489439806E+03  0.00000000000E+00 0. -1.
<mgrwt>
<rscale>  0 0.15812027E+04</rscale>
<asrwt>0</asrwt>
<pdfrwt beam="1">  1        2 0.94873012E-01 0.15812027E+04</pdfrwt>
<pdfrwt beam="2">  1       -2 0.15593575E+00 0.15812027E+04</pdfrwt>
<totfact> 0.12432985E+01</totfact>
</mgrwt>
</event>
<event>
 6    1  0.1528034E-005  0.2260157E+04  0.7818608E-02  0.8493798E-01
         -2   -1    0    0    0  501 -0.00000000000E+00  0.00000000000E+00  0.37956699208E+03  0.37956699208E+03  0.00000000000E+00 0.  1.
          2   -1    0    0  501    0  0.00000000000E+00 -0.00000000000E+00 -0.33645634502E+04  0.33645634502E+04  0.00000000000E+00 0. -1.
         23    2    1    2    0    0 -0.95555767919E+03 -0.55765441372E+03 -0.18612477582E+04  0.21671459579E+04  0.90606081948E+02 0.  0.
         11    1    3    3    0    0 -0.37835493166E+03 -0.25206880541E+03 -0.69536065218E+03  0.83079333987E+03  0.00000000000E+00 0.  1.
        -11    1    3    3    0    0 -0.57720274753E+03 -0.30558560832E+03 -0.11658871060E+04  0.13363526180E+04  0.00000000000E+00 0. -1.
         22    1    1    2    0    0  0.95555767919E+03  0.55765441372E+03 -0.11237486999E+04  0.15769844844E+04  0.00000000000E+00 0.  1.
<mgrwt>
<rscale>  0 0.22601568E+04</rscale>
<asrwt>0</asrwt>
<pdfrwt beam="1">  1        2 0.51762514E+00 0.22601568E+04</pdfrwt>
<pdfrwt beam="2">  1       -2 0.58394923E-01 0.22601568E+04</pdfrwt>
<totfact> 0.25199610E+00</totfact>
</mgrwt>
</event>
<event>
 6    1  0.1528034E-005  0.3028279E+04  0.7818608E-02  0.8235701E-01
         -1   -1    0    0    0  501 -0.00000000000E+00  0.00000000000E+00  0.12209427116E+04  0.12209427116E+04  0.00000000000E+00 0.  1.
          1   -1    0    0  501    0  0.00000000000E+00 -0.00000000000E+00 -0.18777444498E+04  0.18777444498E+04  0.00000000000E+00 0. -1.
         23    2    1    2    0    0 -0.96133040109E+03 -0.54978673518E+03 -0.13832808661E+04  0.17742274536E+04  0.89417606696E+02 0.  0.
         13    1    3    3    0    0 -0.68457312857E+03 -0.37263346551E+03 -0.91174793820E+03  0.11994917135E+04  0.00000000000E+00 0.  1.
        -13    1    3    3    0    0 -0.27675727252E+03 -0.17715326967E+03 -0.47153292794E+03  0.57473574013E+03  0.00000000000E+00 0. -1.
         22    1    1    2    0    0  0.96133040109E+03  0.54978673518E+03  0.72647912791E+03  0.13244597078E+04  0.00000000000E+00 0.  1.
<mgrwt>
<rscale>  0 0.30282790E+04</rscale>
<asrwt>0</asrwt>
<pdfrwt beam="1">  1        1 0.28888376E+00 0.30282790E+04</pdfrwt>
<pdfrwt beam="2">  1       -1 0.18783734E+00 0.30282790E+04</pdfrwt>
<totfact> 0.56052005E-01</totfact>
</mgrwt>
</event>
<event>
 6    1  0.1528034E-005  0.4122295E+04  0.7818608E-02  0.7980320E-01
          1   -1    0    0  501    0  0.00000000000E+00  0.00000000000E+00  0.47654851812E+04  0.47654851812E+04  0.00000000000E+00 0. -1.
         -1   -1    0    0    0  501 -0.00000000000E+00 -0.00000000000E+00 -0.89147874666E+03  0.89147874666E+03  0.00000000000E+00 0.  1.
         23    2    1    2    0    0 -0.11561963069E+04 -0.60111919394E+03  0.41273558203E+04  0.43294398804E+04  0.10416057186E+03 0.  0.
         11    1    3    3    0    0 -0.29910521319E+03 -0.16346558755E+03  0.12355364151E+04  0.12816923032E+04  0.00000000000E+00 0.  1.
        -11    1    3    3    0    0 -0.85709109369E+03 -0.43765360639E+03  0.28918194052E+04  0.30477475772E+04  0.00000000000E+00 0. -1.
         22    1    1    2    0    0  0.11561963069E+04  0.60111919394E+03 -0.25334938581E+03  0.13275240475E+04  0.00000000000E+00 0.  1.
<mgrwt>
<rscale>  0 0.41222949E+04</rscale>
<asrwt>0</asrwt>
<pdfrwt beam="1">  1        1 0.73315155E+00 0.41222949E+04</pdfrwt>
<pdfrwt beam="2">  1       -1 0.13715058E+00 0.41222949E+04</pdfrwt>
<totfact> 0.56458439E-03</totfact>
</mgrwt>
</event>
<event>
 6    1  0.1528034E-005  0.3277545E+04  0.7818608E-02  0.8168633E-01
          1   -1    0    0  501    0  0.00000000000E+00  0.00000000000E+00  0.27498154450E+04  0.27498154450E+04  0.00000000000E+00 0. -1.
         -1   -1    0    0    0  501 -0.00000000000E+00 -0.00000000000E+00 -0.97663861956E+03  0.97663861956E+03  0.00000000000E+00 0.  1.
         23    2    1    2    0    0 -0.89937438172E+03 -0.13664946336E+04  0.96102330030E+03  0.19000435930E+04  0.10206865154E+03 0.  0.
         13    1    3    3    0    0 -0.18861560533E+03 -0.36692057690E+03  0.23845552399E+03  0.47651609967E+03  0.00000000000E+00 0.  1.
        -13    1    3    3    0    0 -0.71075877639E+03 -0.99957405667E+03  0.72256777631E+03  0.14235274934E+04  0.00000000000E+00 0. -1.
         22    1    1    2    0    0  0.89937438172E+03  0.13664946336E+04  0.81215352512E+03  0.18264104715E+04  0.00000000000E+00 0.  1.
<mgrwt>
<rscale>  0 0.32775454E+04</rscale>
<asrwt>0</asrwt>
<pdfrwt beam="1">  1        1 0.42304853E+00 0.32775454E+04</pdfrwt>
<pdfrwt beam="2">  1       -1 0.15025210E+00 0.32775454E+04</pdfrwt>
<totfact> 0.26106848E-01</totfact>
</mgrwt>
</event>
<event>
 6    1  0.1528034E-005  0.4078358E+04  0.7818608E-02  0.7988923E-01
         -2   -1    0    0    0  501 -0.00000000000E+00  0.00000000000E+00  0.11652007648E+04  0.11652007648E+04  0.00000000000E+00 0.  1.
          2   -1    0    0  501    0  0.00000000000E+00 -0.00000000000E+00 -0.35686996443E+04  0.35686996443E+04  0.00000000000E+00 0. -1.
         23    2    1    2    0    0  0.11596340212E+04  0.14942707262E+04 -0.20837247652E+04  0.28156064925E+04  0.90193998133E+02 0.  0.
         11    1    3    3    0    0  0.54736641260E+03  0.69973713771E+03 -0.91209850152E+03  0.12732500650E+04  0.00000000000E+00 0.  1.
        -11    1    3    3    0    0  0.61226760865E+03  0.79453358845E+03 -0.11716262637E+04  0.15423564275E+04  0.00000000000E+00 0. -1.
         22    1    1    2    0    0 -0.11596340212E+04 -0.14942707262E+04 -0.31977411426E+03  0.19182939166E+04  0.00000000000E+00 0.  1.
<mgrwt>
<rscale>  0 0.40783583E+04</rscale>
<asrwt>0</asrwt>
<pdfrwt beam="1">  1        2 0.54903071E+00 0.40783583E+04</pdfrwt>
<pdfrwt beam="2">  1       -2 0.17926166E+00 0.40783583E+04</pdfrwt>
<totfact> 0.10434396E-01</totfact>
</mgrwt>
</event>
<event>
 6    1  0.1528034E-005  0.1782660E+04  0.7818608E-02  0.8715575E-01
         -1   -1    0    0    0  501 -0.00000000000E+00  0.00000000000E+00  0.78259947165E+03  0.78259947165E+03  0.00000000000E+00 0.  1.
          1   -1    0    0  501    0  0.00000000000E+00 -0.00000000000E+00 -0.10151674974E+04  0.10151674974E+04  0.00000000000E+00 0. -1.
         23    2    1    2    0    0  0.40109356358E+03  0.47184336086E+03 -0.75971484759E+03  0.98450441881E+03  0.92574818848E+02 0.  0.
         13    1    3    3    0    0  0.34371801835E+02  0.79718075695E+02 -0.13824153141E+03  0.16323943568E+03  0.00000000000E+00 0.  1.
        -13    1    3    3    0    0  0.36672176174E+03  0.39212528516E+03 -0.62147331618E+03  0.82126498314E+03  0.00000000000E+00 0. -1.
         22    1    1    2    0    0 -0.40109356358E+03 -0.47184336086E+03  0.52714682181E+03  0.81326255027E+03  0.00000000000E+00 0.  1.
<mgrwt>
<rscale>  0 0.17826604E+04</rscale>
<asrwt>0</asrwt>
<pdfrwt beam="1">  1        1 0.15617961E+00 0.17826604E+04</pdfrwt>
<pdfrwt beam="2">  1       -1 0.12039992E+00 0.17826604E+04</pdfrwt>
<totfact> 0.85454830E+00</totfact>
</mgrwt>
</event>
<event>
 6    1  0.1528034E-005  0.7612429E+03  0.7818608E-02  0.9617875E-01
         -2   -1    0    0    0  501 -0.00000000000E+00  0.00000000000E+00  0.46431793489E+03  0.46431793489E+03  0.00000000000E+00 0.  1.
          2   -1    0    0  501    0  0.00000000000E+00 -0.00000000000E+00 -0.31201185187E+03  0.31201185187E+03  0.00000000000E+00 0. -1.
         23    2    1    2    0    0  0.22622540810E+03 -0.23830553026E+03 -0.10761769437E+03  0.35736936970E+03  0.90353955286E+02 0.  0.
         11    1    3    3    0    0  0.55298301427E+02 -0.12158974234E+03 -0.35794826168E+02  0.13828679316E+03  0.00000000000E+00 0. -1.
        -11    1    3    3    0    0  0.17092710667E+03 -0.11671578792E+03 -0.71822868198E+02  0.21908257653E+03  0.00000000000E+00 0.  1.
         22    1    1    2    0    0 -0.22622540810E+03  0.23830553026E+03  0.25992377739E+03  0.41896041707E+03  0.00000000000E+00 0. -1.
<mgrwt>
<rscale>  0 0.76124293E+03</rscale>
<asrwt>0</asrwt>
<pdfrwt beam="1">  1        2 0.48001823E-01 0.76124293E+03</pdfrwt>
<pdfrwt beam="2">  1       -2 0.71433528E-01 0.76124293E+03</pdfrwt>
<totfact> 0.18849029E+02</totfact>
</mgrwt>
</event>
<event>
 6    1  0.1528034E-005  0.2970893E+04  0.7818608E-02  0.8252092E-01
          2   -1    0    0  501    0  0.00000000000E+00  0.00000000000E+00  0.28224196680E+04  0.28224196680E+04  0.00000000000E+00 0.  1.
         -2   -1    0    0    0  501 -0.00000000000E+00 -0.00000000000E+00 -0.78179429580E+03  0.78179429580E+03  0.00000000000E+00 0. -1.
         23    2    1    2    0    0  0.13132943802E+03  0.40958716593E+03  0.27443053325E+04  0.27794870064E+04  0.96577392620E+02 0.  0.
         13    1    3    3    0    0  0.62646221945E+02  0.20322587183E+03  0.16615559804E+04  0.16751100203E+04  0.00000000000E+00 0.  1.
        -13    1    3    3    0    0  0.68683216078E+02  0.20636129410E+03  0.10827493521E+04  0.11043769861E+04  0.00000000000E+00 0. -1.
         22    1    1    2    0    0 -0.13132943802E+03 -0.40958716593E+03 -0.70367996030E+03  0.82472695743E+03  0.00000000000E+00 0. -1.
<mgrwt>
<rscale>  0 0.29708932E+04</rscale>
<asrwt>0</asrwt>
<pdfrwt beam="1">  1        2 0.43421841E+00 0.29708932E+04</pdfrwt>
<pdfrwt beam="2">  1       -2 0.12027605E+00 0.29708932E+04</pdfrwt>
<totfact> 0.10148407E+00</totfact>
</mgrwt>
</event>
<event>
 6    1  0.1528034E-005  0.3179196E+04  0.7818608E-02  0.8194333E-01
          2   -1    0    0  501    0  0.00000000000E+00  0.00000000000E+00  0.18625553872E+04  0.18625553872E+04  0.00000000000E+00 0. -1.
         -2   -1    0    0    0  501 -0.00000000000E+00 -0.00000000000E+00 -0.13566426155E+04  0.13566426155E+04  0.00000000000E+00 0.  1.
         23    2    1    2    0    0 -0.28714227348E+03 -0.54134914971E+03 -0.12308832003E+04  0.13774678825E+04  0.82672411042E+02 0.  0.
         13    1    3    3    0    0 -0.26142041981E+03 -0.48409485192E+03 -0.11522223879E+04  0.12768339331E+04  0.00000000000E+00 0.  1.
        -13    1    3    3    0    0 -0.25721853666E+02 -0.57254297781E+02 -0.78660812356E+02  0.10063394940E+03  0.00000000000E+00 0. -1.
         22    1    1    2    0    0  0.28714227348E+03  0.54134914971E+03  0.17367959720E+04  0.18417301201E+04  0.00000000000E+00 0. -1.
<mgrwt>
<rscale>  0 0.31791961E+04</rscale>
<asrwt>0</asrwt>
<pdfrwt beam="1">  1        2 0.28654698E+00 0.31791961E+04</pdfrwt>
<pdfrwt beam="2">  1       -2 0.20871425E+00 0.31791961E+04</pdfrwt>
<totfact> 0.78429429E-01</totfact>
</mgrwt>
</event>
<event>
 6    1  0.1528034E-005  0.1788173E+04  0.7818608E-02  0.8712614E-01
         -2   -1    0    0    0  501 -0.00000000000E+00  0.00000000000E+00  0.44858238193E+03  0.44858238193E+03  0.00000000000E+00 0.  1.
          2   -1    0    0  501    0  0.00000000000E+00 -0.00000000000E+00 -0.17820383088E+04  0.17820383088E+04  0.00000000000E+00 0. -1.
         23    2    1    2    0    0 -0.49486724337E+03 -0.40150168951E+03 -0.14464490836E+04  0.15834231562E+04  0.94428517209E+02 0.  0.
         13    1    3    3    0    0 -0.25966219081E+03 -0.23591013703E+03 -0.89847665803E+03  0.96454048703E+03  0.00000000000E+00 0.  1.
        -13    1    3    3    0    0 -0.23520505256E+03 -0.16559155248E+03 -0.54797242560E+03  0.61888266919E+03  0.00000000000E+00 0. -1.
         22    1    1    2    0    0  0.49486724337E+03  0.40150168951E+03  0.11299315674E+03  0.64719753453E+03  0.00000000000E+00 0.  1.
<mgrwt>
<rscale>  0 0.17881734E+04</rscale>
<asrwt>0</asrwt>
<pdfrwt beam="1">  1        2 0.27415974E+00 0.17881734E+04</pdfrwt>
<pdfrwt beam="2">  1       -2 0.69012674E-01 0.17881734E+04</pdfrwt>
<totfact> 0.15996318E+01</totfact>
</mgrwt>
</event>
<event>
 6    1  0.1528034E-005  0.2436736E+04  0.7818608E-02  0.8425877E-01
          1   -1    0    0  501    0  0.00000000000E+00  0.00000000000E+00  0.12912222588E+04  0.12912222588E+04  0.00000000000E+00 0. -1.
         -1   -1    0    0    0  501 -0.00000000000E+00 -0.00000000000E+00 -0.11496243266E+04  0.11496243266E+04  0.00000000000E+00 0.  1.
         23    2    1    2    0    0 -0.45120682939E+02  0.28977721346E+03 -0.11117998946E+04  0.11535964846E+04  0.93161870807E+02 0.  0.
         11    1    3    3    0    0 -0.72977774835E+02  0.19489472235E+03 -0.71606064843E+03  0.74568931912E+03  0.00000000000E+00 0. -1.
        -11    1    3    3    0    0  0.27857091895E+02  0.94882491112E+02 -0.39573924620E+03  0.40790716550E+03  0.00000000000E+00 0.  1.
         22    1    1    2    0    0  0.45120682939E+02 -0.28977721346E+03  0.12533978269E+04  0.12872501007E+04  0.00000000000E+00 0. -1.
<mgrwt>
<rscale>  0 0.24367359E+04</rscale>
<asrwt>0</asrwt>
<pdfrwt beam="1">  1        1 0.19864958E+00 0.24367359E+04</pdfrwt>
<pdfrwt beam="2">  1       -1 0.17686528E+00 0.24367359E+04</pdfrwt>
<totfact> 0.17974693E+00</totfact>
</mgrwt>
</event>
<event>
 6    1  0.1528034E-005  0.1352417E+04  0.7818608E-02  0.8989001E-01
          3   -1    0    0  501    0  0.00000000000E+00  0.00000000000E+00  0.16412320726E+04  0.16412320726E+04  0.00000000000E+00 0. -1.
         -3   -1    0    0    0  501 -0.00000000000E+00 -0.00000000000E+00 -0.27860649432E+03  0.27860649432E+03  0.00000000000E+00 0.  1.
         23    2    1    2    0    0 -0.13042576825E+02 -0.31614031331E+03  0.15277738119E+04  0.15629229668E+04  0.92306951860E+02 0.  0.
         11    1    3    3    0    0  0.35951966610E+02 -0.18120631070E+03  0.78998564635E+03  0.81129870725E+03  0.00000000000E+00 0. -1.
        -11    1    3    3    0    0 -0.48994543436E+02 -0.13493400260E+03  0.73778816555E+03  0.75162425957E+03  0.00000000000E+00 0.  1.
         22    1    1    2    0    0  0.13042576825E+02  0.31614031331E+03 -0.16514823365E+03  0.35691560009E+03  0.00000000000E+00 0.  1.
<mgrwt>
<rscale>  0 0.13524170E+04</rscale>
<asrwt>0</asrwt>
<pdfrwt beam="1">  1        3 0.25249723E+00 0.13524170E+04</pdfrwt>
<pdfrwt beam="2">  1       -3 0.42862539E-01 0.13524170E+04</pdfrwt>
<totfact> 0.99450943E-01</totfact>
</mgrwt>
</event>
<event>
 6    1  0.1528034E-005  0.2305600E+04  0.7818608E-02  0.8475716E-01
          1   -1    0    0  501    0  0.00000000000E+00  0.00000000000E+00  0.12343940697E+04  0.12343940697E+04  0.00000000000E+00 0. -1.
         -1   -1    0    0    0  501 -0.00000000000E+00 -0.00000000000E+00 -0.10765994421E+04  0.10765994421E+04  0.00000000000E+00 0.  1.
         23    2    1    2    0    0  0.24750327811E+03 -0.32700971200E+03  0.11577853753E+04  0.12301721945E+04  0.68289299053E+02 0.  0.
         11    1    3    3    0    0  0.15563082230E+03 -0.25232092115E+03  0.86285814796E+03  0.91236559755E+03  0.00000000000E+00 0.  1.
        -11    1    3    3    0    0  0.91872455813E+02 -0.74688790854E+02  0.29492722736E+03  0.31780659694E+03  0.00000000000E+00 0. -1.
         22    1    1    2    0    0 -0.24750327811E+03  0.32700971200E+03 -0.99999074768E+03  0.10808213173E+04  0.00000000000E+00 0.  1.
<mgrwt>
<rscale>  0 0.23056001E+04</rscale>
<asrwt>0</asrwt>
<pdfrwt beam="1">  1        1 0.18990678E+00 0.23056001E+04</pdfrwt>
<pdfrwt beam="2">  1       -1 0.16563068E+00 0.23056001E+04</pdfrwt>
<totfact> 0.24158212E+00</totfact>
</mgrwt>
</event>
<event>
 6    1  0.1528034E-005  0.1690765E+04  0.7818608E-02  0.8766649E-01
         -2   -1    0    0    0  501 -0.00000000000E+00  0.00000000000E+00  0.19283644783E+03  0.19283644783E+03  0.00000000000E+00 0.  1.
          2   -1    0    0  501    0  0.00000000000E+00 -0.00000000000E+00 -0.37061018653E+04  0.37061018653E+04  0.00000000000E+00 0. -1.
         23    2    1    2    0    0  0.14324425439E+03 -0.80211867197E+03 -0.22598191399E+04  0.24039330117E+04  0.90543358074E+02 0.  0.
         13    1    3    3    0    0 -0.72119417944E+01 -0.16369191161E+03 -0.44041034202E+03  0.46990246157E+03  0.00000000000E+00 0. -1.
        -13    1    3    3    0    0  0.15045619618E+03 -0.63842676036E+03 -0.18194087978E+04  0.19340305502E+04  0.00000000000E+00 0.  1.
         22    1    1    2    0    0 -0.14324425439E+03  0.80211867197E+03 -0.12534462776E+04  0.14950053014E+04  0.00000000000E+00 0.  1.
<mgrwt>
<rscale>  0 0.16907649E+04</rscale>
<asrwt>0</asrwt>
<pdfrwt beam="1">  1        2 0.57016948E+00 0.16907649E+04</pdfrwt>
<pdfrwt beam="2">  1       -2 0.29667148E-01 0.16907649E+04</pdfrwt>
<totfact> 0.58341073E+00</totfact>
</mgrwt>
</event>
<event>
 6    1  0.1528034E-005  0.2116340E+04  0.7818608E-02  0.8554080E-01
         -2   -1    0    0    0  501 -0.00000000000E+00  0.00000000000E+00  0.14888435694E+04  0.14888435694E+04  0.00000000000E+00 0.  1.
          2   -1    0    0  501    0  0.00000000000E+00 -0.00000000000E+00 -0.75207585596E+03  0.75207585596E+03  0.00000000000E+00 0. -1.
         23    2    1    2    0    0  0.58487454517E+02 -0.38737888460E+03  0.14076649359E+04  0.14640112804E+04  0.91242943971E+02 0.  0.
         11    1    3    3    0    0  0.52699739735E+02 -0.29203404675E+03  0.11875222122E+04  0.12240384600E+04  0.00000000000E+00 0. -1.
        -11    1    3    3    0    0  0.57877147817E+01 -0.95344837851E+02  0.22014272368E+03  0.23997282041E+03  0.00000000000E+00 0.  1.
         22    1    1    2    0    0 -0.58487454517E+02  0.38737888460E+03 -0.67089722247E+03  0.77690814495E+03  0.00000000000E+00 0. -1.
<mgrwt>
<rscale>  0 0.21163396E+04</rscale>
<asrwt>0</asrwt>
<pdfrwt beam="1">  1        2 0.11570398E+00 0.21163396E+04</pdfrwt>
<pdfrwt beam="2">  1       -2 0.22905286E+00 0.21163396E+04</pdfrwt>
<totfact> 0.29794295E+00</totfact>
</mgrwt>
</event>
<event>
 6    1  0.1528034E-005  0.1263929E+04  0.7818608E-02  0.9058669E-01
          2   -1    0    0  501    0  0.00000000000E+00  0.00000000000E+00  0.76901230273E+03  0.76901230273E+03  0.00000000000E+00 0. -1.
         -2   -1    0    0    0  501 -0.00000000000E+00 -0.00000000000E+00 -0.51934012224E+03  0.51934012224E+03  0.00000000000E+00 0.  1.
         23    2    1    2    0    0 -0.57678617259E+01  0.61157999806E+03  0.27434002260E+03  0.67624796927E+03  0.89361656724E+02 0.  0.
         13    1    3    3    0    0 -0.35774923040E+02  0.41037494853E+03  0.15330140510E+03  0.43953243829E+03  0.00000000000E+00 0. -1.
        -13    1    3    3    0    0  0.30007061314E+02  0.20120504952E+03  0.12103861750E+03  0.23671553099E+03  0.00000000000E+00 0.  1.
         22    1    1    2    0    0  0.57678617259E+01 -0.61157999806E+03 -0.24667842113E+02  0.61210445570E+03  0.00000000000E+00 0.  1.
<mgrwt>
<rscale>  0 0.12639287E+04</rscale>
<asrwt>0</asrwt>
<pdfrwt beam="1">  1        2 0.11830958E+00 0.12639287E+04</pdfrwt>
<pdfrwt beam="2">  1       -2 0.79898481E-01 0.12639287E+04</pdfrwt>
<totfact> 0.49458463E+01</totfact>
</mgrwt>
</event>
<event>
 6    1  0.1528034E-005  0.6906832E+04  0.7818608E-02  0.7587121E-01
          2   -1    0    0  501    0  0.00000000000E+00  0.00000000000E+00  0.28604092129E+04  0.28604092129E+04  0.00000000000E+00 0.  1.
         -2   -1    0    0    0  501 -0.00000000000E+00 -0.00000000000E+00 -0.41693624263E+04  0.41693624263E+04  0.00000000000E+00 0. -1.
         23    2    1    2    0    0 -0.18909782835E+04 -0.18442596214E+04 -0.29178653844E+04  0.39369265423E+04  0.91431822920E+02 0.  0.
         13    1    3    3    0    0 -0.13760697682E+04 -0.12932610586E+04 -0.20521831222E+04  0.27888255126E+04  0.00000000000E+00 0.  1.
        -13    1    3    3    0    0 -0.51490851524E+03 -0.55099856281E+03 -0.86568226221E+03  0.11481010297E+04  0.00000000000E+00 0. -1.
         22    1    1    2    0    0  0.18909782835E+04  0.18442596214E+04  0.16089121710E+04  0.30928450969E+04  0.00000000000E+00 0.  1.
<mgrwt>
<rscale>  0 0.69068322E+04</rscale>
<asrwt>0</asrwt>
<pdfrwt beam="1">  1        2 0.44006296E+00 0.69068322E+04</pdfrwt>
<pdfrwt beam="2">  1       -2 0.64144037E+00 0.69068322E+04</pdfrwt>
<totfact> 0.49318618E-04</totfact>
</mgrwt>
</event>
<event>
 6    1  0.1528034E-005  0.5688509E+04  0.7818608E-02  0.7730270E-01
         -2   -1    0    0    0  501 -0.00000000000E+00  0.00000000000E+00  0.23372801514E+04  0.23372801514E+04  0.00000000000E+00 0.  1.
          2   -1    0    0  501    0  0.00000000000E+00 -0.00000000000E+00 -0.34611958567E+04  0.34611958567E+04  0.00000000000E+00 0. -1.
         23    2    1    2    0    0  0.87253263491E+03 -0.26491680378E+04  0.19942551049E+01  0.27906399536E+04  0.90900396578E+02 0.  0.
         11    1    3    3    0    0  0.28978742404E+03 -0.83701285755E+03 -0.39508068696E+02  0.88663868759E+03  0.00000000000E+00 0. -1.
        -11    1    3    3    0    0  0.58274521087E+03 -0.18121551803E+04  0.41502323801E+02  0.19040012660E+04  0.00000000000E+00 0.  1.
         22    1    1    2    0    0 -0.87253263491E+03  0.26491680378E+04 -0.11259099605E+04  0.30078360545E+04  0.00000000000E+00 0.  1.
<mgrwt>
<rscale>  0 0.56885093E+04</rscale>
<asrwt>0</asrwt>
<pdfrwt beam="1">  1        2 0.53249167E+00 0.56885093E+04</pdfrwt>
<pdfrwt beam="2">  1       -2 0.35958156E+00 0.56885093E+04</pdfrwt>
<totfact> 0.80580243E-03</totfact>
</mgrwt>
</event>
<event>
 6    1  0.1528034E-005  0.2472818E+04  0.7818608E-02  0.8412734E-01
         -2   -1    0    0    0  501 -0.00000000000E+00  0.00000000000E+00  0.99705970807E+03  0.99705970807E+03  0.00000000000E+00 0.  1.
          2   -1    0    0  501    0  0.00000000000E+00 -0.00000000000E+00 -0.15332156501E+04  0.15332156501E+04  0.00000000000E+00 0. -1.
         23    2    1    2    0    0 -0.94197669953E+03 -0.15923393093E+03 -0.10688351244E+04  0.14364642874E+04  0.91354138894E+02 0.  0.
         11    1    3    3    0    0 -0.48932851769E+03 -0.55752914691E+02 -0.49449921485E+03  0.69791135484E+03  0.00000000000E+00 0. -1.
        -11    1    3    3    0    0 -0.45264818184E+03 -0.10348101624E+03 -0.57433590956E+03  0.73855293261E+03  0.00000000000E+00 0.  1.
         22    1    1    2    0    0  0.94197669953E+03  0.15923393093E+03  0.53267918235E+03  0.10938110708E+04  0.00000000000E+00 0.  1.
<mgrwt>
<rscale>  0 0.24728183E+04</rscale>
<asrwt>0</asrwt>
<pdfrwt beam="1">  1        2 0.23587933E+00 0.24728183E+04</pdfrwt>
<pdfrwt beam="2">  1       -2 0.15339380E+00 0.24728183E+04</pdfrwt>
<totfact> 0.30682622E+00</totfact>
</mgrwt>
</event>
<event>
 6    1  0.1528034E-005  0.1982035E+04  0.7818608E-02  0.8615066E-01
          1   -1    0    0  501    0  0.00000000000E+00  0.00000000000E+00  0.11195998165E+04  0.11195998165E+04  0.00000000000E+00 0. -1.
         -1   -1    0    0    0  501 -0.00000000000E+00 -0.00000000000E+00 -0.87720214528E+03  0.87720214528E+03  0.00000000000E+00 0.  1.
         23    2    1    2    0    0 -0.62360731988E+03  0.66160450414E+03  0.51326114153E+03  0.10481325626E+04  0.92402706438E+02 0.  0.
         13    1    3    3    0    0 -0.41888425043E+03  0.46905147773E+03  0.39887875923E+03  0.74469964991E+03  0.00000000000E+00 0.  1.
        -13    1    3    3    0    0 -0.20472306945E+03  0.19255302641E+03  0.11438238230E+03  0.30343291273E+03  0.00000000000E+00 0. -1.
         22    1    1    2    0    0  0.62360731988E+03 -0.66160450414E+03 -0.27086347031E+03  0.94866939914E+03  0.00000000000E+00 0. -1.
<mgrwt>
<rscale>  0 0.19820347E+04</rscale>
<asrwt>0</asrwt>
<pdfrwt beam="1">  1        1 0.17224613E+00 0.19820347E+04</pdfrwt>
<pdfrwt beam="2">  1       -1 0.13495418E+00 0.19820347E+04</pdfrwt>
<totfact> 0.52502847E+00</totfact>
</mgrwt>
</event>
<event>
 6    1  0.1528034E-005  0.9585777E+03  0.7818608E-02  0.9355180E-01
          1   -1    0    0  501    0  0.00000000000E+00  0.00000000000E+00  0.23550905601E+03  0.23550905601E+03  0.00000000000E+00 0. -1.
         -1   -1    0    0    0  501 -0.00000000000E+00 -0.00000000000E+00 -0.97540957240E+03  0.97540957240E+03  0.00000000000E+00 0.  1.
         23    2    1    2    0    0 -0.47067218367E+03  0.51048451033E+02 -0.32621464331E+03  0.58221022985E+03  0.91730634982E+02 0.  0.
         11    1    3    3    0    0 -0.11347034604E+03 -0.78963052968E+01 -0.39543503843E+02  0.12042242218E+03  0.00000000000E+00 0. -1.
        -11    1    3    3    0    0 -0.35720183763E+03  0.58944756330E+02 -0.28667113947E+03  0.46178780767E+03  0.00000000000E+00 0.  1.
         22    1    1    2    0    0  0.47067218367E+03 -0.51048451033E+02 -0.41368587308E+03  0.62870839856E+03  0.00000000000E+00 0. -1.
<mgrwt>
<rscale>  0 0.95857767E+03</rscale>
<asrwt>0</asrwt>
<pdfrwt beam="1">  1        1 0.36232162E-01 0.95857767E+03</pdfrwt>
<pdfrwt beam="2">  1       -1 0.15006301E+00 0.95857767E+03</pdfrwt>
<totfact> 0.42122688E+01</totfact>
</mgrwt>
</event>
<event>
 6    1  0.1528034E-005  0.1829449E+04  0.7818608E-02  0.8690794E-01
         -2   -1    0    0    0  501 -0.00000000000E+00  0.00000000000E+00  0.16888603680E+04  0.16888603680E+04  0.00000000000E+00 0.  1.
          2   -1    0    0  501    0  0.00000000000E+00 -0.00000000000E+00 -0.49543510431E+03  0.49543510431E+03  0.00000000000E+00 0. -1.
         23    2    1    2    0    0  0.13376923598E+03  0.72889075660E+03 -0.37354117954E+02  0.74763482001E+03  0.91578111020E+02 0.  0.
         13    1    3    3    0    0  0.75075382916E+00  0.20292181662E+03 -0.29446826856E+02  0.20504863546E+03  0.00000000000E+00 0.  1.
        -13    1    3    3    0    0  0.13301848216E+03  0.52596893998E+03 -0.79072910979E+01  0.54258618455E+03  0.00000000000E+00 0. -1.
         22    1    1    2    0    0 -0.13376923598E+03 -0.72889075660E+03  0.12307793816E+04  0.14366606523E+04  0.00000000000E+00 0.  1.
<mgrwt>
<rscale>  0 0.18294488E+04</rscale>
<asrwt>0</asrwt>
<pdfrwt beam="1">  1        2 0.76220786E-01 0.18294488E+04</pdfrwt>
<pdfrwt beam="2">  1       -2 0.25982467E+00 0.18294488E+04</pdfrwt>
<totfact> 0.32793075E+00</totfact>
</mgrwt>
</event>
<event>
 6    1  0.1528034E-005  0.1501128E+04  0.7818608E-02  0.8883703E-01
         -3   -1    0    0    0  501 -0.00000000000E+00  0.00000000000E+00  0.51256807121E+03  0.51256807121E+03  0.00000000000E+00 0.  1.
          3   -1    0    0  501    0  0.00000000000E+00 -0.00000000000E+00 -0.10990660817E+04  0.10990660817E+04  0.00000000000E+00 0. -1.
         23    2    1    2    0    0  0.41358678384E+03  0.22026236459E+03  0.33129660840E+03  0.58114082470E+03  0.91638847502E+02 0.  0.
         11    1    3    3    0    0  0.34805287983E+03  0.15164157196E+03  0.23808530024E+03  0.44813009684E+03  0.00000000000E+00 0. -1.
        -11    1    3    3    0    0  0.65533904009E+02  0.68620792629E+02  0.93211308161E+02  0.13301072786E+03  0.00000000000E+00 0.  1.
         22    1    1    2    0    0 -0.41358678384E+03 -0.22026236459E+03 -0.91779461886E+03  0.10304933282E+04  0.00000000000E+00 0. -1.
<mgrwt>
<rscale>  0 0.15011278E+04</rscale>
<asrwt>0</asrwt>
<pdfrwt beam="1">  1        3 0.16908709E+00 0.15011278E+04</pdfrwt>
<pdfrwt beam="2">  1       -3 0.78856626E-01 0.15011278E+04</pdfrwt>
<totfact> 0.89552698E-01</totfact>
</mgrwt>
</event>
<event>
 6    1  0.1528034E-005  0.1534889E+04  0.7818608E-02  0.8861578E-01
          2   -1    0    0  501    0  0.00000000000E+00  0.00000000000E+00  0.33081247813E+04  0.33081247813E+04  0.00000000000E+00 0. -1.
         -2   -1    0    0    0  501 -0.00000000000E+00 -0.00000000000E+00 -0.17803771354E+03  0.17803771354E+03  0.00000000000E+00 0.  1.
         23    2    1    2    0    0 -0.22200932211E+03  0.67821588195E+03  0.21941107630E+04  0.23091677775E+04  0.94174638633E+02 0.  0.
         13    1    3    3    0    0 -0.11862249842E+03  0.44702044795E+03  0.15313724969E+04  0.15996875639E+04  0.00000000000E+00 0. -1.
        -13    1    3    3    0    0 -0.10338682369E+03  0.23119543400E+03  0.66273826615E+03  0.70948021356E+03  0.00000000000E+00 0.  1.
         22    1    1    2    0    0  0.22200932211E+03 -0.67821588195E+03  0.93597630477E+03  0.11769947174E+04  0.00000000000E+00 0. -1.
<mgrwt>
<rscale>  0 0.15348889E+04</rscale>
<asrwt>0</asrwt>
<pdfrwt beam="1">  1        2 0.50894223E+00 0.15348889E+04</pdfrwt>
<pdfrwt beam="2">  1       -2 0.27390420E-01 0.15348889E+04</pdfrwt>
<totfact> 0.13005425E+01</totfact>
</mgrwt>
</event>
<event>
 6    1  0.1528034E-005  0.1548531E+04  0.7818608E-02  0.8852807E-01
         -2   -1    0    0    0  501 -0.00000000000E+00  0.00000000000E+00  0.16631020371E+03  0.16631020371E+03  0.00000000000E+00 0.  1.
          2   -1    0    0  501    0  0.00000000000E+00 -0.00000000000E+00 -0.36046302714E+04  0.36046302714E+04  0.00000000000E+00 0. -1.
         23    2    1    2    0    0 -0.18365005616E+03 -0.34681625017E+03 -0.33429627419E+04  0.33670817448E+04  0.88491398793E+02 0.  0.
         13    1    3    3    0    0 -0.15189792407E+03 -0.24697621039E+03 -0.21376966790E+04  0.21572708035E+04  0.00000000000E+00 0. -1.
        -13    1    3    3    0    0 -0.31752132092E+02 -0.99840039778E+02 -0.12052660628E+04  0.12098109413E+04  0.00000000000E+00 0.  1.
         22    1    1    2    0    0  0.18365005616E+03  0.34681625017E+03 -0.95357325808E+02  0.40385873037E+03  0.00000000000E+00 0.  1.
<mgrwt>
<rscale>  0 0.15485307E+04</rscale>
<asrwt>0</asrwt>
<pdfrwt beam="1">  1        2 0.55455843E+00 0.15485307E+04</pdfrwt>
<pdfrwt beam="2">  1       -2 0.25586189E-01 0.15485307E+04</pdfrwt>
<totfact> 0.92052203E+00</totfact>
</mgrwt>
</event>
<event>
 6    1  0.1528034E-005  0.2118675E+04  0.7818608E-02  0.8553061E-01
         -2   -1    0    0    0  501 -0.00000000000E+00  0.00000000000E+00  0.28898731487E+03  0.28898731487E+03  0.00000000000E+00 0.  1.
          2   -1    0    0  501    0  0.00000000000E+00 -0.00000000000E+00 -0.38832031149E+04  0.38832031149E+04  0.00000000000E+00 0. -1.
         23    2    1    2    0    0 -0.37181432671E+03  0.94773036065E+03 -0.12422102004E+04  0.16093074689E+04  0.10171340939E+03 0.  0.
         11    1    3    3    0    0 -0.14981268393E+03  0.35995302515E+03 -0.55383267593E+03  0.67730395947E+03  0.00000000000E+00 0. -1.
        -11    1    3    3    0    0 -0.22200164277E+03  0.58777733550E+03 -0.68837752445E+03  0.93200350948E+03  0.00000000000E+00 0.  1.
         22    1    1    2    0    0  0.37181432671E+03 -0.94773036065E+03 -0.23520055997E+04  0.25628829608E+04  0.00000000000E+00 0. -1.
<mgrwt>
<rscale>  0 0.21186755E+04</rscale>
<asrwt>0</asrwt>
<pdfrwt beam="1">  1        2 0.59741581E+00 0.21186755E+04</pdfrwt>
<pdfrwt beam="2">  1       -2 0.44459591E-01 0.21186755E+04</pdfrwt>
<totfact> 0.18843749E+00</totfact>
</mgrwt>
</event>
<event>
 6    1  0.1528034E-005  0.2169539E+04  0.7818608E-02  0.8531215E-01
         -2   -1    0    0    0  501 -0.00000000000E+00  0.00000000000E+00  0.37776624398E+03  0.37776624398E+03  0.00000000000E+00 0.  1.
          2   -1    0    0  501    0  0.00000000000E+00 -0.00000000000E+00 -0.31149543071E+04  0.31149543071E+04  0.00000000000E+00 0. -1.
         23    2    1    2    0    0  0.88683846414E+03  0.48053218988E+03 -0.73701824984E+03  0.12526149891E+04  0.91949786478E+02 0.  0.
         13    1    3    3    0    0  0.33015563866E+03  0.19940508462E+03 -0.33280201966E+03  0.50943333009E+03  0.00000000000E+00 0. -1.
        -13    1    3    3    0    0  0.55668282549E+03  0.28112710526E+03 -0.40421623018E+03  0.74318165898E+03  0.00000000000E+00 0.  1.
         22    1    1    2    0    0 -0.88683846414E+03 -0.48053218988E+03 -0.20001698133E+04  0.22401055620E+04  0.00000000000E+00 0. -1.
<mgrwt>
<rscale>  0 0.21695387E+04</rscale>
<asrwt>0</asrwt>
<pdfrwt beam="1">  1        2 0.47922375E+00 0.21695387E+04</pdfrwt>
<pdfrwt beam="2">  1       -2 0.58117882E-01 0.21695387E+04</pdfrwt>
<totfact> 0.37433783E+00</totfact>
</mgrwt>
</event>
<event>
 6    1  0.1528034E-005  0.1354880E+04  0.7818608E-02  0.8987142E-01
          2   -1    0    0  501    0  0.00000000000E+00  0.00000000000E+00  0.40780763477E+03  0.40780763477E+03  0.00000000000E+00 0. -1.
         -2   -1    0    0    0  501 -0.00000000000E+00 -0.00000000000E+00 -0.11253463989E+04  0.11253463989E+04  0.00000000000E+00 0.  1.
         23    2    1    2    0    0  0.30951738853E+03 -0.41378914368E+03  0.12989294048E+03  0.54060027533E+03  0.91400287042E+02 0.  0.
         13    1    3    3    0    0  0.25916974503E+03 -0.33380399762E+03  0.69077121446E+02  0.42821223041E+03  0.00000000000E+00 0. -1.
        -13    1    3    3    0    0  0.50347643496E+02 -0.79985146060E+02  0.60815819031E+02  0.11238804492E+03  0.00000000000E+00 0.  1.
         22    1    1    2    0    0 -0.30951738853E+03  0.41378914368E+03 -0.84743170466E+03  0.99255375839E+03  0.00000000000E+00 0.  1.
<mgrwt>
<rscale>  0 0.13548799E+04</rscale>
<asrwt>0</asrwt>
<pdfrwt beam="1">  1        2 0.62739637E-01 0.13548799E+04</pdfrwt>
<pdfrwt beam="2">  1       -2 0.17313021E+00 0.13548799E+04</pdfrwt>
<totfact> 0.15366889E+01</totfact>
</mgrwt>
</event>
<event>
 6    1  0.1528034E-005  0.3007191E+04  0.7818608E-02  0.8241681E-01
         -2   -1    0    0    0  501 -0.00000000000E+00  0.00000000000E+00  0.90618181531E+03  0.90618181531E+03  0.00000000000E+00 0. -1.
          2   -1    0    0  501    0  0.00000000000E+00 -0.00000000000E+00 -0.24948623395E+04  0.24948623395E+04  0.00000000000E+00 0.  1.
         23    2    1    2    0    0  0.12191133499E+04 -0.54888699411E+03 -0.19501013470E+02  0.13395304806E+04  0.80295247777E+02 0.  0.
         11    1    3    3    0    0  0.80891552595E+02 -0.15591811819E+02 -0.38780561121E+01  0.82471735741E+02  0.00000000000E+00 0. -1.
        -11    1    3    3    0    0  0.11382217973E+04 -0.53329518229E+03 -0.15622957358E+02  0.12570587449E+04  0.00000000000E+00 0.  1.
         22    1    1    2    0    0 -0.12191133499E+04  0.54888699411E+03 -0.15691795107E+04  0.20615136742E+04  0.00000000000E+00 0.  1.
<mgrwt>
<rscale>  0 0.30071906E+04</rscale>
<asrwt>0</asrwt>
<pdfrwt beam="1">  1        2 0.38382497E+00 0.30071906E+04</pdfrwt>
<pdfrwt beam="2">  1       -2 0.13941259E+00 0.30071906E+04</pdfrwt>
<totfact> 0.10886049E+00</totfact>
</mgrwt>
</event>
<event>
 6    1  0.1528034E-005  0.8252546E+03  0.7818608E-02  0.9524165E-01
          2   -1    0    0  501    0  0.00000000000E+00  0.00000000000E+00  0.30338415225E+03  0.30338415225E+03  0.00000000000E+00 0. -1.
         -2   -1    0    0    0  501 -0.00000000000E+00 -0.00000000000E+00 -0.56120693403E+03  0.56120693403E+03  0.00000000000E+00 0.  1.
         23    2    1    2    0    0 -0.33736045353E+03 -0.17733451544E+03  0.21434755086E+02  0.39210364956E+03  0.89589158368E+02 0.  0.
         13    1    3    3    0    0 -0.18035744526E+03 -0.44581286448E+02  0.51915217453E+01  0.18585814768E+03  0.00000000000E+00 0.  1.
        -13    1    3    3    0    0 -0.15700300827E+03 -0.13275322899E+03  0.16243233341E+02  0.20624550187E+03  0.00000000000E+00 0. -1.
         22    1    1    2    0    0  0.33736045353E+03  0.17733451544E+03 -0.27925753686E+03  0.47248743673E+03  0.00000000000E+00 0.  1.
<mgrwt>
<rscale>  0 0.82525460E+03</rscale>
<asrwt>0</asrwt>
<pdfrwt beam="1">  1        2 0.46674486E-01 0.82525460E+03</pdfrwt>
<pdfrwt beam="2">  1       -2 0.86339527E-01 0.82525460E+03</pdfrwt>
<totfact> 0.12689786E+02</totfact>
</mgrwt>
</event>
<event>
 6    1  0.1528034E-005  0.1581996E+04  0.7818608E-02  0.8831685E-01
          1   -1    0    0  501    0  0.00000000000E+00  0.00000000000E+00  0.79847319039E+03  0.79847319039E+03  0.00000000000E+00 0. -1.
         -1   -1    0    0    0  501 -0.00000000000E+00 -0.00000000000E+00 -0.78359287874E+03  0.78359287874E+03  0.00000000000E+00 0.  1.
         23    2    1    2    0    0  0.78445694256E+03  0.19633457473E+02  0.82103421430E+02  0.79448933391E+03  0.93349678653E+02 0.  0.
         13    1    3    3    0    0  0.20164746541E+03  0.45203681512E+02  0.13371836832E+02  0.20708423201E+03  0.00000000000E+00 0.  1.
        -13    1    3    3    0    0  0.58280947715E+03 -0.25570224039E+02  0.68731584598E+02  0.58740510189E+03  0.00000000000E+00 0. -1.
         22    1    1    2    0    0 -0.78445694256E+03 -0.19633457473E+02 -0.67223109786E+02  0.78757673522E+03  0.00000000000E+00 0. -1.
<mgrwt>
<rscale>  0 0.15819961E+04</rscale>
<asrwt>0</asrwt>
<pdfrwt beam="1">  1        1 0.12284203E+00 0.15819961E+04</pdfrwt>
<pdfrwt beam="2">  1       -1 0.12055275E+00 0.15819961E+04</pdfrwt>
<totfact> 0.13048893E+01</totfact>
</mgrwt>
</event>
<event>
 6    1  0.1528034E-005  0.8697318E+03  0.7818608E-02  0.9464230E-01
          2   -1    0    0  501    0  0.00000000000E+00  0.00000000000E+00  0.15545782301E+04  0.15545782301E+04  0.00000000000E+00 0. -1.
         -2   -1    0    0    0  501 -0.00000000000E+00 -0.00000000000E+00 -0.12164608245E+03  0.12164608245E+03  0.00000000000E+00 0.  1.
         23    2    1    2    0    0  0.17412946173E+03  0.21388962612E+03  0.93791662381E+02  0.30897631717E+03  0.10295458725E+03 0.  0.
         13    1    3    3    0    0  0.23631659384E+02  0.98930914097E+02  0.11061720487E+02  0.10231394211E+03  0.00000000000E+00 0. -1.
        -13    1    3    3    0    0  0.15049780235E+03  0.11495871202E+03  0.82729941894E+02  0.20666237506E+03  0.00000000000E+00 0.  1.
         22    1    1    2    0    0 -0.17412946173E+03 -0.21388962612E+03  0.13391404853E+04  0.13672479954E+04  0.00000000000E+00 0. -1.
<mgrwt>
<rscale>  0 0.86973180E+03</rscale>
<asrwt>0</asrwt>
<pdfrwt beam="1">  1        2 0.23916587E+00 0.86973180E+03</pdfrwt>
<pdfrwt beam="2">  1       -2 0.18714783E-01 0.86973180E+03</pdfrwt>
<totfact> 0.28528852E+02</totfact>
</mgrwt>
</event>
<event>
 6    1  0.1528034E-005  0.1176022E+04  0.7818608E-02  0.9134107E-01
          1   -1    0    0  501    0  0.00000000000E+00  0.00000000000E+00  0.90348633559E+03  0.90348633559E+03  0.00000000000E+00 0. -1.
         -1   -1    0    0    0  501 -0.00000000000E+00 -0.00000000000E+00 -0.38269199543E+03  0.38269199543E+03  0.00000000000E+00 0.  1.
         23    2    1    2    0    0  0.11976218309E+03 -0.25843214835E+03 -0.29621324811E+03  0.42094336000E+03  0.91218792856E+02 0.  0.
         11    1    3    3    0    0  0.22455791739E+01  0.20500976044E+01 -0.30757983053E+02  0.30907912377E+02  0.00000000000E+00 0. -1.
        -11    1    3    3    0    0  0.11751660392E+03 -0.26048224595E+03 -0.26545526506E+03  0.39003544762E+03  0.00000000000E+00 0.  1.
         22    1    1    2    0    0 -0.11976218309E+03  0.25843214835E+03  0.81700758827E+03  0.86523497102E+03  0.00000000000E+00 0. -1.
<mgrwt>
<rscale>  0 0.11760221E+04</rscale>
<asrwt>0</asrwt>
<pdfrwt beam="1">  1        1 0.13899790E+00 0.11760221E+04</pdfrwt>
<pdfrwt beam="2">  1       -1 0.58875691E-01 0.11760221E+04</pdfrwt>
<totfact> 0.52401349E+01</totfact>
</mgrwt>
</event>
<event>
 6    1  0.1528034E-005  0.2511466E+04  0.7818608E-02  0.8398912E-01
          1   -1    0    0  501    0  0.00000000000E+00  0.00000000000E+00  0.14439584681E+04  0.14439584681E+04  0.00000000000E+00 0. -1.
         -1   -1    0    0    0  501 -0.00000000000E+00 -0.00000000000E+00 -0.10920436439E+04  0.10920436439E+04  0.00000000000E+00 0.  1.
         23    2    1    2    0    0  0.60763671498E+03  0.43029738530E+03  0.11951588414E+04  0.14110849197E+04  0.91530199158E+02 0.  0.
         13    1    3    3    0    0  0.59211064372E+02  0.31637752693E+02  0.16153919237E+03  0.17493372519E+03  0.00000000000E+00 0.  1.
        -13    1    3    3    0    0  0.54842565060E+03  0.39865963260E+03  0.10336196490E+04  0.12361511945E+04  0.00000000000E+00 0. -1.
         22    1    1    2    0    0 -0.60763671498E+03 -0.43029738530E+03 -0.84324401715E+03  0.11249171924E+04  0.00000000000E+00 0.  1.
<mgrwt>
<rscale>  0 0.25114662E+04</rscale>
<asrwt>0</asrwt>
<pdfrwt beam="1">  1        1 0.22214746E+00 0.25114662E+04</pdfrwt>
<pdfrwt beam="2">  1       -1 0.16800671E+00 0.25114662E+04</pdfrwt>
<totfact> 0.16168641E+00</totfact>
</mgrwt>
</event>
<event>
 6    1  0.1528034E-005  0.3646120E+04  0.7818608E-02  0.8080008E-01
         -1   -1    0    0    0  501 -0.00000000000E+00  0.00000000000E+00  0.18831454364E+04  0.18831454364E+04  0.00000000000E+00 0.  1.
          1   -1    0    0  501    0  0.00000000000E+00 -0.00000000000E+00 -0.17648917350E+04  0.17648917350E+04  0.00000000000E+00 0. -1.
         23    2    1    2    0    0 -0.55649962934E+03 -0.69405871984E+03  0.16499543564E+04  0.18767336286E+04  0.91489837780E+02 0.  0.
         11    1    3    3    0    0 -0.12043182775E+03 -0.14150003953E+03  0.42690951926E+03  0.46559405490E+03  0.00000000000E+00 0. -1.
        -11    1    3    3    0    0 -0.43606780159E+03 -0.55255868031E+03  0.12230448372E+04  0.14111395737E+04  0.00000000000E+00 0.  1.
         22    1    1    2    0    0  0.55649962934E+03  0.69405871984E+03 -0.15317006550E+04  0.17713035428E+04  0.00000000000E+00 0. -1.
<mgrwt>
<rscale>  0 0.36461200E+04</rscale>
<asrwt>0</asrwt>
<pdfrwt beam="1">  1        1 0.27152180E+00 0.36461200E+04</pdfrwt>
<pdfrwt beam="2">  1       -1 0.28971468E+00 0.36461200E+04</pdfrwt>
<totfact> 0.13356778E-01</totfact>
</mgrwt>
</event>
<event>
 6    1  0.1528034E-005  0.4453369E+04  0.7818608E-02  0.7918852E-01
          2   -1    0    0  501    0  0.00000000000E+00  0.00000000000E+00  0.45977362217E+04  0.45977362217E+04  0.00000000000E+00 0.  1.
         -2   -1    0    0    0  501 -0.00000000000E+00 -0.00000000000E+00 -0.10783837171E+04  0.10783837171E+04  0.00000000000E+00 0. -1.
         23    2    1    2    0    0  0.60495650107E+03 -0.16525974479E+04  0.34971172262E+04  0.39161355353E+04  0.96114222508E+02 0.  0.
         13    1    3    3    0    0  0.41003969865E+03 -0.99331375731E+03  0.20942377766E+04  0.23538556965E+04  0.00000000000E+00 0. -1.
        -13    1    3    3    0    0  0.19491680241E+03 -0.65928369063E+03  0.14028794496E+04  0.15622798388E+04  0.00000000000E+00 0.  1.
         22    1    1    2    0    0 -0.60495650107E+03  0.16525974479E+04  0.22235278428E+02  0.17599844035E+04  0.00000000000E+00 0.  1.
<mgrwt>
<rscale>  0 0.44533690E+04</rscale>
<asrwt>0</asrwt>
<pdfrwt beam="1">  1        2 0.70734402E+00 0.44533690E+04</pdfrwt>
<pdfrwt beam="2">  1       -2 0.16590519E+00 0.44533690E+04</pdfrwt>
<totfact> 0.16878280E-02</totfact>
</mgrwt>
</event>
<event>
 6    1  0.1528034E-005  0.2803413E+04  0.7818608E-02  0.8302209E-01
         -3   -1    0    0    0  501 -0.00000000000E+00  0.00000000000E+00  0.14551714800E+04  0.14551714800E+04  0.00000000000E+00 0.  1.
          3   -1    0    0  501    0  0.00000000000E+00 -0.00000000000E+00 -0.13502060971E+04  0.13502060971E+04  0.00000000000E+00 0. -1.
         23    2    1    2    0    0 -0.13309075063E+04 -0.36114411616E+03 -0.18997712895E+03  0.13951538544E+04  0.92860674967E+02 0.  0.
         11    1    3    3    0    0 -0.26646257823E+03 -0.71304759048E+02 -0.72679644530E+00  0.27583908804E+03  0.00000000000E+00 0.  1.
        -11    1    3    3    0    0 -0.10644449281E+04 -0.28983935712E+03 -0.18925033251E+03  0.11193147663E+04  0.00000000000E+00 0. -1.
         22    1    1    2    0    0  0.13309075063E+04  0.36114411616E+03  0.29494251183E+03  0.14102237228E+04  0.00000000000E+00 0.  1.
<mgrwt>
<rscale>  0 0.28034132E+04</rscale>
<asrwt>0</asrwt>
<pdfrwt beam="1">  1        3 0.20772402E+00 0.28034132E+04</pdfrwt>
<pdfrwt beam="2">  1       -3 0.22387253E+00 0.28034132E+04</pdfrwt>
<totfact> 0.31070257E-02</totfact>
</mgrwt>
</event>
<event>
 6    1  0.1528034E-005  0.2321353E+04  0.7818608E-02  0.8469549E-01
         -1   -1    0    0    0  501 -0.00000000000E+00  0.00000000000E+00  0.11259504235E+04  0.11259504235E+04  0.00000000000E+00 0.  1.
          1   -1    0    0  501    0  0.00000000000E+00 -0.00000000000E+00 -0.11964733089E+04  0.11964733089E+04  0.00000000000E+00 0. -1.
         23    2    1    2    0    0  0.44134894829E+03 -0.31142919605E+03  0.99041880363E+03  0.11318884301E+04  0.92005289744E+02 0.  0.
         13    1    3    3    0    0  0.16783506243E+03 -0.15544821413E+03  0.34800285656E+03  0.41645977432E+03  0.00000000000E+00 0.  1.
        -13    1    3    3    0    0  0.27351388586E+03 -0.15598098192E+03  0.64241594707E+03  0.71542865579E+03  0.00000000000E+00 0. -1.
         22    1    1    2    0    0 -0.44134894829E+03  0.31142919605E+03 -0.10609416891E+04  0.11905353023E+04  0.00000000000E+00 0. -1.
<mgrwt>
<rscale>  0 0.23213527E+04</rscale>
<asrwt>0</asrwt>
<pdfrwt beam="1">  1        1 0.18407282E+00 0.23213527E+04</pdfrwt>
<pdfrwt beam="2">  1       -1 0.17322314E+00 0.23213527E+04</pdfrwt>
<totfact> 0.22602524E+00</totfact>
</mgrwt>
</event>
<event>
 6    1  0.1528034E-005  0.3762040E+04  0.7818608E-02  0.8054350E-01
         -1   -1    0    0    0  501 -0.00000000000E+00  0.00000000000E+00  0.17361946743E+04  0.17361946743E+04  0.00000000000E+00 0.  1.
          1   -1    0    0  501    0  0.00000000000E+00 -0.00000000000E+00 -0.20379256030E+04  0.20379256030E+04  0.00000000000E+00 0. -1.
         23    2    1    2    0    0  0.17540134493E+04 -0.17945324695E+02 -0.82936901342E+03  0.19423759821E+04  0.89923747751E+02 0.  0.
         13    1    3    3    0    0  0.99833070206E+03 -0.54050134172E+02 -0.48076995690E+03  0.11093806196E+04  0.00000000000E+00 0. -1.
        -13    1    3    3    0    0  0.75568274719E+03  0.36104809477E+02 -0.34859905652E+03  0.83299536246E+03  0.00000000000E+00 0.  1.
         22    1    1    2    0    0 -0.17540134493E+04  0.17945324695E+02  0.52763808469E+03  0.18317442953E+04  0.00000000000E+00 0.  1.
<mgrwt>
<rscale>  0 0.37620396E+04</rscale>
<asrwt>0</asrwt>
<pdfrwt beam="1">  1        1 0.31352702E+00 0.37620396E+04</pdfrwt>
<pdfrwt beam="2">  1       -1 0.26710687E+00 0.37620396E+04</pdfrwt>
<totfact> 0.12094873E-01</totfact>
</mgrwt>
</event>
<event>
 6    1  0.1528034E-005  0.6426061E+03  0.7818608E-02  0.9820753E-01
         -2   -1    0    0    0  501 -0.00000000000E+00  0.00000000000E+00  0.47365094987E+03  0.47365094987E+03  0.00000000000E+00 0.  1.
          2   -1    0    0  501    0  0.00000000000E+00 -0.00000000000E+00 -0.21795721374E+03  0.21795721374E+03  0.00000000000E+00 0. -1.
         23    2    1    2    0    0 -0.24381532363E+03  0.11221457614E+02 -0.89431773404E+02  0.26889851092E+03  0.68822481326E+02 0.  0.
         13    1    3    3    0    0 -0.57621322798E+02  0.31854495861E+02 -0.16562509610E+02  0.67891402048E+02  0.00000000000E+00 0.  1.
        -13    1    3    3    0    0 -0.18619400083E+03 -0.20633038247E+02 -0.72869263794E+02  0.20100710887E+03  0.00000000000E+00 0. -1.
         22    1    1    2    0    0  0.24381532363E+03 -0.11221457614E+02  0.34512550953E+03  0.42270965269E+03  0.00000000000E+00 0.  1.
<mgrwt>
<rscale>  0 0.64260607E+03</rscale>
<asrwt>0</asrwt>
<pdfrwt beam="1">  1        2 0.33531879E-01 0.64260607E+03</pdfrwt>
<pdfrwt beam="2">  1       -2 0.72869377E-01 0.64260607E+03</pdfrwt>
<totfact> 0.26993715E+02</totfact>
</mgrwt>
</event>
<event>
 6    1  0.1528034E-005  0.3463927E+04  0.7818608E-02  0.8122392E-01
          1   -1    0    0  501    0  0.00000000000E+00  0.00000000000E+00  0.91390592672E+03  0.91390592672E+03  0.00000000000E+00 0. -1.
         -1   -1    0    0    0  501 -0.00000000000E+00 -0.00000000000E+00 -0.32822820091E+04  0.32822820091E+04  0.00000000000E+00 0.  1.
         23    2    1    2    0    0  0.16246425929E+04  0.13470192234E+03 -0.48074497990E+03  0.17020429237E+04  0.90698488524E+02 0.  0.
         13    1    3    3    0    0  0.66414725469E+03  0.99774797855E+02 -0.20038932681E+03  0.70085837978E+03  0.00000000000E+00 0. -1.
        -13    1    3    3    0    0  0.96049533820E+03  0.34927124482E+02 -0.28035565308E+03  0.10011845439E+04  0.00000000000E+00 0.  1.
         22    1    1    2    0    0 -0.16246425929E+04 -0.13470192234E+03 -0.18876311024E+04  0.24941450121E+04  0.00000000000E+00 0.  1.
<mgrwt>
<rscale>  0 0.34639267E+04</rscale>
<asrwt>0</asrwt>
<pdfrwt beam="1">  1        1 0.14060091E+00 0.34639267E+04</pdfrwt>
<pdfrwt beam="2">  1       -1 0.50496647E+00 0.34639267E+04</pdfrwt>
<totfact> 0.20059921E-02</totfact>
</mgrwt>
</event>
<event>
 6    1  0.1528034E-005  0.1180176E+04  0.7818608E-02  0.9130387E-01
          2   -1    0    0  501    0  0.00000000000E+00  0.00000000000E+00  0.10972628822E+04  0.10972628822E+04  0.00000000000E+00 0. -1.
         -2   -1    0    0    0  501 -0.00000000000E+00 -0.00000000000E+00 -0.31733867701E+03  0.31733867701E+03  0.00000000000E+00 0.  1.
         23    2    1    2    0    0  0.25730630091E+03 -0.24115257135E+03  0.95413819446E+03  0.10212675927E+04  0.90811379395E+02 0.  0.
         13    1    3    3    0    0  0.19300315536E+03 -0.22675013495E+03  0.76003029954E+03  0.81627930141E+03  0.00000000000E+00 0. -1.
        -13    1    3    3    0    0  0.64303145549E+02 -0.14402436405E+02  0.19410789492E+03  0.20498829130E+03  0.00000000000E+00 0.  1.
         22    1    1    2    0    0 -0.25730630091E+03  0.24115257135E+03 -0.17421398926E+03  0.39333396651E+03  0.00000000000E+00 0.  1.
<mgrwt>
<rscale>  0 0.11801762E+04</rscale>
<asrwt>0</asrwt>
<pdfrwt beam="1">  1        2 0.16880967E+00 0.11801762E+04</pdfrwt>
<pdfrwt beam="2">  1       -2 0.48821335E-01 0.11801762E+04</pdfrwt>
<totfact> 0.85822948E+01</totfact>
</mgrwt>
</event>
<event>
 6    1  0.1528034E-005  0.1255439E+04  0.7818608E-02  0.9065668E-01
          2   -1    0    0  501    0  0.00000000000E+00  0.00000000000E+00  0.51898073426E+03  0.51898073426E+03  0.00000000000E+00 0. -1.
         -2   -1    0    0    0  501 -0.00000000000E+00 -0.00000000000E+00 -0.75924214895E+03  0.75924214895E+03  0.00000000000E+00 0.  1.
         23    2    1    2    0    0  0.59300272255E+03  0.17804161335E+03 -0.40032339236E+02  0.62749811214E+03  0.93809634492E+02 0.  0.
         11    1    3    3    0    0  0.41036374294E+03  0.15816197963E+03 -0.15378554545E+01  0.43979083474E+03  0.00000000000E+00 0. -1.
        -11    1    3    3    0    0  0.18263897960E+03  0.19879633722E+02 -0.38494483781E+02  0.18770727740E+03  0.00000000000E+00 0.  1.
         22    1    1    2    0    0 -0.59300272255E+03 -0.17804161335E+03 -0.20022907545E+03  0.65072477107E+03  0.00000000000E+00 0. -1.
<mgrwt>
<rscale>  0 0.12554394E+04</rscale>
<asrwt>0</asrwt>
<pdfrwt beam="1">  1        2 0.79843190E-01 0.12554394E+04</pdfrwt>
<pdfrwt beam="2">  1       -2 0.11680648E+00 0.12554394E+04</pdfrwt>
<totfact> 0.32890997E+01</totfact>
</mgrwt>
</event>
<event>
 6    1  0.1528034E-005  0.3003838E+04  0.7818608E-02  0.8242636E-01
          2   -1    0    0  501    0  0.00000000000E+00  0.00000000000E+00  0.30167417216E+04  0.30167417216E+04  0.00000000000E+00 0. -1.
         -2   -1    0    0    0  501 -0.00000000000E+00 -0.00000000000E+00 -0.74774749224E+03  0.74774749224E+03  0.00000000000E+00 0.  1.
         23    2    1    2    0    0 -0.61619763017E+03 -0.77313503613E+03 -0.27905437485E+03  0.10313611537E+04  0.91636138117E+02 0.  0.
         11    1    3    3    0    0 -0.41929168619E+03 -0.59127025161E+03 -0.20421071364E+03  0.75306576347E+03  0.00000000000E+00 0.  1.
        -11    1    3    3    0    0 -0.19690594398E+03 -0.18186478452E+03 -0.74843661213E+02  0.27829539027E+03  0.00000000000E+00 0. -1.
         22    1    1    2    0    0  0.61619763017E+03  0.77313503613E+03  0.25480486042E+04  0.27331280601E+04  0.00000000000E+00 0. -1.
<mgrwt>
<rscale>  0 0.30038382E+04</rscale>
<asrwt>0</asrwt>
<pdfrwt beam="1">  1        2 0.46411410E+00 0.30038382E+04</pdfrwt>
<pdfrwt beam="2">  1       -2 0.11503808E+00 0.30038382E+04</pdfrwt>
<totfact> 0.85632405E-01</totfact>
</mgrwt>
</event>
<event>
 6    1  0.1528034E-005  0.1953086E+04  0.7818608E-02  0.8628874E-01
          1   -1    0    0  501    0  0.00000000000E+00  0.00000000000E+00  0.89018226775E+03  0.89018226775E+03  0.00000000000E+00 0. -1.
         -1   -1    0    0    0  501 -0.00000000000E+00 -0.00000000000E+00 -0.10712817178E+04  0.10712817178E+04  0.00000000000E+00 0.  1.
         23    2    1    2    0    0 -0.19404235307E+03 -0.69571467328E+03 -0.74839403570E+03  0.10430444254E+04  0.78591980210E+02 0.  0.
         11    1    3    3    0    0 -0.44736497140E+02 -0.83558038468E+02 -0.75360528942E+02  0.12108884875E+03  0.00000000000E+00 0.  1.
        -11    1    3    3    0    0 -0.14930585593E+03 -0.61215663481E+03 -0.67303350676E+03  0.92195557668E+03  0.00000000000E+00 0. -1.
         22    1    1    2    0    0  0.19404235307E+03  0.69571467328E+03  0.56729458568E+03  0.91841956008E+03  0.00000000000E+00 0. -1.
<mgrwt>
<rscale>  0 0.19530858E+04</rscale>
<asrwt>0</asrwt>
<pdfrwt beam="1">  1        1 0.13695112E+00 0.19530858E+04</pdfrwt>
<pdfrwt beam="2">  1       -1 0.16481257E+00 0.19530858E+04</pdfrwt>
<totfact> 0.46422633E+00</totfact>
</mgrwt>
</event>
<event>
 6    1  0.1528034E-005  0.5636298E+04  0.7818608E-02  0.7737208E-01
          2   -1    0    0  501    0  0.00000000000E+00  0.00000000000E+00  0.39254552141E+04  0.39254552141E+04  0.00000000000E+00 0. -1.
         -2   -1    0    0    0  501 -0.00000000000E+00 -0.00000000000E+00 -0.20231954859E+04  0.20231954859E+04  0.00000000000E+00 0.  1.
         23    2    1    2    0    0  0.12902389928E+03 -0.20365449131E+04 -0.10988769513E+04  0.23194657062E+04  0.90709749012E+02 0.  0.
         11    1    3    3    0    0  0.11505920882E+03 -0.12729932732E+04 -0.71881630859E+03  0.14664403775E+04  0.00000000000E+00 0. -1.
        -11    1    3    3    0    0  0.13964690458E+02 -0.76355163981E+03 -0.38006064276E+03  0.85302532870E+03  0.00000000000E+00 0.  1.
         22    1    1    2    0    0 -0.12902389928E+03  0.20365449131E+04  0.30011366796E+04  0.36291849938E+04  0.00000000000E+00 0. -1.
<mgrwt>
<rscale>  0 0.56362978E+04</rscale>
<asrwt>0</asrwt>
<pdfrwt beam="1">  1        2 0.60391618E+00 0.56362978E+04</pdfrwt>
<pdfrwt beam="2">  1       -2 0.31126084E+00 0.56362978E+04</pdfrwt>
<totfact> 0.73323298E-03</totfact>
</mgrwt>
</event>
<event>
 6    1  0.1528034E-005  0.7224704E+04  0.7818608E-02  0.7554695E-01
         -2   -1    0    0    0  501 -0.00000000000E+00  0.00000000000E+00  0.30535454087E+04  0.30535454087E+04  0.00000000000E+00 0.  1.
          2   -1    0    0  501    0  0.00000000000E+00 -0.00000000000E+00 -0.42734214501E+04  0.42734214501E+04  0.00000000000E+00 0. -1.
         23    2    1    2    0    0 -0.24603929293E+04 -0.41148749806E+03 -0.32589386144E+04  0.41050681168E+04  0.89710779888E+02 0.  0.
         11    1    3    3    0    0 -0.20670720525E+04 -0.31270066331E+03 -0.27390485432E+04  0.34457155276E+04  0.00000000000E+00 0.  1.
        -11    1    3    3    0    0 -0.39332087676E+03 -0.98786834743E+02 -0.51989007112E+03  0.65935258919E+03  0.00000000000E+00 0. -1.
         22    1    1    2    0    0  0.24603929293E+04  0.41148749806E+03  0.20390625730E+04  0.32218987420E+04  0.00000000000E+00 0.  1.
<mgrwt>
<rscale>  0 0.72247039E+04</rscale>
<asrwt>0</asrwt>
<pdfrwt beam="1">  1        2 0.65744945E+00 0.72247039E+04</pdfrwt>
<pdfrwt beam="2">  1       -2 0.46977622E+00 0.72247039E+04</pdfrwt>
<totfact> 0.31616566E-04</totfact>
</mgrwt>
</event>
<event>
 6    1  0.1528034E-005  0.3731278E+04  0.7818608E-02  0.8061065E-01
          2   -1    0    0  501    0  0.00000000000E+00  0.00000000000E+00  0.16295904025E+04  0.16295904025E+04  0.00000000000E+00 0.  1.
         -2   -1    0    0    0  501 -0.00000000000E+00 -0.00000000000E+00 -0.21358796182E+04  0.21358796182E+04  0.00000000000E+00 0. -1.
         23    2    1    2    0    0  0.10182402430E+04  0.11918877775E+04  0.76537950512E+03  0.17469183116E+04  0.92239547155E+02 0.  0.
         13    1    3    3    0    0  0.55245344192E+03  0.59151529844E+03  0.36247448504E+03  0.88683871481E+03  0.00000000000E+00 0. -1.
        -13    1    3    3    0    0  0.46578680103E+03  0.60037247909E+03  0.40290502007E+03  0.86007959682E+03  0.00000000000E+00 0.  1.
         22    1    1    2    0    0 -0.10182402430E+04 -0.11918877775E+04 -0.12716687208E+04  0.20185517090E+04  0.00000000000E+00 0. -1.
<mgrwt>
<rscale>  0 0.37312780E+04</rscale>
<asrwt>0</asrwt>
<pdfrwt beam="1">  1        2 0.25070622E+00 0.37312780E+04</pdfrwt>
<pdfrwt beam="2">  1       -2 0.32859686E+00 0.37312780E+04</pdfrwt>
<totfact> 0.18329083E-01</totfact>
</mgrwt>
</event>
<event>
 6    1  0.1528034E-005  0.2914823E+04  0.7818608E-02  0.8268481E-01
          2   -1    0    0  501    0  0.00000000000E+00  0.00000000000E+00  0.92773246810E+03  0.92773246810E+03  0.00000000000E+00 0. -1.
         -2   -1    0    0    0  501 -0.00000000000E+00 -0.00000000000E+00 -0.22895055184E+04  0.22895055184E+04  0.00000000000E+00 0.  1.
         23    2    1    2    0    0  0.11608922238E+04  0.49209075829E+03  0.12196248495E+03  0.12701131297E+04  0.92132756030E+02 0.  0.
         13    1    3    3    0    0  0.73352711498E+03  0.34482831842E+03  0.46845541917E+02  0.81188860221E+03  0.00000000000E+00 0. -1.
        -13    1    3    3    0    0  0.42736510880E+03  0.14726243988E+03  0.75116943034E+02  0.45822452745E+03  0.00000000000E+00 0.  1.
         22    1    1    2    0    0 -0.11608922238E+04 -0.49209075829E+03 -0.14837355353E+04  0.19471248569E+04  0.00000000000E+00 0.  1.
<mgrwt>
<rscale>  0 0.29148232E+04</rscale>
<asrwt>0</asrwt>
<pdfrwt beam="1">  1        2 0.14272807E+00 0.29148232E+04</pdfrwt>
<pdfrwt beam="2">  1       -2 0.35223162E+00 0.29148232E+04</pdfrwt>
<totfact> 0.36462247E-01</totfact>
</mgrwt>
</event>
<event>
 6    1  0.1528034E-005  0.3168143E+04  0.7818608E-02  0.8197282E-01
          2   -1    0    0  501    0  0.00000000000E+00  0.00000000000E+00  0.16539828759E+04  0.16539828759E+04  0.00000000000E+00 0.  1.
         -2   -1    0    0    0  501 -0.00000000000E+00 -0.00000000000E+00 -0.15171151453E+04  0.15171151453E+04  0.00000000000E+00 0. -1.
         23    2    1    2    0    0 -0.12364379735E+04 -0.81841428830E+03  0.62272575092E+03  0.16107650999E+04  0.90531964012E+02 0.  0.
         11    1    3    3    0    0 -0.99039554329E+03 -0.69605632070E+03  0.49703022167E+03  0.13085934338E+04  0.00000000000E+00 0.  1.
        -11    1    3    3    0    0 -0.24604243020E+03 -0.12235796759E+03  0.12569552926E+03  0.30217166606E+03  0.00000000000E+00 0. -1.
         22    1    1    2    0    0  0.12364379735E+04  0.81841428830E+03 -0.48585802036E+03  0.15603329214E+04  0.00000000000E+00 0. -1.
<mgrwt>
<rscale>  0 0.31681430E+04</rscale>
<asrwt>0</asrwt>
<pdfrwt beam="1">  1        2 0.25445890E+00 0.31681430E+04</pdfrwt>
<pdfrwt beam="2">  1       -2 0.23340233E+00 0.31681430E+04</pdfrwt>
<totfact> 0.71512141E-01</totfact>
</mgrwt>
</event>
<event>
 6    1  0.1528034E-005  0.3461144E+04  0.7818608E-02  0.8123060E-01
          1   -1    0    0  501    0  0.00000000000E+00  0.00000000000E+00  0.21290473357E+04  0.21290473357E+04  0.00000000000E+00 0. -1.
         -1   -1    0    0    0  501 -0.00000000000E+00 -0.00000000000E+00 -0.14066761700E+04  0.14066761700E+04  0.00000000000E+00 0.  1.
         23    2    1    2    0    0  0.10439089210E+04  0.12787206070E+04  0.88827541527E+03  0.18766887122E+04  0.89750114483E+02 0.  0.
         11    1    3    3    0    0  0.43880029873E+03  0.57419979720E+03  0.34570546412E+03  0.80110135263E+03  0.00000000000E+00 0.  1.
        -11    1    3    3    0    0  0.60510862231E+03  0.70452080982E+03  0.54256995115E+03  0.10755873596E+04  0.00000000000E+00 0. -1.
         22    1    1    2    0    0 -0.10439089210E+04 -0.12787206070E+04 -0.16590424956E+03  0.16590347936E+04  0.00000000000E+00 0.  1.
<mgrwt>
<rscale>  0 0.34611444E+04</rscale>
<asrwt>0</asrwt>
<pdfrwt beam="1">  1        1 0.32754574E+00 0.34611444E+04</pdfrwt>
<pdfrwt beam="2">  1       -1 0.21641172E+00 0.34611444E+04</pdfrwt>
<totfact> 0.23188113E-01</totfact>
</mgrwt>
</event>
<event>
 6    1  0.1528034E-005  0.9470685E+03  0.7818608E-02  0.9368584E-01
         -2   -1    0    0    0  501 -0.00000000000E+00  0.00000000000E+00  0.27313488500E+03  0.27313488500E+03  0.00000000000E+00 0.  1.
          2   -1    0    0  501    0  0.00000000000E+00 -0.00000000000E+00 -0.82096680797E+03  0.82096680797E+03  0.00000000000E+00 0. -1.
         23    2    1    2    0    0  0.26755739261E+03  0.38421708409E+03 -0.27245120037E+03  0.55092191755E+03  0.10037717176E+03 0.  0.
         13    1    3    3    0    0  0.49065555549E+02  0.10586659905E+03 -0.25577998955E+02  0.11945459207E+03  0.00000000000E+00 0. -1.
        -13    1    3    3    0    0  0.21849183706E+03  0.27835048504E+03 -0.24687320141E+03  0.43146732548E+03  0.00000000000E+00 0.  1.
         22    1    1    2    0    0 -0.26755739261E+03 -0.38421708409E+03 -0.27538072261E+03  0.54317977542E+03  0.00000000000E+00 0.  1.
<mgrwt>
<rscale>  0 0.94706848E+03</rscale>
<asrwt>0</asrwt>
<pdfrwt beam="1">  1        2 0.12630258E+00 0.94706848E+03</pdfrwt>
<pdfrwt beam="2">  1       -2 0.42020752E-01 0.94706848E+03</pdfrwt>
<totfact> 0.17864579E+02</totfact>
</mgrwt>
</event>
<event>
 6    1  0.1528034E-005  0.2678899E+04  0.7818608E-02  0.8341884E-01
         -2   -1    0    0    0  501 -0.00000000000E+00  0.00000000000E+00  0.11593155277E+04  0.11593155277E+04  0.00000000000E+00 0.  1.
          2   -1    0    0  501    0  0.00000000000E+00 -0.00000000000E+00 -0.15475729212E+04  0.15475729212E+04  0.00000000000E+00 0. -1.
         23    2    1    2    0    0  0.33888323397E+03 -0.81722640165E+03  0.81968168736E+03  0.12096183794E+04  0.92723876639E+02 0.  0.
         11    1    3    3    0    0  0.25016247913E+03 -0.62311011712E+03  0.67280057842E+03  0.95053043210E+03  0.00000000000E+00 0. -1.
        -11    1    3    3    0    0  0.88720754832E+02 -0.19411628452E+03  0.14688110894E+03  0.25908794726E+03  0.00000000000E+00 0.  1.
         22    1    1    2    0    0 -0.33888323397E+03  0.81722640165E+03 -0.12079390809E+04  0.14972700695E+04  0.00000000000E+00 0.  1.
<mgrwt>
<rscale>  0 0.26788993E+04</rscale>
<asrwt>0</asrwt>
<pdfrwt beam="1">  1        2 0.23808814E+00 0.26788993E+04</pdfrwt>
<pdfrwt beam="2">  1       -2 0.17835624E+00 0.26788993E+04</pdfrwt>
<totfact> 0.19525122E+00</totfact>
</mgrwt>
</event>
<event>
 6    1  0.1528034E-005  0.2545588E+04  0.7818608E-02  0.8386922E-01
          2   -1    0    0  501    0  0.00000000000E+00  0.00000000000E+00  0.19860694079E+04  0.19860694079E+04  0.00000000000E+00 0. -1.
         -2   -1    0    0    0  501 -0.00000000000E+00 -0.00000000000E+00 -0.81568346801E+03  0.81568346801E+03  0.00000000000E+00 0.  1.
         23    2    1    2    0    0 -0.13927932524E+03  0.12064202931E+04  0.99956819286E+03  0.15753649451E+04  0.88258054371E+02 0.  0.
         13    1    3    3    0    0 -0.48761031835E+02  0.26207203666E+03  0.26122206741E+03  0.37322427457E+03  0.00000000000E+00 0. -1.
        -13    1    3    3    0    0 -0.90518293402E+02  0.94434825641E+03  0.73834612545E+03  0.12021406705E+04  0.00000000000E+00 0.  1.
         22    1    1    2    0    0  0.13927932524E+03 -0.12064202931E+04  0.17081774698E+03  0.12263879307E+04  0.00000000000E+00 0.  1.
<mgrwt>
<rscale>  0 0.25455875E+04</rscale>
<asrwt>0</asrwt>
<pdfrwt beam="1">  1        2 0.30554914E+00 0.25455875E+04</pdfrwt>
<pdfrwt beam="2">  1       -2 0.12548976E+00 0.25455875E+04</pdfrwt>
<totfact> 0.28694434E+00</totfact>
</mgrwt>
</event>
<event>
 6    1  0.1528034E-005  0.6676069E+03  0.7818608E-02  0.9774291E-01
          1   -1    0    0  501    0  0.00000000000E+00  0.00000000000E+00  0.12085892017E+04  0.12085892017E+04  0.00000000000E+00 0. -1.
         -1   -1    0    0    0  501 -0.00000000000E+00 -0.00000000000E+00 -0.92194062948E+02  0.92194062948E+02  0.00000000000E+00 0.  1.
         23    2    1    2    0    0 -0.30881003189E+03 -0.72312449462E+02  0.40790398513E+03  0.52454075041E+03  0.90358240437E+02 0.  0.
         13    1    3    3    0    0 -0.21685579468E+03 -0.11840347190E+02  0.30046596868E+03  0.37073768064E+03  0.00000000000E+00 0. -1.
        -13    1    3    3    0    0 -0.91954237210E+02 -0.60472102272E+02  0.10743801645E+03  0.15380306977E+03  0.00000000000E+00 0.  1.
         22    1    1    2    0    0  0.30881003189E+03  0.72312449462E+02  0.70849115361E+03  0.77624251423E+03  0.00000000000E+00 0. -1.
<mgrwt>
<rscale>  0 0.66760692E+03</rscale>
<asrwt>0</asrwt>
<pdfrwt beam="1">  1        1 0.18593679E+00 0.66760692E+03</pdfrwt>
<pdfrwt beam="2">  1       -1 0.14183703E-01 0.66760692E+03</pdfrwt>
<totfact> 0.38591262E+02</totfact>
</mgrwt>
</event>
<event>
 6    1  0.1528034E-005  0.3042154E+04  0.7818608E-02  0.8231795E-01
         -1   -1    0    0    0  501 -0.00000000000E+00  0.00000000000E+00  0.16152812701E+04  0.16152812701E+04  0.00000000000E+00 0.  1.
          1   -1    0    0  501    0  0.00000000000E+00 -0.00000000000E+00 -0.14323671305E+04  0.14323671305E+04  0.00000000000E+00 0. -1.
         23    2    1    2    0    0  0.12454857964E+04 -0.28035326564E+03 -0.73442221493E+03  0.14755991616E+04  0.90465869453E+02 0.  0.
         13    1    3    3    0    0  0.62603946408E+03 -0.14408408118E+03 -0.31751474226E+03  0.71659001150E+03  0.00000000000E+00 0. -1.
        -13    1    3    3    0    0  0.61944633227E+03 -0.13626918446E+03 -0.41690747267E+03  0.75900915012E+03  0.00000000000E+00 0.  1.
         22    1    1    2    0    0 -0.12454857964E+04  0.28035326564E+03  0.91733635453E+03  0.15720492390E+04  0.00000000000E+00 0.  1.
<mgrwt>
<rscale>  0 0.30421544E+04</rscale>
<asrwt>0</asrwt>
<pdfrwt beam="1">  1        1 0.22036417E+00 0.30421544E+04</pdfrwt>
<pdfrwt beam="2">  1       -1 0.24850481E+00 0.30421544E+04</pdfrwt>
<totfact> 0.44089946E-01</totfact>
</mgrwt>
</event>
<event>
 6    1  0.1528034E-005  0.2545263E+04  0.7818608E-02  0.8387036E-01
          1   -1    0    0  501    0  0.00000000000E+00  0.00000000000E+00  0.20908029514E+04  0.20908029514E+04  0.00000000000E+00 0. -1.
         -1   -1    0    0    0  501 -0.00000000000E+00 -0.00000000000E+00 -0.77462616115E+03  0.77462616115E+03  0.00000000000E+00 0.  1.
         23    2    1    2    0    0 -0.84583874792E+03 -0.33949334068E+03 -0.33794607037E+03  0.97682609607E+03  0.96347079099E+02 0.  0.
         11    1    3    3    0    0 -0.77198941896E+03 -0.28534169120E+03 -0.32245959347E+03  0.88395007390E+03  0.00000000000E+00 0. -1.
        -11    1    3    3    0    0 -0.73849328954E+02 -0.54151649471E+02 -0.15486476892E+02  0.92876022169E+02  0.00000000000E+00 0.  1.
         22    1    1    2    0    0  0.84583874792E+03  0.33949334068E+03  0.16541228606E+04  0.18886030165E+04  0.00000000000E+00 0. -1.
<mgrwt>
<rscale>  0 0.25452628E+04</rscale>
<asrwt>0</asrwt>
<pdfrwt beam="1">  1        1 0.32166199E+00 0.25452628E+04</pdfrwt>
<pdfrwt beam="2">  1       -1 0.11917326E+00 0.25452628E+04</pdfrwt>
<totfact> 0.14403040E+00</totfact>
</mgrwt>
</event>
<event>
 6    1  0.1528034E-005  0.2010184E+04  0.7818608E-02  0.8601874E-01
         -2   -1    0    0    0  501 -0.00000000000E+00  0.00000000000E+00  0.43675990581E+03  0.43675990581E+03  0.00000000000E+00 0.  1.
          2   -1    0    0  501    0  0.00000000000E+00 -0.00000000000E+00 -0.23129646786E+04  0.23129646786E+04  0.00000000000E+00 0. -1.
         23    2    1    2    0    0 -0.21391505760E+03  0.75850450598E+03 -0.17887458498E+04  0.19567947006E+04  0.91351232447E+02 0.  0.
         13    1    3    3    0    0 -0.84752878255E+02  0.17659339661E+03 -0.39356415772E+03  0.43961463163E+03  0.00000000000E+00 0.  1.
        -13    1    3    3    0    0 -0.12916217935E+03  0.58191110937E+03 -0.13951816921E+04  0.15171800690E+04  0.00000000000E+00 0. -1.
         22    1    1    2    0    0  0.21391505760E+03 -0.75850450598E+03 -0.87458923012E+02  0.79292988384E+03  0.00000000000E+00 0.  1.
<mgrwt>
<rscale>  0 0.20101843E+04</rscale>
<asrwt>0</asrwt>
<pdfrwt beam="1">  1        2 0.35584072E+00 0.20101843E+04</pdfrwt>
<pdfrwt beam="2">  1       -2 0.67193832E-01 0.20101843E+04</pdfrwt>
<totfact> 0.84096436E+00</totfact>
</mgrwt>
</event>
<event>
 6    1  0.1528034E-005  0.1511443E+04  0.7818608E-02  0.8876879E-01
         -1   -1    0    0    0  501 -0.00000000000E+00  0.00000000000E+00  0.43902833287E+03  0.43902833287E+03  0.00000000000E+00 0.  1.
          1   -1    0    0  501    0  0.00000000000E+00 -0.00000000000E+00 -0.13008609311E+04  0.13008609311E+04  0.00000000000E+00 0. -1.
         23    2    1    2    0    0  0.26807793750E+03 -0.37274546792E+02  0.37618711996E+03  0.47262922946E+03  0.92771045642E+02 0.  0.
         11    1    3    3    0    0  0.13384739466E+03 -0.58964931064E+02  0.15598964243E+03  0.21383347890E+03  0.00000000000E+00 0.  1.
        -11    1    3    3    0    0  0.13423054283E+03  0.21690384271E+02  0.22019747753E+03  0.25879575056E+03  0.00000000000E+00 0. -1.
         22    1    1    2    0    0 -0.26807793750E+03  0.37274546792E+02 -0.12380197182E+04  0.12672600345E+04  0.00000000000E+00 0. -1.
<mgrwt>
<rscale>  0 0.15114428E+04</rscale>
<asrwt>0</asrwt>
<pdfrwt beam="1">  1        1 0.20013245E+00 0.15114428E+04</pdfrwt>
<pdfrwt beam="2">  1       -1 0.67542821E-01 0.15114428E+04</pdfrwt>
<totfact> 0.19379134E+01</totfact>
</mgrwt>
</event>
<event>
 6    1  0.1528034E-005  0.1568584E+04  0.7818608E-02  0.8840084E-01
          2   -1    0    0  501    0  0.00000000000E+00  0.00000000000E+00  0.19214131134E+04  0.19214131134E+04  0.00000000000E+00 0.  1.
         -2   -1    0    0    0  501 -0.00000000000E+00 -0.00000000000E+00 -0.32013633894E+03  0.32013633894E+03  0.00000000000E+00 0. -1.
         23    2    1    2    0    0 -0.72822371149E+03 -0.26741259029E+03  0.66700918291E+03  0.10271873976E+04  0.91615676877E+02 0.  0.
         13    1    3    3    0    0 -0.45556360858E+03 -0.15703794631E+03  0.47020377711E+03  0.67326867598E+03  0.00000000000E+00 0.  1.
        -13    1    3    3    0    0 -0.27266010291E+03 -0.11037464397E+03  0.19680540580E+03  0.35391872160E+03  0.00000000000E+00 0. -1.
         22    1    1    2    0    0  0.72822371149E+03  0.26741259029E+03  0.93426759154E+03  0.12143620548E+04  0.00000000000E+00 0.  1.
<mgrwt>
<rscale>  0 0.15685843E+04</rscale>
<asrwt>0</asrwt>
<pdfrwt beam="1">  1        2 0.29560201E+00 0.15685843E+04</pdfrwt>
<pdfrwt beam="2">  1       -2 0.49251746E-01 0.15685843E+04</pdfrwt>
<totfact> 0.27717947E+01</totfact>
</mgrwt>
</event>
<event>
 6    1  0.1737655E-005  0.3903520E+04  0.7818608E-02  0.8024298E-01
          2   -1    0    0  501    0  0.00000000000E+00  0.00000000000E+00  0.24481321043E+04  0.24481321043E+04  0.00000000000E+00 0. -1.
         -2   -1    0    0    0  501 -0.00000000000E+00 -0.00000000000E+00 -0.15560298350E+04  0.15560298350E+04  0.00000000000E+00 0.  1.
         23    2    1    2    0    0 -0.14849521819E+04 -0.12649753414E+04  0.45134610019E+03  0.20042840436E+04  0.90529710219E+02 0.  0.
         13    1    3    3    0    0 -0.49597598603E+03 -0.47715273794E+03  0.17121662950E+03  0.70921227306E+03  0.00000000000E+00 0.  1.
        -13    1    3    3    0    0 -0.98897619591E+03 -0.78782260341E+03  0.28012947068E+03  0.12950717705E+04  0.00000000000E+00 0. -1.
         22    1    1    2    0    0  0.14849521819E+04  0.12649753414E+04  0.44075616918E+03  0.19998778957E+04  0.00000000000E+00 0. -1.
<mgrwt>
<rscale>  0 0.39035197E+04</rscale>
<asrwt>0</asrwt>
<pdfrwt beam="1">  1        2 0.37663571E+00 0.39035197E+04</pdfrwt>
<pdfrwt beam="2">  1       -2 0.23938921E+00 0.39035197E+04</pdfrwt>
<totfact> 0.22160233E-01</totfact>
</mgrwt>
</event>
<event>
 6    1  0.1528034E-005  0.2405421E+04  0.7818608E-02  0.8437477E-01
          2   -1    0    0  501    0  0.00000000000E+00  0.00000000000E+00  0.26162650085E+04  0.26162650085E+04  0.00000000000E+00 0. -1.
         -2   -1    0    0    0  501 -0.00000000000E+00 -0.00000000000E+00 -0.55289205414E+03  0.55289205414E+03  0.00000000000E+00 0.  1.
         23    2    1    2    0    0  0.91260918132E+02  0.19776896160E+01  0.26109091678E+04  0.26140639431E+04  0.90283715823E+02 0.  0.
         13    1    3    3    0    0 -0.65717422551E+00  0.43980667192E+01  0.12691660307E+04  0.12691738212E+04  0.00000000000E+00 0.  1.
        -13    1    3    3    0    0  0.91918092358E+02 -0.24203771032E+01  0.13417431371E+04  0.13448901218E+04  0.00000000000E+00 0. -1.
         22    1    1    2    0    0 -0.91260918132E+02 -0.19776896160E+01 -0.54753621343E+03  0.55509311962E+03  0.00000000000E+00 0.  1.
<mgrwt>
<rscale>  0 0.24054207E+04</rscale>
<asrwt>0</asrwt>
<pdfrwt beam="1">  1        2 0.40250230E+00 0.24054207E+04</pdfrwt>
<pdfrwt beam="2">  1       -2 0.85060317E-01 0.24054207E+04</pdfrwt>
<totfact> 0.32186501E+00</totfact>
</mgrwt>
</event>
<event>
 6    1  0.2008723E-005  0.3386541E+04  0.7818608E-02  0.8141217E-01
         -2   -1    0    0    0  501 -0.00000000000E+00  0.00000000000E+00  0.14398487994E+04  0.14398487994E+04  0.00000000000E+00 0.  1.
          2   -1    0    0  501    0  0.00000000000E+00 -0.00000000000E+00 -0.19912960868E+04  0.19912960868E+04  0.00000000000E+00 0. -1.
         23    2    1    2    0    0 -0.43179437670E+03  0.34775358504E+03  0.13437643613E+04  0.14565041256E+04  0.91228665713E+02 0.  0.
         11    1    3    3    0    0 -0.11652021722E+03  0.14857388657E+03  0.46696468787E+03  0.50369353829E+03  0.00000000000E+00 0. -1.
        -11    1    3    3    0    0 -0.31527415948E+03  0.19917969847E+03  0.87679967345E+03  0.95281058731E+03  0.00000000000E+00 0.  1.
         22    1    1    2    0    0  0.43179437670E+03 -0.34775358504E+03 -0.18952116488E+04  0.19746407606E+04  0.00000000000E+00 0. -1.
<mgrwt>
<rscale>  0 0.33865412E+04</rscale>
<asrwt>0</asrwt>
<pdfrwt beam="1">  1        2 0.30635324E+00 0.33865412E+04</pdfrwt>
<pdfrwt beam="2">  1       -2 0.22151520E+00 0.33865412E+04</pdfrwt>
<totfact> 0.54172956E-01</totfact>
</mgrwt>
</event>
<event>
 6    1  0.1528034E-005  0.1936979E+04  0.7818608E-02  0.8636665E-01
          1   -1    0    0  501    0  0.00000000000E+00  0.00000000000E+00  0.90371145114E+03  0.90371145114E+03  0.00000000000E+00 0. -1.
         -1   -1    0    0    0  501 -0.00000000000E+00 -0.00000000000E+00 -0.10379110608E+04  0.10379110608E+04  0.00000000000E+00 0.  1.
         23    2    1    2    0    0  0.47390797009E+03  0.59881250644E+03  0.52629174767E+03  0.93196216553E+03  0.91680381319E+02 0.  0.
         11    1    3    3    0    0  0.16681199969E+03  0.28192522261E+03  0.21182670064E+03  0.39010078889E+03  0.00000000000E+00 0. -1.
        -11    1    3    3    0    0  0.30709597041E+03  0.31688728382E+03  0.31446504703E+03  0.54186137664E+03  0.00000000000E+00 0.  1.
         22    1    1    2    0    0 -0.47390797009E+03 -0.59881250644E+03 -0.66049135732E+03  0.10096603464E+04  0.00000000000E+00 0.  1.
<mgrwt>
<rscale>  0 0.19369792E+04</rscale>
<asrwt>0</asrwt>
<pdfrwt beam="1">  1        1 0.13903253E+00 0.19369792E+04</pdfrwt>
<pdfrwt beam="2">  1       -1 0.15967862E+00 0.19369792E+04</pdfrwt>
<totfact> 0.49530251E+00</totfact>
</mgrwt>
</event>
<event>
 6    1  0.1528034E-005  0.2408310E+04  0.7818608E-02  0.8436399E-01
          1   -1    0    0  501    0  0.00000000000E+00  0.00000000000E+00  0.17649874114E+04  0.17649874114E+04  0.00000000000E+00 0. -1.
         -1   -1    0    0    0  501 -0.00000000000E+00 -0.00000000000E+00 -0.82152959397E+03  0.82152959397E+03  0.00000000000E+00 0.  1.
         23    2    1    2    0    0  0.11902241422E+03 -0.68634578750E+03  0.15249966332E+04  0.16790897249E+04  0.92144983138E+02 0.  0.
         13    1    3    3    0    0  0.79782434381E+02 -0.23917784195E+03  0.49449195311E+03  0.55506177009E+03  0.00000000000E+00 0.  1.
        -13    1    3    3    0    0  0.39239979839E+02 -0.44716794554E+03  0.10305046801E+04  0.11240279548E+04  0.00000000000E+00 0. -1.
         22    1    1    2    0    0 -0.11902241422E+03  0.68634578750E+03 -0.58153881577E+03  0.90742728047E+03  0.00000000000E+00 0.  1.
<mgrwt>
<rscale>  0 0.24083101E+04</rscale>
<asrwt>0</asrwt>
<pdfrwt beam="1">  1        1 0.27153652E+00 0.24083101E+04</pdfrwt>
<pdfrwt beam="2">  1       -1 0.12638917E+00 0.24083101E+04</pdfrwt>
<totfact> 0.20978783E+00</totfact>
</mgrwt>
</event>
<event>
 6    1  0.1528034E-005  0.5742216E+04  0.7818608E-02  0.7723212E-01
         -2   -1    0    0    0  501 -0.00000000000E+00  0.00000000000E+00  0.26366418998E+04  0.26366418998E+04  0.00000000000E+00 0.  1.
          2   -1    0    0  501    0  0.00000000000E+00 -0.00000000000E+00 -0.31264239947E+04  0.31264239947E+04  0.00000000000E+00 0. -1.
         23    2    1    2    0    0  0.21171665793E+04 -0.46656411588E+03 -0.21329988346E+04  0.30427281118E+04  0.91836457037E+02 0.  0.
         11    1    3    3    0    0  0.12856434356E+04 -0.28904851617E+03 -0.12336736735E+04  0.18050980087E+04  0.00000000000E+00 0. -1.
        -11    1    3    3    0    0  0.83152314370E+03 -0.17751559971E+03 -0.89932516114E+03  0.12376301031E+04  0.00000000000E+00 0.  1.
         22    1    1    2    0    0 -0.21171665793E+04  0.46656411588E+03  0.16432167397E+04  0.27203377828E+04  0.00000000000E+00 0.  1.
<mgrwt>
<rscale>  0 0.57422158E+04</rscale>
<asrwt>0</asrwt>
<pdfrwt beam="1">  1        2 0.48098831E+00 0.57422158E+04</pdfrwt>
<pdfrwt beam="2">  1       -2 0.40563721E+00 0.57422158E+04</pdfrwt>
<totfact> 0.67788087E-03</totfact>
</mgrwt>
</event>
<event>
 6    1  0.1528034E-005  0.8997807E+03  0.7818608E-02  0.9425856E-01
         -1   -1    0    0    0  501 -0.00000000000E+00  0.00000000000E+00  0.17243765100E+03  0.17243765100E+03  0.00000000000E+00 0.  1.
          1   -1    0    0  501    0  0.00000000000E+00 -0.00000000000E+00 -0.11737651996E+04  0.11737651996E+04  0.00000000000E+00 0. -1.
         23    2    1    2    0    0  0.35112907511E+02  0.44240393739E+03 -0.44385850852E+03  0.63365398158E+03  0.86907034776E+02 0.  0.
         13    1    3    3    0    0 -0.13576016037E+02  0.23738632354E+03 -0.19455827228E+03  0.30722873584E+03  0.00000000000E+00 0. -1.
        -13    1    3    3    0    0  0.48688923548E+02  0.20501761385E+03 -0.24930023624E+03  0.32642524573E+03  0.00000000000E+00 0.  1.
         22    1    1    2    0    0 -0.35112907511E+02 -0.44240393739E+03 -0.55746904010E+03  0.71254886903E+03  0.00000000000E+00 0. -1.
<mgrwt>
<rscale>  0 0.89978067E+03</rscale>
<asrwt>0</asrwt>
<pdfrwt beam="1">  1        1 0.18057926E+00 0.89978067E+03</pdfrwt>
<pdfrwt beam="2">  1       -1 0.26528870E-01 0.89978067E+03</pdfrwt>
<totfact> 0.14217011E+02</totfact>
</mgrwt>
</event>
<event>
 6    1  0.2222070E-005  0.2865382E+04  0.7818608E-02  0.8283252E-01
          2   -1    0    0  501    0  0.00000000000E+00  0.00000000000E+00  0.97104983562E+03  0.97104983562E+03  0.00000000000E+00 0. -1.
         -2   -1    0    0    0  501 -0.00000000000E+00 -0.00000000000E+00 -0.21137983347E+04  0.21137983347E+04  0.00000000000E+00 0.  1.
         23    2    1    2    0    0  0.95222127950E+03 -0.19706106479E+03  0.55919780495E+03  0.11247003059E+04  0.81793427284E+02 0.  0.
         13    1    3    3    0    0  0.50876935193E+03 -0.11425034422E+03  0.25376785058E+03  0.57991164552E+03  0.00000000000E+00 0. -1.
        -13    1    3    3    0    0  0.44345192756E+03 -0.82810720570E+02  0.30542995437E+03  0.54478866042E+03  0.00000000000E+00 0.  1.
         22    1    1    2    0    0 -0.95222127950E+03  0.19706106479E+03 -0.17019463040E+04  0.19601478643E+04  0.00000000000E+00 0.  1.
<mgrwt>
<rscale>  0 0.28653820E+04</rscale>
<asrwt>0</asrwt>
<pdfrwt beam="1">  1        2 0.14939228E+00 0.28653820E+04</pdfrwt>
<pdfrwt beam="2">  1       -2 0.32519974E+00 0.28653820E+04</pdfrwt>
<totfact> 0.50607721E-01</totfact>
</mgrwt>
</event>
<event>
 6    1  0.1528034E-005  0.2026201E+04  0.7818608E-02  0.8594468E-01
         -1   -1    0    0    0  501 -0.00000000000E+00  0.00000000000E+00  0.31075483507E+03  0.31075483507E+03  0.00000000000E+00 0.  1.
          1   -1    0    0  501    0  0.00000000000E+00 -0.00000000000E+00 -0.33028381919E+04  0.33028381919E+04  0.00000000000E+00 0. -1.
         23    2    1    2    0    0  0.13707793528E+03  0.31064382168E+03 -0.31974153315E+04  0.32167918625E+04  0.94842714587E+02 0.  0.
         13    1    3    3    0    0  0.13752171361E+03  0.25531773799E+03 -0.23995461692E+04  0.24170066585E+04  0.00000000000E+00 0. -1.
        -13    1    3    3    0    0 -0.44377832315E+00  0.55326083687E+02 -0.79786916224E+03  0.79978520400E+03  0.00000000000E+00 0.  1.
         22    1    1    2    0    0 -0.13707793528E+03 -0.31064382168E+03  0.20533197466E+03  0.39680116444E+03  0.00000000000E+00 0.  1.
<mgrwt>
<rscale>  0 0.20262013E+04</rscale>
<asrwt>0</asrwt>
<pdfrwt beam="1">  1        1 0.50812896E+00 0.20262013E+04</pdfrwt>
<pdfrwt beam="2">  1       -1 0.47808436E-01 0.20262013E+04</pdfrwt>
<totfact> 0.14418753E+00</totfact>
</mgrwt>
</event>
<event>
 6    1  0.1528034E-005  0.1104863E+04  0.7818608E-02  0.9200465E-01
         -1   -1    0    0    0  501 -0.00000000000E+00  0.00000000000E+00  0.63393609479E+03  0.63393609479E+03  0.00000000000E+00 0.  1.
          1   -1    0    0  501    0  0.00000000000E+00 -0.00000000000E+00 -0.48140548697E+03  0.48140548697E+03  0.00000000000E+00 0. -1.
         23    2    1    2    0    0 -0.14736551542E+03 -0.50898694756E+03 -0.66787983161E+02  0.54185666280E+03  0.91453268972E+02 0.  0.
         13    1    3    3    0    0 -0.12695386838E+03 -0.30741149775E+03 -0.66870841702E+02  0.33925038411E+03  0.00000000000E+00 0. -1.
        -13    1    3    3    0    0 -0.20411647035E+02 -0.20157544981E+03  0.82858540426E-01  0.20260627870E+03  0.00000000000E+00 0.  1.
         22    1    1    2    0    0  0.14736551542E+03  0.50898694756E+03  0.21931859098E+03  0.57348491896E+03  0.00000000000E+00 0.  1.
<mgrwt>
<rscale>  0 0.11048626E+04</rscale>
<asrwt>0</asrwt>
<pdfrwt beam="1">  1        1 0.74062382E-01 0.11048626E+04</pdfrwt>
<pdfrwt beam="2">  1       -1 0.97528630E-01 0.11048626E+04</pdfrwt>
<totfact> 0.46969352E+01</totfact>
</mgrwt>
</event>
<event>
 6    1  0.1528034E-005  0.3134211E+04  0.7818608E-02  0.8206411E-01
         -1   -1    0    0    0  501 -0.00000000000E+00  0.00000000000E+00  0.12673442723E+04  0.12673442723E+04  0.00000000000E+00 0.  1.
          1   -1    0    0  501    0  0.00000000000E+00 -0.00000000000E+00 -0.19377679742E+04  0.19377679742E+04  0.00000000000E+00 0. -1.
         23    2    1    2    0    0 -0.78148208085E+03 -0.10769524185E+04 -0.11794723453E+04  0.17804469259E+04  0.91079571961E+02 0.  0.
         13    1    3    3    0    0 -0.11099475491E+03 -0.15221036439E+03 -0.21144152333E+03  0.28318783242E+03  0.00000000000E+00 0. -1.
        -13    1    3    3    0    0 -0.67048732595E+03 -0.92474205412E+03 -0.96803082193E+03  0.14972590935E+04  0.00000000000E+00 0.  1.
         22    1    1    2    0    0  0.78148208085E+03  0.10769524185E+04  0.50904864338E+03  0.14246653206E+04  0.00000000000E+00 0. -1.
<mgrwt>
<rscale>  0 0.31342107E+04</rscale>
<asrwt>0</asrwt>
<pdfrwt beam="1">  1        1 0.29811815E+00 0.31342107E+04</pdfrwt>
<pdfrwt beam="2">  1       -1 0.19497604E+00 0.31342107E+04</pdfrwt>
<totfact> 0.45067114E-01</totfact>
</mgrwt>
</event>
<event>
 6    1  0.1528034E-005  0.3773796E+04  0.7818608E-02  0.8051802E-01
          2   -1    0    0  501    0  0.00000000000E+00  0.00000000000E+00  0.16801738258E+04  0.16801738258E+04  0.00000000000E+00 0. -1.
         -2   -1    0    0    0  501 -0.00000000000E+00 -0.00000000000E+00 -0.21190572527E+04  0.21190572527E+04  0.00000000000E+00 0.  1.
         23    2    1    2    0    0  0.17080597565E+04  0.67963718727E+03 -0.64274103213E+03  0.19496547050E+04  0.93073069394E+02 0.  0.
         11    1    3    3    0    0  0.84003155547E+03  0.30845755850E+03 -0.27055727961E+03  0.93487984315E+03  0.00000000000E+00 0.  1.
        -11    1    3    3    0    0  0.86802820102E+03  0.37117962878E+03 -0.37218375252E+03  0.10147748618E+04  0.00000000000E+00 0. -1.
         22    1    1    2    0    0 -0.17080597565E+04 -0.67963718727E+03  0.20385760518E+03  0.18495763735E+04  0.00000000000E+00 0. -1.
<mgrwt>
<rscale>  0 0.37737962E+04</rscale>
<asrwt>0</asrwt>
<pdfrwt beam="1">  1        2 0.25848828E+00 0.37737962E+04</pdfrwt>
<pdfrwt beam="2">  1       -2 0.32600881E+00 0.37737962E+04</pdfrwt>
<totfact> 0.17761892E-01</totfact>
</mgrwt>
</event>
<event>
 6    1  0.1528034E-005  0.4201694E+04  0.7818608E-02  0.7965050E-01
         -3   -1    0    0    0  501 -0.00000000000E+00  0.00000000000E+00  0.16136475010E+04  0.16136475010E+04  0.00000000000E+00 0.  1.
          3   -1    0    0  501    0  0.00000000000E+00 -0.00000000000E+00 -0.27351440457E+04  0.27351440457E+04  0.00000000000E+00 0. -1.
         23    2    1    2    0    0 -0.45055178210E+03  0.15887397447E+04  0.78143099015E+03  0.18292233123E+04  0.91283344226E+02 0.  0.
         11    1    3    3    0    0 -0.30332303422E+03  0.11089173816E+04  0.49861659035E+03  0.12531245455E+04  0.00000000000E+00 0.  1.
        -11    1    3    3    0    0 -0.14722874788E+03  0.47982236313E+03  0.28281439980E+03  0.57609876679E+03  0.00000000000E+00 0. -1.
         22    1    1    2    0    0  0.45055178210E+03 -0.15887397447E+04 -0.19029275348E+04  0.25195682344E+04  0.00000000000E+00 0. -1.
<mgrwt>
<rscale>  0 0.42016941E+04</rscale>
<asrwt>0</asrwt>
<pdfrwt beam="1">  1        3 0.42079138E+00 0.42016941E+04</pdfrwt>
<pdfrwt beam="2">  1       -3 0.24825347E+00 0.42016941E+04</pdfrwt>
<totfact> 0.12928158E-03</totfact>
</mgrwt>
</event>
<event>
 6    1  0.1528034E-005  0.1786714E+04  0.7818608E-02  0.8713397E-01
          1   -1    0    0  501    0  0.00000000000E+00  0.00000000000E+00  0.16939262252E+04  0.16939262252E+04  0.00000000000E+00 0. -1.
         -1   -1    0    0    0  501 -0.00000000000E+00 -0.00000000000E+00 -0.47114625891E+03  0.47114625891E+03  0.00000000000E+00 0.  1.
         23    2    1    2    0    0  0.57574636274E+03 -0.49344785310E+03  0.11797242917E+04  0.14055802531E+04  0.94508124045E+02 0.  0.
         13    1    3    3    0    0  0.15868404893E+03 -0.11481085067E+03  0.37827378434E+03  0.42597325589E+03  0.00000000000E+00 0.  1.
        -13    1    3    3    0    0  0.41706231381E+03 -0.37863700242E+03  0.80145050732E+03  0.97960699716E+03  0.00000000000E+00 0. -1.
         22    1    1    2    0    0 -0.57574636274E+03  0.49344785310E+03  0.43055674638E+02  0.75949223107E+03  0.00000000000E+00 0. -1.
<mgrwt>
<rscale>  0 0.17867143E+04</rscale>
<asrwt>0</asrwt>
<pdfrwt beam="1">  1        1 0.26060403E+00 0.17867143E+04</pdfrwt>
<pdfrwt beam="2">  1       -1 0.72484041E-01 0.17867143E+04</pdfrwt>
<totfact> 0.87258204E+00</totfact>
</mgrwt>
</event>
<event>
 6    1  0.1528034E-005  0.2635176E+04  0.7818608E-02  0.8356350E-01
          2   -1    0    0  501    0  0.00000000000E+00  0.00000000000E+00  0.17169192733E+04  0.17169192733E+04  0.00000000000E+00 0.  1.
         -2   -1    0    0    0  501 -0.00000000000E+00 -0.00000000000E+00 -0.10111358660E+04  0.10111358660E+04  0.00000000000E+00 0. -1.
         23    2    1    2    0    0  0.51641505131E+02 -0.12445494118E+04 -0.86609767822E+02  0.12517567185E+04  0.88450815464E+02 0.  0.
         11    1    3    3    0    0 -0.19175199111E+02 -0.10963697688E+03  0.53730857844E+00  0.11130248722E+03  0.00000000000E+00 0.  1.
        -11    1    3    3    0    0  0.70816704241E+02 -0.11349124350E+04 -0.87147076400E+02  0.11404542312E+04  0.00000000000E+00 0. -1.
         22    1    1    2    0    0 -0.51641505131E+02  0.12445494118E+04  0.79239317507E+03  0.14762984209E+04  0.00000000000E+00 0.  1.
<mgrwt>
<rscale>  0 0.26351764E+04</rscale>
<asrwt>0</asrwt>
<pdfrwt beam="1">  1        2 0.26414143E+00 0.26351764E+04</pdfrwt>
<pdfrwt beam="2">  1       -2 0.15555936E+00 0.26351764E+04</pdfrwt>
<totfact> 0.23015373E+00</totfact>
</mgrwt>
</event>
<event>
 6    1  0.1528034E-005  0.1065902E+04  0.7818608E-02  0.9239079E-01
          1   -1    0    0  501    0  0.00000000000E+00  0.00000000000E+00  0.19189698551E+04  0.19189698551E+04  0.00000000000E+00 0. -1.
         -1   -1    0    0    0  501 -0.00000000000E+00 -0.00000000000E+00 -0.14801515437E+03  0.14801515437E+03  0.00000000000E+00 0.  1.
         23    2    1    2    0    0 -0.13081097691E+03 -0.41082446027E+03  0.29740567592E+03  0.53165606186E+03  0.91212845611E+02 0.  0.
         11    1    3    3    0    0 -0.61373897099E+02 -0.31671943352E+03  0.23474289024E+03  0.39897641451E+03  0.00000000000E+00 0. -1.
        -11    1    3    3    0    0 -0.69437079809E+02 -0.94105026756E+02  0.62662785679E+02  0.13267964736E+03  0.00000000000E+00 0.  1.
         22    1    1    2    0    0  0.13081097691E+03  0.41082446027E+03  0.14735490248E+04  0.15353289476E+04  0.00000000000E+00 0. -1.
<mgrwt>
<rscale>  0 0.10659017E+04</rscale>
<asrwt>0</asrwt>
<pdfrwt beam="1">  1        1 0.29522611E+00 0.10659017E+04</pdfrwt>
<pdfrwt beam="2">  1       -1 0.22771564E-01 0.10659017E+04</pdfrwt>
<totfact> 0.55643564E+01</totfact>
</mgrwt>
</event>
<event>
 6    1  0.1528034E-005  0.1990956E+04  0.7818608E-02  0.8610861E-01
          1   -1    0    0  501    0  0.00000000000E+00  0.00000000000E+00  0.97240644011E+03  0.97240644011E+03  0.00000000000E+00 0. -1.
         -1   -1    0    0    0  501 -0.00000000000E+00 -0.00000000000E+00 -0.10190971779E+04  0.10190971779E+04  0.00000000000E+00 0.  1.
         23    2    1    2    0    0  0.27651090082E+03 -0.12793436601E+03 -0.96918236326E+03  0.10200015442E+04  0.90902236434E+02 0.  0.
         11    1    3    3    0    0  0.13360832658E+03 -0.22576228178E+02 -0.33309982802E+03  0.35960584872E+03  0.00000000000E+00 0.  1.
        -11    1    3    3    0    0  0.14290257423E+03 -0.10535813783E+03 -0.63608253524E+03  0.66039569545E+03  0.00000000000E+00 0. -1.
         22    1    1    2    0    0 -0.27651090082E+03  0.12793436601E+03  0.92249162550E+03  0.97150207380E+03  0.00000000000E+00 0. -1.
<mgrwt>
<rscale>  0 0.19909562E+04</rscale>
<asrwt>0</asrwt>
<pdfrwt beam="1">  1        1 0.14960099E+00 0.19909562E+04</pdfrwt>
<pdfrwt beam="2">  1       -1 0.15678418E+00 0.19909562E+04</pdfrwt>
<totfact> 0.45666865E+00</totfact>
</mgrwt>
</event>
<event>
 6    1  0.1528034E-005  0.4238084E+04  0.7818608E-02  0.7958167E-01
          2   -1    0    0  501    0  0.00000000000E+00  0.00000000000E+00  0.22280504239E+04  0.22280504239E+04  0.00000000000E+00 0. -1.
         -2   -1    0    0    0  501 -0.00000000000E+00 -0.00000000000E+00 -0.20153668070E+04  0.20153668070E+04  0.00000000000E+00 0.  1.
         23    2    1    2    0    0  0.20090519939E+04 -0.53694574000E+03  0.50875427082E+03  0.21428795679E+04  0.92202454838E+02 0.  0.
         13    1    3    3    0    0  0.91245044173E+03 -0.21148278159E+03  0.19452803564E+03  0.95662528305E+03  0.00000000000E+00 0.  1.
        -13    1    3    3    0    0  0.10966015521E+04 -0.32546295841E+03  0.31422623518E+03  0.11862542849E+04  0.00000000000E+00 0. -1.
         22    1    1    2    0    0 -0.20090519939E+04  0.53694574000E+03 -0.29607065388E+03  0.21005376630E+04  0.00000000000E+00 0.  1.
<mgrwt>
<rscale>  0 0.42380839E+04</rscale>
<asrwt>0</asrwt>
<pdfrwt beam="1">  1        2 0.34277699E+00 0.42380839E+04</pdfrwt>
<pdfrwt beam="2">  1       -2 0.31005643E+00 0.42380839E+04</pdfrwt>
<totfact> 0.10625099E-01</totfact>
</mgrwt>
</event>
<event>
 6    1  0.1528034E-005  0.1688017E+04  0.7818608E-02  0.8768228E-01
          1   -1    0    0  501    0  0.00000000000E+00  0.00000000000E+00  0.17455697889E+04  0.17455697889E+04  0.00000000000E+00 0. -1.
         -1   -1    0    0    0  501 -0.00000000000E+00 -0.00000000000E+00 -0.40809067276E+03  0.40809067276E+03  0.00000000000E+00 0.  1.
         23    2    1    2    0    0 -0.16628228024E+03  0.38670688017E+03  0.16003600091E+04  0.16573758943E+04  0.92469932175E+02 0.  0.
         13    1    3    3    0    0 -0.44765978633E+02  0.30476687321E+02  0.22730837304E+03  0.23367053252E+03  0.00000000000E+00 0.  1.
        -13    1    3    3    0    0 -0.12151630161E+03  0.35623019285E+03  0.13730516360E+04  0.14237053618E+04  0.00000000000E+00 0. -1.
         22    1    1    2    0    0  0.16628228024E+03 -0.38670688017E+03 -0.26288089298E+03  0.49628456735E+03  0.00000000000E+00 0.  1.
<mgrwt>
<rscale>  0 0.16880175E+04</rscale>
<asrwt>0</asrwt>
<pdfrwt beam="1">  1        1 0.26854920E+00 0.16880175E+04</pdfrwt>
<pdfrwt beam="2">  1       -1 0.62783181E-01 0.16880175E+04</pdfrwt>
<totfact> 0.10875268E+01</totfact>
</mgrwt>
</event>
<event>
 6    1  0.1528034E-005  0.2456935E+04  0.7818608E-02  0.8418490E-01
          2   -1    0    0  501    0  0.00000000000E+00  0.00000000000E+00  0.33093412561E+04  0.33093412561E+04  0.00000000000E+00 0. -1.
         -2   -1    0    0    0  501 -0.00000000000E+00 -0.00000000000E+00 -0.45602187584E+03  0.45602187584E+03  0.00000000000E+00 0.  1.
         23    2    1    2    0    0 -0.64773145811E+03 -0.10098556805E+04  0.18251610352E+04  0.21853396765E+04  0.71639096506E+02 0.  0.
         11    1    3    3    0    0 -0.40683765230E+03 -0.69507261011E+03  0.12368261277E+04  0.14759341716E+04  0.00000000000E+00 0.  1.
        -11    1    3    3    0    0 -0.24089380581E+03 -0.31478307035E+03  0.58833490741E+03  0.70940550486E+03  0.00000000000E+00 0. -1.
         22    1    1    2    0    0  0.64773145811E+03  0.10098556805E+04  0.10281583451E+04  0.15800234554E+04  0.00000000000E+00 0.  1.
<mgrwt>
<rscale>  0 0.24569347E+04</rscale>
<asrwt>0</asrwt>
<pdfrwt beam="1">  1        2 0.50912941E+00 0.24569347E+04</pdfrwt>
<pdfrwt beam="2">  1       -2 0.70157214E-01 0.24569347E+04</pdfrwt>
<totfact> 0.18196142E+00</totfact>
</mgrwt>
</event>
<event>
 6    1  0.1528034E-005  0.4896739E+04  0.7818608E-02  0.7844637E-01
         -1   -1    0    0    0  501 -0.00000000000E+00  0.00000000000E+00  0.17891112237E+04  0.17891112237E+04  0.00000000000E+00 0.  1.
          1   -1    0    0  501    0  0.00000000000E+00 -0.00000000000E+00 -0.33505542843E+04  0.33505542843E+04  0.00000000000E+00 0. -1.
         23    2    1    2    0    0  0.71557137955E+03 -0.26534748023E+03 -0.32218469697E+04  0.33122649427E+04  0.91375431969E+02 0.  0.
         11    1    3    3    0    0  0.62099092631E+03 -0.23629298285E+03 -0.29190349316E+04  0.29936982206E+04  0.00000000000E+00 0. -1.
        -11    1    3    3    0    0  0.94580453244E+02 -0.29054497374E+02 -0.30281203816E+03  0.31856672206E+03  0.00000000000E+00 0.  1.
         22    1    1    2    0    0 -0.71557137955E+03  0.26534748023E+03  0.16604039092E+04  0.18274005653E+04  0.00000000000E+00 0.  1.
<mgrwt>
<rscale>  0 0.48967394E+04</rscale>
<asrwt>0</asrwt>
<pdfrwt beam="1">  1        1 0.51546988E+00 0.48967394E+04</pdfrwt>
<pdfrwt beam="2">  1       -1 0.27524789E+00 0.48967394E+04</pdfrwt>
<totfact> 0.11351588E-02</totfact>
</mgrwt>
</event>
<event>
 6    1  0.1528034E-005  0.3784399E+04  0.7818608E-02  0.8049511E-01
          2   -1    0    0  501    0  0.00000000000E+00  0.00000000000E+00  0.13813603221E+04  0.13813603221E+04  0.00000000000E+00 0. -1.
         -2   -1    0    0    0  501 -0.00000000000E+00 -0.00000000000E+00 -0.25919508202E+04  0.25919508202E+04  0.00000000000E+00 0.  1.
         23    2    1    2    0    0 -0.15083862272E+04 -0.10433812852E+04 -0.12191676771E+03  0.18404529641E+04  0.92357445952E+02 0.  0.
         13    1    3    3    0    0 -0.91269064681E+03 -0.68390639370E+03 -0.63981555213E+02  0.11422897231E+04  0.00000000000E+00 0. -1.
        -13    1    3    3    0    0 -0.59569558044E+03 -0.35947489154E+03 -0.57935212492E+02  0.69816324098E+03  0.00000000000E+00 0.  1.
         22    1    1    2    0    0  0.15083862272E+04  0.10433812852E+04 -0.10886737304E+04  0.21328581782E+04  0.00000000000E+00 0. -1.
<mgrwt>
<rscale>  0 0.37843985E+04</rscale>
<asrwt>0</asrwt>
<pdfrwt beam="1">  1        2 0.21251697E+00 0.37843985E+04</pdfrwt>
<pdfrwt beam="2">  1       -2 0.39876166E+00 0.37843985E+04</pdfrwt>
<totfact> 0.89982943E-02</totfact>
</mgrwt>
</event>
<event>
 6    1  0.1528034E-005  0.2016704E+04  0.7818608E-02  0.8598851E-01
         -1   -1    0    0    0  501 -0.00000000000E+00  0.00000000000E+00  0.53937483136E+03  0.53937483136E+03  0.00000000000E+00 0.  1.
          1   -1    0    0  501    0  0.00000000000E+00 -0.00000000000E+00 -0.18850959927E+04  0.18850959927E+04  0.00000000000E+00 0. -1.
         23    2    1    2    0    0 -0.69829918190E+03 -0.71926691751E+03 -0.57407820727E+03  0.11594018557E+04  0.98388154455E+02 0.  0.
         11    1    3    3    0    0 -0.55699734533E+03 -0.62499557241E+03 -0.48695946578E+03  0.96850143497E+03  0.00000000000E+00 0. -1.
        -11    1    3    3    0    0 -0.14130183657E+03 -0.94271345105E+02 -0.87118741497E+02  0.19090042076E+03  0.00000000000E+00 0.  1.
         22    1    1    2    0    0  0.69829918190E+03  0.71926691751E+03 -0.77164295409E+03  0.12650689683E+04  0.00000000000E+00 0. -1.
<mgrwt>
<rscale>  0 0.20167036E+04</rscale>
<asrwt>0</asrwt>
<pdfrwt beam="1">  1        1 0.29001476E+00 0.20167036E+04</pdfrwt>
<pdfrwt beam="2">  1       -1 0.82980745E-01 0.20167036E+04</pdfrwt>
<totfact> 0.47637500E+00</totfact>
</mgrwt>
</event>
<event>
 6    1  0.1528034E-005  0.3081368E+04  0.7818608E-02  0.8220870E-01
          2   -1    0    0  501    0  0.00000000000E+00  0.00000000000E+00  0.14455541978E+04  0.14455541978E+04  0.00000000000E+00 0. -1.
         -2   -1    0    0    0  501 -0.00000000000E+00 -0.00000000000E+00 -0.16420739352E+04  0.16420739352E+04  0.00000000000E+00 0.  1.
         23    2    1    2    0    0 -0.24653614662E+03  0.14873948308E+04  0.21180908669E+03  0.15256243292E+04  0.97688538011E+02 0.  0.
         11    1    3    3    0    0 -0.57779595162E+02  0.64239115603E+03  0.95631737997E+02  0.65203551151E+03  0.00000000000E+00 0. -1.
        -11    1    3    3    0    0 -0.18875655146E+03  0.84500367478E+03  0.11617734869E+03  0.87358881773E+03  0.00000000000E+00 0.  1.
         22    1    1    2    0    0  0.24653614662E+03 -0.14873948308E+04 -0.40832882404E+03  0.15620038037E+04  0.00000000000E+00 0.  1.
<mgrwt>
<rscale>  0 0.30813678E+04</rscale>
<asrwt>0</asrwt>
<pdfrwt beam="1">  1        2 0.22239296E+00 0.30813678E+04</pdfrwt>
<pdfrwt beam="2">  1       -2 0.25262676E+00 0.30813678E+04</pdfrwt>
<totfact> 0.71755803E-01</totfact>
</mgrwt>
</event>
<event>
 6    1  0.1528034E-005  0.2902429E+04  0.7818608E-02  0.8272155E-01
         -2   -1    0    0    0  501 -0.00000000000E+00  0.00000000000E+00  0.63197152076E+03  0.63197152076E+03  0.00000000000E+00 0.  1.
          2   -1    0    0  501    0  0.00000000000E+00 -0.00000000000E+00 -0.33324650912E+04  0.33324650912E+04  0.00000000000E+00 0. -1.
         23    2    1    2    0    0  0.68241761435E+03 -0.78025487119E+03 -0.27360502732E+04  0.29272501564E+04  0.91273853541E+02 0.  0.
         13    1    3    3    0    0  0.62288377978E+03 -0.68430957288E+03 -0.23725781416E+04  0.25466430517E+04  0.00000000000E+00 0. -1.
        -13    1    3    3    0    0  0.59533834573E+02 -0.95945298309E+02 -0.36347213156E+03  0.38060710470E+03  0.00000000000E+00 0.  1.
         22    1    1    2    0    0 -0.68241761435E+03  0.78025487119E+03  0.35556702786E+02  0.10371864555E+04  0.00000000000E+00 0.  1.
<mgrwt>
<rscale>  0 0.29024287E+04</rscale>
<asrwt>0</asrwt>
<pdfrwt beam="1">  1        2 0.51268694E+00 0.29024287E+04</pdfrwt>
<pdfrwt beam="2">  1       -2 0.97226387E-01 0.29024287E+04</pdfrwt>
<totfact> 0.80649984E-01</totfact>
</mgrwt>
</event>
<event>
 6    1  0.1683184E-005  0.1515235E+04  0.7818608E-02  0.8874384E-01
         -4   -1    0    0    0  501 -0.00000000000E+00  0.00000000000E+00  0.36192503750E+03  0.36192503750E+03  0.00000000000E+00 0. -1.
          4   -1    0    0  501    0  0.00000000000E+00 -0.00000000000E+00 -0.15859208544E+04  0.15859208544E+04  0.00000000000E+00 0.  1.
         23    2    1    2    0    0 -0.39484145206E+03 -0.61447636343E+03 -0.36779810549E+03  0.82243241478E+03  0.87399410754E+02 0.  0.
         13    1    3    3    0    0 -0.26260920967E+03 -0.35983381042E+03 -0.18589469144E+03  0.48270156871E+03  0.00000000000E+00 0. -1.
        -13    1    3    3    0    0 -0.13223224239E+03 -0.25464255301E+03 -0.18190341406E+03  0.33973084608E+03  0.00000000000E+00 0.  1.
         22    1    1    2    0    0  0.39484145206E+03  0.61447636343E+03 -0.85619771141E+03  0.11254134771E+04  0.00000000000E+00 0. -1.
<mgrwt>
<rscale>  0 0.15152352E+04</rscale>
<asrwt>0</asrwt>
<pdfrwt beam="1">  1        4 0.24398782E+00 0.15152352E+04</pdfrwt>
<pdfrwt beam="2">  1       -4 0.55680775E-01 0.15152352E+04</pdfrwt>
<totfact> 0.40960935E-01</totfact>
</mgrwt>
</event>
<event>
 6    1  0.1528034E-005  0.2124669E+04  0.7818608E-02  0.8550454E-01
          1   -1    0    0  501    0  0.00000000000E+00  0.00000000000E+00  0.11505920602E+04  0.11505920602E+04  0.00000000000E+00 0. -1.
         -1   -1    0    0    0  501 -0.00000000000E+00 -0.00000000000E+00 -0.98084720339E+03  0.98084720339E+03  0.00000000000E+00 0.  1.
         23    2    1    2    0    0 -0.14155813126E+03 -0.21220961049E+03  0.11176082908E+04  0.11498503919E+04  0.89643789279E+02 0.  0.
         13    1    3    3    0    0 -0.11009639950E+03 -0.11062978247E+03  0.52240187826E+03  0.54521911959E+03  0.00000000000E+00 0.  1.
        -13    1    3    3    0    0 -0.31461731757E+02 -0.10157982802E+03  0.59520641251E+03  0.60463127236E+03  0.00000000000E+00 0. -1.
         22    1    1    2    0    0  0.14155813126E+03  0.21220961049E+03 -0.94786343401E+03  0.98158887159E+03  0.00000000000E+00 0.  1.
<mgrwt>
<rscale>  0 0.21246694E+04</rscale>
<asrwt>0</asrwt>
<pdfrwt beam="1">  1        1 0.17701416E+00 0.21246694E+04</pdfrwt>
<pdfrwt beam="2">  1       -1 0.15089957E+00 0.21246694E+04</pdfrwt>
<totfact> 0.36614354E+00</totfact>
</mgrwt>
</event>
<event>
 6    1  0.1528034E-005  0.1574733E+04  0.7818608E-02  0.8836222E-01
         -2   -1    0    0    0  501 -0.00000000000E+00  0.00000000000E+00  0.20338106726E+03  0.20338106726E+03  0.00000000000E+00 0.  1.
          2   -1    0    0  501    0  0.00000000000E+00 -0.00000000000E+00 -0.30482001835E+04  0.30482001835E+04  0.00000000000E+00 0. -1.
         23    2    1    2    0    0 -0.33434715308E+03  0.42037407942E+03 -0.24660452595E+03  0.59842813746E+03  0.93808624697E+02 0.  0.
         11    1    3    3    0    0 -0.53275680142E+02  0.38921769474E+02 -0.60014859508E+02  0.89190725950E+02  0.00000000000E+00 0.  1.
        -11    1    3    3    0    0 -0.28107147294E+03  0.38145230994E+03 -0.18658966644E+03  0.50923741151E+03  0.00000000000E+00 0. -1.
         22    1    1    2    0    0  0.33434715308E+03 -0.42037407942E+03 -0.25982145903E+04  0.26531531133E+04  0.00000000000E+00 0. -1.
<mgrwt>
<rscale>  0 0.15747333E+04</rscale>
<asrwt>0</asrwt>
<pdfrwt beam="1">  1        2 0.46895384E+00 0.15747333E+04</pdfrwt>
<pdfrwt beam="2">  1       -2 0.31289397E-01 0.15747333E+04</pdfrwt>
<totfact> 0.14882704E+01</totfact>
</mgrwt>
</event>
<event>
 6    1  0.1528034E-005  0.2157562E+04  0.7818608E-02  0.8536302E-01
         -1   -1    0    0    0  501 -0.00000000000E+00  0.00000000000E+00  0.47843514715E+03  0.47843514715E+03  0.00000000000E+00 0.  1.
          1   -1    0    0  501    0  0.00000000000E+00 -0.00000000000E+00 -0.24324480168E+04  0.24324480168E+04  0.00000000000E+00 0. -1.
         23    2    1    2    0    0 -0.10330028500E+04 -0.29907093624E+03 -0.90317150983E+03  0.14072855194E+04  0.90528692072E+02 0.  0.
         13    1    3    3    0    0 -0.30476522581E+03 -0.52899973407E+02 -0.22972479592E+03  0.38529693992E+03  0.00000000000E+00 0. -1.
        -13    1    3    3    0    0 -0.72823762418E+03 -0.24617096284E+03 -0.67344671391E+03  0.10219885795E+04  0.00000000000E+00 0.  1.
         22    1    1    2    0    0  0.10330028500E+04  0.29907093624E+03 -0.10508413598E+04  0.15035976445E+04  0.00000000000E+00 0. -1.
<mgrwt>
<rscale>  0 0.21575622E+04</rscale>
<asrwt>0</asrwt>
<pdfrwt beam="1">  1        1 0.37422278E+00 0.21575622E+04</pdfrwt>
<pdfrwt beam="2">  1       -1 0.73605406E-01 0.21575622E+04</pdfrwt>
<totfact> 0.25674953E+00</totfact>
</mgrwt>
</event>
<event>
 6    1  0.1528034E-005  0.2438776E+04  0.7818608E-02  0.8425128E-01
          2   -1    0    0  501    0  0.00000000000E+00  0.00000000000E+00  0.28350910117E+04  0.28350910117E+04  0.00000000000E+00 0. -1.
         -2   -1    0    0    0  501 -0.00000000000E+00 -0.00000000000E+00 -0.52446524420E+03  0.52446524420E+03  0.00000000000E+00 0.  1.
         23    2    1    2    0    0  0.74835299898E+03  0.93684790719E+03  0.86441673738E+03  0.14809299569E+04  0.90669891509E+02 0.  0.
         11    1    3    3    0    0  0.20021345090E+03  0.19468856762E+03  0.22032707617E+03  0.35571489254E+03  0.00000000000E+00 0. -1.
        -11    1    3    3    0    0  0.54813954809E+03  0.74215933957E+03  0.64408966120E+03  0.11252150644E+04  0.00000000000E+00 0.  1.
         22    1    1    2    0    0 -0.74835299898E+03 -0.93684790719E+03  0.14462090301E+04  0.18786262989E+04  0.00000000000E+00 0. -1.
<mgrwt>
<rscale>  0 0.24387757E+04</rscale>
<asrwt>0</asrwt>
<pdfrwt beam="1">  1        2 0.43616784E+00 0.24387757E+04</pdfrwt>
<pdfrwt beam="2">  1       -2 0.80686962E-01 0.24387757E+04</pdfrwt>
<totfact> 0.26762193E+00</totfact>
</mgrwt>
</event>
<event>
 6    1  0.1528034E-005  0.1356966E+04  0.7818608E-02  0.8985572E-01
         -1   -1    0    0    0  501 -0.00000000000E+00  0.00000000000E+00  0.85986018627E+03  0.85986018627E+03  0.00000000000E+00 0.  1.
          1   -1    0    0  501    0  0.00000000000E+00 -0.00000000000E+00 -0.53536524073E+03  0.53536524073E+03  0.00000000000E+00 0. -1.
         23    2    1    2    0    0  0.23158408944E+03  0.35601647164E+03  0.70299973060E+03  0.82632755315E+03  0.90717613046E+02 0.  0.
         11    1    3    3    0    0  0.50916371148E+02  0.35048983130E+02  0.14619166305E+03  0.15872274700E+03  0.00000000000E+00 0.  1.
        -11    1    3    3    0    0  0.18066771829E+03  0.32096748851E+03  0.55680806755E+03  0.66760480615E+03  0.00000000000E+00 0. -1.
         22    1    1    2    0    0 -0.23158408944E+03 -0.35601647164E+03 -0.37850478506E+03  0.56889787385E+03  0.00000000000E+00 0. -1.
<mgrwt>
<rscale>  0 0.13569661E+04</rscale>
<asrwt>0</asrwt>
<pdfrwt beam="1">  1        1 0.82363883E-01 0.13569661E+04</pdfrwt>
<pdfrwt beam="2">  1       -1 0.13228618E+00 0.13569661E+04</pdfrwt>
<totfact> 0.19131447E+01</totfact>
</mgrwt>
</event>
<event>
 6    1  0.1528034E-005  0.9227698E+03  0.7818608E-02  0.9397557E-01
         -1   -1    0    0    0  501 -0.00000000000E+00  0.00000000000E+00  0.33242729881E+03  0.33242729881E+03  0.00000000000E+00 0.  1.
          1   -1    0    0  501    0  0.00000000000E+00 -0.00000000000E+00 -0.64036870689E+03  0.64036870689E+03  0.00000000000E+00 0. -1.
         23    2    1    2    0    0 -0.24296366103E+03  0.17858155378E+03 -0.51739289354E+03  0.60565483845E+03  0.90552002248E+02 0.  0.
         11    1    3    3    0    0 -0.15569280423E+03  0.14336694180E+03 -0.41948217530E+03  0.46985064082E+03  0.00000000000E+00 0.  1.
        -11    1    3    3    0    0 -0.87270856809E+02  0.35214611986E+02 -0.97910718244E+02  0.13580419762E+03  0.00000000000E+00 0. -1.
         22    1    1    2    0    0  0.24296366103E+03 -0.17858155378E+03  0.20945148546E+03  0.36714116726E+03  0.00000000000E+00 0.  1.
<mgrwt>
<rscale>  0 0.92276983E+03</rscale>
<asrwt>0</asrwt>
<pdfrwt beam="1">  1        1 0.98518262E-01 0.92276983E+03</pdfrwt>
<pdfrwt beam="2">  1       -1 0.51142662E-01 0.92276983E+03</pdfrwt>
<totfact> 0.12047796E+02</totfact>
</mgrwt>
</event>
<event>
 6    1  0.1528034E-005  0.1248399E+04  0.7818608E-02  0.9071517E-01
          1   -1    0    0  501    0  0.00000000000E+00  0.00000000000E+00  0.76090307497E+03  0.76090307497E+03  0.00000000000E+00 0. -1.
         -1   -1    0    0    0  501 -0.00000000000E+00 -0.00000000000E+00 -0.51205601635E+03  0.51205601635E+03  0.00000000000E+00 0.  1.
         23    2    1    2    0    0  0.41778942925E+03  0.41510200734E+02  0.59131216350E+03  0.73115335860E+03  0.93080906435E+02 0.  0.
         11    1    3    3    0    0  0.30420418420E+03  0.38907006622E+01  0.36505407166E+03  0.47520500678E+03  0.00000000000E+00 0. -1.
        -11    1    3    3    0    0  0.11358524505E+03  0.37619500071E+02  0.22625809184E+03  0.25594835182E+03  0.00000000000E+00 0.  1.
         22    1    1    2    0    0 -0.41778942925E+03 -0.41510200734E+02 -0.34246510487E+03  0.54180573272E+03  0.00000000000E+00 0.  1.
<mgrwt>
<rscale>  0 0.12483990E+04</rscale>
<asrwt>0</asrwt>
<pdfrwt beam="1">  1        1 0.11706201E+00 0.12483990E+04</pdfrwt>
<pdfrwt beam="2">  1       -1 0.78777849E-01 0.12483990E+04</pdfrwt>
<totfact> 0.38081558E+01</totfact>
</mgrwt>
</event>
<event>
 6    1  0.1528034E-005  0.1335218E+04  0.7818608E-02  0.9002094E-01
          2   -1    0    0  501    0  0.00000000000E+00  0.00000000000E+00  0.66842073005E+03  0.66842073005E+03  0.00000000000E+00 0. -1.
         -2   -1    0    0    0  501 -0.00000000000E+00 -0.00000000000E+00 -0.66679836266E+03  0.66679836266E+03  0.00000000000E+00 0.  1.
         23    2    1    2    0    0  0.27659835849E+03 -0.22871785502E+03 -0.55833977535E+03  0.67010548555E+03  0.92084460648E+02 0.  0.
         11    1    3    3    0    0  0.19188043879E+03 -0.18096784313E+03 -0.46885110308E+03  0.53794871493E+03  0.00000000000E+00 0. -1.
        -11    1    3    3    0    0  0.84717919702E+02 -0.47750011884E+02 -0.89488672272E+02  0.13215677061E+03  0.00000000000E+00 0.  1.
         22    1    1    2    0    0 -0.27659835849E+03  0.22871785502E+03  0.55996214274E+03  0.66511360716E+03  0.00000000000E+00 0. -1.
<mgrwt>
<rscale>  0 0.13352181E+04</rscale>
<asrwt>0</asrwt>
<pdfrwt beam="1">  1        2 0.10283396E+00 0.13352181E+04</pdfrwt>
<pdfrwt beam="2">  1       -2 0.10258436E+00 0.13352181E+04</pdfrwt>
<totfact> 0.33009430E+01</totfact>
</mgrwt>
</event>
<event>
 6    1  0.1528034E-005  0.1484085E+04  0.7818608E-02  0.8895106E-01
          2   -1    0    0  501    0  0.00000000000E+00  0.00000000000E+00  0.16280454315E+04  0.16280454315E+04  0.00000000000E+00 0. -1.
         -2   -1    0    0    0  501 -0.00000000000E+00 -0.00000000000E+00 -0.33821342740E+03  0.33821342740E+03  0.00000000000E+00 0.  1.
         23    2    1    2    0    0 -0.42116055942E+03  0.26530020851E+03 -0.75239411994E+02  0.51326870461E+03  0.10011681459E+03 0.  0.
         13    1    3    3    0    0 -0.17387049202E+03  0.59511676018E+02 -0.50591220006E+02  0.19060970363E+03  0.00000000000E+00 0. -1.
        -13    1    3    3    0    0 -0.24729006740E+03  0.20578853250E+03 -0.24648191988E+02  0.32265900098E+03  0.00000000000E+00 0.  1.
         22    1    1    2    0    0  0.42116055942E+03 -0.26530020851E+03  0.13650714161E+04  0.14529901543E+04  0.00000000000E+00 0. -1.
<mgrwt>
<rscale>  0 0.14840847E+04</rscale>
<asrwt>0</asrwt>
<pdfrwt beam="1">  1        2 0.25046852E+00 0.14840847E+04</pdfrwt>
<pdfrwt beam="2">  1       -2 0.52032836E-01 0.14840847E+04</pdfrwt>
<totfact> 0.36278602E+01</totfact>
</mgrwt>
</event>
<event>
 6    1  0.1533758E-005  0.2096943E+04  0.7818608E-02  0.8562591E-01
         -2   -1    0    0    0  501 -0.00000000000E+00  0.00000000000E+00  0.67188936103E+03  0.67188936103E+03  0.00000000000E+00 0.  1.
          2   -1    0    0  501    0  0.00000000000E+00 -0.00000000000E+00 -0.16361206697E+04  0.16361206697E+04  0.00000000000E+00 0. -1.
         23    2    1    2    0    0 -0.12066751226E+03 -0.51377521562E+03 -0.14776855708E+04  0.15716942697E+04  0.90236414656E+02 0.  0.
         13    1    3    3    0    0  0.10539716998E+02 -0.92908747673E+02 -0.29818491306E+03  0.31250178144E+03  0.00000000000E+00 0.  1.
        -13    1    3    3    0    0 -0.13120722926E+03 -0.42086646794E+03 -0.11795006577E+04  0.12591924882E+04  0.00000000000E+00 0. -1.
         22    1    1    2    0    0  0.12066751226E+03  0.51377521562E+03  0.51345426211E+03  0.73631576105E+03  0.00000000000E+00 0.  1.
<mgrwt>
<rscale>  0 0.20969426E+04</rscale>
<asrwt>0</asrwt>
<pdfrwt beam="1">  1        2 0.25171087E+00 0.20969426E+04</pdfrwt>
<pdfrwt beam="2">  1       -2 0.10336760E+00 0.20969426E+04</pdfrwt>
<totfact> 0.74898196E+00</totfact>
</mgrwt>
</event>
<event>
 6    1  0.1528034E-005  0.3290459E+04  0.7818608E-02  0.8165327E-01
         -2   -1    0    0    0  501 -0.00000000000E+00  0.00000000000E+00  0.12037546516E+04  0.12037546516E+04  0.00000000000E+00 0.  1.
          2   -1    0    0  501    0  0.00000000000E+00 -0.00000000000E+00 -0.22486148384E+04  0.22486148384E+04  0.00000000000E+00 0. -1.
         23    2    1    2    0    0  0.75436110589E+03  0.50812915632E+03 -0.19596998509E+04  0.21623355646E+04  0.89530277698E+02 0.  0.
         13    1    3    3    0    0  0.48222224092E+03  0.29356753908E+03 -0.12954142549E+04  0.14130882073E+04  0.00000000000E+00 0.  1.
        -13    1    3    3    0    0  0.27213886497E+03  0.21456161724E+03 -0.66428559596E+03  0.74924735730E+03  0.00000000000E+00 0. -1.
         22    1    1    2    0    0 -0.75436110589E+03 -0.50812915632E+03  0.91483966418E+03  0.12900339254E+04  0.00000000000E+00 0.  1.
<mgrwt>
<rscale>  0 0.32904593E+04</rscale>
<asrwt>0</asrwt>
<pdfrwt beam="1">  1        2 0.34594074E+00 0.32904593E+04</pdfrwt>
<pdfrwt beam="2">  1       -2 0.18519302E+00 0.32904593E+04</pdfrwt>
<totfact> 0.67688097E-01</totfact>
</mgrwt>
</event>
<event>
 6    1  0.1528034E-005  0.6261443E+03  0.7818608E-02  0.9852602E-01
          2   -1    0    0  501    0  0.00000000000E+00  0.00000000000E+00  0.70438254839E+03  0.70438254839E+03  0.00000000000E+00 0.  1.
         -2   -1    0    0    0  501 -0.00000000000E+00 -0.00000000000E+00 -0.13914905522E+03  0.13914905522E+03  0.00000000000E+00 0. -1.
         23    2    1    2    0    0 -0.10508198543E+03  0.20545058307E+03  0.16906842625E+02  0.24862465169E+03  0.90973679481E+02 0.  0.
         11    1    3    3    0    0 -0.80779223096E+02  0.16082577385E+03  0.51449044283E+02  0.18718230840E+03  0.00000000000E+00 0. -1.
        -11    1    3    3    0    0 -0.24302762331E+02  0.44624809215E+02 -0.34542201658E+02  0.61442343296E+02  0.00000000000E+00 0.  1.
         22    1    1    2    0    0  0.10508198543E+03 -0.20545058307E+03  0.54832665054E+03  0.59490695192E+03  0.00000000000E+00 0.  1.
<mgrwt>
<rscale>  0 0.62614428E+03</rscale>
<asrwt>0</asrwt>
<pdfrwt beam="1">  1        2 0.10836654E+00 0.62614428E+03</pdfrwt>
<pdfrwt beam="2">  1       -2 0.21407547E-01 0.62614428E+03</pdfrwt>
<totfact> 0.77347283E+02</totfact>
</mgrwt>
</event>
<event>
 6    1  0.1528034E-005  0.2321062E+04  0.7818608E-02  0.8469663E-01
         -2   -1    0    0    0  501 -0.00000000000E+00  0.00000000000E+00  0.10299559898E+04  0.10299559898E+04  0.00000000000E+00 0.  1.
          2   -1    0    0  501    0  0.00000000000E+00 -0.00000000000E+00 -0.13076599377E+04  0.13076599377E+04  0.00000000000E+00 0. -1.
         23    2    1    2    0    0  0.73573361388E+03  0.77028487508E+03  0.32027281539E+03  0.11160517872E+04  0.91401182245E+02 0.  0.
         11    1    3    3    0    0  0.54647205589E+03  0.54993244733E+03  0.27190987389E+03  0.82157920131E+03  0.00000000000E+00 0. -1.
        -11    1    3    3    0    0  0.18926155799E+03  0.22035242774E+03  0.48362941502E+02  0.29447258591E+03  0.00000000000E+00 0.  1.
         22    1    1    2    0    0 -0.73573361388E+03 -0.77028487508E+03 -0.59797676327E+03  0.12215641403E+04  0.00000000000E+00 0. -1.
<mgrwt>
<rscale>  0 0.23210620E+04</rscale>
<asrwt>0</asrwt>
<pdfrwt beam="1">  1        2 0.20117845E+00 0.23210620E+04</pdfrwt>
<pdfrwt beam="2">  1       -2 0.15845477E+00 0.23210620E+04</pdfrwt>
<totfact> 0.38304452E+00</totfact>
</mgrwt>
</event>
<event>
 6    1  0.1528034E-005  0.2751685E+04  0.7818608E-02  0.8318427E-01
          2   -1    0    0  501    0  0.00000000000E+00  0.00000000000E+00  0.12717927571E+04  0.12717927571E+04  0.00000000000E+00 0. -1.
         -2   -1    0    0    0  501 -0.00000000000E+00 -0.00000000000E+00 -0.14884052625E+04  0.14884052625E+04  0.00000000000E+00 0.  1.
         23    2    1    2    0    0  0.57546845439E+03  0.56893343151E+03 -0.12227155530E+04  0.14690386437E+04  0.90509787066E+02 0.  0.
         13    1    3    3    0    0  0.19190747307E+03  0.13357440462E+03 -0.33538689905E+03  0.40884590232E+03  0.00000000000E+00 0.  1.
        -13    1    3    3    0    0  0.38356098132E+03  0.43535902690E+03 -0.88732865395E+03  0.10601927414E+04  0.00000000000E+00 0. -1.
         22    1    1    2    0    0 -0.57546845439E+03 -0.56893343151E+03  0.10061030476E+04  0.12911593759E+04  0.00000000000E+00 0. -1.
<mgrwt>
<rscale>  0 0.27516853E+04</rscale>
<asrwt>0</asrwt>
<pdfrwt beam="1">  1        2 0.19566042E+00 0.27516853E+04</pdfrwt>
<pdfrwt beam="2">  1       -2 0.22898542E+00 0.27516853E+04</pdfrwt>
<totfact> 0.13015683E+00</totfact>
</mgrwt>
</event>
<event>
 6    1  0.1528034E-005  0.2033451E+04  0.7818608E-02  0.8591139E-01
         -2   -1    0    0    0  501 -0.00000000000E+00  0.00000000000E+00  0.60170370009E+03  0.60170370009E+03  0.00000000000E+00 0.  1.
          2   -1    0    0  501    0  0.00000000000E+00 -0.00000000000E+00 -0.17180058196E+04  0.17180058196E+04  0.00000000000E+00 0. -1.
         23    2    1    2    0    0 -0.74864631927E+03 -0.29916187081E+03 -0.12620817890E+04  0.15004288300E+04  0.92016822905E+02 0.  0.
         11    1    3    3    0    0 -0.37582186888E+03 -0.10572513137E+03 -0.64547648711E+03  0.75436050794E+03  0.00000000000E+00 0. -1.
        -11    1    3    3    0    0 -0.37282445039E+03 -0.19343673943E+03 -0.61660530186E+03  0.74606832211E+03  0.00000000000E+00 0.  1.
         22    1    1    2    0    0  0.74864631927E+03  0.29916187081E+03  0.14577966949E+03  0.81928068960E+03  0.00000000000E+00 0.  1.
<mgrwt>
<rscale>  0 0.20334507E+04</rscale>
<asrwt>0</asrwt>
<pdfrwt beam="1">  1        2 0.26430858E+00 0.20334507E+04</pdfrwt>
<pdfrwt beam="2">  1       -2 0.92569802E-01 0.20334507E+04</pdfrwt>
<totfact> 0.87911281E+00</totfact>
</mgrwt>
</event>
<event>
 6    1  0.1528034E-005  0.2016391E+04  0.7818608E-02  0.8598995E-01
         -1   -1    0    0    0  501 -0.00000000000E+00  0.00000000000E+00  0.57625298250E+03  0.57625298250E+03  0.00000000000E+00 0.  1.
          1   -1    0    0  501    0  0.00000000000E+00 -0.00000000000E+00 -0.17639098662E+04  0.17639098662E+04  0.00000000000E+00 0. -1.
         23    2    1    2    0    0  0.32702747968E+03  0.19356979438E+03  0.48597154959E+03  0.62393198705E+03  0.93308840381E+02 0.  0.
         11    1    3    3    0    0  0.14494600928E+03  0.58845073809E+02  0.26354288637E+03  0.30647502553E+03  0.00000000000E+00 0.  1.
        -11    1    3    3    0    0  0.18208147041E+03  0.13472472057E+03  0.22242866322E+03  0.31745696152E+03  0.00000000000E+00 0. -1.
         22    1    1    2    0    0 -0.32702747968E+03 -0.19356979438E+03 -0.16736284333E+04  0.17162308616E+04  0.00000000000E+00 0. -1.
<mgrwt>
<rscale>  0 0.20163912E+04</rscale>
<asrwt>0</asrwt>
<pdfrwt beam="1">  1        1 0.27137074E+00 0.20163912E+04</pdfrwt>
<pdfrwt beam="2">  1       -1 0.88654307E-01 0.20163912E+04</pdfrwt>
<totfact> 0.49862990E+00</totfact>
</mgrwt>
</event>
<event>
 6    1  0.1528034E-005  0.3756026E+04  0.7818608E-02  0.8055658E-01
          3   -1    0    0  501    0  0.00000000000E+00  0.00000000000E+00  0.18189075298E+04  0.18189075298E+04  0.00000000000E+00 0. -1.
         -3   -1    0    0    0  501 -0.00000000000E+00 -0.00000000000E+00 -0.19390387676E+04  0.19390387676E+04  0.00000000000E+00 0.  1.
         23    2    1    2    0    0 -0.57419842489E+01 -0.18444205505E+04 -0.40751572253E+03  0.18912620768E+04  0.94249887558E+02 0.  0.
         13    1    3    3    0    0  0.19940987036E+02 -0.11483732715E+04 -0.21346447037E+03  0.11682148320E+04  0.00000000000E+00 0. -1.
        -13    1    3    3    0    0 -0.25682971285E+02 -0.69604727902E+03 -0.19405125216E+03  0.72304724473E+03  0.00000000000E+00 0.  1.
         22    1    1    2    0    0  0.57419842489E+01  0.18444205505E+04  0.28738448479E+03  0.18666842207E+04  0.00000000000E+00 0.  1.
<mgrwt>
<rscale>  0 0.37560257E+04</rscale>
<asrwt>0</asrwt>
<pdfrwt beam="1">  1        3 0.27983193E+00 0.37560257E+04</pdfrwt>
<pdfrwt beam="2">  1       -3 0.29831365E+00 0.37560257E+04</pdfrwt>
<totfact> 0.40320674E-03</totfact>
</mgrwt>
</event>
<event>
 6    1  0.1528034E-005  0.2582041E+04  0.7818608E-02  0.8374327E-01
         -3   -1    0    0    0  501 -0.00000000000E+00  0.00000000000E+00  0.14819444471E+04  0.14819444471E+04  0.00000000000E+00 0.  1.
          3   -1    0    0  501    0  0.00000000000E+00 -0.00000000000E+00 -0.11246940286E+04  0.11246940286E+04  0.00000000000E+00 0. -1.
         23    2    1    2    0    0 -0.12445165029E+04 -0.31057360624E+03  0.46259280222E+02  0.12867927352E+04  0.91751465939E+02 0.  0.
         13    1    3    3    0    0 -0.52351309790E+03 -0.88079088849E+02  0.79237755009E+00  0.53087146978E+03  0.00000000000E+00 0. -1.
        -13    1    3    3    0    0 -0.72100340498E+03 -0.22249451739E+03  0.45466902672E+02  0.75592126541E+03  0.00000000000E+00 0.  1.
         22    1    1    2    0    0  0.12445165029E+04  0.31057360624E+03  0.31099113823E+03  0.13198457406E+04  0.00000000000E+00 0. -1.
<mgrwt>
<rscale>  0 0.25820411E+04</rscale>
<asrwt>0</asrwt>
<pdfrwt beam="1">  1        3 0.17302985E+00 0.25820411E+04</pdfrwt>
<pdfrwt beam="2">  1       -3 0.22799145E+00 0.25820411E+04</pdfrwt>
<totfact> 0.50292781E-02</totfact>
</mgrwt>
</event>
<event>
 6    1  0.1528034E-005  0.2465941E+04  0.7818608E-02  0.8415221E-01
         -2   -1    0    0    0  501 -0.00000000000E+00  0.00000000000E+00  0.69298737271E+03  0.69298737271E+03  0.00000000000E+00 0.  1.
          2   -1    0    0  501    0  0.00000000000E+00 -0.00000000000E+00 -0.21937148026E+04  0.21937148026E+04  0.00000000000E+00 0. -1.
         23    2    1    2    0    0 -0.45567101756E+03  0.11305843312E+04 -0.95013017447E+03  0.15491617670E+04  0.10629123062E+03 0.  0.
         13    1    3    3    0    0 -0.20813960474E+03  0.64323141973E+03 -0.49571775531E+03  0.83833456765E+03  0.00000000000E+00 0.  1.
        -13    1    3    3    0    0 -0.24753141282E+03  0.48735291146E+03 -0.45441241916E+03  0.71082719935E+03  0.00000000000E+00 0. -1.
         22    1    1    2    0    0  0.45567101756E+03 -0.11305843312E+04 -0.55059725541E+03  0.13375404083E+04  0.00000000000E+00 0.  1.
<mgrwt>
<rscale>  0 0.24659413E+04</rscale>
<asrwt>0</asrwt>
<pdfrwt beam="1">  1        2 0.33749458E+00 0.24659413E+04</pdfrwt>
<pdfrwt beam="2">  1       -2 0.10661344E+00 0.24659413E+04</pdfrwt>
<totfact> 0.32989677E+00</totfact>
</mgrwt>
</event>
<event>
 6    1  0.1528034E-005  0.6502831E+03  0.7818608E-02  0.9806248E-01
          2   -1    0    0  501    0  0.00000000000E+00  0.00000000000E+00  0.32429302287E+03  0.32429302287E+03  0.00000000000E+00 0. -1.
         -2   -1    0    0    0  501 -0.00000000000E+00 -0.00000000000E+00 -0.32599231781E+03  0.32599231781E+03  0.00000000000E+00 0.  1.
         23    2    1    2    0    0 -0.25226388382E+03 -0.57063295951E+01 -0.19571675646E+03  0.33198924480E+03  0.90786456195E+02 0.  0.
         13    1    3    3    0    0 -0.13566324904E+03  0.33430267294E+02 -0.70611293882E+02  0.15655048622E+03  0.00000000000E+00 0.  1.
        -13    1    3    3    0    0 -0.11660063478E+03 -0.39136596889E+02 -0.12510546258E+03  0.17543875858E+03  0.00000000000E+00 0. -1.
         22    1    1    2    0    0  0.25226388382E+03  0.57063295951E+01  0.19401746151E+03  0.31829609588E+03  0.00000000000E+00 0. -1.
<mgrwt>
<rscale>  0 0.65028312E+03</rscale>
<asrwt>0</asrwt>
<pdfrwt beam="1">  1        2 0.49891234E-01 0.65028312E+03</pdfrwt>
<pdfrwt beam="2">  1       -2 0.50152664E-01 0.65028312E+03</pdfrwt>
<totfact> 0.38205689E+02</totfact>
</mgrwt>
</event>
<event>
 6    1  0.1528034E-005  0.6109639E+04  0.7818608E-02  0.7676955E-01
         -2   -1    0    0    0  501 -0.00000000000E+00  0.00000000000E+00  0.24475041834E+04  0.24475041834E+04  0.00000000000E+00 0. -1.
          2   -1    0    0  501    0  0.00000000000E+00 -0.00000000000E+00 -0.38128313876E+04  0.38128313876E+04  0.00000000000E+00 0.  1.
         23    2    1    2    0    0  0.57383173654E+03 -0.25884736105E+04  0.87056403441E+03  0.27920956535E+04  0.91858075579E+02 0.  0.
         11    1    3    3    0    0  0.18079344523E+03 -0.73727060780E+03  0.28932073112E+03  0.81237965535E+03  0.00000000000E+00 0.  1.
        -11    1    3    3    0    0  0.39303829132E+03 -0.18512030027E+04  0.58124330329E+03  0.19797159982E+04  0.00000000000E+00 0. -1.
         22    1    1    2    0    0 -0.57383173654E+03  0.25884736105E+04 -0.22358912386E+04  0.34682399175E+04  0.00000000000E+00 0.  1.
<mgrwt>
<rscale>  0 0.61096385E+04</rscale>
<asrwt>0</asrwt>
<pdfrwt beam="1">  1        2 0.58658944E+00 0.61096385E+04</pdfrwt>
<pdfrwt beam="2">  1       -2 0.37653911E+00 0.61096385E+04</pdfrwt>
<totfact> 0.33664902E-03</totfact>
</mgrwt>
</event>
<event>
 6    1  0.1528034E-005  0.4464634E+03  0.7818608E-02  0.1028782E+00
          1   -1    0    0  501    0  0.00000000000E+00  0.00000000000E+00  0.59396170737E+03  0.59396170737E+03  0.00000000000E+00 0. -1.
         -1   -1    0    0    0  501 -0.00000000000E+00 -0.00000000000E+00 -0.83898308863E+02  0.83898308863E+02  0.00000000000E+00 0.  1.
         23    2    1    2    0    0 -0.11466385352E+03  0.11473706552E+03  0.53069732140E+02  0.19293156315E+03  0.89965538303E+02 0.  0.
         11    1    3    3    0    0 -0.26866728763E+02  0.89860698288E+02  0.33571898390E+02  0.99618465019E+02  0.00000000000E+00 0.  1.
        -11    1    3    3    0    0 -0.87797124755E+02  0.24876367234E+02  0.19497833750E+02  0.93313098132E+02  0.00000000000E+00 0. -1.
         22    1    1    2    0    0  0.11466385352E+03 -0.11473706552E+03  0.45699366637E+03  0.48492845308E+03  0.00000000000E+00 0. -1.
<mgrwt>
<rscale>  0 0.44646336E+03</rscale>
<asrwt>0</asrwt>
<pdfrwt beam="1">  1        1 0.91378722E-01 0.44646336E+03</pdfrwt>
<pdfrwt beam="2">  1       -1 0.12907432E-01 0.44646336E+03</pdfrwt>
<totfact> 0.14603073E+03</totfact>
</mgrwt>
</event>
<event>
 6    1  0.1528034E-005  0.3264359E+04  0.7818608E-02  0.8172024E-01
          1   -1    0    0  501    0  0.00000000000E+00  0.00000000000E+00  0.12075948868E+04  0.12075948868E+04  0.00000000000E+00 0. -1.
         -1   -1    0    0    0  501 -0.00000000000E+00 -0.00000000000E+00 -0.22060460064E+04  0.22060460064E+04  0.00000000000E+00 0.  1.
         23    2    1    2    0    0  0.14709516002E+04  0.70333111966E+03 -0.46111806354E+03  0.16969288943E+04  0.92544745518E+02 0.  0.
         11    1    3    3    0    0  0.92603310464E+03  0.49187675506E+03 -0.29856426971E+03  0.10902388161E+04  0.00000000000E+00 0. -1.
        -11    1    3    3    0    0  0.54491849552E+03  0.21145436461E+03 -0.16255379383E+03  0.60669007818E+03  0.00000000000E+00 0.  1.
         22    1    1    2    0    0 -0.14709516002E+04 -0.70333111966E+03 -0.53733305610E+03  0.17167119989E+04  0.00000000000E+00 0. -1.
<mgrwt>
<rscale>  0 0.32643590E+04</rscale>
<asrwt>0</asrwt>
<pdfrwt beam="1">  1        1 0.18578383E+00 0.32643590E+04</pdfrwt>
<pdfrwt beam="2">  1       -1 0.33939169E+00 0.32643590E+04</pdfrwt>
<totfact> 0.16025514E-01</totfact>
</mgrwt>
</event>
<event>
 6    1  0.1528034E-005  0.1081324E+04  0.7818608E-02  0.9223589E-01
          1   -1    0    0  501    0  0.00000000000E+00  0.00000000000E+00  0.10069824887E+04  0.10069824887E+04  0.00000000000E+00 0. -1.
         -1   -1    0    0    0  501 -0.00000000000E+00 -0.00000000000E+00 -0.29028823511E+03  0.29028823511E+03  0.00000000000E+00 0.  1.
         23    2    1    2    0    0  0.38094343047E+02 -0.51168831296E+03  0.55120777757E+03  0.75814005101E+03  0.87579759631E+02 0.  0.
         11    1    3    3    0    0  0.58463903245E+02 -0.38707956209E+03  0.44901236868E+03  0.59570187392E+03  0.00000000000E+00 0. -1.
        -11    1    3    3    0    0 -0.20369560198E+02 -0.12460875087E+03  0.10219540889E+03  0.16243817708E+03  0.00000000000E+00 0.  1.
         22    1    1    2    0    0 -0.38094343047E+02  0.51168831296E+03  0.16548647598E+03  0.53913067277E+03  0.00000000000E+00 0. -1.
<mgrwt>
<rscale>  0 0.10813236E+04</rscale>
<asrwt>0</asrwt>
<pdfrwt beam="1">  1        1 0.15492038E+00 0.10813236E+04</pdfrwt>
<pdfrwt beam="2">  1       -1 0.44659729E-01 0.10813236E+04</pdfrwt>
<totfact> 0.74006258E+01</totfact>
</mgrwt>
</event>
<event>
 6    1  0.1528034E-005  0.4000765E+04  0.7818608E-02  0.8004392E-01
         -2   -1    0    0    0  501 -0.00000000000E+00  0.00000000000E+00  0.13115932211E+04  0.13115932211E+04  0.00000000000E+00 0. -1.
          2   -1    0    0  501    0  0.00000000000E+00 -0.00000000000E+00 -0.30508920330E+04  0.30508920330E+04  0.00000000000E+00 0.  1.
         23    2    1    2    0    0  0.13037927743E+04  0.68521972329E+02  0.78101995990E+03  0.15240741544E+04  0.90768889163E+02 0.  0.
         11    1    3    3    0    0  0.33731959251E+03  0.52607549160E+02  0.22660606844E+03  0.40975891933E+03  0.00000000000E+00 0. -1.
        -11    1    3    3    0    0  0.96647318183E+03  0.15914423169E+02  0.55441389147E+03  0.11143152351E+04  0.00000000000E+00 0.  1.
         22    1    1    2    0    0 -0.13037927743E+04 -0.68521972329E+02 -0.25203187718E+04  0.28384110997E+04  0.00000000000E+00 0.  1.
<mgrwt>
<rscale>  0 0.40007646E+04</rscale>
<asrwt>0</asrwt>
<pdfrwt beam="1">  1        2 0.46936800E+00 0.40007646E+04</pdfrwt>
<pdfrwt beam="2">  1       -2 0.20178358E+00 0.40007646E+04</pdfrwt>
<totfact> 0.16504051E-01</totfact>
</mgrwt>
</event>
<event>
 6    1  0.1528034E-005  0.1098498E+04  0.7818608E-02  0.9206657E-01
          2   -1    0    0  501    0  0.00000000000E+00  0.00000000000E+00  0.47635350359E+03  0.47635350359E+03  0.00000000000E+00 0. -1.
         -2   -1    0    0    0  501 -0.00000000000E+00 -0.00000000000E+00 -0.63329905882E+03  0.63329905882E+03  0.00000000000E+00 0.  1.
         23    2    1    2    0    0  0.32495781123E+03 -0.43543804553E+03 -0.12762464162E+03  0.56553530800E+03  0.91314100067E+02 0.  0.
         11    1    3    3    0    0  0.17827047985E+03 -0.20603667525E+03 -0.10613801131E+03  0.29239827800E+03  0.00000000000E+00 0. -1.
        -11    1    3    3    0    0  0.14668733138E+03 -0.22940137028E+03 -0.21486630310E+02  0.27313702999E+03  0.00000000000E+00 0.  1.
         22    1    1    2    0    0 -0.32495781123E+03  0.43543804553E+03 -0.29320913613E+02  0.54411725441E+03  0.00000000000E+00 0. -1.
<mgrwt>
<rscale>  0 0.10984976E+04</rscale>
<asrwt>0</asrwt>
<pdfrwt beam="1">  1        2 0.73285154E-01 0.10984976E+04</pdfrwt>
<pdfrwt beam="2">  1       -2 0.97430625E-01 0.10984976E+04</pdfrwt>
<totfact> 0.56831819E+01</totfact>
</mgrwt>
</event>
<event>
 6    1  0.1528034E-005  0.4325456E+04  0.7818608E-02  0.7941928E-01
         -1   -1    0    0    0  501 -0.00000000000E+00  0.00000000000E+00  0.13354042948E+04  0.13354042948E+04  0.00000000000E+00 0.  1.
          1   -1    0    0  501    0  0.00000000000E+00 -0.00000000000E+00 -0.35026033708E+04  0.35026033708E+04  0.00000000000E+00 0. -1.
         23    2    1    2    0    0 -0.45300455768E+03 -0.16532190406E+04 -0.25570322346E+04  0.30800781399E+04  0.10060404353E+03 0.  0.
         13    1    3    3    0    0 -0.60011010487E+02 -0.36454360735E+03 -0.57771442953E+03  0.68574581670E+03  0.00000000000E+00 0. -1.
        -13    1    3    3    0    0 -0.39299354719E+03 -0.12886754332E+04 -0.19793178051E+04  0.23943323232E+04  0.00000000000E+00 0.  1.
         22    1    1    2    0    0  0.45300455768E+03  0.16532190406E+04  0.38983315864E+03  0.17579295256E+04  0.00000000000E+00 0. -1.
<mgrwt>
<rscale>  0 0.43254556E+04</rscale>
<asrwt>0</asrwt>
<pdfrwt beam="1">  1        1 0.53886205E+00 0.43254556E+04</pdfrwt>
<pdfrwt beam="2">  1       -1 0.20544682E+00 0.43254556E+04</pdfrwt>
<totfact> 0.26136471E-02</totfact>
</mgrwt>
</event>
<event>
 6    1  0.1528034E-005  0.1007983E+04  0.7818608E-02  0.9299833E-01
          3   -1    0    0  501    0  0.00000000000E+00  0.00000000000E+00  0.28069082145E+03  0.28069082145E+03  0.00000000000E+00 0. -1.
         -3   -1    0    0    0  501 -0.00000000000E+00 -0.00000000000E+00 -0.90493613724E+03  0.90493613724E+03  0.00000000000E+00 0.  1.
         23    2    1    2    0    0 -0.48241128237E+03 -0.50830999311E+02 -0.45592342413E+03  0.67217131789E+03  0.92971372356E+02 0.  0.
         13    1    3    3    0    0 -0.42357860576E+03 -0.39921959050E+02 -0.35173601714E+03  0.55202429641E+03  0.00000000000E+00 0. -1.
        -13    1    3    3    0    0 -0.58832676615E+02 -0.10909040261E+02 -0.10418740699E+03  0.12014702149E+03  0.00000000000E+00 0.  1.
         22    1    1    2    0    0  0.48241128237E+03  0.50830999311E+02 -0.16832189166E+03  0.51345564079E+03  0.00000000000E+00 0. -1.
<mgrwt>
<rscale>  0 0.10079827E+04</rscale>
<asrwt>0</asrwt>
<pdfrwt beam="1">  1        3 0.43183203E-01 0.10079827E+04</pdfrwt>
<pdfrwt beam="2">  1       -3 0.13922094E+00 0.10079827E+04</pdfrwt>
<totfact> 0.54525784E+00</totfact>
</mgrwt>
</event>
<event>
 6    1  0.1528034E-005  0.1117959E+04  0.7818608E-02  0.9187862E-01
          2   -1    0    0  501    0  0.00000000000E+00  0.00000000000E+00  0.12274288348E+04  0.12274288348E+04  0.00000000000E+00 0. -1.
         -2   -1    0    0    0  501 -0.00000000000E+00 -0.00000000000E+00 -0.25456318694E+03  0.25456318694E+03  0.00000000000E+00 0.  1.
         23    2    1    2    0    0  0.17101622438E+03 -0.86059986499E+02  0.11804026084E+04  0.11996368195E+04  0.95526490566E+02 0.  0.
         11    1    3    3    0    0  0.13876563412E+02  0.74569089605E+01  0.30158765781E+03  0.30199880769E+03  0.00000000000E+00 0. -1.
        -11    1    3    3    0    0  0.15713966097E+03 -0.93516895459E+02  0.87881495063E+03  0.89763801180E+03  0.00000000000E+00 0.  1.
         22    1    1    2    0    0 -0.17101622438E+03  0.86059986499E+02 -0.20753696053E+03  0.28235520230E+03  0.00000000000E+00 0.  1.
<mgrwt>
<rscale>  0 0.11179592E+04</rscale>
<asrwt>0</asrwt>
<pdfrwt beam="1">  1        2 0.18883520E+00 0.11179592E+04</pdfrwt>
<pdfrwt beam="2">  1       -2 0.39163568E-01 0.11179592E+04</pdfrwt>
<totfact> 0.11142441E+02</totfact>
</mgrwt>
</event>
<event>
 6    1  0.1528034E-005  0.8032808E+03  0.7818608E-02  0.9555280E-01
         -2   -1    0    0    0  501 -0.00000000000E+00  0.00000000000E+00  0.87794717473E+02  0.87794717473E+02  0.00000000000E+00 0. -1.
          2   -1    0    0  501    0  0.00000000000E+00 -0.00000000000E+00 -0.18374111454E+04  0.18374111454E+04  0.00000000000E+00 0.  1.
         23    2    1    2    0    0 -0.22298512295E+03 -0.28569019422E+03 -0.12721086017E+04  0.13257436236E+04  0.89412577772E+02 0.  0.
         11    1    3    3    0    0 -0.22865374381E+03 -0.27554469651E+03 -0.11865216353E+04  0.12393712137E+04  0.00000000000E+00 0. -1.
        -11    1    3    3    0    0  0.56686208551E+01 -0.10145497713E+02 -0.85586966372E+02  0.86372409941E+02  0.00000000000E+00 0.  1.
         22    1    1    2    0    0  0.22298512295E+03  0.28569019422E+03 -0.47750782630E+03  0.59946223927E+03  0.00000000000E+00 0. -1.
<mgrwt>
<rscale>  0 0.80328075E+03</rscale>
<asrwt>0</asrwt>
<pdfrwt beam="1">  1        2 0.28267862E+00 0.80328075E+03</pdfrwt>
<pdfrwt beam="2">  1       -2 0.13506880E-01 0.80328075E+03</pdfrwt>
<totfact> 0.34929056E+02</totfact>
</mgrwt>
</event>
<event>
 6    1  0.1528034E-005  0.3482490E+04  0.7818608E-02  0.8117952E-01
          2   -1    0    0  501    0  0.00000000000E+00  0.00000000000E+00  0.36374195665E+04  0.36374195665E+04  0.00000000000E+00 0.  1.
         -2   -1    0    0    0  501 -0.00000000000E+00 -0.00000000000E+00 -0.83353995255E+03  0.83353995255E+03  0.00000000000E+00 0. -1.
         23    2    1    2    0    0 -0.13412490878E+03  0.93367547717E+03 -0.47435932322E+03  0.10597148903E+04  0.90771655481E+02 0.  0.
         11    1    3    3    0    0 -0.12906658996E+03  0.60826423510E+03 -0.29745087519E+03  0.68928991542E+03  0.00000000000E+00 0.  1.
        -11    1    3    3    0    0 -0.50583188234E+01  0.32541124207E+03 -0.17690844803E+03  0.37042497491E+03  0.00000000000E+00 0. -1.
         22    1    1    2    0    0  0.13412490878E+03 -0.93367547717E+03  0.32782389372E+04  0.34112446287E+04  0.00000000000E+00 0.  1.
<mgrwt>
<rscale>  0 0.34824902E+04</rscale>
<asrwt>0</asrwt>
<pdfrwt beam="1">  1        2 0.55960300E+00 0.34824902E+04</pdfrwt>
<pdfrwt beam="2">  1       -2 0.12823692E+00 0.34824902E+04</pdfrwt>
<totfact> 0.23953993E-01</totfact>
</mgrwt>
</event>
<event>
 6    1  0.1528034E-005  0.4224665E+04  0.7818608E-02  0.7960697E-01
         -2   -1    0    0    0  501 -0.00000000000E+00  0.00000000000E+00  0.28290865058E+04  0.28290865058E+04  0.00000000000E+00 0.  1.
          2   -1    0    0  501    0  0.00000000000E+00 -0.00000000000E+00 -0.15771694342E+04  0.15771694342E+04  0.00000000000E+00 0. -1.
         23    2    1    2    0    0 -0.10588046843E+04  0.17961399304E+04  0.97241712809E+03  0.23026147568E+04  0.96195832891E+02 0.  0.
         13    1    3    3    0    0 -0.99364776442E+03  0.16709919298E+04  0.93124777749E+03  0.21556373378E+04  0.00000000000E+00 0. -1.
        -13    1    3    3    0    0 -0.65156919860E+02  0.12514800063E+03  0.41169350597E+02  0.14697741900E+03  0.00000000000E+00 0.  1.
         22    1    1    2    0    0  0.10588046843E+04 -0.17961399304E+04  0.27949994349E+03  0.21036411832E+04  0.00000000000E+00 0.  1.
<mgrwt>
<rscale>  0 0.42246651E+04</rscale>
<asrwt>0</asrwt>
<pdfrwt beam="1">  1        2 0.24264145E+00 0.42246651E+04</pdfrwt>
<pdfrwt beam="2">  1       -2 0.43524408E+00 0.42246651E+04</pdfrwt>
<totfact> 0.38682948E-02</totfact>
</mgrwt>
</event>
<event>
 6    1  0.1528034E-005  0.2947240E+04  0.7818608E-02  0.8258959E-01
         -2   -1    0    0    0  501 -0.00000000000E+00  0.00000000000E+00  0.13654601331E+04  0.13654601331E+04  0.00000000000E+00 0. -1.
          2   -1    0    0  501    0  0.00000000000E+00 -0.00000000000E+00 -0.15903474129E+04  0.15903474129E+04  0.00000000000E+00 0.  1.
         23    2    1    2    0    0  0.54597878100E+03  0.13564885802E+04  0.62566353838E+02  0.14655781379E+04  0.76489425952E+02 0.  0.
         13    1    3    3    0    0  0.38142715267E+03  0.10123836285E+04  0.22904829273E+02  0.10820960748E+04  0.00000000000E+00 0.  1.
        -13    1    3    3    0    0  0.16455162833E+03  0.34410495169E+03  0.39661524565E+02  0.38348206307E+03  0.00000000000E+00 0. -1.
         22    1    1    2    0    0 -0.54597878100E+03 -0.13564885802E+04 -0.28745363365E+03  0.14902294081E+04  0.00000000000E+00 0. -1.
<mgrwt>
<rscale>  0 0.29472401E+04</rscale>
<asrwt>0</asrwt>
<pdfrwt beam="1">  1        2 0.24466883E+00 0.29472401E+04</pdfrwt>
<pdfrwt beam="2">  1       -2 0.21007079E+00 0.29472401E+04</pdfrwt>
<totfact> 0.11105706E+00</totfact>
</mgrwt>
</event>
<event>
 6    1  0.1528034E-005  0.1627064E+04  0.7818608E-02  0.8804092E-01
          1   -1    0    0  501    0  0.00000000000E+00  0.00000000000E+00  0.11629790072E+04  0.11629790072E+04  0.00000000000E+00 0.  1.
         -1   -1    0    0    0  501 -0.00000000000E+00 -0.00000000000E+00 -0.56908542426E+03  0.56908542426E+03  0.00000000000E+00 0. -1.
         23    2    1    2    0    0 -0.14000828907E+03  0.55836138729E+03 -0.31017294793E+03  0.66028737813E+03  0.91664629344E+02 0.  0.
         11    1    3    3    0    0 -0.11725261540E+03  0.29507554840E+03 -0.18954575801E+03  0.36979095373E+03  0.00000000000E+00 0.  1.
        -11    1    3    3    0    0 -0.22755673670E+02  0.26328583889E+03 -0.12062718992E+03  0.29049642441E+03  0.00000000000E+00 0. -1.
         22    1    1    2    0    0  0.14000828907E+03 -0.55836138729E+03  0.90406653087E+03  0.10717770533E+04  0.00000000000E+00 0.  1.
<mgrwt>
<rscale>  0 0.16270641E+04</rscale>
<asrwt>0</asrwt>
<pdfrwt beam="1">  1        1 0.17891985E+00 0.16270641E+04</pdfrwt>
<pdfrwt beam="2">  1       -1 0.87551604E-01 0.16270641E+04</pdfrwt>
<totfact> 0.13983147E+01</totfact>
</mgrwt>
</event>
<event>
 6    1  0.1528034E-005  0.3367601E+04  0.7818608E-02  0.8145904E-01
          1   -1    0    0  501    0  0.00000000000E+00  0.00000000000E+00  0.30705347133E+04  0.30705347133E+04  0.00000000000E+00 0. -1.
         -1   -1    0    0    0  501 -0.00000000000E+00 -0.00000000000E+00 -0.92335200665E+03  0.92335200665E+03  0.00000000000E+00 0.  1.
         23    2    1    2    0    0 -0.42595603204E+03 -0.14899285511E+04  0.18518230418E+04  0.24163687453E+04  0.90904932747E+02 0.  0.
         13    1    3    3    0    0 -0.28869748114E+03 -0.91155494041E+03  0.10869914314E+04  0.14476978334E+04  0.00000000000E+00 0.  1.
        -13    1    3    3    0    0 -0.13725855090E+03 -0.57837361066E+03  0.76483161038E+03  0.96867091188E+03  0.00000000000E+00 0. -1.
         22    1    1    2    0    0  0.42595603204E+03  0.14899285511E+04  0.29535966482E+03  0.15775179746E+04  0.00000000000E+00 0.  1.
<mgrwt>
<rscale>  0 0.33676012E+04</rscale>
<asrwt>0</asrwt>
<pdfrwt beam="1">  1        1 0.47238995E+00 0.33676012E+04</pdfrwt>
<pdfrwt beam="2">  1       -1 0.14205416E+00 0.33676012E+04</pdfrwt>
<totfact> 0.17642042E-01</totfact>
</mgrwt>
</event>
<event>
 6    1  0.1528034E-005  0.1503839E+04  0.7818608E-02  0.8881904E-01
          1   -1    0    0  501    0  0.00000000000E+00  0.00000000000E+00  0.20506272771E+04  0.20506272771E+04  0.00000000000E+00 0. -1.
         -1   -1    0    0    0  501 -0.00000000000E+00 -0.00000000000E+00 -0.27571211266E+03  0.27571211266E+03  0.00000000000E+00 0.  1.
         23    2    1    2    0    0 -0.46278945155E+03 -0.58705143449E+03  0.96486877829E+03  0.12240787078E+04  0.92700919372E+02 0.  0.
         13    1    3    3    0    0 -0.35817610357E+03 -0.50950350685E+03  0.78630753446E+03  0.10030770077E+04  0.00000000000E+00 0. -1.
        -13    1    3    3    0    0 -0.10461334798E+03 -0.77547927639E+02  0.17856124383E+03  0.22100170011E+03  0.00000000000E+00 0.  1.
         22    1    1    2    0    0  0.46278945155E+03  0.58705143449E+03  0.81004638611E+03  0.11022606819E+04  0.00000000000E+00 0.  1.
<mgrwt>
<rscale>  0 0.15038388E+04</rscale>
<asrwt>0</asrwt>
<pdfrwt beam="1">  1        1 0.31548111E+00 0.15038388E+04</pdfrwt>
<pdfrwt beam="2">  1       -1 0.42417249E-01 0.15038388E+04</pdfrwt>
<totfact> 0.14566258E+01</totfact>
</mgrwt>
</event>
<event>
 6    1  0.1528034E-005  0.1205237E+04  0.7818608E-02  0.9108285E-01
         -1   -1    0    0    0  501 -0.00000000000E+00  0.00000000000E+00  0.11566305882E+04  0.11566305882E+04  0.00000000000E+00 0.  1.
          1   -1    0    0  501    0  0.00000000000E+00 -0.00000000000E+00 -0.31397162229E+03  0.31397162229E+03  0.00000000000E+00 0. -1.
         23    2    1    2    0    0  0.19904316954E+03  0.43315376369E+03  0.86664706889E+03  0.99330168108E+03  0.91272784983E+02 0.  0.
         11    1    3    3    0    0  0.64807457559E+02  0.14474602677E+03  0.38158895242E+03  0.41323304252E+03  0.00000000000E+00 0. -1.
        -11    1    3    3    0    0  0.13423571198E+03  0.28840773692E+03  0.48505811647E+03  0.58006863856E+03  0.00000000000E+00 0.  1.
         22    1    1    2    0    0 -0.19904316954E+03 -0.43315376369E+03 -0.23988102935E+02  0.47730052946E+03  0.00000000000E+00 0. -1.
<mgrwt>
<rscale>  0 0.12052372E+04</rscale>
<asrwt>0</asrwt>
<pdfrwt beam="1">  1        1 0.48303327E-01 0.12052372E+04</pdfrwt>
<pdfrwt beam="2">  1       -1 0.17794317E+00 0.12052372E+04</pdfrwt>
<totfact> 0.17599019E+01</totfact>
</mgrwt>
</event>
<event>
 6    1  0.1528034E-005  0.3046843E+04  0.7818608E-02  0.8230480E-01
          2   -1    0    0  501    0  0.00000000000E+00  0.00000000000E+00  0.13391577049E+04  0.13391577049E+04  0.00000000000E+00 0. -1.
         -2   -1    0    0    0  501 -0.00000000000E+00 -0.00000000000E+00 -0.17330394941E+04  0.17330394941E+04  0.00000000000E+00 0.  1.
         23    2    1    2    0    0  0.11594447477E+04  0.96662333900E+03 -0.14642842731E+01  0.15124971315E+04  0.94723946758E+02 0.  0.
         13    1    3    3    0    0  0.45205022128E+03  0.42203538161E+03  0.30478994537E+02  0.61918675293E+03  0.00000000000E+00 0. -1.
        -13    1    3    3    0    0  0.70739452642E+03  0.54458795738E+03 -0.31943278810E+02  0.89331037853E+03  0.00000000000E+00 0.  1.
         22    1    1    2    0    0 -0.11594447477E+04 -0.96662333900E+03 -0.39241750492E+03  0.15597000675E+04  0.00000000000E+00 0.  1.
<mgrwt>
<rscale>  0 0.30468431E+04</rscale>
<asrwt>0</asrwt>
<pdfrwt beam="1">  1        2 0.20602426E+00 0.30468431E+04</pdfrwt>
<pdfrwt beam="2">  1       -2 0.26662146E+00 0.30468431E+04</pdfrwt>
<totfact> 0.67988655E-01</totfact>
</mgrwt>
</event>
<event>
 6    1  0.1528034E-005  0.2635474E+04  0.7818608E-02  0.8356250E-01
          2   -1    0    0  501    0  0.00000000000E+00  0.00000000000E+00  0.16544042610E+04  0.16544042610E+04  0.00000000000E+00 0. -1.
         -2   -1    0    0    0  501 -0.00000000000E+00 -0.00000000000E+00 -0.10495810311E+04  0.10495810311E+04  0.00000000000E+00 0.  1.
         23    2    1    2    0    0 -0.57212494106E+03 -0.42838333726E+03 -0.83068161907E+03  0.11003913899E+04  0.99950122360E+02 0.  0.
         11    1    3    3    0    0 -0.40576196240E+03 -0.32494436090E+03 -0.66323083012E+03  0.84267831456E+03  0.00000000000E+00 0.  1.
        -11    1    3    3    0    0 -0.16636297866E+03 -0.10343897636E+03 -0.16745078895E+03  0.25771307538E+03  0.00000000000E+00 0. -1.
         22    1    1    2    0    0  0.57212494106E+03  0.42838333726E+03  0.14355048490E+04  0.16035939022E+04  0.00000000000E+00 0. -1.
<mgrwt>
<rscale>  0 0.26354744E+04</rscale>
<asrwt>0</asrwt>
<pdfrwt beam="1">  1        2 0.25452373E+00 0.26354744E+04</pdfrwt>
<pdfrwt beam="2">  1       -2 0.16147400E+00 0.26354744E+04</pdfrwt>
<totfact> 0.22532614E+00</totfact>
</mgrwt>
</event>
<event>
 6    1  0.1528034E-005  0.3436771E+04  0.7818608E-02  0.8128940E-01
         -2   -1    0    0    0  501 -0.00000000000E+00  0.00000000000E+00  0.17008461401E+04  0.17008461401E+04  0.00000000000E+00 0.  1.
          2   -1    0    0  501    0  0.00000000000E+00 -0.00000000000E+00 -0.17361057753E+04  0.17361057753E+04  0.00000000000E+00 0. -1.
         23    2    1    2    0    0  0.70922885615E+03 -0.11773088815E+04 -0.10453201608E+04  0.17312895695E+04  0.12493022904E+03 0.  0.
         13    1    3    3    0    0  0.61025112906E+03 -0.93906065402E+03 -0.88654246325E+03  0.14283553100E+04  0.00000000000E+00 0. -1.
        -13    1    3    3    0    0  0.98977727093E+02 -0.23824822750E+03 -0.15877769753E+03  0.30293425954E+03  0.00000000000E+00 0.  1.
         22    1    1    2    0    0 -0.70922885615E+03  0.11773088815E+04  0.10100605255E+04  0.17056623459E+04  0.00000000000E+00 0.  1.
<mgrwt>
<rscale>  0 0.34367710E+04</rscale>
<asrwt>0</asrwt>
<pdfrwt beam="1">  1        2 0.26709320E+00 0.34367710E+04</pdfrwt>
<pdfrwt beam="2">  1       -2 0.26166864E+00 0.34367710E+04</pdfrwt>
<totfact> 0.42148764E-01</totfact>
</mgrwt>
</event>
<event>
 6    1  0.1528034E-005  0.1926507E+04  0.7818608E-02  0.8641774E-01
          2   -1    0    0  501    0  0.00000000000E+00  0.00000000000E+00  0.36547885430E+04  0.36547885430E+04  0.00000000000E+00 0.  1.
         -2   -1    0    0    0  501 -0.00000000000E+00 -0.00000000000E+00 -0.25387434356E+03  0.25387434356E+03  0.00000000000E+00 0. -1.
         23    2    1    2    0    0  0.60486882158E+03  0.42400636781E+03  0.45687643788E+03  0.87336948513E+03  0.91599600446E+02 0.  0.
         11    1    3    3    0    0  0.53408222899E+02  0.56940833922E+02  0.22662244225E+02  0.81291291996E+02  0.00000000000E+00 0. -1.
        -11    1    3    3    0    0  0.55146059868E+03  0.36706553388E+03  0.43421419366E+03  0.79207819313E+03  0.00000000000E+00 0.  1.
         22    1    1    2    0    0 -0.60486882158E+03 -0.42400636781E+03  0.29440377615E+04  0.30352934014E+04  0.00000000000E+00 0.  1.
<mgrwt>
<rscale>  0 0.19265067E+04</rscale>
<asrwt>0</asrwt>
<pdfrwt beam="1">  1        2 0.56227512E+00 0.19265067E+04</pdfrwt>
<pdfrwt beam="2">  1       -2 0.39057594E-01 0.19265067E+04</pdfrwt>
<totfact> 0.36782804E+00</totfact>
</mgrwt>
</event>
<event>
 6    1  0.1528034E-005  0.2736552E+04  0.7818608E-02  0.8323242E-01
         -2   -1    0    0    0  501 -0.00000000000E+00  0.00000000000E+00  0.90945517016E+03  0.90945517016E+03  0.00000000000E+00 0.  1.
          2   -1    0    0  501    0  0.00000000000E+00 -0.00000000000E+00 -0.20585721291E+04  0.20585721291E+04  0.00000000000E+00 0. -1.
         23    2    1    2    0    0  0.12869022176E+03 -0.91349554535E+03 -0.16689971800E+04  0.19091076947E+04  0.90029543115E+02 0.  0.
         13    1    3    3    0    0  0.10963237437E+03 -0.49143517131E+03 -0.94909570309E+03  0.10743884022E+04  0.00000000000E+00 0. -1.
        -13    1    3    3    0    0  0.19057847387E+02 -0.42206037404E+03 -0.71990147692E+03  0.83471929255E+03  0.00000000000E+00 0.  1.
         22    1    1    2    0    0 -0.12869022176E+03  0.91349554535E+03  0.51988022108E+03  0.10589196045E+04  0.00000000000E+00 0.  1.
<mgrwt>
<rscale>  0 0.27365519E+04</rscale>
<asrwt>0</asrwt>
<pdfrwt beam="1">  1        2 0.31670340E+00 0.27365519E+04</pdfrwt>
<pdfrwt beam="2">  1       -2 0.13991618E+00 0.27365519E+04</pdfrwt>
<totfact> 0.19500317E+00</totfact>
</mgrwt>
</event>
<event>
 6    1  0.2470164E-005  0.4549148E+04  0.7818608E-02  0.7902089E-01
         -1   -1    0    0    0  501 -0.00000000000E+00  0.00000000000E+00  0.18191120644E+04  0.18191120644E+04  0.00000000000E+00 0.  1.
          1   -1    0    0  501    0  0.00000000000E+00 -0.00000000000E+00 -0.28440721364E+04  0.28440721364E+04  0.00000000000E+00 0. -1.
         23    2    1    2    0    0 -0.20329913574E+04  0.39953981730E+03  0.44736780646E+03  0.21214455622E+04  0.87791767618E+02 0.  0.
         13    1    3    3    0    0 -0.13965706077E+04  0.31468373826E+03  0.31853134679E+03  0.14665938552E+04  0.00000000000E+00 0. -1.
        -13    1    3    3    0    0 -0.63642074969E+03  0.84856079037E+02  0.12883645968E+03  0.65485170698E+03  0.00000000000E+00 0.  1.
         22    1    1    2    0    0  0.20329913574E+04 -0.39953981730E+03 -0.14723278785E+04  0.25417386385E+04  0.00000000000E+00 0. -1.
<mgrwt>
<rscale>  0 0.45491476E+04</rscale>
<asrwt>0</asrwt>
<pdfrwt beam="1">  1        1 0.43754956E+00 0.45491476E+04</pdfrwt>
<pdfrwt beam="2">  1       -1 0.27986339E+00 0.45491476E+04</pdfrwt>
<totfact> 0.25868371E-02</totfact>
</mgrwt>
</event>
<event>
 6    1  0.1528034E-005  0.2907439E+04  0.7818608E-02  0.8270668E-01
          1   -1    0    0  501    0  0.00000000000E+00  0.00000000000E+00  0.13885861368E+04  0.13885861368E+04  0.00000000000E+00 0. -1.
         -1   -1    0    0    0  501 -0.00000000000E+00 -0.00000000000E+00 -0.15219081781E+04  0.15219081781E+04  0.00000000000E+00 0.  1.
         23    2    1    2    0    0 -0.12924454336E+04  0.65537150597E+03  0.28575588168E+02  0.14523661133E+04  0.92864166216E+02 0.  0.
         11    1    3    3    0    0 -0.44201446316E+03  0.27112104162E+03 -0.47418531600E+01  0.51856136573E+03  0.00000000000E+00 0.  1.
        -11    1    3    3    0    0 -0.85043097040E+03  0.38425046435E+03  0.33317441328E+02  0.93380474761E+03  0.00000000000E+00 0. -1.
         22    1    1    2    0    0  0.12924454336E+04 -0.65537150597E+03 -0.16189762948E+03  0.14581282015E+04  0.00000000000E+00 0. -1.
<mgrwt>
<rscale>  0 0.29074391E+04</rscale>
<asrwt>0</asrwt>
<pdfrwt beam="1">  1        1 0.21362864E+00 0.29074391E+04</pdfrwt>
<pdfrwt beam="2">  1       -1 0.23413972E+00 0.29074391E+04</pdfrwt>
<totfact> 0.59493372E-01</totfact>
</mgrwt>
</event>
<event>
 6    1  0.1528034E-005  0.2426112E+04  0.7818608E-02  0.8429792E-01
         -2   -1    0    0    0  501 -0.00000000000E+00  0.00000000000E+00  0.28060555486E+03  0.28060555486E+03  0.00000000000E+00 0.  1.
          2   -1    0    0  501    0  0.00000000000E+00 -0.00000000000E+00 -0.52440337750E+04  0.52440337750E+04  0.00000000000E+00 0. -1.
         23    2    1    2    0    0  0.22098142193E+03 -0.89682767752E+03 -0.70112965306E+03  0.11634099451E+04  0.93846885222E+02 0.  0.
         11    1    3    3    0    0  0.11988135138E+03 -0.45901338870E+03 -0.41818318529E+03  0.63240968200E+03  0.00000000000E+00 0. -1.
        -11    1    3    3    0    0  0.10110007054E+03 -0.43781428881E+03 -0.28294646777E+03  0.53100026306E+03  0.00000000000E+00 0.  1.
         22    1    1    2    0    0 -0.22098142193E+03  0.89682767752E+03 -0.42622985671E+04  0.43612293848E+04  0.00000000000E+00 0. -1.
<mgrwt>
<rscale>  0 0.24261121E+04</rscale>
<asrwt>0</asrwt>
<pdfrwt beam="1">  1        2 0.80677446E+00 0.24261121E+04</pdfrwt>
<pdfrwt beam="2">  1       -2 0.43170084E-01 0.24261121E+04</pdfrwt>
<totfact> 0.73579447E-02</totfact>
</mgrwt>
</event>
<event>
 6    1  0.1528034E-005  0.3159932E+04  0.7818608E-02  0.8199480E-01
          2   -1    0    0  501    0  0.00000000000E+00  0.00000000000E+00  0.32325878292E+04  0.32325878292E+04  0.00000000000E+00 0. -1.
         -2   -1    0    0    0  501 -0.00000000000E+00 -0.00000000000E+00 -0.77222733887E+03  0.77222733887E+03  0.00000000000E+00 0.  1.
         23    2    1    2    0    0 -0.89411971508E+02 -0.74037587164E+03 -0.53185755694E+03  0.92106424195E+03  0.96622693905E+02 0.  0.
         11    1    3    3    0    0 -0.63448888355E+02 -0.52785165145E+03 -0.32365577397E+03  0.62241962324E+03  0.00000000000E+00 0.  1.
        -11    1    3    3    0    0 -0.25963083152E+02 -0.21252422019E+03 -0.20820178297E+03  0.29864461871E+03  0.00000000000E+00 0. -1.
         22    1    1    2    0    0  0.89411971508E+02  0.74037587164E+03  0.29922180473E+04  0.30837509262E+04  0.00000000000E+00 0. -1.
<mgrwt>
<rscale>  0 0.31599321E+04</rscale>
<asrwt>0</asrwt>
<pdfrwt beam="1">  1        2 0.49732120E+00 0.31599321E+04</pdfrwt>
<pdfrwt beam="2">  1       -2 0.11880421E+00 0.31599321E+04</pdfrwt>
<totfact> 0.56725306E-01</totfact>
</mgrwt>
</event>
<event>
 6    1  0.1528034E-005  0.5200789E+04  0.7818608E-02  0.7798259E-01
          2   -1    0    0  501    0  0.00000000000E+00  0.00000000000E+00  0.42910790911E+04  0.42910790911E+04  0.00000000000E+00 0.  1.
         -2   -1    0    0    0  501 -0.00000000000E+00 -0.00000000000E+00 -0.15758395487E+04  0.15758395487E+04  0.00000000000E+00 0. -1.
         23    2    1    2    0    0 -0.60079641017E+02  0.79916091007E+03 -0.14317574621E+04  0.16431937578E+04  0.88817633411E+02 0.  0.
         11    1    3    3    0    0 -0.59518196082E+02  0.25345849792E+03 -0.48239772151E+03  0.54817076495E+03  0.00000000000E+00 0.  1.
        -11    1    3    3    0    0 -0.56144493508E+00  0.54570241215E+03 -0.94935974055E+03  0.10950229928E+04  0.00000000000E+00 0. -1.
         22    1    1    2    0    0  0.60079641017E+02 -0.79916091007E+03  0.41469970045E+04  0.42237248820E+04  0.00000000000E+00 0.  1.
<mgrwt>
<rscale>  0 0.52007892E+04</rscale>
<asrwt>0</asrwt>
<pdfrwt beam="1">  1        2 0.66016601E+00 0.52007892E+04</pdfrwt>
<pdfrwt beam="2">  1       -2 0.24243686E+00 0.52007892E+04</pdfrwt>
<totfact> 0.98308761E-03</totfact>
</mgrwt>
</event>
<event>
 6    1  0.1528034E-005  0.1993870E+04  0.7818608E-02  0.8609492E-01
         -2   -1    0    0    0  501 -0.00000000000E+00  0.00000000000E+00  0.12024165362E+04  0.12024165362E+04  0.00000000000E+00 0.  1.
          2   -1    0    0  501    0  0.00000000000E+00 -0.00000000000E+00 -0.82656790917E+03  0.82656790917E+03  0.00000000000E+00 0. -1.
         23    2    1    2    0    0 -0.81622781017E+03 -0.39138245144E+03  0.60811544753E+03  0.10944493004E+04  0.92772906262E+02 0.  0.
         13    1    3    3    0    0 -0.51398665500E+03 -0.20037115709E+03  0.34715220971E+03  0.65180176344E+03  0.00000000000E+00 0.  1.
        -13    1    3    3    0    0 -0.30224115517E+03 -0.19101129436E+03  0.26096323781E+03  0.44264753692E+03  0.00000000000E+00 0. -1.
         22    1    1    2    0    0  0.81622781017E+03  0.39138245144E+03 -0.23226682049E+03  0.93453514503E+03  0.00000000000E+00 0.  1.
<mgrwt>
<rscale>  0 0.19938695E+04</rscale>
<asrwt>0</asrwt>
<pdfrwt beam="1">  1        2 0.12716429E+00 0.19938695E+04</pdfrwt>
<pdfrwt beam="2">  1       -2 0.18498716E+00 0.19938695E+04</pdfrwt>
<totfact> 0.51331558E+00</totfact>
</mgrwt>
</event>
<event>
 6    1  0.1528034E-005  0.4124044E+03  0.7818608E-02  0.1039567E+00
          2   -1    0    0  501    0  0.00000000000E+00  0.00000000000E+00  0.14812471969E+04  0.14812471969E+04  0.00000000000E+00 0. -1.
         -2   -1    0    0    0  501 -0.00000000000E+00 -0.00000000000E+00 -0.28705098821E+02  0.28705098821E+02  0.00000000000E+00 0.  1.
         23    2    1    2    0    0  0.16296399827E+03 -0.10759539194E+03  0.70313378990E+03  0.73551905427E+03  0.91962598883E+02 0.  0.
         13    1    3    3    0    0  0.40929124085E+02  0.33758868914E+01  0.24887087026E+03  0.25223659504E+03  0.00000000000E+00 0.  1.
        -13    1    3    3    0    0  0.12203487419E+03 -0.11097127883E+03  0.45426291964E+03  0.48328245923E+03  0.00000000000E+00 0. -1.
         22    1    1    2    0    0 -0.16296399827E+03  0.10759539194E+03  0.74940830817E+03  0.77443324144E+03  0.00000000000E+00 0. -1.
<mgrwt>
<rscale>  0 0.41240440E+03</rscale>
<asrwt>0</asrwt>
<pdfrwt beam="1">  1        2 0.22788412E+00 0.41240440E+03</pdfrwt>
<pdfrwt beam="2">  1       -2 0.44161702E-02 0.41240440E+03</pdfrwt>
<totfact> 0.33053747E+03</totfact>
</mgrwt>
</event>
<event>
 6    1  0.1528034E-005  0.1521168E+04  0.7818608E-02  0.8870497E-01
         -2   -1    0    0    0  501 -0.00000000000E+00  0.00000000000E+00  0.69557089673E+03  0.69557089673E+03  0.00000000000E+00 0.  1.
          2   -1    0    0  501    0  0.00000000000E+00 -0.00000000000E+00 -0.83167327255E+03  0.83167327255E+03  0.00000000000E+00 0. -1.
         23    2    1    2    0    0  0.47264279459E+03  0.23595006972E+03 -0.61398981432E+03  0.81489590436E+03  0.89488525372E+02 0.  0.
         11    1    3    3    0    0  0.34280882881E+03  0.12481354286E+03 -0.42392468281E+03  0.55929281265E+03  0.00000000000E+00 0. -1.
        -11    1    3    3    0    0  0.12983396578E+03  0.11113652686E+03 -0.19006513151E+03  0.25560309170E+03  0.00000000000E+00 0.  1.
         22    1    1    2    0    0 -0.47264279459E+03 -0.23595006972E+03  0.47788743850E+03  0.71234826493E+03  0.00000000000E+00 0. -1.
<mgrwt>
<rscale>  0 0.15211676E+04</rscale>
<asrwt>0</asrwt>
<pdfrwt beam="1">  1        2 0.12794973E+00 0.15211676E+04</pdfrwt>
<pdfrwt beam="2">  1       -2 0.10701091E+00 0.15211676E+04</pdfrwt>
<totfact> 0.22152223E+01</totfact>
</mgrwt>
</event>
<event>
 6    1  0.1528034E-005  0.2194384E+04  0.7818608E-02  0.8520769E-01
         -2   -1    0    0    0  501 -0.00000000000E+00  0.00000000000E+00  0.56942165347E+03  0.56942165347E+03  0.00000000000E+00 0.  1.
          2   -1    0    0  501    0  0.00000000000E+00 -0.00000000000E+00 -0.21141282117E+04  0.21141282117E+04  0.00000000000E+00 0. -1.
         23    2    1    2    0    0  0.67414661443E+03  0.83112321045E+03 -0.49002940752E+03  0.11810242112E+04  0.97210691025E+02 0.  0.
         11    1    3    3    0    0  0.32813772767E+03  0.37526188941E+03 -0.17895673671E+03  0.52964267914E+03  0.00000000000E+00 0. -1.
        -11    1    3    3    0    0  0.34600888677E+03  0.45586132105E+03 -0.31107267081E+03  0.65138153203E+03  0.00000000000E+00 0.  1.
         22    1    1    2    0    0 -0.67414661443E+03 -0.83112321045E+03 -0.10546771508E+04  0.15025256540E+04  0.00000000000E+00 0. -1.
<mgrwt>
<rscale>  0 0.21943841E+04</rscale>
<asrwt>0</asrwt>
<pdfrwt beam="1">  1        2 0.32525050E+00 0.21943841E+04</pdfrwt>
<pdfrwt beam="2">  1       -2 0.87603329E-01 0.21943841E+04</pdfrwt>
<totfact> 0.59329285E+00</totfact>
</mgrwt>
</event>
<event>
 6    1  0.1528034E-005  0.4386787E+04  0.7818608E-02  0.7930762E-01
         -2   -1    0    0    0  501 -0.00000000000E+00  0.00000000000E+00  0.20781579407E+04  0.20781579407E+04  0.00000000000E+00 0.  1.
          2   -1    0    0  501    0  0.00000000000E+00 -0.00000000000E+00 -0.23150193529E+04  0.23150193529E+04  0.00000000000E+00 0. -1.
         23    2    1    2    0    0 -0.15397346644E+04  0.99577765144E+03  0.10851629996E+04  0.21326232657E+04  0.90262339796E+02 0.  0.
         13    1    3    3    0    0 -0.11294917465E+04  0.74267056538E+03  0.75472852535E+03  0.15482009950E+04  0.00000000000E+00 0. -1.
        -13    1    3    3    0    0 -0.41024291791E+03  0.25310708606E+03  0.33043447424E+03  0.58442227069E+03  0.00000000000E+00 0.  1.
         22    1    1    2    0    0  0.15397346644E+04 -0.99577765144E+03 -0.13220244118E+04  0.22605540279E+04  0.00000000000E+00 0. -1.
<mgrwt>
<rscale>  0 0.43867874E+04</rscale>
<asrwt>0</asrwt>
<pdfrwt beam="1">  1        2 0.35615682E+00 0.43867874E+04</pdfrwt>
<pdfrwt beam="2">  1       -2 0.31971661E+00 0.43867874E+04</pdfrwt>
<totfact> 0.81721185E-02</totfact>
</mgrwt>
</event>
<event>
 6    1  0.1528034E-005  0.1558659E+04  0.7818608E-02  0.8846356E-01
          1   -1    0    0  501    0  0.00000000000E+00  0.00000000000E+00  0.14322101240E+04  0.14322101240E+04  0.00000000000E+00 0. -1.
         -1   -1    0    0    0  501 -0.00000000000E+00 -0.00000000000E+00 -0.42406783328E+03  0.42406783328E+03  0.00000000000E+00 0.  1.
         23    2    1    2    0    0 -0.71902068724E+03  0.28697778948E+03  0.57912499714E+03  0.97117748922E+03  0.91939941919E+02 0.  0.
         11    1    3    3    0    0 -0.55641760699E+03  0.23248727170E+03  0.49493599061E+03  0.78013621866E+03  0.00000000000E+00 0.  1.
        -11    1    3    3    0    0 -0.16260308025E+03  0.54490517779E+02  0.84189006530E+02  0.19104127055E+03  0.00000000000E+00 0. -1.
         22    1    1    2    0    0  0.71902068724E+03 -0.28697778948E+03  0.42901729356E+03  0.88510046803E+03  0.00000000000E+00 0. -1.
<mgrwt>
<rscale>  0 0.15586587E+04</rscale>
<asrwt>0</asrwt>
<pdfrwt beam="1">  1        1 0.22034002E+00 0.15586587E+04</pdfrwt>
<pdfrwt beam="2">  1       -1 0.65241206E-01 0.15586587E+04</pdfrwt>
<totfact> 0.16723741E+01</totfact>
</mgrwt>
</event>
<event>
 6    1  0.1528034E-005  0.1258345E+04  0.7818608E-02  0.9063266E-01
         -2   -1    0    0    0  501 -0.00000000000E+00  0.00000000000E+00  0.31456562677E+03  0.31456562677E+03  0.00000000000E+00 0.  1.
          2   -1    0    0  501    0  0.00000000000E+00 -0.00000000000E+00 -0.12584282680E+04  0.12584282680E+04  0.00000000000E+00 0. -1.
         23    2    1    2    0    0 -0.33588312381E+03  0.50344720958E+03 -0.27555566308E+03  0.67137824343E+03  0.92418919030E+02 0.  0.
         11    1    3    3    0    0 -0.14407627272E+03  0.22721289744E+03 -0.17271191197E+03  0.31970780043E+03  0.00000000000E+00 0.  1.
        -11    1    3    3    0    0 -0.19180685109E+03  0.27623431214E+03 -0.10284375111E+03  0.35167044299E+03  0.00000000000E+00 0. -1.
         22    1    1    2    0    0  0.33588312381E+03 -0.50344720958E+03 -0.66830697817E+03  0.90161565135E+03  0.00000000000E+00 0.  1.
<mgrwt>
<rscale>  0 0.12583454E+04</rscale>
<asrwt>0</asrwt>
<pdfrwt beam="1">  1        2 0.19360435E+00 0.12583454E+04</pdfrwt>
<pdfrwt beam="2">  1       -2 0.48394711E-01 0.12583454E+04</pdfrwt>
<totfact> 0.69491798E+01</totfact>
</mgrwt>
</event>
<event>
 6    1  0.1528034E-005  0.1185891E+04  0.7818608E-02  0.9125297E-01
          2   -1    0    0  501    0  0.00000000000E+00  0.00000000000E+00  0.18594815772E+04  0.18594815772E+04  0.00000000000E+00 0. -1.
         -2   -1    0    0    0  501 -0.00000000000E+00 -0.00000000000E+00 -0.18907650535E+03  0.18907650535E+03  0.00000000000E+00 0.  1.
         23    2    1    2    0    0 -0.58194791091E+03 -0.20630084411E+02  0.99677167261E+03  0.11581250823E+04  0.92795298927E+02 0.  0.
         13    1    3    3    0    0 -0.40196548095E+03  0.66209653595E+01  0.60863751139E+03  0.72942422864E+03  0.00000000000E+00 0. -1.
        -13    1    3    3    0    0 -0.17998242995E+03 -0.27251049771E+02  0.38813416122E+03  0.42870085364E+03  0.00000000000E+00 0.  1.
         22    1    1    2    0    0  0.58194791091E+03  0.20630084411E+02  0.67363339927E+03  0.89043300029E+03  0.00000000000E+00 0.  1.
<mgrwt>
<rscale>  0 0.11858909E+04</rscale>
<asrwt>0</asrwt>
<pdfrwt beam="1">  1        2 0.28607408E+00 0.11858909E+04</pdfrwt>
<pdfrwt beam="2">  1       -2 0.29088694E-01 0.11858909E+04</pdfrwt>
<totfact> 0.85833320E+01</totfact>
</mgrwt>
</event>
<event>
 6    1  0.1528034E-005  0.7792268E+04  0.7818608E-02  0.7500825E-01
          2   -1    0    0  501    0  0.00000000000E+00  0.00000000000E+00  0.37607947536E+04  0.37607947536E+04  0.00000000000E+00 0.  1.
         -2   -1    0    0    0  501 -0.00000000000E+00 -0.00000000000E+00 -0.40363435417E+04  0.40363435417E+04  0.00000000000E+00 0. -1.
         23    2    1    2    0    0  0.12671509225E+04 -0.36723324350E+04 -0.42784431978E+03  0.39093508908E+04  0.90976106667E+02 0.  0.
         11    1    3    3    0    0  0.52505257725E+03 -0.15854574875E+04 -0.22412280027E+03  0.16851073210E+04  0.00000000000E+00 0. -1.
        -11    1    3    3    0    0  0.74209834527E+03 -0.20868749474E+04 -0.20372151951E+03  0.22242435698E+04  0.00000000000E+00 0.  1.
         22    1    1    2    0    0 -0.12671509225E+04  0.36723324350E+04  0.15229553171E+03  0.38877874045E+04  0.00000000000E+00 0.  1.
<mgrwt>
<rscale>  0 0.77922679E+04</rscale>
<asrwt>0</asrwt>
<pdfrwt beam="1">  1        2 0.57858381E+00 0.77922679E+04</pdfrwt>
<pdfrwt beam="2">  1       -2 0.62097593E+00 0.77922679E+04</pdfrwt>
<totfact> 0.13507903E-04</totfact>
</mgrwt>
</event>
<event>
 6    1  0.1528034E-005  0.1735526E+04  0.7818608E-02  0.8741358E-01
         -1   -1    0    0    0  501 -0.00000000000E+00  0.00000000000E+00  0.93712073092E+03  0.93712073092E+03  0.00000000000E+00 0.  1.
          1   -1    0    0  501    0  0.00000000000E+00 -0.00000000000E+00 -0.80353886109E+03  0.80353886109E+03  0.00000000000E+00 0. -1.
         23    2    1    2    0    0 -0.55157878689E+03 -0.53760312431E+03  0.46281473424E+03  0.90301375012E+03  0.89331278112E+02 0.  0.
         11    1    3    3    0    0 -0.40872726137E+03 -0.40794547555E+03  0.38988808280E+03  0.69677126973E+03  0.00000000000E+00 0. -1.
        -11    1    3    3    0    0 -0.14285152552E+03 -0.12965764876E+03  0.72926651441E+02  0.20624248039E+03  0.00000000000E+00 0.  1.
         22    1    1    2    0    0  0.55157878689E+03  0.53760312431E+03 -0.32923286441E+03  0.83764584189E+03  0.00000000000E+00 0. -1.
<mgrwt>
<rscale>  0 0.17355263E+04</rscale>
<asrwt>0</asrwt>
<pdfrwt beam="1">  1        1 0.12362136E+00 0.17355263E+04</pdfrwt>
<pdfrwt beam="2">  1       -1 0.14417242E+00 0.17355263E+04</pdfrwt>
<totfact> 0.80809700E+00</totfact>
</mgrwt>
</event>
<event>
 6    1  0.1528034E-005  0.1076113E+04  0.7818608E-02  0.9228792E-01
          1   -1    0    0  501    0  0.00000000000E+00  0.00000000000E+00  0.29202552278E+04  0.29202552278E+04  0.00000000000E+00 0. -1.
         -1   -1    0    0    0  501 -0.00000000000E+00 -0.00000000000E+00 -0.99136734999E+02  0.99136734999E+02  0.00000000000E+00 0.  1.
         23    2    1    2    0    0  0.11611141423E+03 -0.74012233606E+02  0.28689014228E+04  0.28736425901E+04  0.90921345057E+02 0.  0.
         11    1    3    3    0    0  0.10270511289E+03 -0.17788072993E+02  0.20912541035E+04  0.20938501572E+04  0.00000000000E+00 0.  1.
        -11    1    3    3    0    0  0.13406301346E+02 -0.56224160613E+02  0.77764731930E+03  0.77979243288E+03  0.00000000000E+00 0. -1.
         22    1    1    2    0    0 -0.11611141423E+03  0.74012233606E+02 -0.47782929967E+02  0.14574937267E+03  0.00000000000E+00 0.  1.
<mgrwt>
<rscale>  0 0.10761126E+04</rscale>
<asrwt>0</asrwt>
<pdfrwt beam="1">  1        1 0.44926997E+00 0.10761126E+04</pdfrwt>
<pdfrwt beam="2">  1       -1 0.15251808E-01 0.10761126E+04</pdfrwt>
<totfact> 0.22203044E+01</totfact>
</mgrwt>
</event>
<event>
 6    1  0.1528034E-005  0.4041302E+04  0.7818608E-02  0.7996266E-01
          2   -1    0    0  501    0  0.00000000000E+00  0.00000000000E+00  0.19768051342E+04  0.19768051342E+04  0.00000000000E+00 0. -1.
         -2   -1    0    0    0  501 -0.00000000000E+00 -0.00000000000E+00 -0.20654696234E+04  0.20654696234E+04  0.00000000000E+00 0.  1.
         23    2    1    2    0    0 -0.19009311545E+04 -0.66627803347E+03 -0.19049423574E+03  0.20253873118E+04  0.91869673873E+02 0.  0.
         13    1    3    3    0    0 -0.69934218879E+03 -0.22537403795E+03 -0.29233310376E+02  0.73534178478E+03  0.00000000000E+00 0. -1.
        -13    1    3    3    0    0 -0.12015889657E+04 -0.44090399552E+03 -0.16126092536E+03  0.12900455270E+04  0.00000000000E+00 0.  1.
         22    1    1    2    0    0  0.19009311545E+04  0.66627803347E+03  0.10182974656E+03  0.20168874459E+04  0.00000000000E+00 0. -1.
<mgrwt>
<rscale>  0 0.40413022E+04</rscale>
<asrwt>0</asrwt>
<pdfrwt beam="1">  1        2 0.30412386E+00 0.40413022E+04</pdfrwt>
<pdfrwt beam="2">  1       -2 0.31776456E+00 0.40413022E+04</pdfrwt>
<totfact> 0.13375589E-01</totfact>
</mgrwt>
</event>
<event>
 6    1  0.1528034E-005  0.2888932E+04  0.7818608E-02  0.8276178E-01
          1   -1    0    0  501    0  0.00000000000E+00  0.00000000000E+00  0.29416378042E+04  0.29416378042E+04  0.00000000000E+00 0. -1.
         -1   -1    0    0    0  501 -0.00000000000E+00 -0.00000000000E+00 -0.70929239630E+03  0.70929239630E+03  0.00000000000E+00 0.  1.
         23    2    1    2    0    0  0.11863410167E+04 -0.58345878830E+03  0.18480124689E+04  0.22741437343E+04  0.93543965690E+02 0.  0.
         13    1    3    3    0    0  0.59476808300E+03 -0.34215783837E+03  0.93266353422E+03  0.11578783731E+04  0.00000000000E+00 0. -1.
        -13    1    3    3    0    0  0.59157293372E+03 -0.24130094993E+03  0.91534893464E+03  0.11162653611E+04  0.00000000000E+00 0.  1.
         22    1    1    2    0    0 -0.11863410167E+04  0.58345878830E+03  0.38433293909E+03  0.13767864663E+04  0.00000000000E+00 0.  1.
<mgrwt>
<rscale>  0 0.28889315E+04</rscale>
<asrwt>0</asrwt>
<pdfrwt beam="1">  1        1 0.45255965E+00 0.28889315E+04</pdfrwt>
<pdfrwt beam="2">  1       -1 0.10912191E+00 0.28889315E+04</pdfrwt>
<totfact> 0.44018439E-01</totfact>
</mgrwt>
</event>
<event>
 6    1  0.1528034E-005  0.1010588E+04  0.7818608E-02  0.9297008E-01
          2   -1    0    0  501    0  0.00000000000E+00  0.00000000000E+00  0.82057230638E+03  0.82057230638E+03  0.00000000000E+00 0. -1.
         -2   -1    0    0    0  501 -0.00000000000E+00 -0.00000000000E+00 -0.31115103966E+03  0.31115103966E+03  0.00000000000E+00 0.  1.
         23    2    1    2    0    0  0.26736659529E+03  0.38044067457E+03  0.47808825919E+02  0.47650884020E+03  0.92493177084E+02 0.  0.
         13    1    3    3    0    0  0.25509969505E+03  0.32763946177E+03  0.63522675725E+02  0.42006975808E+03  0.00000000000E+00 0. -1.
        -13    1    3    3    0    0  0.12266900245E+02  0.52801212799E+02 -0.15713849806E+02  0.56439082119E+02  0.00000000000E+00 0.  1.
         22    1    1    2    0    0 -0.26736659529E+03 -0.38044067457E+03  0.46161244080E+03  0.65521450583E+03  0.00000000000E+00 0. -1.
<mgrwt>
<rscale>  0 0.10105878E+04</rscale>
<asrwt>0</asrwt>
<pdfrwt beam="1">  1        2 0.12624189E+00 0.10105878E+04</pdfrwt>
<pdfrwt beam="2">  1       -2 0.47869391E-01 0.10105878E+04</pdfrwt>
<totfact> 0.13734504E+02</totfact>
</mgrwt>
</event>
<event>
 6    1  0.1528034E-005  0.1880952E+04  0.7818608E-02  0.8664396E-01
          1   -1    0    0  501    0  0.00000000000E+00  0.00000000000E+00  0.15574849919E+04  0.15574849919E+04  0.00000000000E+00 0. -1.
         -1   -1    0    0    0  501 -0.00000000000E+00 -0.00000000000E+00 -0.56789969188E+03  0.56789969188E+03  0.00000000000E+00 0.  1.
         23    2    1    2    0    0 -0.55520408676E+03 -0.44582067105E+03 -0.19484088921E+03  0.74340311863E+03  0.87621778027E+02 0.  0.
         13    1    3    3    0    0 -0.51500300188E+03 -0.39034804028E+03 -0.19463654624E+03  0.67489485820E+03  0.00000000000E+00 0. -1.
        -13    1    3    3    0    0 -0.40201084882E+02 -0.55472630775E+02 -0.20434296794E+00  0.68508260428E+02  0.00000000000E+00 0.  1.
         22    1    1    2    0    0  0.55520408676E+03  0.44582067105E+03  0.11844261893E+04  0.13819815652E+04  0.00000000000E+00 0. -1.
<mgrwt>
<rscale>  0 0.18809521E+04</rscale>
<asrwt>0</asrwt>
<pdfrwt beam="1">  1        1 0.23961307E+00 0.18809521E+04</pdfrwt>
<pdfrwt beam="2">  1       -1 0.87369184E-01 0.18809521E+04</pdfrwt>
<totfact> 0.72124812E+00</totfact>
</mgrwt>
</event>
<event>
 6    1  0.1528034E-005  0.3957873E+04  0.7818608E-02  0.8013099E-01
         -1   -1    0    0    0  501 -0.00000000000E+00  0.00000000000E+00  0.18835718336E+04  0.18835718336E+04  0.00000000000E+00 0.  1.
          1   -1    0    0  501    0  0.00000000000E+00 -0.00000000000E+00 -0.20791291646E+04  0.20791291646E+04  0.00000000000E+00 0. -1.
         23    2    1    2    0    0  0.15580992262E+04  0.12082775933E+04 -0.25384670211E+03  0.19901377946E+04  0.92748865887E+02 0.  0.
         13    1    3    3    0    0  0.44514360695E+03  0.29458242798E+03 -0.58760582447E+02  0.53701437945E+03  0.00000000000E+00 0.  1.
        -13    1    3    3    0    0  0.11129556193E+04  0.91369516534E+03 -0.19508611966E+03  0.14531234152E+04  0.00000000000E+00 0. -1.
         22    1    1    2    0    0 -0.15580992262E+04 -0.12082775933E+04  0.58289371191E+02  0.19725632036E+04  0.00000000000E+00 0. -1.
<mgrwt>
<rscale>  0 0.39578727E+04</rscale>
<asrwt>0</asrwt>
<pdfrwt beam="1">  1        1 0.31986602E+00 0.39578727E+04</pdfrwt>
<pdfrwt beam="2">  1       -1 0.28978029E+00 0.39578727E+04</pdfrwt>
<totfact> 0.79545639E-02</totfact>
</mgrwt>
</event>
<event>
 6    1  0.1528034E-005  0.3822984E+04  0.7818608E-02  0.8041241E-01
          1   -1    0    0  501    0  0.00000000000E+00  0.00000000000E+00  0.17606907848E+04  0.17606907848E+04  0.00000000000E+00 0. -1.
         -1   -1    0    0    0  501 -0.00000000000E+00 -0.00000000000E+00 -0.20752087185E+04  0.20752087185E+04  0.00000000000E+00 0.  1.
         23    2    1    2    0    0  0.11962674613E+04  0.65594985039E+03 -0.14991978830E+04  0.20290257869E+04  0.89584073334E+02 0.  0.
         11    1    3    3    0    0  0.10178364737E+04  0.55736820200E+03 -0.12254507067E+04  0.16877143818E+04  0.00000000000E+00 0.  1.
        -11    1    3    3    0    0  0.17843098756E+03  0.98581648385E+02 -0.27374717628E+03  0.34131140508E+03  0.00000000000E+00 0. -1.
         22    1    1    2    0    0 -0.11962674613E+04 -0.65594985039E+03  0.11846799493E+04  0.18068737165E+04  0.00000000000E+00 0. -1.
<mgrwt>
<rscale>  0 0.38229836E+04</rscale>
<asrwt>0</asrwt>
<pdfrwt beam="1">  1        1 0.27087551E+00 0.38229836E+04</pdfrwt>
<pdfrwt beam="2">  1       -1 0.31926288E+00 0.38229836E+04</pdfrwt>
<totfact> 0.85140485E-02</totfact>
</mgrwt>
</event>
<event>
 6    1  0.1528034E-005  0.2157986E+04  0.7818608E-02  0.8536122E-01
          1   -1    0    0  501    0  0.00000000000E+00  0.00000000000E+00  0.15739239647E+04  0.15739239647E+04  0.00000000000E+00 0. -1.
         -1   -1    0    0    0  501 -0.00000000000E+00 -0.00000000000E+00 -0.73969638831E+03  0.73969638831E+03  0.00000000000E+00 0.  1.
         23    2    1    2    0    0  0.30187625691E+03  0.82941341761E+03 -0.24327355767E+03  0.92075834056E+03  0.97765055291E+02 0.  0.
         11    1    3    3    0    0  0.24252549178E+03  0.63185395628E+03 -0.14452592738E+03  0.69205908701E+03  0.00000000000E+00 0. -1.
        -11    1    3    3    0    0  0.59350765138E+02  0.19755946134E+03 -0.98747630289E+02  0.22869925355E+03  0.00000000000E+00 0.  1.
         22    1    1    2    0    0 -0.30187625691E+03 -0.82941341761E+03  0.10775011340E+04  0.13928620124E+04  0.00000000000E+00 0. -1.
<mgrwt>
<rscale>  0 0.21579860E+04</rscale>
<asrwt>0</asrwt>
<pdfrwt beam="1">  1        1 0.24214215E+00 0.21579860E+04</pdfrwt>
<pdfrwt beam="2">  1       -1 0.11379944E+00 0.21579860E+04</pdfrwt>
<totfact> 0.37456686E+00</totfact>
</mgrwt>
</event>
<event>
 6    1  0.1528034E-005  0.1774157E+04  0.7818608E-02  0.8720165E-01
         -2   -1    0    0    0  501 -0.00000000000E+00  0.00000000000E+00  0.32521690957E+03  0.32521690957E+03  0.00000000000E+00 0.  1.
          2   -1    0    0  501    0  0.00000000000E+00 -0.00000000000E+00 -0.24196399719E+04  0.24196399719E+04  0.00000000000E+00 0. -1.
         23    2    1    2    0    0 -0.51978621913E+03 -0.52952363933E+03 -0.30434160850E+03  0.80708377567E+03  0.90484297460E+02 0.  0.
         13    1    3    3    0    0 -0.36925805676E+03 -0.33439579529E+03 -0.23660989503E+03  0.55150367434E+03  0.00000000000E+00 0. -1.
        -13    1    3    3    0    0 -0.15052816236E+03 -0.19512784404E+03 -0.67731713474E+02  0.25558010133E+03  0.00000000000E+00 0.  1.
         22    1    1    2    0    0  0.51978621913E+03  0.52952363933E+03 -0.17900814538E+04  0.19377731058E+04  0.00000000000E+00 0. -1.
<mgrwt>
<rscale>  0 0.17741565E+04</rscale>
<asrwt>0</asrwt>
<pdfrwt beam="1">  1        2 0.37225229E+00 0.17741565E+04</pdfrwt>
<pdfrwt beam="2">  1       -2 0.50033373E-01 0.17741565E+04</pdfrwt>
<totfact> 0.13862055E+01</totfact>
</mgrwt>
</event>
<event>
 6    1  0.1528034E-005  0.1761754E+04  0.7818608E-02  0.8726907E-01
          1   -1    0    0  501    0  0.00000000000E+00  0.00000000000E+00  0.15961877330E+04  0.15961877330E+04  0.00000000000E+00 0. -1.
         -1   -1    0    0    0  501 -0.00000000000E+00 -0.00000000000E+00 -0.48612345960E+03  0.48612345960E+03  0.00000000000E+00 0.  1.
         23    2    1    2    0    0 -0.36230194133E+03 -0.44207488572E+03  0.13450329876E+04  0.14643280229E+04  0.91923445205E+02 0.  0.
         11    1    3    3    0    0 -0.69204858619E+02 -0.93562858854E+02  0.37666281587E+03  0.39423114777E+03  0.00000000000E+00 0. -1.
        -11    1    3    3    0    0 -0.29309708271E+03 -0.34851202687E+03  0.96837017171E+03  0.10700968752E+04  0.00000000000E+00 0.  1.
         22    1    1    2    0    0  0.36230194133E+03  0.44207488572E+03 -0.23496871423E+03  0.61798316963E+03  0.00000000000E+00 0.  1.
<mgrwt>
<rscale>  0 0.17617540E+04</rscale>
<asrwt>0</asrwt>
<pdfrwt beam="1">  1        1 0.24556734E+00 0.17617540E+04</pdfrwt>
<pdfrwt beam="2">  1       -1 0.74788225E-01 0.17617540E+04</pdfrwt>
<totfact> 0.95577619E+00</totfact>
</mgrwt>
</event>
<event>
 6    1  0.1528034E-005  0.2813444E+04  0.7818608E-02  0.8299107E-01
          1   -1    0    0  501    0  0.00000000000E+00  0.00000000000E+00  0.34825907312E+04  0.34825907312E+04  0.00000000000E+00 0. -1.
         -1   -1    0    0    0  501 -0.00000000000E+00 -0.00000000000E+00 -0.56821689224E+03  0.56821689224E+03  0.00000000000E+00 0.  1.
         23    2    1    2    0    0  0.17454610303E+03  0.13591680509E+04  0.10107419377E+04  0.17052546933E+04  0.92142127720E+02 0.  0.
         11    1    3    3    0    0  0.10689235577E+03  0.90486592164E+03  0.72406235599E+03  0.11638189753E+04  0.00000000000E+00 0. -1.
        -11    1    3    3    0    0  0.67653747262E+02  0.45430212926E+03  0.28667958173E+03  0.54143571803E+03  0.00000000000E+00 0.  1.
         22    1    1    2    0    0 -0.17454610303E+03 -0.13591680509E+04  0.19036319012E+04  0.23455529301E+04  0.00000000000E+00 0. -1.
<mgrwt>
<rscale>  0 0.28134441E+04</rscale>
<asrwt>0</asrwt>
<pdfrwt beam="1">  1        1 0.53578318E+00 0.28134441E+04</pdfrwt>
<pdfrwt beam="2">  1       -1 0.87417986E-01 0.28134441E+04</pdfrwt>
<totfact> 0.28711071E-01</totfact>
</mgrwt>
</event>
<event>
 6    1  0.1528034E-005  0.2965951E+04  0.7818608E-02  0.8253521E-01
          1   -1    0    0  501    0  0.00000000000E+00  0.00000000000E+00  0.13848221888E+04  0.13848221888E+04  0.00000000000E+00 0. -1.
         -1   -1    0    0    0  501 -0.00000000000E+00 -0.00000000000E+00 -0.15880861442E+04  0.15880861442E+04  0.00000000000E+00 0.  1.
         23    2    1    2    0    0 -0.88160722806E+03  0.39273043763E+03  0.10250851357E+04  0.14107591754E+04  0.89293976036E+02 0.  0.
         11    1    3    3    0    0 -0.21421311040E+03  0.13677197198E+03  0.25355019606E+03  0.35900073943E+03  0.00000000000E+00 0. -1.
        -11    1    3    3    0    0 -0.66739411767E+03  0.25595846565E+03  0.77153493966E+03  0.10517584359E+04  0.00000000000E+00 0.  1.
         22    1    1    2    0    0  0.88160722806E+03 -0.39273043763E+03 -0.12283490911E+04  0.15621491577E+04  0.00000000000E+00 0.  1.
<mgrwt>
<rscale>  0 0.29659514E+04</rscale>
<asrwt>0</asrwt>
<pdfrwt beam="1">  1        1 0.21304957E+00 0.29659514E+04</pdfrwt>
<pdfrwt beam="2">  1       -1 0.24432094E+00 0.29659514E+04</pdfrwt>
<totfact> 0.51044366E-01</totfact>
</mgrwt>
</event>
<event>
 6    1  0.1528034E-005  0.9944442E+03  0.7818608E-02  0.9314659E-01
          2   -1    0    0  501    0  0.00000000000E+00  0.00000000000E+00  0.12878059355E+04  0.12878059355E+04  0.00000000000E+00 0.  1.
         -2   -1    0    0    0  501 -0.00000000000E+00 -0.00000000000E+00 -0.19197752571E+03  0.19197752571E+03  0.00000000000E+00 0. -1.
         23    2    1    2    0    0 -0.41504779088E+03  0.13578887107E+03  0.89281243667E+03  0.99820400613E+03  0.92703314735E+02 0.  0.
         11    1    3    3    0    0 -0.49028045404E+02  0.17338219706E+02  0.51909109750E+02  0.73477335102E+02  0.00000000000E+00 0.  1.
        -11    1    3    3    0    0 -0.36601974548E+03  0.11845065136E+03  0.84090332692E+03  0.92472667103E+03  0.00000000000E+00 0. -1.
         22    1    1    2    0    0  0.41504779088E+03 -0.13578887107E+03  0.20301597312E+03  0.48157945509E+03  0.00000000000E+00 0. -1.
<mgrwt>
<rscale>  0 0.99444416E+03</rscale>
<asrwt>0</asrwt>
<pdfrwt beam="1">  1        2 0.19812398E+00 0.99444416E+03</pdfrwt>
<pdfrwt beam="2">  1       -2 0.29535005E-01 0.99444416E+03</pdfrwt>
<totfact> 0.17693454E+02</totfact>
</mgrwt>
</event>
<event>
 6    1  0.1528034E-005  0.4497731E+04  0.7818608E-02  0.7911034E-01
          1   -1    0    0  501    0  0.00000000000E+00  0.00000000000E+00  0.23717159160E+04  0.23717159160E+04  0.00000000000E+00 0. -1.
         -1   -1    0    0    0  501 -0.00000000000E+00 -0.00000000000E+00 -0.21323783720E+04  0.21323783720E+04  0.00000000000E+00 0.  1.
         23    2    1    2    0    0 -0.13951374344E+04  0.71473380768E+03 -0.14937548512E+04  0.21672455281E+04  0.91633764728E+02 0.  0.
         11    1    3    3    0    0 -0.11906924907E+04  0.58886747829E+03 -0.13013596179E+04  0.18595833860E+04  0.00000000000E+00 0.  1.
        -11    1    3    3    0    0 -0.20444494367E+03  0.12586632940E+03 -0.19239523333E+03  0.30766214209E+03  0.00000000000E+00 0. -1.
         22    1    1    2    0    0  0.13951374344E+04 -0.71473380768E+03  0.17330923952E+04  0.23368487600E+04  0.00000000000E+00 0. -1.
<mgrwt>
<rscale>  0 0.44977309E+04</rscale>
<asrwt>0</asrwt>
<pdfrwt beam="1">  1        1 0.36487937E+00 0.44977309E+04</pdfrwt>
<pdfrwt beam="2">  1       -1 0.32805821E+00 0.44977309E+04</pdfrwt>
<totfact> 0.27071711E-02</totfact>
</mgrwt>
</event>
<event>
 6    1  0.1528034E-005  0.8397910E+03  0.7818608E-02  0.9504142E-01
          2   -1    0    0  501    0  0.00000000000E+00  0.00000000000E+00  0.19722708713E+04  0.19722708713E+04  0.00000000000E+00 0.  1.
         -2   -1    0    0    0  501 -0.00000000000E+00 -0.00000000000E+00 -0.89395545527E+02  0.89395545527E+02  0.00000000000E+00 0. -1.
         23    2    1    2    0    0 -0.49909193146E+02 -0.34615804544E+03  0.15006368141E+04  0.15435712520E+04  0.91569876654E+02 0.  0.
         13    1    3    3    0    0 -0.18903073355E+02 -0.87610162116E+02  0.23695754210E+03  0.25334116019E+03  0.00000000000E+00 0. -1.
        -13    1    3    3    0    0 -0.31006119790E+02 -0.25854788332E+03  0.12636792719E+04  0.12902300918E+04  0.00000000000E+00 0.  1.
         22    1    1    2    0    0  0.49909193146E+02  0.34615804544E+03  0.38223851173E+03  0.51809516484E+03  0.00000000000E+00 0. -1.
<mgrwt>
<rscale>  0 0.83979100E+03</rscale>
<asrwt>0</asrwt>
<pdfrwt beam="1">  1        2 0.30342625E+00 0.83979100E+03</pdfrwt>
<pdfrwt beam="2">  1       -2 0.13753162E-01 0.83979100E+03</pdfrwt>
<totfact> 0.28522656E+02</totfact>
</mgrwt>
</event>
<event>
 6    1  0.1528034E-005  0.3360401E+04  0.7818608E-02  0.8147694E-01
          2   -1    0    0  501    0  0.00000000000E+00  0.00000000000E+00  0.31269003314E+04  0.31269003314E+04  0.00000000000E+00 0. -1.
         -2   -1    0    0    0  501 -0.00000000000E+00 -0.00000000000E+00 -0.90283436962E+03  0.90283436962E+03  0.00000000000E+00 0.  1.
         23    2    1    2    0    0 -0.13860779926E+04  0.94747187510E+03  0.11184254605E+04  0.20194222692E+04  0.90970517226E+02 0.  0.
         11    1    3    3    0    0 -0.86211320381E+03  0.63728487027E+03  0.69098409437E+03  0.12754725402E+04  0.00000000000E+00 0.  1.
        -11    1    3    3    0    0 -0.52396478875E+03  0.31018700483E+03  0.42744136611E+03  0.74394972900E+03  0.00000000000E+00 0. -1.
         22    1    1    2    0    0  0.13860779926E+04 -0.94747187510E+03  0.11056405013E+04  0.20103124319E+04  0.00000000000E+00 0.  1.
<mgrwt>
<rscale>  0 0.33604006E+04</rscale>
<asrwt>0</asrwt>
<pdfrwt beam="1">  1        2 0.48106158E+00 0.33604006E+04</pdfrwt>
<pdfrwt beam="2">  1       -2 0.13889760E+00 0.33604006E+04</pdfrwt>
<totfact> 0.44026477E-01</totfact>
</mgrwt>
</event>
<event>
 6    1  0.1528034E-005  0.3116413E+04  0.7818608E-02  0.8211248E-01
         -1   -1    0    0    0  501 -0.00000000000E+00  0.00000000000E+00  0.21291024187E+04  0.21291024187E+04  0.00000000000E+00 0.  1.
          1   -1    0    0  501    0  0.00000000000E+00 -0.00000000000E+00 -0.11403901916E+04  0.11403901916E+04  0.00000000000E+00 0. -1.
         23    2    1    2    0    0 -0.69483391060E+03 -0.13866763170E+04  0.63630431140E+03  0.16789402815E+04  0.91059984562E+02 0.  0.
         13    1    3    3    0    0 -0.28418237218E+03 -0.47268583646E+03  0.21470701219E+03  0.59185354754E+03  0.00000000000E+00 0. -1.
        -13    1    3    3    0    0 -0.41065153843E+03 -0.91399048053E+03  0.42159729921E+03  0.10870867340E+04  0.00000000000E+00 0.  1.
         22    1    1    2    0    0  0.69483391060E+03  0.13866763170E+04  0.35240791577E+03  0.15905523288E+04  0.00000000000E+00 0. -1.
<mgrwt>
<rscale>  0 0.31164130E+04</rscale>
<asrwt>0</asrwt>
<pdfrwt beam="1">  1        1 0.17544464E+00 0.31164130E+04</pdfrwt>
<pdfrwt beam="2">  1       -1 0.32755422E+00 0.31164130E+04</pdfrwt>
<totfact> 0.21760238E-01</totfact>
</mgrwt>
</event>
<event>
 6    1  0.1528034E-005  0.2423594E+04  0.7818608E-02  0.8430723E-01
         -2   -1    0    0    0  501 -0.00000000000E+00  0.00000000000E+00  0.64904473230E+03  0.64904473230E+03  0.00000000000E+00 0.  1.
          2   -1    0    0  501    0  0.00000000000E+00 -0.00000000000E+00 -0.22624812533E+04  0.22624812533E+04  0.00000000000E+00 0. -1.
         23    2    1    2    0    0  0.11000924355E+04 -0.34761021788E+03 -0.36944384430E+03  0.12148957931E+04  0.91906494615E+02 0.  0.
         11    1    3    3    0    0  0.87564640701E+03 -0.29322097585E+03 -0.32987846959E+03  0.98058909615E+03  0.00000000000E+00 0. -1.
        -11    1    3    3    0    0  0.22444602854E+03 -0.54389242038E+02 -0.39565374712E+02  0.23430669698E+03  0.00000000000E+00 0.  1.
         22    1    1    2    0    0 -0.11000924355E+04  0.34761021788E+03 -0.12439926767E+04  0.16966301925E+04  0.00000000000E+00 0. -1.
<mgrwt>
<rscale>  0 0.24235936E+04</rscale>
<asrwt>0</asrwt>
<pdfrwt beam="1">  1        2 0.34807405E+00 0.24235936E+04</pdfrwt>
<pdfrwt beam="2">  1       -2 0.99853034E-01 0.24235936E+04</pdfrwt>
<totfact> 0.35414506E+00</totfact>
</mgrwt>
</event>
<event>
 6    1  0.1528034E-005  0.3217095E+04  0.7818608E-02  0.8184317E-01
         -2   -1    0    0    0  501 -0.00000000000E+00  0.00000000000E+00  0.20208168003E+04  0.20208168003E+04  0.00000000000E+00 0.  1.
          2   -1    0    0  501    0  0.00000000000E+00 -0.00000000000E+00 -0.12803858081E+04  0.12803858081E+04  0.00000000000E+00 0. -1.
         23    2    1    2    0    0  0.27622859560E+03 -0.78541063459E+03  0.17813553588E+04  0.19682751389E+04  0.87795250654E+02 0.  0.
         13    1    3    3    0    0  0.15189331075E+03 -0.55187390561E+03  0.12389633404E+04  0.13647954222E+04  0.00000000000E+00 0.  1.
        -13    1    3    3    0    0  0.12433528485E+03 -0.23353672897E+03  0.54239201846E+03  0.60347971675E+03  0.00000000000E+00 0. -1.
         22    1    1    2    0    0 -0.27622859560E+03  0.78541063459E+03 -0.10409243666E+04  0.13329274695E+04  0.00000000000E+00 0. -1.
<mgrwt>
<rscale>  0 0.32170951E+04</rscale>
<asrwt>0</asrwt>
<pdfrwt beam="1">  1        2 0.19698243E+00 0.32170951E+04</pdfrwt>
<pdfrwt beam="2">  1       -2 0.31089489E+00 0.32170951E+04</pdfrwt>
<totfact> 0.38884823E-01</totfact>
</mgrwt>
</event>
<event>
 6    1  0.1528034E-005  0.8997786E+03  0.7818608E-02  0.9425858E-01
          1   -1    0    0  501    0  0.00000000000E+00  0.00000000000E+00  0.44414282782E+03  0.44414282782E+03  0.00000000000E+00 0. -1.
         -1   -1    0    0    0  501 -0.00000000000E+00 -0.00000000000E+00 -0.45571014126E+03  0.45571014126E+03  0.00000000000E+00 0.  1.
         23    2    1    2    0    0  0.40093537659E+03 -0.18237772327E+03 -0.73569992794E+02  0.45504386126E+03  0.87416026475E+02 0.  0.
         13    1    3    3    0    0  0.73129089445E+02  0.14930496103E+01 -0.14737537877E+02  0.74614260989E+02  0.00000000000E+00 0.  1.
        -13    1    3    3    0    0  0.32780628715E+03 -0.18387077288E+03 -0.58832454917E+02  0.38042960027E+03  0.00000000000E+00 0. -1.
         22    1    1    2    0    0 -0.40093537659E+03  0.18237772327E+03  0.62002679362E+02  0.44480910782E+03  0.00000000000E+00 0. -1.
<mgrwt>
<rscale>  0 0.89977862E+03</rscale>
<asrwt>0</asrwt>
<pdfrwt beam="1">  1        1 0.68329666E-01 0.89977862E+03</pdfrwt>
<pdfrwt beam="2">  1       -1 0.70109252E-01 0.89977862E+03</pdfrwt>
<totfact> 0.10809460E+02</totfact>
</mgrwt>
</event>
<event>
 6    1  0.1528034E-005  0.5535353E+03  0.7818608E-02  0.1000679E+00
         -2   -1    0    0    0  501 -0.00000000000E+00  0.00000000000E+00  0.10382750917E+04  0.10382750917E+04  0.00000000000E+00 0.  1.
          2   -1    0    0  501    0  0.00000000000E+00 -0.00000000000E+00 -0.73776529327E+02  0.73776529327E+02  0.00000000000E+00 0. -1.
         23    2    1    2    0    0 -0.25449693823E+03 -0.82848256943E+02  0.54151034943E+03  0.61150037136E+03  0.95219327844E+02 0.  0.
         13    1    3    3    0    0 -0.92216674801E+02 -0.41226326122E+02  0.11388178457E+03  0.15222544444E+03  0.00000000000E+00 0.  1.
        -13    1    3    3    0    0 -0.16228026343E+03 -0.41621930821E+02  0.42762856485E+03  0.45927492692E+03  0.00000000000E+00 0. -1.
         22    1    1    2    0    0  0.25449693823E+03  0.82848256943E+02  0.42298821292E+03  0.50055124964E+03  0.00000000000E+00 0. -1.
<mgrwt>
<rscale>  0 0.55353530E+03</rscale>
<asrwt>0</asrwt>
<pdfrwt beam="1">  1        2 0.11350236E-01 0.55353530E+03</pdfrwt>
<pdfrwt beam="2">  1       -2 0.15973462E+00 0.55353530E+03</pdfrwt>
<totfact> 0.14600208E+02</totfact>
</mgrwt>
</event>
<event>
 6    1  0.1528034E-005  0.3307389E+04  0.7818608E-02  0.8161018E-01
         -1   -1    0    0    0  501 -0.00000000000E+00  0.00000000000E+00  0.11806792169E+04  0.11806792169E+04  0.00000000000E+00 0.  1.
          1   -1    0    0  501    0  0.00000000000E+00 -0.00000000000E+00 -0.23162133640E+04  0.23162133640E+04  0.00000000000E+00 0. -1.
         23    2    1    2    0    0  0.53013826422E+03  0.34885104213E+03 -0.21813532759E+04  0.22735850648E+04  0.90240256509E+02 0.  0.
         11    1    3    3    0    0  0.30643248144E+03  0.19351967097E+03 -0.13990630017E+04  0.14452432361E+04  0.00000000000E+00 0. -1.
        -11    1    3    3    0    0  0.22370578278E+03  0.15533137116E+03 -0.78229027424E+03  0.82834182877E+03  0.00000000000E+00 0.  1.
         22    1    1    2    0    0 -0.53013826422E+03 -0.34885104213E+03  0.10458191288E+04  0.12233075161E+04  0.00000000000E+00 0.  1.
<mgrwt>
<rscale>  0 0.33073887E+04</rscale>
<asrwt>0</asrwt>
<pdfrwt beam="1">  1        1 0.35634052E+00 0.33073887E+04</pdfrwt>
<pdfrwt beam="2">  1       -1 0.18164296E+00 0.33073887E+04</pdfrwt>
<totfact> 0.30460178E-01</totfact>
</mgrwt>
</event>
<event>
 6    1  0.1528034E-005  0.3284757E+04  0.7818608E-02  0.8166785E-01
          2   -1    0    0  501    0  0.00000000000E+00  0.00000000000E+00  0.19523290007E+04  0.19523290007E+04  0.00000000000E+00 0. -1.
         -2   -1    0    0    0  501 -0.00000000000E+00 -0.00000000000E+00 -0.13816351659E+04  0.13816351659E+04  0.00000000000E+00 0.  1.
         23    2    1    2    0    0  0.86396043567E+03  0.23027172082E+03  0.16819063021E+04  0.19076942598E+04  0.10505179691E+03 0.  0.
         13    1    3    3    0    0  0.17339960716E+03  0.89200348691E+02  0.34008583146E+03  0.39202359460E+03  0.00000000000E+00 0. -1.
        -13    1    3    3    0    0  0.69056082851E+03  0.14107137213E+03  0.13418204706E+04  0.15156706652E+04  0.00000000000E+00 0.  1.
         22    1    1    2    0    0 -0.86396043567E+03 -0.23027172082E+03 -0.11112124673E+04  0.14262699069E+04  0.00000000000E+00 0.  1.
<mgrwt>
<rscale>  0 0.32847566E+04</rscale>
<asrwt>0</asrwt>
<pdfrwt beam="1">  1        2 0.30035831E+00 0.32847566E+04</pdfrwt>
<pdfrwt beam="2">  1       -2 0.21255926E+00 0.32847566E+04</pdfrwt>
<totfact> 0.65480839E-01</totfact>
</mgrwt>
</event>
<event>
 6    1  0.1528034E-005  0.2609365E+04  0.7818608E-02  0.8365027E-01
          2   -1    0    0  501    0  0.00000000000E+00  0.00000000000E+00  0.14709796404E+04  0.14709796404E+04  0.00000000000E+00 0. -1.
         -2   -1    0    0    0  501 -0.00000000000E+00 -0.00000000000E+00 -0.11571858733E+04  0.11571858733E+04  0.00000000000E+00 0.  1.
         23    2    1    2    0    0  0.90784831993E+03 -0.64616447927E+03 -0.52333281184E+03  0.12344302392E+04  0.90684492619E+02 0.  0.
         13    1    3    3    0    0  0.34330735521E+03 -0.21271723305E+03 -0.15095300485E+03  0.43115585471E+03  0.00000000000E+00 0. -1.
        -13    1    3    3    0    0  0.56454096472E+03 -0.43344724622E+03 -0.37237980699E+03  0.80327438447E+03  0.00000000000E+00 0.  1.
         22    1    1    2    0    0 -0.90784831993E+03  0.64616447927E+03  0.83712657892E+03  0.13937352745E+04  0.00000000000E+00 0. -1.
<mgrwt>
<rscale>  0 0.26093653E+04</rscale>
<asrwt>0</asrwt>
<pdfrwt beam="1">  1        2 0.22630456E+00 0.26093653E+04</pdfrwt>
<pdfrwt beam="2">  1       -2 0.17802860E+00 0.26093653E+04</pdfrwt>
<totfact> 0.21808012E+00</totfact>
</mgrwt>
</event>
<event>
 6    1  0.1528034E-005  0.3182023E+04  0.7818608E-02  0.8193581E-01
          2   -1    0    0  501    0  0.00000000000E+00  0.00000000000E+00  0.17091985731E+04  0.17091985731E+04  0.00000000000E+00 0. -1.
         -2   -1    0    0    0  501 -0.00000000000E+00 -0.00000000000E+00 -0.14809971742E+04  0.14809971742E+04  0.00000000000E+00 0.  1.
         23    2    1    2    0    0 -0.19404230742E+03  0.15115496348E+03  0.16889910618E+04  0.17088427578E+04  0.83381796853E+02 0.  0.
         13    1    3    3    0    0 -0.17980747286E+03  0.15878629023E+03  0.14888564283E+04  0.15080574516E+04  0.00000000000E+00 0. -1.
        -13    1    3    3    0    0 -0.14234834562E+02 -0.76313267488E+01  0.20013463347E+03  0.20078530618E+03  0.00000000000E+00 0.  1.
         22    1    1    2    0    0  0.19404230742E+03 -0.15115496348E+03 -0.14607896629E+04  0.14813529894E+04  0.00000000000E+00 0.  1.
<mgrwt>
<rscale>  0 0.31820234E+04</rscale>
<asrwt>0</asrwt>
<pdfrwt beam="1">  1        2 0.26295363E+00 0.31820234E+04</pdfrwt>
<pdfrwt beam="2">  1       -2 0.22784572E+00 0.31820234E+04</pdfrwt>
<totfact> 0.72093108E-01</totfact>
</mgrwt>
</event>
<event>
 6    1  0.1528034E-005  0.2149285E+04  0.7818608E-02  0.8539838E-01
          2   -1    0    0  501    0  0.00000000000E+00  0.00000000000E+00  0.26588073222E+04  0.26588073222E+04  0.00000000000E+00 0. -1.
         -2   -1    0    0    0  501 -0.00000000000E+00 -0.00000000000E+00 -0.43435135842E+03  0.43435135842E+03  0.00000000000E+00 0.  1.
         23    2    1    2    0    0  0.54277854226E+03  0.91751069047E+03  0.12862081976E+04  0.16730378112E+04  0.91047114382E+02 0.  0.
         13    1    3    3    0    0  0.86676273591E+02  0.21607093220E+03  0.29965913038E+03  0.37946675555E+03  0.00000000000E+00 0.  1.
        -13    1    3    3    0    0  0.45610226867E+03  0.70143975827E+03  0.98654906720E+03  0.12935710556E+04  0.00000000000E+00 0. -1.
         22    1    1    2    0    0 -0.54277854226E+03 -0.91751069047E+03  0.93824776622E+03  0.14201208695E+04  0.00000000000E+00 0.  1.
<mgrwt>
<rscale>  0 0.21492851E+04</rscale>
<asrwt>0</asrwt>
<pdfrwt beam="1">  1        2 0.40904727E+00 0.21492851E+04</pdfrwt>
<pdfrwt beam="2">  1       -2 0.66823287E-01 0.21492851E+04</pdfrwt>
<totfact> 0.53059779E+00</totfact>
</mgrwt>
</event>
<event>
 6    1  0.1528034E-005  0.2181010E+04  0.7818608E-02  0.8526374E-01
          2   -1    0    0  501    0  0.00000000000E+00  0.00000000000E+00  0.20737503978E+04  0.20737503978E+04  0.00000000000E+00 0.  1.
         -2   -1    0    0    0  501 -0.00000000000E+00 -0.00000000000E+00 -0.57345444340E+03  0.57345444340E+03  0.00000000000E+00 0. -1.
         23    2    1    2    0    0 -0.72012307821E+03  0.37966788077E+03 -0.12539345235E+03  0.82907640936E+03  0.94441660321E+02 0.  0.
         13    1    3    3    0    0 -0.32607838956E+03  0.21381621759E+03 -0.30309774034E+02  0.39110506701E+03  0.00000000000E+00 0.  1.
        -13    1    3    3    0    0 -0.39404468865E+03  0.16585166318E+03 -0.95083678321E+02  0.43797134234E+03  0.00000000000E+00 0. -1.
         22    1    1    2    0    0  0.72012307821E+03 -0.37966788077E+03  0.16256894068E+04  0.18181284319E+04  0.00000000000E+00 0.  1.
<mgrwt>
<rscale>  0 0.21810102E+04</rscale>
<asrwt>0</asrwt>
<pdfrwt beam="1">  1        2 0.31903852E+00 0.21810102E+04</pdfrwt>
<pdfrwt beam="2">  1       -2 0.88223761E-01 0.21810102E+04</pdfrwt>
<totfact> 0.61557537E+00</totfact>
</mgrwt>
</event>
<event>
 6    1  0.1528034E-005  0.1255176E+04  0.7818608E-02  0.9065886E-01
          2   -1    0    0  501    0  0.00000000000E+00  0.00000000000E+00  0.95874113519E+03  0.95874113519E+03  0.00000000000E+00 0. -1.
         -2   -1    0    0    0  501 -0.00000000000E+00 -0.00000000000E+00 -0.41081660971E+03  0.41081660971E+03  0.00000000000E+00 0.  1.
         23    2    1    2    0    0 -0.11942198060E+03  0.51732305468E+03 -0.82662552081E+02  0.54522479350E+03  0.92478243801E+02 0.  0.
         11    1    3    3    0    0 -0.10241907801E+03  0.28629535626E+03 -0.17429905535E+02  0.30456280167E+03  0.00000000000E+00 0.  1.
        -11    1    3    3    0    0 -0.17002902586E+02  0.23102769843E+03 -0.65232646546E+02  0.24066199183E+03  0.00000000000E+00 0. -1.
         22    1    1    2    0    0  0.11942198060E+03 -0.51732305468E+03  0.63058707757E+03  0.82433295139E+03  0.00000000000E+00 0. -1.
<mgrwt>
<rscale>  0 0.12551761E+04</rscale>
<asrwt>0</asrwt>
<pdfrwt beam="1">  1        2 0.14749864E+00 0.12551761E+04</pdfrwt>
<pdfrwt beam="2">  1       -2 0.63202556E-01 0.12551761E+04</pdfrwt>
<totfact> 0.61087821E+01</totfact>
</mgrwt>
</event>
<event>
 6    1  0.1528034E-005  0.2001817E+04  0.7818608E-02  0.8605772E-01
         -2   -1    0    0    0  501 -0.00000000000E+00  0.00000000000E+00  0.18828495762E+04  0.18828495762E+04  0.00000000000E+00 0. -1.
          2   -1    0    0  501    0  0.00000000000E+00 -0.00000000000E+00 -0.53207527048E+03  0.53207527048E+03  0.00000000000E+00 0.  1.
         23    2    1    2    0    0 -0.18751424457E+03 -0.94037522553E+03  0.10146315220E+04  0.13988248871E+04  0.88129352152E+02 0.  0.
         11    1    3    3    0    0 -0.86000620457E+02 -0.48412166928E+03  0.45785614267E+03  0.67186467742E+03  0.00000000000E+00 0. -1.
        -11    1    3    3    0    0 -0.10151362411E+03 -0.45625355624E+03  0.55677537932E+03  0.72696020970E+03  0.00000000000E+00 0.  1.
         22    1    1    2    0    0  0.18751424457E+03  0.94037522553E+03  0.33614278368E+03  0.10160999595E+04  0.00000000000E+00 0.  1.
<mgrwt>
<rscale>  0 0.20018169E+04</rscale>
<asrwt>0</asrwt>
<pdfrwt beam="1">  1        2 0.81857735E-01 0.20018169E+04</pdfrwt>
<pdfrwt beam="2">  1       -2 0.28966916E+00 0.20018169E+04</pdfrwt>
<totfact> 0.19564904E+00</totfact>
</mgrwt>
</event>
<event>
 6    1  0.1528034E-005  0.3238790E+04  0.7818608E-02  0.8178647E-01
         -1   -1    0    0    0  501 -0.00000000000E+00  0.00000000000E+00  0.15724924775E+04  0.15724924775E+04  0.00000000000E+00 0.  1.
          1   -1    0    0  501    0  0.00000000000E+00 -0.00000000000E+00 -0.16676968566E+04  0.16676968566E+04  0.00000000000E+00 0. -1.
         23    2    1    2    0    0 -0.11843263708E+04  0.27255587362E+03  0.10210891996E+04  0.15900296416E+04  0.93034674409E+02 0.  0.
         13    1    3    3    0    0 -0.70752439074E+03  0.17123721831E+03  0.55247978810E+03  0.91386370138E+03  0.00000000000E+00 0. -1.
        -13    1    3    3    0    0 -0.47680198004E+03  0.10131865531E+03  0.46860941154E+03  0.67616594019E+03  0.00000000000E+00 0.  1.
         22    1    1    2    0    0  0.11843263708E+04 -0.27255587362E+03 -0.11162935787E+04  0.16501596925E+04  0.00000000000E+00 0. -1.
<mgrwt>
<rscale>  0 0.32387904E+04</rscale>
<asrwt>0</asrwt>
<pdfrwt beam="1">  1        1 0.25656875E+00 0.32387904E+04</pdfrwt>
<pdfrwt beam="2">  1       -1 0.24192192E+00 0.32387904E+04</pdfrwt>
<totfact> 0.32931293E-01</totfact>
</mgrwt>
</event>
<event>
 6    1  0.1528034E-005  0.4156684E+04  0.7818608E-02  0.7973663E-01
         -1   -1    0    0    0  501 -0.00000000000E+00  0.00000000000E+00  0.19907090665E+04  0.19907090665E+04  0.00000000000E+00 0.  1.
          1   -1    0    0  501    0  0.00000000000E+00 -0.00000000000E+00 -0.21698327042E+04  0.21698327042E+04  0.00000000000E+00 0. -1.
         23    2    1    2    0    0 -0.57253761433E+03  0.19621883332E+04 -0.46047503747E+03  0.20972577415E+04  0.92034772773E+02 0.  0.
         13    1    3    3    0    0 -0.68847098221E+02  0.25294924417E+03 -0.90595419834E+02  0.27736397234E+03  0.00000000000E+00 0. -1.
        -13    1    3    3    0    0 -0.50369051611E+03  0.17092390890E+04 -0.36987961763E+03  0.18198937692E+04  0.00000000000E+00 0.  1.
         22    1    1    2    0    0  0.57253761433E+03 -0.19621883332E+04  0.28135139983E+03  0.20632840292E+04  0.00000000000E+00 0.  1.
<mgrwt>
<rscale>  0 0.41566841E+04</rscale>
<asrwt>0</asrwt>
<pdfrwt beam="1">  1        1 0.33382041E+00 0.41566841E+04</pdfrwt>
<pdfrwt beam="2">  1       -1 0.30626294E+00 0.41566841E+04</pdfrwt>
<totfact> 0.53079964E-02</totfact>
</mgrwt>
</event>
<event>
 6    1  0.1528034E-005  0.9410002E+03  0.7818608E-02  0.9375732E-01
          1   -1    0    0  501    0  0.00000000000E+00  0.00000000000E+00  0.18466861684E+04  0.18466861684E+04  0.00000000000E+00 0. -1.
         -1   -1    0    0    0  501 -0.00000000000E+00 -0.00000000000E+00 -0.11987436538E+03  0.11987436538E+03  0.00000000000E+00 0.  1.
         23    2    1    2    0    0  0.15338590575E+02  0.32800833880E+03  0.15629493210E+04  0.15995787145E+04  0.89536255863E+02 0.  0.
         11    1    3    3    0    0 -0.24608440718E+02  0.78730463380E+02  0.52046541968E+03  0.52696139736E+03  0.00000000000E+00 0. -1.
        -11    1    3    3    0    0  0.39947031293E+02  0.24927787542E+03  0.10424839013E+04  0.10726173171E+04  0.00000000000E+00 0.  1.
         22    1    1    2    0    0 -0.15338590575E+02 -0.32800833880E+03  0.16386248201E+03  0.36698181930E+03  0.00000000000E+00 0.  1.
<mgrwt>
<rscale>  0 0.94100018E+03</rscale>
<asrwt>0</asrwt>
<pdfrwt beam="1">  1        1 0.28410554E+00 0.94100018E+03</pdfrwt>
<pdfrwt beam="2">  1       -1 0.18442211E-01 0.94100018E+03</pdfrwt>
<totfact> 0.89587230E+01</totfact>
</mgrwt>
</event>
<event>
 6    1  0.1528034E-005  0.2593242E+04  0.7818608E-02  0.8370500E-01
         -1   -1    0    0    0  501 -0.00000000000E+00  0.00000000000E+00  0.83785822751E+03  0.83785822751E+03  0.00000000000E+00 0.  1.
          1   -1    0    0  501    0  0.00000000000E+00 -0.00000000000E+00 -0.20065755320E+04  0.20065755320E+04  0.00000000000E+00 0. -1.
         23    2    1    2    0    0  0.36317068342E+03 -0.98592514104E+03  0.24561893388E+03  0.10825346920E+04  0.87243163786E+02 0.  0.
         13    1    3    3    0    0  0.27443972469E+03 -0.69506533301E+03  0.13773180830E+03  0.75987040385E+03  0.00000000000E+00 0.  1.
        -13    1    3    3    0    0  0.88730958736E+02 -0.29085980803E+03  0.10788712557E+03  0.32266428813E+03  0.00000000000E+00 0. -1.
         22    1    1    2    0    0 -0.36317068342E+03  0.98592514104E+03 -0.14143362384E+04  0.17618990676E+04  0.00000000000E+00 0. -1.
<mgrwt>
<rscale>  0 0.25932418E+04</rscale>
<asrwt>0</asrwt>
<pdfrwt beam="1">  1        1 0.30870392E+00 0.25932418E+04</pdfrwt>
<pdfrwt beam="2">  1       -1 0.12890127E+00 0.25932418E+04</pdfrwt>
<totfact> 0.13465546E+00</totfact>
</mgrwt>
</event>
<event>
 6    1  0.1528034E-005  0.1779684E+04  0.7818608E-02  0.8717179E-01
          2   -1    0    0  501    0  0.00000000000E+00  0.00000000000E+00  0.23253217971E+04  0.23253217971E+04  0.00000000000E+00 0. -1.
         -2   -1    0    0    0  501 -0.00000000000E+00 -0.00000000000E+00 -0.34051994433E+03  0.34051994433E+03  0.00000000000E+00 0.  1.
         23    2    1    2    0    0  0.18885603843E+03 -0.33696647990E+03 -0.20181739461E+03  0.44536504827E+03  0.91688350554E+02 0.  0.
         11    1    3    3    0    0  0.28042474571E+01 -0.98921060785E+01  0.93297270288E+01  0.13883852956E+02  0.00000000000E+00 0.  1.
        -11    1    3    3    0    0  0.18605179098E+03 -0.32707437382E+03 -0.21114712164E+03  0.43148119532E+03  0.00000000000E+00 0. -1.
         22    1    1    2    0    0 -0.18885603843E+03  0.33696647990E+03  0.21866192474E+04  0.22204766932E+04  0.00000000000E+00 0. -1.
<mgrwt>
<rscale>  0 0.17796836E+04</rscale>
<asrwt>0</asrwt>
<pdfrwt beam="1">  1        2 0.35774181E+00 0.17796836E+04</pdfrwt>
<pdfrwt beam="2">  1       -2 0.52387685E-01 0.17796836E+04</pdfrwt>
<totfact> 0.14270542E+01</totfact>
</mgrwt>
</event>
<event>
 6    1  0.1528034E-005  0.2780356E+04  0.7818608E-02  0.8309393E-01
         -1   -1    0    0    0  501 -0.00000000000E+00  0.00000000000E+00  0.15249701858E+04  0.15249701858E+04  0.00000000000E+00 0.  1.
          1   -1    0    0  501    0  0.00000000000E+00 -0.00000000000E+00 -0.12673001733E+04  0.12673001733E+04  0.00000000000E+00 0. -1.
         23    2    1    2    0    0  0.10433535665E+04  0.81694590178E+03  0.54571030857E+03  0.14361897998E+04  0.94096381493E+02 0.  0.
         11    1    3    3    0    0  0.85062069923E+03  0.70341811255E+03  0.47434337813E+03  0.12013967935E+04  0.00000000000E+00 0.  1.
        -11    1    3    3    0    0  0.19273286729E+03  0.11352778923E+03  0.71366930445E+02  0.23479300633E+03  0.00000000000E+00 0. -1.
         22    1    1    2    0    0 -0.10433535665E+04 -0.81694590178E+03 -0.28804029599E+03  0.13560805593E+04  0.00000000000E+00 0. -1.
<mgrwt>
<rscale>  0 0.27803561E+04</rscale>
<asrwt>0</asrwt>
<pdfrwt beam="1">  1        1 0.19496926E+00 0.27803561E+04</pdfrwt>
<pdfrwt beam="2">  1       -1 0.23461080E+00 0.27803561E+04</pdfrwt>
<totfact> 0.72850037E-01</totfact>
</mgrwt>
</event>
<event>
 6    1  0.1528034E-005  0.3694403E+04  0.7818608E-02  0.8069203E-01
          1   -1    0    0  501    0  0.00000000000E+00  0.00000000000E+00  0.16238211794E+04  0.16238211794E+04  0.00000000000E+00 0. -1.
         -1   -1    0    0    0  501 -0.00000000000E+00 -0.00000000000E+00 -0.21013113764E+04  0.21013113764E+04  0.00000000000E+00 0.  1.
         23    2    1    2    0    0  0.14447829295E+04  0.10343481065E+04  0.26595015136E+03  0.17990024276E+04  0.91687146043E+02 0.  0.
         11    1    3    3    0    0  0.86156324071E+03  0.59503483922E+03  0.19858444284E+03  0.10657361111E+04  0.00000000000E+00 0. -1.
        -11    1    3    3    0    0  0.58321968881E+03  0.43931326731E+03  0.67365708512E+02  0.73326631652E+03  0.00000000000E+00 0.  1.
         22    1    1    2    0    0 -0.14447829295E+04 -0.10343481065E+04 -0.74344034843E+03  0.19261301282E+04  0.00000000000E+00 0.  1.
<mgrwt>
<rscale>  0 0.36944033E+04</rscale>
<asrwt>0</asrwt>
<pdfrwt beam="1">  1        1 0.24981864E+00 0.36944033E+04</pdfrwt>
<pdfrwt beam="2">  1       -1 0.32327867E+00 0.36944033E+04</pdfrwt>
<totfact> 0.10047089E-01</totfact>
</mgrwt>
</event>
<event>
 6    1  0.1528034E-005  0.3669700E+03  0.7818608E-02  0.1055858E+00
          1   -1    0    0  501    0  0.00000000000E+00  0.00000000000E+00  0.85033887153E+02  0.85033887153E+02  0.00000000000E+00 0. -1.
         -1   -1    0    0    0  501 -0.00000000000E+00 -0.00000000000E+00 -0.39592141951E+03  0.39592141951E+03  0.00000000000E+00 0.  1.
         23    2    1    2    0    0  0.87492795162E+02 -0.43539017565E+02  0.20899460437E+02  0.13507491716E+03  0.90872496078E+02 0.  0.
         13    1    3    3    0    0  0.10197868270E+03 -0.21246582139E+02  0.54159890225E+01  0.10430916506E+03  0.00000000000E+00 0.  1.
        -13    1    3    3    0    0 -0.14485887543E+02 -0.22292435426E+02  0.15483471414E+02  0.30765752098E+02  0.00000000000E+00 0. -1.
         22    1    1    2    0    0 -0.87492795162E+02  0.43539017565E+02 -0.33178699280E+03  0.34588038951E+03  0.00000000000E+00 0.  1.
<mgrwt>
<rscale>  0 0.36696996E+03</rscale>
<asrwt>0</asrwt>
<pdfrwt beam="1">  1        1 0.13082137E-01 0.36696996E+03</pdfrwt>
<pdfrwt beam="2">  1       -1 0.60910986E-01 0.36696996E+03</pdfrwt>
<totfact> 0.12664270E+03</totfact>
</mgrwt>
</event>
<event>
 6    1  0.1528034E-005  0.1845941E+04  0.7818608E-02  0.8682243E-01
          1   -1    0    0  501    0  0.00000000000E+00  0.00000000000E+00  0.23973502901E+04  0.23973502901E+04  0.00000000000E+00 0. -1.
         -1   -1    0    0    0  501 -0.00000000000E+00 -0.00000000000E+00 -0.35534010051E+03  0.35534010051E+03  0.00000000000E+00 0.  1.
         23    2    1    2    0    0 -0.11781774712E+03  0.90295000528E+03  0.82004447733E+03  0.12287481556E+04  0.90273759382E+02 0.  0.
         11    1    3    3    0    0 -0.97672663367E+02  0.58609139949E+03  0.58393485211E+03  0.83308042183E+03  0.00000000000E+00 0. -1.
        -11    1    3    3    0    0 -0.20145083754E+02  0.31685860579E+03  0.23610962522E+03  0.39566773382E+03  0.00000000000E+00 0.  1.
         22    1    1    2    0    0  0.11781774712E+03 -0.90295000528E+03  0.12219657123E+04  0.15239422350E+04  0.00000000000E+00 0. -1.
<mgrwt>
<rscale>  0 0.18459412E+04</rscale>
<asrwt>0</asrwt>
<pdfrwt beam="1">  1        1 0.36882311E+00 0.18459412E+04</pdfrwt>
<pdfrwt beam="2">  1       -1 0.54667709E-01 0.18459412E+04</pdfrwt>
<totfact> 0.50727632E+00</totfact>
</mgrwt>
</event>
<event>
 6    1  0.1528034E-005  0.2980609E+04  0.7818608E-02  0.8249290E-01
          1   -1    0    0  501    0  0.00000000000E+00  0.00000000000E+00  0.19052504652E+04  0.19052504652E+04  0.00000000000E+00 0. -1.
         -1   -1    0    0    0  501 -0.00000000000E+00 -0.00000000000E+00 -0.11657301568E+04  0.11657301568E+04  0.00000000000E+00 0.  1.
         23    2    1    2    0    0  0.24905278528E+03  0.32359594024E+03 -0.11050625435E+04  0.11817406903E+04  0.92769670561E+02 0.  0.
         11    1    3    3    0    0  0.15280634833E+03  0.13751189373E+03 -0.62548582743E+03  0.65840095787E+03  0.00000000000E+00 0.  1.
        -11    1    3    3    0    0  0.96246436949E+02  0.18608404651E+03 -0.47957671603E+03  0.52333973243E+03  0.00000000000E+00 0. -1.
         22    1    1    2    0    0 -0.24905278528E+03 -0.32359594024E+03  0.18445828518E+04  0.18892399317E+04  0.00000000000E+00 0. -1.
<mgrwt>
<rscale>  0 0.29806093E+04</rscale>
<asrwt>0</asrwt>
<pdfrwt beam="1">  1        1 0.29311545E+00 0.29806093E+04</pdfrwt>
<pdfrwt beam="2">  1       -1 0.17934310E+00 0.29806093E+04</pdfrwt>
<totfact> 0.61977349E-01</totfact>
</mgrwt>
</event>
<event>
 6    1  0.1528034E-005  0.1260677E+04  0.7818608E-02  0.9061343E-01
         -1   -1    0    0    0  501 -0.00000000000E+00  0.00000000000E+00  0.12205071430E+04  0.12205071430E+04  0.00000000000E+00 0.  1.
          1   -1    0    0  501    0  0.00000000000E+00 -0.00000000000E+00 -0.32554234667E+03  0.32554234667E+03  0.00000000000E+00 0. -1.
         23    2    1    2    0    0  0.61760600777E+03  0.36584087617E+02  0.32475344436E+03  0.70467171352E+03  0.91224163013E+02 0.  0.
         11    1    3    3    0    0  0.52437131710E+03 -0.22272003820E+01  0.27072818223E+03  0.59013895590E+03  0.00000000000E+00 0. -1.
        -11    1    3    3    0    0  0.93234690665E+02  0.38811287999E+02  0.54025262127E+02  0.11453275762E+03  0.00000000000E+00 0.  1.
         22    1    1    2    0    0 -0.61760600777E+03 -0.36584087617E+02  0.57021135200E+03  0.84137777617E+03  0.00000000000E+00 0. -1.
<mgrwt>
<rscale>  0 0.12606772E+04</rscale>
<asrwt>0</asrwt>
<pdfrwt beam="1">  1        1 0.50083439E-01 0.12606772E+04</pdfrwt>
<pdfrwt beam="2">  1       -1 0.18777033E+00 0.12606772E+04</pdfrwt>
<totfact> 0.14221556E+01</totfact>
</mgrwt>
</event>
<event>
 6    1  0.1528034E-005  0.2517937E+04  0.7818608E-02  0.8396623E-01
          2   -1    0    0  501    0  0.00000000000E+00  0.00000000000E+00  0.12008538695E+04  0.12008538695E+04  0.00000000000E+00 0. -1.
         -2   -1    0    0    0  501 -0.00000000000E+00 -0.00000000000E+00 -0.13198951416E+04  0.13198951416E+04  0.00000000000E+00 0.  1.
         23    2    1    2    0    0  0.11931257517E+04  0.10610880706E+03  0.32292441676E+03  0.12439789424E+04  0.91625825131E+02 0.  0.
         11    1    3    3    0    0  0.15657849851E+03  0.15077863783E+02  0.10964763414E+02  0.15768447675E+03  0.00000000000E+00 0. -1.
        -11    1    3    3    0    0  0.10365472532E+04  0.91030943273E+02  0.31195965335E+03  0.10862944656E+04  0.00000000000E+00 0.  1.
         22    1    1    2    0    0 -0.11931257517E+04 -0.10610880706E+03 -0.44196568891E+03  0.12767700687E+04  0.00000000000E+00 0.  1.
<mgrwt>
<rscale>  0 0.25179366E+04</rscale>
<asrwt>0</asrwt>
<pdfrwt beam="1">  1        2 0.18474675E+00 0.25179366E+04</pdfrwt>
<pdfrwt beam="2">  1       -2 0.20306079E+00 0.25179366E+04</pdfrwt>
<totfact> 0.21396594E+00</totfact>
</mgrwt>
</event>
<event>
 6    1  0.1528034E-005  0.3340979E+04  0.7818608E-02  0.8152546E-01
         -1   -1    0    0    0  501 -0.00000000000E+00  0.00000000000E+00  0.18440231061E+04  0.18440231061E+04  0.00000000000E+00 0.  1.
          1   -1    0    0  501    0  0.00000000000E+00 -0.00000000000E+00 -0.15132864594E+04  0.15132864594E+04  0.00000000000E+00 0. -1.
         23    2    1    2    0    0  0.15840078762E+04  0.19118932639E+03 -0.32750333974E+03  0.16313564404E+04  0.91820954589E+02 0.  0.
         13    1    3    3    0    0  0.93844979879E+03  0.12801038581E+03 -0.15074273510E+03  0.95906102825E+03  0.00000000000E+00 0. -1.
        -13    1    3    3    0    0  0.64555807737E+03  0.63178940586E+02 -0.17676060465E+03  0.67229541212E+03  0.00000000000E+00 0.  1.
         22    1    1    2    0    0 -0.15840078762E+04 -0.19118932639E+03  0.65823998651E+03  0.17259531251E+04  0.00000000000E+00 0.  1.
<mgrwt>
<rscale>  0 0.33409790E+04</rscale>
<asrwt>0</asrwt>
<pdfrwt beam="1">  1        1 0.23281330E+00 0.33409790E+04</pdfrwt>
<pdfrwt beam="2">  1       -1 0.28369586E+00 0.33409790E+04</pdfrwt>
<totfact> 0.22301373E-01</totfact>
</mgrwt>
</event>
<event>
 6    1  0.1528034E-005  0.2558489E+04  0.7818608E-02  0.8382440E-01
         -1   -1    0    0    0  501 -0.00000000000E+00  0.00000000000E+00  0.28069548083E+04  0.28069548083E+04  0.00000000000E+00 0.  1.
          1   -1    0    0  501    0  0.00000000000E+00 -0.00000000000E+00 -0.58300403063E+03  0.58300403063E+03  0.00000000000E+00 0. -1.
         23    2    1    2    0    0 -0.40482655616E+03 -0.86079713833E+03 -0.16508824422E+02  0.95592607773E+03  0.93090659470E+02 0.  0.
         13    1    3    3    0    0 -0.33625619753E+03 -0.72988091450E+03  0.19368534285E+02  0.80384670171E+03  0.00000000000E+00 0.  1.
        -13    1    3    3    0    0 -0.68570358632E+02 -0.13091622383E+03 -0.35877358707E+02  0.15207937603E+03  0.00000000000E+00 0. -1.
         22    1    1    2    0    0  0.40482655616E+03  0.86079713833E+03  0.22404596021E+04  0.24340327612E+04  0.00000000000E+00 0.  1.
<mgrwt>
<rscale>  0 0.25584886E+04</rscale>
<asrwt>0</asrwt>
<pdfrwt beam="1">  1        1 0.89692929E-01 0.25584886E+04</pdfrwt>
<pdfrwt beam="2">  1       -1 0.43183920E+00 0.25584886E+04</pdfrwt>
<totfact> 0.13622683E-01</totfact>
</mgrwt>
</event>
<event>
 6    1  0.1528034E-005  0.1650679E+04  0.7818608E-02  0.8790005E-01
         -2   -1    0    0    0  501 -0.00000000000E+00  0.00000000000E+00  0.61104964388E+03  0.61104964388E+03  0.00000000000E+00 0.  1.
          2   -1    0    0  501    0  0.00000000000E+00 -0.00000000000E+00 -0.11147792519E+04  0.11147792519E+04  0.00000000000E+00 0. -1.
         23    2    1    2    0    0 -0.58321089874E+02 -0.45499123517E+03  0.46142942463E+03  0.65720813428E+03  0.92666305857E+02 0.  0.
         11    1    3    3    0    0 -0.53082737325E+01 -0.35270798605E+03  0.34477049868E+03  0.49325226604E+03  0.00000000000E+00 0.  1.
        -11    1    3    3    0    0 -0.53012816142E+02 -0.10228324912E+03  0.11665892595E+03  0.16395586824E+03  0.00000000000E+00 0. -1.
         22    1    1    2    0    0  0.58321089874E+02  0.45499123517E+03 -0.96515903265E+03  0.10686207615E+04  0.00000000000E+00 0. -1.
<mgrwt>
<rscale>  0 0.16506792E+04</rscale>
<asrwt>0</asrwt>
<pdfrwt beam="1">  1        2 0.17150450E+00 0.16506792E+04</pdfrwt>
<pdfrwt beam="2">  1       -2 0.94007638E-01 0.16506792E+04</pdfrwt>
<totfact> 0.19468109E+01</totfact>
</mgrwt>
</event>
<event>
 6    1  0.1528034E-005  0.1411858E+04  0.7818608E-02  0.8945279E-01
          1   -1    0    0  501    0  0.00000000000E+00  0.00000000000E+00  0.88104045100E+03  0.88104045100E+03  0.00000000000E+00 0. -1.
         -1   -1    0    0    0  501 -0.00000000000E+00 -0.00000000000E+00 -0.56562203095E+03  0.56562203095E+03  0.00000000000E+00 0.  1.
         23    2    1    2    0    0 -0.61194881613E+03  0.24459569346E+03  0.40930404425E+03  0.78098769855E+03  0.90019874587E+02 0.  0.
         13    1    3    3    0    0 -0.27218005191E+03  0.15213895677E+03  0.21569911124E+03  0.37914950800E+03  0.00000000000E+00 0.  1.
        -13    1    3    3    0    0 -0.33976876422E+03  0.92456736690E+02  0.19360493302E+03  0.40183819056E+03  0.00000000000E+00 0. -1.
         22    1    1    2    0    0  0.61194881613E+03 -0.24459569346E+03 -0.93885624200E+02  0.66567478340E+03  0.00000000000E+00 0.  1.
<mgrwt>
<rscale>  0 0.14118582E+04</rscale>
<asrwt>0</asrwt>
<pdfrwt beam="1">  1        1 0.13554468E+00 0.14118582E+04</pdfrwt>
<pdfrwt beam="2">  1       -1 0.87018774E-01 0.14118582E+04</pdfrwt>
<totfact> 0.23913198E+01</totfact>
</mgrwt>
</event>
<event>
 6    1  0.1528034E-005  0.3368811E+04  0.7818608E-02  0.8145604E-01
         -1   -1    0    0    0  501 -0.00000000000E+00  0.00000000000E+00  0.92525121455E+03  0.92525121455E+03  0.00000000000E+00 0.  1.
          1   -1    0    0  501    0  0.00000000000E+00 -0.00000000000E+00 -0.30664338026E+04  0.30664338026E+04  0.00000000000E+00 0. -1.
         23    2    1    2    0    0 -0.56561968199E+03 -0.28891939869E+03  0.77535413171E+03  0.10067919736E+04  0.95163044390E+02 0.  0.
         11    1    3    3    0    0 -0.12895592572E+03 -0.11030566341E+03  0.18409111388E+03  0.25037273887E+03  0.00000000000E+00 0.  1.
        -11    1    3    3    0    0 -0.43666375627E+03 -0.17861373529E+03  0.59126301783E+03  0.75641923477E+03  0.00000000000E+00 0. -1.
         22    1    1    2    0    0  0.56561968199E+03  0.28891939869E+03 -0.29165367198E+04  0.29848930436E+04  0.00000000000E+00 0. -1.
<mgrwt>
<rscale>  0 0.33688108E+04</rscale>
<asrwt>0</asrwt>
<pdfrwt beam="1">  1        1 0.47175904E+00 0.33688108E+04</pdfrwt>
<pdfrwt beam="2">  1       -1 0.14234634E+00 0.33688108E+04</pdfrwt>
<totfact> 0.17667534E-01</totfact>
</mgrwt>
</event>
<event>
 6    1  0.1528034E-005  0.2193720E+04  0.7818608E-02  0.8521046E-01
         -2   -1    0    0    0  501 -0.00000000000E+00  0.00000000000E+00  0.49071632183E+03  0.49071632183E+03  0.00000000000E+00 0.  1.
          2   -1    0    0  501    0  0.00000000000E+00 -0.00000000000E+00 -0.24517262550E+04  0.24517262550E+04  0.00000000000E+00 0. -1.
         23    2    1    2    0    0 -0.80359938057E+03 -0.55955876712E+03 -0.32470542896E+03  0.10355156226E+04  0.89336502559E+02 0.  0.
         13    1    3    3    0    0 -0.19502658585E+03 -0.18317120743E+03 -0.79807912239E+02  0.27920666768E+03  0.00000000000E+00 0.  1.
        -13    1    3    3    0    0 -0.60857279472E+03 -0.37638755969E+03 -0.24489751672E+03  0.75630895490E+03  0.00000000000E+00 0. -1.
         22    1    1    2    0    0  0.80359938057E+03  0.55955876712E+03 -0.16363045042E+04  0.19069269542E+04  0.00000000000E+00 0. -1.
<mgrwt>
<rscale>  0 0.21937202E+04</rscale>
<asrwt>0</asrwt>
<pdfrwt beam="1">  1        2 0.37718865E+00 0.21937202E+04</pdfrwt>
<pdfrwt beam="2">  1       -2 0.75494821E-01 0.21937202E+04</pdfrwt>
<totfact> 0.53427439E+00</totfact>
</mgrwt>
</event>
<event>
 6    1  0.1528034E-005  0.1267671E+04  0.7818608E-02  0.9055603E-01
         -1   -1    0    0    0  501 -0.00000000000E+00  0.00000000000E+00  0.14187311006E+04  0.14187311006E+04  0.00000000000E+00 0.  1.
          1   -1    0    0  501    0  0.00000000000E+00 -0.00000000000E+00 -0.28317362672E+03  0.28317362672E+03  0.00000000000E+00 0. -1.
         23    2    1    2    0    0 -0.57680080067E+03 -0.24360918801E+03  0.65789965569E+03  0.91437593965E+03  0.10586218361E+03 0.  0.
         13    1    3    3    0    0 -0.38065712439E+03 -0.10750534790E+03  0.43138526742E+03  0.58527813484E+03  0.00000000000E+00 0.  1.
        -13    1    3    3    0    0 -0.19614367627E+03 -0.13610384011E+03  0.22651438828E+03  0.32909780481E+03  0.00000000000E+00 0. -1.
         22    1    1    2    0    0  0.57680080067E+03  0.24360918801E+03  0.47765781818E+03  0.78752878767E+03  0.00000000000E+00 0. -1.
<mgrwt>
<rscale>  0 0.12676707E+04</rscale>
<asrwt>0</asrwt>
<pdfrwt beam="1">  1        1 0.43565174E-01 0.12676707E+04</pdfrwt>
<pdfrwt beam="2">  1       -1 0.21826632E+00 0.12676707E+04</pdfrwt>
<totfact> 0.10530427E+01</totfact>
</mgrwt>
</event>
<event>
 6    1  0.1528034E-005  0.3203109E+04  0.7818608E-02  0.8187997E-01
         -2   -1    0    0    0  501 -0.00000000000E+00  0.00000000000E+00  0.67171115811E+03  0.67171115811E+03  0.00000000000E+00 0.  1.
          2   -1    0    0  501    0  0.00000000000E+00 -0.00000000000E+00 -0.38185710321E+04  0.38185710321E+04  0.00000000000E+00 0. -1.
         23    2    1    2    0    0 -0.84348324909E+03 -0.34091206496E+03  0.27079020946E+03  0.95361467397E+03  0.91479950546E+02 0.  0.
         11    1    3    3    0    0 -0.50870542784E+03 -0.20351867075E+03  0.20946637033E+03  0.58658095942E+03  0.00000000000E+00 0.  1.
        -11    1    3    3    0    0 -0.33477782125E+03 -0.13739339421E+03  0.61323839131E+02  0.36703371455E+03  0.00000000000E+00 0. -1.
         22    1    1    2    0    0  0.84348324909E+03  0.34091206496E+03 -0.34176500835E+04  0.35366675163E+04  0.00000000000E+00 0. -1.
<mgrwt>
<rscale>  0 0.32031090E+04</rscale>
<asrwt>0</asrwt>
<pdfrwt beam="1">  1        2 0.58747246E+00 0.32031090E+04</pdfrwt>
<pdfrwt beam="2">  1       -2 0.10334018E+00 0.32031090E+04</pdfrwt>
<totfact> 0.30514691E-01</totfact>
</mgrwt>
</event>
<event>
 6    1  0.1528034E-005  0.1166031E+04  0.7818608E-02  0.9143120E-01
          1   -1    0    0  501    0  0.00000000000E+00  0.00000000000E+00  0.11568344900E+04  0.11568344900E+04  0.00000000000E+00 0. -1.
         -1   -1    0    0    0  501 -0.00000000000E+00 -0.00000000000E+00 -0.29382517206E+03  0.29382517206E+03  0.00000000000E+00 0.  1.
         23    2    1    2    0    0  0.30671623580E+03  0.13204652841E+03  0.10234210821E+04  0.10801963453E+04  0.89007292939E+02 0.  0.
         13    1    3    3    0    0  0.16021449406E+03  0.59972015195E+02  0.65952783202E+03  0.68135327688E+03  0.00000000000E+00 0. -1.
        -13    1    3    3    0    0  0.14650174175E+03  0.72074513214E+02  0.36389325011E+03  0.39884306846E+03  0.00000000000E+00 0.  1.
         22    1    1    2    0    0 -0.30671623580E+03 -0.13204652841E+03 -0.16041176416E+03  0.37046331674E+03  0.00000000000E+00 0.  1.
<mgrwt>
<rscale>  0 0.11660310E+04</rscale>
<asrwt>0</asrwt>
<pdfrwt beam="1">  1        1 0.17797453E+00 0.11660310E+04</pdfrwt>
<pdfrwt beam="2">  1       -1 0.45203873E-01 0.11660310E+04</pdfrwt>
<totfact> 0.55365407E+01</totfact>
</mgrwt>
</event>
<event>
 6    1  0.1528034E-005  0.9531348E+03  0.7818608E-02  0.9361494E-01
          1   -1    0    0  501    0  0.00000000000E+00  0.00000000000E+00  0.14946963759E+04  0.14946963759E+04  0.00000000000E+00 0. -1.
         -1   -1    0    0    0  501 -0.00000000000E+00 -0.00000000000E+00 -0.15194825349E+03  0.15194825349E+03  0.00000000000E+00 0.  1.
         23    2    1    2    0    0 -0.20426042797E+03  0.40793269804E+03  0.46631240693E+03  0.65858037442E+03  0.90274249697E+02 0.  0.
         13    1    3    3    0    0 -0.17914192719E+03  0.30524903154E+03  0.39852418927E+03  0.53300124837E+03  0.00000000000E+00 0. -1.
        -13    1    3    3    0    0 -0.25118500780E+02  0.10268366650E+03  0.67788217661E+02  0.12557912605E+03  0.00000000000E+00 0.  1.
         22    1    1    2    0    0  0.20426042797E+03 -0.40793269804E+03  0.87643571551E+03  0.98806425499E+03  0.00000000000E+00 0. -1.
<mgrwt>
<rscale>  0 0.95313484E+03</rscale>
<asrwt>0</asrwt>
<pdfrwt beam="1">  1        1 0.22995328E+00 0.95313484E+03</pdfrwt>
<pdfrwt beam="2">  1       -1 0.23376655E-01 0.95313484E+03</pdfrwt>
<totfact> 0.10423023E+02</totfact>
</mgrwt>
</event>
<event>
 6    1  0.1528034E-005  0.2232460E+04  0.7818608E-02  0.8505038E-01
         -2   -1    0    0    0  501 -0.00000000000E+00  0.00000000000E+00  0.14063104872E+04  0.14063104872E+04  0.00000000000E+00 0.  1.
          2   -1    0    0  501    0  0.00000000000E+00 -0.00000000000E+00 -0.88598419830E+03  0.88598419830E+03  0.00000000000E+00 0. -1.
         23    2    1    2    0    0  0.30194201013E+03  0.41944526219E+03  0.12743695548E+04  0.13781368478E+04  0.90222523904E+02 0.  0.
         13    1    3    3    0    0  0.11550612085E+02 -0.30644927144E+01  0.29971877114E+02  0.32266409358E+02  0.00000000000E+00 0. -1.
        -13    1    3    3    0    0  0.29039139805E+03  0.42250975491E+03  0.12443976776E+04  0.13458704385E+04  0.00000000000E+00 0.  1.
         22    1    1    2    0    0 -0.30194201013E+03 -0.41944526219E+03 -0.75404326583E+03  0.91415783769E+03  0.00000000000E+00 0. -1.
<mgrwt>
<rscale>  0 0.22324595E+04</rscale>
<asrwt>0</asrwt>
<pdfrwt beam="1">  1        2 0.13630526E+00 0.22324595E+04</pdfrwt>
<pdfrwt beam="2">  1       -2 0.21635546E+00 0.22324595E+04</pdfrwt>
<totfact> 0.28475988E+00</totfact>
</mgrwt>
</event>
<event>
 6    1  0.1528034E-005  0.1822744E+04  0.7818608E-02  0.8694297E-01
          2   -1    0    0  501    0  0.00000000000E+00  0.00000000000E+00  0.20461652332E+04  0.20461652332E+04  0.00000000000E+00 0. -1.
         -2   -1    0    0    0  501 -0.00000000000E+00 -0.00000000000E+00 -0.40592954273E+03  0.40592954273E+03  0.00000000000E+00 0.  1.
         23    2    1    2    0    0  0.13897222171E+03  0.83569471277E+03  0.12657606218E+04  0.15258493935E+04  0.91473978107E+02 0.  0.
         13    1    3    3    0    0  0.10307726808E+03  0.62131782158E+03  0.86578385474E+03  0.10706271254E+04  0.00000000000E+00 0. -1.
        -13    1    3    3    0    0  0.35894953637E+02  0.21437689119E+03  0.39997676705E+03  0.45522226808E+03  0.00000000000E+00 0.  1.
         22    1    1    2    0    0 -0.13897222171E+03 -0.83569471277E+03  0.37447506866E+03  0.92624538240E+03  0.00000000000E+00 0.  1.
<mgrwt>
<rscale>  0 0.18227440E+04</rscale>
<asrwt>0</asrwt>
<pdfrwt beam="1">  1        2 0.31479465E+00 0.18227440E+04</pdfrwt>
<pdfrwt beam="2">  1       -2 0.62450700E-01 0.18227440E+04</pdfrwt>
<totfact> 0.14115264E+01</totfact>
</mgrwt>
</event>
<event>
 6    1  0.1528034E-005  0.4884354E+04  0.7818608E-02  0.7846599E-01
          2   -1    0    0  501    0  0.00000000000E+00  0.00000000000E+00  0.18058794158E+04  0.18058794158E+04  0.00000000000E+00 0. -1.
         -2   -1    0    0    0  501 -0.00000000000E+00 -0.00000000000E+00 -0.33026722184E+04  0.33026722184E+04  0.00000000000E+00 0.  1.
         23    2    1    2    0    0 -0.89422685840E+03  0.21061883293E+04 -0.16388840082E+04  0.28159851982E+04  0.90337653310E+02 0.  0.
         13    1    3    3    0    0 -0.35595952628E+03  0.91300803121E+03 -0.74341687068E+03  0.12300241839E+04  0.00000000000E+00 0. -1.
        -13    1    3    3    0    0 -0.53826733212E+03  0.11931802981E+04 -0.89546713749E+03  0.15859610143E+04  0.00000000000E+00 0.  1.
         22    1    1    2    0    0  0.89422685840E+03 -0.21061883293E+04  0.14209120553E+03  0.22925664360E+04  0.00000000000E+00 0. -1.
<mgrwt>
<rscale>  0 0.48843537E+04</rscale>
<asrwt>0</asrwt>
<pdfrwt beam="1">  1        2 0.27782761E+00 0.48843537E+04</pdfrwt>
<pdfrwt beam="2">  1       -2 0.50810341E+00 0.48843537E+04</pdfrwt>
<totfact> 0.93187825E-03</totfact>
</mgrwt>
</event>
<event>
 6    1  0.1528034E-005  0.3783539E+03  0.7818608E-02  0.1051544E+00
         -2   -1    0    0    0  501 -0.00000000000E+00  0.00000000000E+00  0.44576359747E+02  0.44576359747E+02  0.00000000000E+00 0.  1.
          2   -1    0    0  501    0  0.00000000000E+00 -0.00000000000E+00 -0.80284515156E+03  0.80284515156E+03  0.00000000000E+00 0. -1.
         23    2    1    2    0    0 -0.34754597843E+02 -0.77477328668E+02 -0.75204674237E+03  0.76227849968E+03  0.91014228782E+02 0.  0.
         11    1    3    3    0    0 -0.30644000338E+02 -0.36801463266E+02 -0.12436682495E+03  0.13326856194E+03  0.00000000000E+00 0.  1.
        -11    1    3    3    0    0 -0.41105975049E+01 -0.40675865402E+02 -0.62767991742E+03  0.62900993774E+03  0.00000000000E+00 0. -1.
         22    1    1    2    0    0  0.34754597843E+02  0.77477328668E+02 -0.62220494411E+01  0.85143011622E+02  0.00000000000E+00 0.  1.
<mgrwt>
<rscale>  0 0.37835388E+03</rscale>
<asrwt>0</asrwt>
<pdfrwt beam="1">  1        2 0.12351464E+00 0.37835388E+03</pdfrwt>
<pdfrwt beam="2">  1       -2 0.68579015E-02 0.37835388E+03</pdfrwt>
<totfact> 0.42699682E+03</totfact>
</mgrwt>
</event>
<event>
 6    1  0.2429175E-005  0.4296215E+04  0.7818608E-02  0.7947318E-01
         -2   -1    0    0    0  501 -0.00000000000E+00  0.00000000000E+00  0.18853581957E+04  0.18853581957E+04  0.00000000000E+00 0.  1.
          2   -1    0    0  501    0  0.00000000000E+00 -0.00000000000E+00 -0.24474738819E+04  0.24474738819E+04  0.00000000000E+00 0. -1.
         23    2    1    2    0    0 -0.10150238016E+04  0.12105095631E+04  0.11853406533E+04  0.19771558735E+04  0.92228866001E+02 0.  0.
         13    1    3    3    0    0 -0.65587471115E+03  0.83988371272E+03  0.82620519498E+03  0.13484032453E+04  0.00000000000E+00 0. -1.
        -13    1    3    3    0    0 -0.35914909045E+03  0.37062585036E+03  0.35913545834E+03  0.62875262827E+03  0.00000000000E+00 0.  1.
         22    1    1    2    0    0  0.10150238016E+04 -0.12105095631E+04 -0.17474563395E+04  0.23556762041E+04  0.00000000000E+00 0. -1.
<mgrwt>
<rscale>  0 0.42962146E+04</rscale>
<asrwt>0</asrwt>
<pdfrwt beam="1">  1        2 0.37653444E+00 0.42962146E+04</pdfrwt>
<pdfrwt beam="2">  1       -2 0.29005511E+00 0.42962146E+04</pdfrwt>
<totfact> 0.10514046E-01</totfact>
</mgrwt>
</event>
<event>
 6    1  0.1528034E-005  0.5534745E+03  0.7818608E-02  0.1000693E+00
          1   -1    0    0  501    0  0.00000000000E+00  0.00000000000E+00  0.19664817226E+04  0.19664817226E+04  0.00000000000E+00 0. -1.
         -1   -1    0    0    0  501 -0.00000000000E+00 -0.00000000000E+00 -0.38944427987E+02  0.38944427987E+02  0.00000000000E+00 0.  1.
         23    2    1    2    0    0 -0.96365419726E+02 -0.11731822625E+03  0.17957925312E+04  0.18044123625E+04  0.89349305137E+02 0.  0.
         11    1    3    3    0    0 -0.39771960662E+02 -0.11677778520E+02  0.20719086167E+03  0.21129655114E+03  0.00000000000E+00 0.  1.
        -11    1    3    3    0    0 -0.56593459064E+02 -0.10564044773E+03  0.15886016695E+04  0.15931158113E+04  0.00000000000E+00 0. -1.
         22    1    1    2    0    0  0.96365419726E+02  0.11731822625E+03  0.13174476338E+03  0.20101378811E+03  0.00000000000E+00 0.  1.
<mgrwt>
<rscale>  0 0.55347450E+03</rscale>
<asrwt>0</asrwt>
<pdfrwt beam="1">  1        1 0.30253557E+00 0.55347450E+03</pdfrwt>
<pdfrwt beam="2">  1       -1 0.59914520E-02 0.55347450E+03</pdfrwt>
<totfact> 0.46051316E+02</totfact>
</mgrwt>
</event>
<event>
 6    1  0.1528034E-005  0.1333333E+04  0.7818608E-02  0.9003542E-01
         -2   -1    0    0    0  501 -0.00000000000E+00  0.00000000000E+00  0.26668018414E+03  0.26668018414E+03  0.00000000000E+00 0. -1.
          2   -1    0    0  501    0  0.00000000000E+00 -0.00000000000E+00 -0.16665807621E+04  0.16665807621E+04  0.00000000000E+00 0.  1.
         23    2    1    2    0    0 -0.62772911705E+03  0.21522306462E+03 -0.66485163787E+03  0.94297727159E+03  0.82544669259E+02 0.  0.
         13    1    3    3    0    0 -0.30314904384E+03  0.12209161000E+03 -0.27414461226E+03  0.42656883671E+03  0.00000000000E+00 0. -1.
        -13    1    3    3    0    0 -0.32458007321E+03  0.93131454615E+02 -0.39070702560E+03  0.51640843488E+03  0.00000000000E+00 0.  1.
         22    1    1    2    0    0  0.62772911705E+03 -0.21522306462E+03 -0.73504894007E+03  0.99028367463E+03  0.00000000000E+00 0.  1.
<mgrwt>
<rscale>  0 0.13333328E+04</rscale>
<asrwt>0</asrwt>
<pdfrwt beam="1">  1        2 0.25639704E+00 0.13333328E+04</pdfrwt>
<pdfrwt beam="2">  1       -2 0.41027721E-01 0.13333328E+04</pdfrwt>
<totfact> 0.56314372E+01</totfact>
</mgrwt>
</event>
<event>
 6    1  0.1528034E-005  0.2571022E+04  0.7818608E-02  0.8378112E-01
         -2   -1    0    0    0  501 -0.00000000000E+00  0.00000000000E+00  0.83642931843E+03  0.83642931843E+03  0.00000000000E+00 0.  1.
          2   -1    0    0  501    0  0.00000000000E+00 -0.00000000000E+00 -0.19757056546E+04  0.19757056546E+04  0.00000000000E+00 0. -1.
         23    2    1    2    0    0 -0.27878730948E+03  0.62855336424E+03  0.61572859910E+03  0.92723603186E+03  0.88562155646E+02 0.  0.
         13    1    3    3    0    0 -0.17631192412E+03  0.46978814713E+03  0.41090184186E+03  0.64855772404E+03  0.00000000000E+00 0. -1.
        -13    1    3    3    0    0 -0.10247538536E+03  0.15876521711E+03  0.20482675724E+03  0.27867830782E+03  0.00000000000E+00 0.  1.
         22    1    1    2    0    0  0.27878730948E+03 -0.62855336424E+03 -0.17550049352E+04  0.18848989411E+04  0.00000000000E+00 0. -1.
<mgrwt>
<rscale>  0 0.25710217E+04</rscale>
<asrwt>0</asrwt>
<pdfrwt beam="1">  1        2 0.30395472E+00 0.25710217E+04</pdfrwt>
<pdfrwt beam="2">  1       -2 0.12868143E+00 0.25710217E+04</pdfrwt>
<totfact> 0.27236696E+00</totfact>
</mgrwt>
</event>
<event>
 6    1  0.1528034E-005  0.2823747E+03  0.7818608E-02  0.1094399E+00
         -1   -1    0    0    0  501 -0.00000000000E+00  0.00000000000E+00  0.17114060007E+03  0.17114060007E+03  0.00000000000E+00 0.  1.
          1   -1    0    0  501    0  0.00000000000E+00 -0.00000000000E+00 -0.11647656539E+03  0.11647656539E+03  0.00000000000E+00 0. -1.
         23    2    1    2    0    0  0.88683590622E+01  0.42927423255E+02  0.15225153477E+03  0.18063711295E+03  0.86763040946E+02 0.  0.
         11    1    3    3    0    0  0.28856669716E+02 -0.16535006240E+02  0.66908292235E+02  0.74718360449E+02  0.00000000000E+00 0. -1.
        -11    1    3    3    0    0 -0.19988310654E+02  0.59462429495E+02  0.85343242536E+02  0.10591875250E+03  0.00000000000E+00 0.  1.
         22    1    1    2    0    0 -0.88683590622E+01 -0.42927423255E+02 -0.97587500097E+02  0.10698005251E+03  0.00000000000E+00 0. -1.
<mgrwt>
<rscale>  0 0.28237471E+03</rscale>
<asrwt>0</asrwt>
<pdfrwt beam="1">  1        1 0.17919472E-01 0.28237471E+03</pdfrwt>
<pdfrwt beam="2">  1       -1 0.26329323E-01 0.28237471E+03</pdfrwt>
<totfact> 0.37450182E+03</totfact>
</mgrwt>
</event>
<event>
 6    1  0.1528034E-005  0.1628167E+04  0.7818608E-02  0.8803428E-01
         -2   -1    0    0    0  501 -0.00000000000E+00  0.00000000000E+00  0.11509332005E+04  0.11509332005E+04  0.00000000000E+00 0.  1.
          2   -1    0    0  501    0  0.00000000000E+00 -0.00000000000E+00 -0.57582133883E+03  0.57582133883E+03  0.00000000000E+00 0. -1.
         23    2    1    2    0    0 -0.68329705491E+03  0.43602379985E+03  0.24532103906E+03  0.85166962578E+03  0.90261398102E+02 0.  0.
         11    1    3    3    0    0 -0.36628539080E+03  0.26308160938E+03  0.97046248537E+02  0.46129697057E+03  0.00000000000E+00 0. -1.
        -11    1    3    3    0    0 -0.31701166412E+03  0.17294219046E+03  0.14827479052E+03  0.39037265521E+03  0.00000000000E+00 0.  1.
         22    1    1    2    0    0  0.68329705491E+03 -0.43602379985E+03  0.32979082267E+03  0.87508491360E+03  0.00000000000E+00 0.  1.
<mgrwt>
<rscale>  0 0.16281669E+04</rscale>
<asrwt>0</asrwt>
<pdfrwt beam="1">  1        2 0.88587899E-01 0.16281669E+04</pdfrwt>
<pdfrwt beam="2">  1       -2 0.17706665E+00 0.16281669E+04</pdfrwt>
<totfact> 0.94682253E+00</totfact>
</mgrwt>
</event>
<event>
 6    1  0.1528034E-005  0.2003839E+04  0.7818608E-02  0.8604828E-01
          2   -1    0    0  501    0  0.00000000000E+00  0.00000000000E+00  0.12260177302E+04  0.12260177302E+04  0.00000000000E+00 0. -1.
         -2   -1    0    0    0  501 -0.00000000000E+00 -0.00000000000E+00 -0.81878324086E+03  0.81878324086E+03  0.00000000000E+00 0.  1.
         23    2    1    2    0    0  0.70842858665E+03  0.14281052854E+03 -0.50077761823E+03  0.88430456997E+03  0.94606765684E+02 0.  0.
         13    1    3    3    0    0  0.58543906625E+02  0.32582987793E+02 -0.25620438025E+02  0.71731770793E+02  0.00000000000E+00 0.  1.
        -13    1    3    3    0    0  0.64988468003E+03  0.11022754075E+03 -0.47515718020E+03  0.81257279918E+03  0.00000000000E+00 0. -1.
         22    1    1    2    0    0 -0.70842858665E+03 -0.14281052854E+03  0.90801210757E+03  0.11604964011E+04  0.00000000000E+00 0. -1.
<mgrwt>
<rscale>  0 0.20038391E+04</rscale>
<asrwt>0</asrwt>
<pdfrwt beam="1">  1        2 0.18861811E+00 0.20038391E+04</pdfrwt>
<pdfrwt beam="2">  1       -2 0.12596665E+00 0.20038391E+04</pdfrwt>
<totfact> 0.79839661E+00</totfact>
</mgrwt>
</event>
<event>
 6    1  0.1528034E-005  0.1177494E+04  0.7818608E-02  0.9132787E-01
          2   -1    0    0  501    0  0.00000000000E+00  0.00000000000E+00  0.20360376310E+04  0.20360376310E+04  0.00000000000E+00 0. -1.
         -2   -1    0    0    0  501 -0.00000000000E+00 -0.00000000000E+00 -0.17024394458E+03  0.17024394458E+03  0.00000000000E+00 0.  1.
         23    2    1    2    0    0  0.85639524276E+02 -0.49278074168E+03  0.36748732661E+03  0.62669652395E+03  0.86802133716E+02 0.  0.
         11    1    3    3    0    0 -0.16829408802E+01 -0.13588630458E+03  0.64334218577E+02  0.15035561759E+03  0.00000000000E+00 0. -1.
        -11    1    3    3    0    0  0.87322465156E+02 -0.35689443711E+03  0.30315310803E+03  0.47634090635E+03  0.00000000000E+00 0.  1.
         22    1    1    2    0    0 -0.85639524276E+02  0.49278074168E+03  0.14983063599E+04  0.15795850517E+04  0.00000000000E+00 0. -1.
<mgrwt>
<rscale>  0 0.11774941E+04</rscale>
<asrwt>0</asrwt>
<pdfrwt beam="1">  1        2 0.31323654E+00 0.11774941E+04</pdfrwt>
<pdfrwt beam="2">  1       -2 0.26191378E-01 0.11774941E+04</pdfrwt>
<totfact> 0.83230423E+01</totfact>
</mgrwt>
</event>
<event>
 6    1  0.2266370E-005  0.3881412E+04  0.7818608E-02  0.8028906E-01
         -2   -1    0    0    0  501 -0.00000000000E+00  0.00000000000E+00  0.15028418419E+04  0.15028418419E+04  0.00000000000E+00 0.  1.
          2   -1    0    0  501    0  0.00000000000E+00 -0.00000000000E+00 -0.25061449095E+04  0.25061449095E+04  0.00000000000E+00 0. -1.
         23    2    1    2    0    0  0.69947247264E+03 -0.86831759413E+03 -0.21415111939E+04  0.24156396695E+04  0.77508934463E+02 0.  0.
         11    1    3    3    0    0  0.13549830463E+03 -0.17173231530E+03 -0.48968961747E+03  0.53632797813E+03  0.00000000000E+00 0. -1.
        -11    1    3    3    0    0  0.56397416802E+03 -0.69658527883E+03 -0.16518215765E+04  0.18793116914E+04  0.00000000000E+00 0.  1.
         22    1    1    2    0    0 -0.69947247264E+03  0.86831759413E+03  0.11382081264E+04  0.15933470819E+04  0.00000000000E+00 0.  1.
<mgrwt>
<rscale>  0 0.38814118E+04</rscale>
<asrwt>0</asrwt>
<pdfrwt beam="1">  1        2 0.38556076E+00 0.38814118E+04</pdfrwt>
<pdfrwt beam="2">  1       -2 0.23120644E+00 0.38814118E+04</pdfrwt>
<totfact> 0.23106374E-01</totfact>
</mgrwt>
</event>
<event>
 6    1  0.1528034E-005  0.1599161E+04  0.7818608E-02  0.8821064E-01
         -1   -1    0    0    0  501 -0.00000000000E+00  0.00000000000E+00  0.68369156677E+03  0.68369156677E+03  0.00000000000E+00 0.  1.
          1   -1    0    0  501    0  0.00000000000E+00 -0.00000000000E+00 -0.93511320928E+03  0.93511320928E+03  0.00000000000E+00 0. -1.
         23    2    1    2    0    0 -0.54152052571E+02 -0.57943151542E+03 -0.67740111840E+03  0.89760311235E+03  0.90253787907E+02 0.  0.
         11    1    3    3    0    0 -0.68493859720E+02 -0.25947659204E+03 -0.29525373769E+03  0.39899157918E+03  0.00000000000E+00 0.  1.
        -11    1    3    3    0    0  0.14341807150E+02 -0.31995492338E+03 -0.38214738071E+03  0.49861153317E+03  0.00000000000E+00 0. -1.
         22    1    1    2    0    0  0.54152052571E+02  0.57943151542E+03  0.42597947588E+03  0.72120166371E+03  0.00000000000E+00 0.  1.
<mgrwt>
<rscale>  0 0.15991610E+04</rscale>
<asrwt>0</asrwt>
<pdfrwt beam="1">  1        1 0.14386357E+00 0.15991610E+04</pdfrwt>
<pdfrwt beam="2">  1       -1 0.10518332E+00 0.15991610E+04</pdfrwt>
<totfact> 0.13866344E+01</totfact>
</mgrwt>
</event>
<event>
 6    1  0.1528034E-005  0.2687445E+04  0.7818608E-02  0.8339090E-01
         -2   -1    0    0    0  501 -0.00000000000E+00  0.00000000000E+00  0.49451310710E+03  0.49451310710E+03  0.00000000000E+00 0. -1.
          2   -1    0    0  501    0  0.00000000000E+00 -0.00000000000E+00 -0.36512480064E+04  0.36512480064E+04  0.00000000000E+00 0.  1.
         23    2    1    2    0    0  0.10258710507E+04  0.15495123763E+02 -0.24526829529E+03  0.10588064171E+04  0.90900938791E+02 0.  0.
         13    1    3    3    0    0  0.37749393755E+03 -0.12296411564E+02 -0.49342250400E+02  0.38090357349E+03  0.00000000000E+00 0.  1.
        -13    1    3    3    0    0  0.64837711314E+03  0.27791535327E+02 -0.19592604489E+03  0.67790284359E+03  0.00000000000E+00 0. -1.
         22    1    1    2    0    0 -0.10258710507E+04 -0.15495123763E+02 -0.29114666040E+04  0.30869546965E+04  0.00000000000E+00 0.  1.
<mgrwt>
<rscale>  0 0.26874449E+04</rscale>
<asrwt>0</asrwt>
<pdfrwt beam="1">  1        2 0.56173047E+00 0.26874449E+04</pdfrwt>
<pdfrwt beam="2">  1       -2 0.76078938E-01 0.26874449E+04</pdfrwt>
<totfact> 0.86156224E-01</totfact>
</mgrwt>
</event>
<event>
 6    1  0.1528034E-005  0.1465848E+04  0.7818608E-02  0.8907487E-01
          2   -1    0    0  501    0  0.00000000000E+00  0.00000000000E+00  0.14437710483E+04  0.14437710483E+04  0.00000000000E+00 0. -1.
         -2   -1    0    0    0  501 -0.00000000000E+00 -0.00000000000E+00 -0.37206567058E+03  0.37206567058E+03  0.00000000000E+00 0.  1.
         23    2    1    2    0    0  0.50226268917E+03 -0.42488709272E+03  0.14582932512E+03  0.68003598139E+03  0.91574523899E+02 0.  0.
         13    1    3    3    0    0  0.29516776844E+03 -0.19872026696E+03  0.53850580648E+02  0.35988003704E+03  0.00000000000E+00 0.  1.
        -13    1    3    3    0    0  0.20709492074E+03 -0.22616682575E+03  0.91978744471E+02  0.32015594435E+03  0.00000000000E+00 0. -1.
         22    1    1    2    0    0 -0.50226268917E+03  0.42488709272E+03  0.92587605259E+03  0.11358007375E+04  0.00000000000E+00 0. -1.
<mgrwt>
<rscale>  0 0.14658481E+04</rscale>
<asrwt>0</asrwt>
<pdfrwt beam="1">  1        2 0.22211862E+00 0.14658481E+04</pdfrwt>
<pdfrwt beam="2">  1       -2 0.57240873E-01 0.14658481E+04</pdfrwt>
<totfact> 0.37840820E+01</totfact>
</mgrwt>
</event>
<event>
 6    1  0.1528034E-005  0.2047218E+04  0.7818608E-02  0.8584857E-01
          2   -1    0    0  501    0  0.00000000000E+00  0.00000000000E+00  0.14055969425E+04  0.14055969425E+04  0.00000000000E+00 0. -1.
         -2   -1    0    0    0  501 -0.00000000000E+00 -0.00000000000E+00 -0.74543091025E+03  0.74543091025E+03  0.00000000000E+00 0.  1.
         23    2    1    2    0    0 -0.38972737480E+03  0.13662713822E+03  0.13125148384E+04  0.13789440707E+04  0.90758731386E+02 0.  0.
         13    1    3    3    0    0 -0.83714299325E+02  0.20749727299E+02  0.40917544429E+03  0.41816644928E+03  0.00000000000E+00 0.  1.
        -13    1    3    3    0    0 -0.30601307547E+03  0.11587741092E+03  0.90333939415E+03  0.96077762138E+03  0.00000000000E+00 0. -1.
         22    1    1    2    0    0  0.38972737480E+03 -0.13662713822E+03 -0.65234880621E+03  0.77208378207E+03  0.00000000000E+00 0.  1.
<mgrwt>
<rscale>  0 0.20472180E+04</rscale>
<asrwt>0</asrwt>
<pdfrwt beam="1">  1        2 0.21624568E+00 0.20472180E+04</pdfrwt>
<pdfrwt beam="2">  1       -2 0.11468168E+00 0.20472180E+04</pdfrwt>
<totfact> 0.78935803E+00</totfact>
</mgrwt>
</event>
<event>
 6    1  0.1528034E-005  0.1355549E+04  0.7818608E-02  0.8986638E-01
          1   -1    0    0  501    0  0.00000000000E+00  0.00000000000E+00  0.19822323679E+04  0.19822323679E+04  0.00000000000E+00 0. -1.
         -1   -1    0    0    0  501 -0.00000000000E+00 -0.00000000000E+00 -0.23174788891E+03  0.23174788891E+03  0.00000000000E+00 0.  1.
         23    2    1    2    0    0  0.47811013207E+03  0.34495821429E+03  0.34320537153E+03  0.68819522795E+03  0.90759444280E+02 0.  0.
         13    1    3    3    0    0  0.34401639220E+03  0.22143805111E+03  0.27770715414E+03  0.49447280213E+03  0.00000000000E+00 0. -1.
        -13    1    3    3    0    0  0.13409373987E+03  0.12352016318E+03  0.65498217392E+02  0.19372242582E+03  0.00000000000E+00 0.  1.
         22    1    1    2    0    0 -0.47811013207E+03 -0.34495821429E+03  0.14072791075E+04  0.15257850289E+04  0.00000000000E+00 0. -1.
<mgrwt>
<rscale>  0 0.13555488E+04</rscale>
<asrwt>0</asrwt>
<pdfrwt beam="1">  1        1 0.30495881E+00 0.13555488E+04</pdfrwt>
<pdfrwt beam="2">  1       -1 0.35653523E-01 0.13555488E+04</pdfrwt>
<totfact> 0.22523743E+01</totfact>
</mgrwt>
</event>
<event>
 6    1  0.1528034E-005  0.1335792E+04  0.7818608E-02  0.9001654E-01
         -1   -1    0    0    0  501 -0.00000000000E+00  0.00000000000E+00  0.25945035436E+03  0.25945035436E+03  0.00000000000E+00 0.  1.
          1   -1    0    0  501    0  0.00000000000E+00 -0.00000000000E+00 -0.17193467065E+04  0.17193467065E+04  0.00000000000E+00 0. -1.
         23    2    1    2    0    0 -0.17408749272E+03  0.21968397803E+03 -0.16263857042E+04  0.16527814022E+04  0.89377846084E+02 0.  0.
         11    1    3    3    0    0  0.38972064999E+01  0.42741388070E+02 -0.26566009829E+03  0.26910463076E+03  0.00000000000E+00 0.  1.
        -11    1    3    3    0    0 -0.17798469922E+03  0.17694258996E+03 -0.13607256059E+04  0.13836767714E+04  0.00000000000E+00 0. -1.
         22    1    1    2    0    0  0.17408749272E+03 -0.21968397803E+03  0.16648935206E+03  0.32601565864E+03  0.00000000000E+00 0.  1.
<mgrwt>
<rscale>  0 0.13357921E+04</rscale>
<asrwt>0</asrwt>
<pdfrwt beam="1">  1        1 0.26451488E+00 0.13357921E+04</pdfrwt>
<pdfrwt beam="2">  1       -1 0.39915439E-01 0.13357921E+04</pdfrwt>
<totfact> 0.27706909E+01</totfact>
</mgrwt>
</event>
<event>
 6    1  0.1528034E-005  0.3716970E+04  0.7818608E-02  0.8064212E-01
          2   -1    0    0  501    0  0.00000000000E+00  0.00000000000E+00  0.14534926707E+04  0.14534926707E+04  0.00000000000E+00 0.  1.
         -2   -1    0    0    0  501 -0.00000000000E+00 -0.00000000000E+00 -0.23763213755E+04  0.23763213755E+04  0.00000000000E+00 0. -1.
         23    2    1    2    0    0  0.16305391196E+04  0.44300959127E+03 -0.12563878459E+04  0.21075547686E+04  0.91440499596E+02 0.  0.
         11    1    3    3    0    0  0.59333804981E+03  0.17788632701E+03 -0.51202030832E+03  0.80365314832E+03  0.00000000000E+00 0. -1.
        -11    1    3    3    0    0  0.10372010698E+04  0.26512326427E+03 -0.74436753753E+03  0.13039016203E+04  0.00000000000E+00 0.  1.
         22    1    1    2    0    0 -0.16305391196E+04 -0.44300959127E+03  0.33355914106E+03  0.17222592776E+04  0.00000000000E+00 0.  1.
<mgrwt>
<rscale>  0 0.37169696E+04</rscale>
<asrwt>0</asrwt>
<pdfrwt beam="1">  1        2 0.22361426E+00 0.37169696E+04</pdfrwt>
<pdfrwt beam="2">  1       -2 0.36558790E+00 0.37169696E+04</pdfrwt>
<totfact> 0.13483518E-01</totfact>
</mgrwt>
</event>
<event>
 6    1  0.1528034E-005  0.8578641E+03  0.7818608E-02  0.9479842E-01
          2   -1    0    0  501    0  0.00000000000E+00  0.00000000000E+00  0.77462178111E+03  0.77462178111E+03  0.00000000000E+00 0. -1.
         -2   -1    0    0    0  501 -0.00000000000E+00 -0.00000000000E+00 -0.23751297262E+03  0.23751297262E+03  0.00000000000E+00 0.  1.
         23    2    1    2    0    0  0.39413188110E+03 -0.54802487446E+02  0.98736523004E+02  0.42009293679E+03  0.91574681195E+02 0.  0.
         13    1    3    3    0    0  0.29974368664E+03 -0.18740437504E+02  0.39363678336E+02  0.30289764088E+03  0.00000000000E+00 0. -1.
        -13    1    3    3    0    0  0.94388194458E+02 -0.36062049941E+02  0.59372844668E+02  0.11719529591E+03  0.00000000000E+00 0.  1.
         22    1    1    2    0    0 -0.39413188110E+03  0.54802487446E+02  0.43837228549E+03  0.59204181695E+03  0.00000000000E+00 0. -1.
<mgrwt>
<rscale>  0 0.85786414E+03</rscale>
<asrwt>0</asrwt>
<pdfrwt beam="1">  1        2 0.11917258E+00 0.85786414E+03</pdfrwt>
<pdfrwt beam="2">  1       -2 0.36540458E-01 0.85786414E+03</pdfrwt>
<totfact> 0.25439328E+02</totfact>
</mgrwt>
</event>
<event>
 6    1  0.1528034E-005  0.3312616E+04  0.7818608E-02  0.8159693E-01
          2   -1    0    0  501    0  0.00000000000E+00  0.00000000000E+00  0.13879066012E+04  0.13879066012E+04  0.00000000000E+00 0. -1.
         -2   -1    0    0    0  501 -0.00000000000E+00 -0.00000000000E+00 -0.19766139474E+04  0.19766139474E+04  0.00000000000E+00 0.  1.
         23    2    1    2    0    0 -0.12914322949E+04 -0.47501022612E+03 -0.12285043295E+04  0.18470317457E+04  0.94187552808E+02 0.  0.
         13    1    3    3    0    0 -0.28503015217E+03 -0.11233388352E+03 -0.32671268657E+03  0.44788644610E+03  0.00000000000E+00 0.  1.
        -13    1    3    3    0    0 -0.10064021427E+04 -0.36267634260E+03 -0.90179164289E+03  0.13991452996E+04  0.00000000000E+00 0. -1.
         22    1    1    2    0    0  0.12914322949E+04  0.47501022612E+03  0.63979698320E+03  0.15174888029E+04  0.00000000000E+00 0. -1.
<mgrwt>
<rscale>  0 0.33126156E+04</rscale>
<asrwt>0</asrwt>
<pdfrwt beam="1">  1        2 0.21352409E+00 0.33126156E+04</pdfrwt>
<pdfrwt beam="2">  1       -2 0.30409445E+00 0.33126156E+04</pdfrwt>
<totfact> 0.36798091E-01</totfact>
</mgrwt>
</event>
<event>
 6    1  0.1528034E-005  0.1866225E+04  0.7818608E-02  0.8671854E-01
          2   -1    0    0  501    0  0.00000000000E+00  0.00000000000E+00  0.96411065882E+03  0.96411065882E+03  0.00000000000E+00 0.  1.
         -2   -1    0    0    0  501 -0.00000000000E+00 -0.00000000000E+00 -0.90311081464E+03  0.90311081464E+03  0.00000000000E+00 0. -1.
         23    2    1    2    0    0  0.34460393193E+03  0.79792859429E+03 -0.30285269815E+03  0.92497384993E+03  0.91733062689E+02 0.  0.
         13    1    3    3    0    0  0.20219067255E+03  0.36805668149E+03 -0.12147860197E+03  0.43715425149E+03  0.00000000000E+00 0. -1.
        -13    1    3    3    0    0  0.14241325938E+03  0.42987191280E+03 -0.18137409617E+03  0.48781959844E+03  0.00000000000E+00 0.  1.
         22    1    1    2    0    0 -0.34460393193E+03 -0.79792859429E+03  0.36385254233E+03  0.94224762353E+03  0.00000000000E+00 0.  1.
<mgrwt>
<rscale>  0 0.18662248E+04</rscale>
<asrwt>0</asrwt>
<pdfrwt beam="1">  1        2 0.14832472E+00 0.18662248E+04</pdfrwt>
<pdfrwt beam="2">  1       -2 0.13894013E+00 0.18662248E+04</pdfrwt>
<totfact> 0.91418049E+00</totfact>
</mgrwt>
</event>
<event>
 6    1  0.1528034E-005  0.1555821E+04  0.7818608E-02  0.8848158E-01
         -2   -1    0    0    0  501 -0.00000000000E+00  0.00000000000E+00  0.44856525103E+03  0.44856525103E+03  0.00000000000E+00 0.  1.
          2   -1    0    0  501    0  0.00000000000E+00 -0.00000000000E+00 -0.13490677649E+04  0.13490677649E+04  0.00000000000E+00 0. -1.
         23    2    1    2    0    0  0.25602303739E+03 -0.59246311338E+03  0.44088842565E+02  0.65359928958E+03  0.93208738339E+02 0.  0.
         11    1    3    3    0    0  0.11018221212E+03 -0.28358996314E+03  0.66019442668E+02  0.31132290933E+03  0.00000000000E+00 0.  1.
        -11    1    3    3    0    0  0.14584082527E+03 -0.30887315024E+03 -0.21930600102E+02  0.34227638025E+03  0.00000000000E+00 0. -1.
         22    1    1    2    0    0 -0.25602303739E+03  0.59246311338E+03 -0.94459135646E+03  0.11440337264E+04  0.00000000000E+00 0. -1.
<mgrwt>
<rscale>  0 0.15558212E+04</rscale>
<asrwt>0</asrwt>
<pdfrwt beam="1">  1        2 0.20754888E+00 0.15558212E+04</pdfrwt>
<pdfrwt beam="2">  1       -2 0.69010040E-01 0.15558212E+04</pdfrwt>
<totfact> 0.28563208E+01</totfact>
</mgrwt>
</event>
<event>
 6    1  0.1528034E-005  0.1779768E+04  0.7818608E-02  0.8717133E-01
          2   -1    0    0  501    0  0.00000000000E+00  0.00000000000E+00  0.64130354831E+03  0.64130354831E+03  0.00000000000E+00 0. -1.
         -2   -1    0    0    0  501 -0.00000000000E+00 -0.00000000000E+00 -0.12348187739E+04  0.12348187739E+04  0.00000000000E+00 0.  1.
         23    2    1    2    0    0 -0.38365351613E+03 -0.77841796448E+03 -0.49330699916E+03  0.10025284598E+04  0.92665901884E+02 0.  0.
         11    1    3    3    0    0 -0.16932056149E+03 -0.44076599944E+03 -0.28643145354E+03  0.55225636834E+03  0.00000000000E+00 0.  1.
        -11    1    3    3    0    0 -0.21433295464E+03 -0.33765196504E+03 -0.20687554562E+03  0.45027209143E+03  0.00000000000E+00 0. -1.
         22    1    1    2    0    0  0.38365351613E+03  0.77841796448E+03 -0.10020822645E+03  0.87359386245E+03  0.00000000000E+00 0. -1.
<mgrwt>
<rscale>  0 0.17797681E+04</rscale>
<asrwt>0</asrwt>
<pdfrwt beam="1">  1        2 0.98662085E-01 0.17797681E+04</pdfrwt>
<pdfrwt beam="2">  1       -2 0.18997212E+00 0.17797681E+04</pdfrwt>
<totfact> 0.66980772E+00</totfact>
</mgrwt>
</event>
<event>
 6    1  0.1528034E-005  0.2738890E+04  0.7818608E-02  0.8322496E-01
         -1   -1    0    0    0  501 -0.00000000000E+00  0.00000000000E+00  0.91074529432E+03  0.91074529432E+03  0.00000000000E+00 0.  1.
          1   -1    0    0  501    0  0.00000000000E+00 -0.00000000000E+00 -0.20591695907E+04  0.20591695907E+04  0.00000000000E+00 0. -1.
         23    2    1    2    0    0  0.12966833019E+03  0.56221723268E+03  0.77022734056E+03  0.96638644836E+03  0.88037031115E+02 0.  0.
         13    1    3    3    0    0  0.96713838894E+02  0.23515183573E+03  0.31309129590E+03  0.40333126837E+03  0.00000000000E+00 0.  1.
        -13    1    3    3    0    0  0.32954491301E+02  0.32706539695E+03  0.45713604466E+03  0.56305517998E+03  0.00000000000E+00 0. -1.
         22    1    1    2    0    0 -0.12966833019E+03 -0.56221723268E+03 -0.19186516369E+04  0.20035284367E+04  0.00000000000E+00 0. -1.
<mgrwt>
<rscale>  0 0.27388896E+04</rscale>
<asrwt>0</asrwt>
<pdfrwt beam="1">  1        1 0.31679532E+00 0.27388896E+04</pdfrwt>
<pdfrwt beam="2">  1       -1 0.14011466E+00 0.27388896E+04</pdfrwt>
<totfact> 0.98869260E-01</totfact>
</mgrwt>
</event>
<event>
 6    1  0.1528034E-005  0.8689158E+03  0.7818608E-02  0.9465295E-01
         -1   -1    0    0    0  501 -0.00000000000E+00  0.00000000000E+00  0.17210860548E+03  0.17210860548E+03  0.00000000000E+00 0.  1.
          1   -1    0    0  501    0  0.00000000000E+00 -0.00000000000E+00 -0.10967125348E+04  0.10967125348E+04  0.00000000000E+00 0. -1.
         23    2    1    2    0    0 -0.74341683638E+02  0.23867270844E+03  0.41905699380E+02  0.27050645541E+03  0.94479135779E+02 0.  0.
         13    1    3    3    0    0  0.22133603622E+02  0.55967767134E+02  0.16005135180E+02  0.62277216696E+02  0.00000000000E+00 0.  1.
        -13    1    3    3    0    0 -0.96475287260E+02  0.18270494130E+03  0.25900564201E+02  0.20822923871E+03  0.00000000000E+00 0. -1.
         22    1    1    2    0    0  0.74341683638E+02 -0.23867270844E+03 -0.96650962874E+03  0.99831468492E+03  0.00000000000E+00 0. -1.
<mgrwt>
<rscale>  0 0.86891580E+03</rscale>
<asrwt>0</asrwt>
<pdfrwt beam="1">  1        1 0.16872501E+00 0.86891580E+03</pdfrwt>
<pdfrwt beam="2">  1       -1 0.26478246E-01 0.86891580E+03</pdfrwt>
<totfact> 0.16300155E+02</totfact>
</mgrwt>
</event>
<event>
 6    1  0.1528034E-005  0.1916417E+04  0.7818608E-02  0.8646727E-01
          2   -1    0    0  501    0  0.00000000000E+00  0.00000000000E+00  0.83375298231E+03  0.83375298231E+03  0.00000000000E+00 0.  1.
         -2   -1    0    0    0  501 -0.00000000000E+00 -0.00000000000E+00 -0.11012419800E+04  0.11012419800E+04  0.00000000000E+00 0. -1.
         23    2    1    2    0    0 -0.87256187797E+03  0.72580946791E+01 -0.52860159578E+03  0.10241729710E+04  0.89965086205E+02 0.  0.
         11    1    3    3    0    0 -0.42965286001E+03 -0.21164608148E+02 -0.30406020026E+03  0.52678470568E+03  0.00000000000E+00 0. -1.
        -11    1    3    3    0    0 -0.44290901795E+03  0.28422702827E+02 -0.22454139553E+03  0.49738826537E+03  0.00000000000E+00 0.  1.
         22    1    1    2    0    0  0.87256187797E+03 -0.72580946791E+01  0.26111259812E+03  0.91082199123E+03  0.00000000000E+00 0.  1.
<mgrwt>
<rscale>  0 0.19164173E+04</rscale>
<asrwt>0</asrwt>
<pdfrwt beam="1">  1        2 0.12826969E+00 0.19164173E+04</pdfrwt>
<pdfrwt beam="2">  1       -2 0.16942184E+00 0.19164173E+04</pdfrwt>
<totfact> 0.65547499E+00</totfact>
</mgrwt>
</event>
<event>
 6    1  0.1528034E-005  0.1043495E+04  0.7818608E-02  0.9262086E-01
         -2   -1    0    0    0  501 -0.00000000000E+00  0.00000000000E+00  0.11623429333E+03  0.11623429333E+03  0.00000000000E+00 0.  1.
          2   -1    0    0  501    0  0.00000000000E+00 -0.00000000000E+00 -0.23419992928E+04  0.23419992928E+04  0.00000000000E+00 0. -1.
         23    2    1    2    0    0 -0.48880708433E+02  0.40443081046E+03 -0.36562489085E+03  0.55400806696E+03  0.85380169508E+02 0.  0.
         11    1    3    3    0    0  0.35000671093E+01  0.17101046337E+03 -0.10724257160E+03  0.20188560675E+03  0.00000000000E+00 0.  1.
        -11    1    3    3    0    0 -0.52380775543E+02  0.23342034710E+03 -0.25838231925E+03  0.35212246021E+03  0.00000000000E+00 0. -1.
         22    1    1    2    0    0  0.48880708433E+02 -0.40443081046E+03 -0.18601401086E+04  0.19042255191E+04  0.00000000000E+00 0. -1.
<mgrwt>
<rscale>  0 0.10434953E+04</rscale>
<asrwt>0</asrwt>
<pdfrwt beam="1">  1        2 0.36030755E+00 0.10434953E+04</pdfrwt>
<pdfrwt beam="2">  1       -2 0.17882201E-01 0.10434953E+04</pdfrwt>
<totfact> 0.11193478E+02</totfact>
</mgrwt>
</event>
<event>
 6    1  0.1528034E-005  0.5538326E+03  0.7818608E-02  0.1000611E+00
         -2   -1    0    0    0  501 -0.00000000000E+00  0.00000000000E+00  0.73495298813E+02  0.73495298813E+02  0.00000000000E+00 0. -1.
          2   -1    0    0  501    0  0.00000000000E+00 -0.00000000000E+00 -0.10433679115E+04  0.10433679115E+04  0.00000000000E+00 0.  1.
         23    2    1    2    0    0 -0.19918582019E+03  0.39465094578E+02 -0.13994803537E+03  0.26245857041E+03  0.89814051907E+02 0.  0.
         13    1    3    3    0    0 -0.10782698088E+03  0.54948591275E+02 -0.43214073940E+02  0.12850471460E+03  0.00000000000E+00 0. -1.
        -13    1    3    3    0    0 -0.91358839316E+02 -0.15483496697E+02 -0.96733961432E+02  0.13395385581E+03  0.00000000000E+00 0.  1.
         22    1    1    2    0    0  0.19918582019E+03 -0.39465094578E+02 -0.82992457730E+03  0.85440463989E+03  0.00000000000E+00 0.  1.
<mgrwt>
<rscale>  0 0.55383260E+03</rscale>
<asrwt>0</asrwt>
<pdfrwt beam="1">  1        2 0.16051814E+00 0.55383260E+03</pdfrwt>
<pdfrwt beam="2">  1       -2 0.11306969E-01 0.55383260E+03</pdfrwt>
<totfact> 0.13382244E+03</totfact>
</mgrwt>
</event>
<event>
 6    1  0.1528034E-005  0.3136988E+04  0.7818608E-02  0.8205660E-01
         -2   -1    0    0    0  501 -0.00000000000E+00  0.00000000000E+00  0.98890300342E+03  0.98890300342E+03  0.00000000000E+00 0.  1.
          2   -1    0    0  501    0  0.00000000000E+00 -0.00000000000E+00 -0.24877797726E+04  0.24877797726E+04  0.00000000000E+00 0. -1.
         23    2    1    2    0    0  0.13112044012E+04  0.98241216623E+02 -0.16949499867E+04  0.21472644728E+04  0.94767823554E+02 0.  0.
         11    1    3    3    0    0  0.78425365740E+03  0.12716333215E+02 -0.10206514688E+04  0.12872237276E+04  0.00000000000E+00 0. -1.
        -11    1    3    3    0    0  0.52695074380E+03  0.85524883408E+02 -0.67429851791E+03  0.86004074516E+03  0.00000000000E+00 0.  1.
         22    1    1    2    0    0 -0.13112044012E+04 -0.98241216623E+02  0.19607321749E+03  0.13294183032E+04  0.00000000000E+00 0.  1.
<mgrwt>
<rscale>  0 0.31369877E+04</rscale>
<asrwt>0</asrwt>
<pdfrwt beam="1">  1        2 0.38273534E+00 0.31369877E+04</pdfrwt>
<pdfrwt beam="2">  1       -2 0.15213893E+00 0.31369877E+04</pdfrwt>
<totfact> 0.86403151E-01</totfact>
</mgrwt>
</event>
<event>
 6    1  0.1528034E-005  0.3170803E+04  0.7818608E-02  0.8196571E-01
         -2   -1    0    0    0  501 -0.00000000000E+00  0.00000000000E+00  0.95651273621E+03  0.95651273621E+03  0.00000000000E+00 0.  1.
          2   -1    0    0  501    0  0.00000000000E+00 -0.00000000000E+00 -0.26277728139E+04  0.26277728139E+04  0.00000000000E+00 0. -1.
         23    2    1    2    0    0  0.19816878320E+03 -0.55707829179E+03 -0.24976947747E+04  0.25681155850E+04  0.84447502703E+02 0.  0.
         11    1    3    3    0    0  0.92713101230E+02 -0.35319051132E+03 -0.16471457037E+04  0.16871361017E+04  0.00000000000E+00 0. -1.
        -11    1    3    3    0    0  0.10545568197E+03 -0.20388778047E+03 -0.85054907099E+03  0.88097948333E+03  0.00000000000E+00 0.  1.
         22    1    1    2    0    0 -0.19816878320E+03  0.55707829179E+03  0.82643469692E+03  0.10161699652E+04  0.00000000000E+00 0.  1.
<mgrwt>
<rscale>  0 0.31708032E+04</rscale>
<asrwt>0</asrwt>
<pdfrwt beam="1">  1        2 0.40427273E+00 0.31708032E+04</pdfrwt>
<pdfrwt beam="2">  1       -2 0.14715581E+00 0.31708032E+04</pdfrwt>
<totfact> 0.77947782E-01</totfact>
</mgrwt>
</event>
<event>
 6    1  0.1528034E-005  0.1163315E+04  0.7818608E-02  0.9145587E-01
          1   -1    0    0  501    0  0.00000000000E+00  0.00000000000E+00  0.49900793527E+03  0.49900793527E+03  0.00000000000E+00 0. -1.
         -1   -1    0    0    0  501 -0.00000000000E+00 -0.00000000000E+00 -0.67799621995E+03  0.67799621995E+03  0.00000000000E+00 0.  1.
         23    2    1    2    0    0 -0.11038040500E+03 -0.42736018695E+03 -0.46810310676E+03  0.64936038947E+03  0.87908097789E+02 0.  0.
         13    1    3    3    0    0 -0.90400868497E+02 -0.39399170632E+03 -0.45426885370E+03  0.60808056466E+03  0.00000000000E+00 0.  1.
        -13    1    3    3    0    0 -0.19979536507E+02 -0.33368480632E+02 -0.13834253054E+02  0.41279824809E+02  0.00000000000E+00 0. -1.
         22    1    1    2    0    0  0.11038040500E+03  0.42736018695E+03  0.28911482208E+03  0.52764376576E+03  0.00000000000E+00 0. -1.
<mgrwt>
<rscale>  0 0.11633151E+04</rscale>
<asrwt>0</asrwt>
<pdfrwt beam="1">  1        1 0.76770452E-01 0.11633151E+04</pdfrwt>
<pdfrwt beam="2">  1       -1 0.10430711E+00 0.11633151E+04</pdfrwt>
<totfact> 0.38149908E+01</totfact>
</mgrwt>
</event>
<event>
 6    1  0.1528034E-005  0.2072208E+04  0.7818608E-02  0.8573586E-01
          1   -1    0    0  501    0  0.00000000000E+00  0.00000000000E+00  0.16395990733E+04  0.16395990733E+04  0.00000000000E+00 0. -1.
         -1   -1    0    0    0  501 -0.00000000000E+00 -0.00000000000E+00 -0.65474049028E+03  0.65474049028E+03  0.00000000000E+00 0.  1.
         23    2    1    2    0    0  0.75409837096E+03 -0.45349167361E+03 -0.10795078168E+03  0.89128883081E+03  0.91778851318E+02 0.  0.
         13    1    3    3    0    0  0.49845968974E+03 -0.32738190982E+03 -0.36799430311E+02  0.59749073235E+03  0.00000000000E+00 0.  1.
        -13    1    3    3    0    0  0.25563868122E+03 -0.12610976379E+03 -0.71151351371E+02  0.29379809847E+03  0.00000000000E+00 0. -1.
         22    1    1    2    0    0 -0.75409837096E+03  0.45349167361E+03  0.10928093647E+04  0.14030507327E+04  0.00000000000E+00 0. -1.
<mgrwt>
<rscale>  0 0.20722084E+04</rscale>
<asrwt>0</asrwt>
<pdfrwt beam="1">  1        1 0.25224601E+00 0.20722084E+04</pdfrwt>
<pdfrwt beam="2">  1       -1 0.10072931E+00 0.20722084E+04</pdfrwt>
<totfact> 0.45290943E+00</totfact>
</mgrwt>
</event>
<event>
 6    1  0.1528034E-005  0.2675436E+04  0.7818608E-02  0.8343019E-01
          2   -1    0    0  501    0  0.00000000000E+00  0.00000000000E+00  0.20259446054E+04  0.20259446054E+04  0.00000000000E+00 0. -1.
         -2   -1    0    0    0  501 -0.00000000000E+00 -0.00000000000E+00 -0.88328671752E+03  0.88328671752E+03  0.00000000000E+00 0.  1.
         23    2    1    2    0    0  0.50112394249E+03  0.94074404068E+03 -0.30414393704E+03  0.11121892877E+04  0.91306743311E+02 0.  0.
         13    1    3    3    0    0  0.32137209533E+03  0.50692926190E+03 -0.17050559037E+03  0.62396270448E+03  0.00000000000E+00 0. -1.
        -13    1    3    3    0    0  0.17975184716E+03  0.43381477878E+03 -0.13363834667E+03  0.48822658320E+03  0.00000000000E+00 0.  1.
         22    1    1    2    0    0 -0.50112394249E+03 -0.94074404068E+03  0.14468018249E+04  0.17970420352E+04  0.00000000000E+00 0. -1.
<mgrwt>
<rscale>  0 0.26754364E+04</rscale>
<asrwt>0</asrwt>
<pdfrwt beam="1">  1        2 0.31168379E+00 0.26754364E+04</pdfrwt>
<pdfrwt beam="2">  1       -2 0.13589026E+00 0.26754364E+04</pdfrwt>
<totfact> 0.22039348E+00</totfact>
</mgrwt>
</event>
<event>
 6    1  0.1528034E-005  0.3629585E+04  0.7818608E-02  0.8083748E-01
         -1   -1    0    0    0  501 -0.00000000000E+00  0.00000000000E+00  0.11344592477E+04  0.11344592477E+04  0.00000000000E+00 0.  1.
          1   -1    0    0  501    0  0.00000000000E+00 -0.00000000000E+00 -0.29031198352E+04  0.29031198352E+04  0.00000000000E+00 0. -1.
         23    2    1    2    0    0 -0.11286123261E+04  0.13602359382E+04 -0.13374180046E+04  0.22182446563E+04  0.88965419505E+02 0.  0.
         13    1    3    3    0    0 -0.72424950474E+03  0.82007848177E+03 -0.86096610865E+03  0.13922387373E+04  0.00000000000E+00 0. -1.
        -13    1    3    3    0    0 -0.40436282139E+03  0.54015745644E+03 -0.47645189591E+03  0.82600591898E+03  0.00000000000E+00 0.  1.
         22    1    1    2    0    0  0.11286123261E+04 -0.13602359382E+04 -0.43124258292E+03  0.18193344266E+04  0.00000000000E+00 0.  1.
<mgrwt>
<rscale>  0 0.36295846E+04</rscale>
<asrwt>0</asrwt>
<pdfrwt beam="1">  1        1 0.44663381E+00 0.36295846E+04</pdfrwt>
<pdfrwt beam="2">  1       -1 0.17453219E+00 0.36295846E+04</pdfrwt>
<totfact> 0.12923794E-01</totfact>
</mgrwt>
</event>
<event>
 6    1  0.1528034E-005  0.1279054E+04  0.7818608E-02  0.9046342E-01
         -2   -1    0    0    0  501 -0.00000000000E+00  0.00000000000E+00  0.55348669555E+03  0.55348669555E+03  0.00000000000E+00 0. -1.
          2   -1    0    0  501    0  0.00000000000E+00 -0.00000000000E+00 -0.73894245931E+03  0.73894245931E+03  0.00000000000E+00 0.  1.
         23    2    1    2    0    0  0.20555660559E+03 -0.16494420644E+03  0.49165024449E+03  0.56583941109E+03  0.94837581650E+02 0.  0.
         13    1    3    3    0    0  0.12241546573E+03 -0.13049904942E+03  0.39578459899E+03  0.43435123684E+03  0.00000000000E+00 0. -1.
        -13    1    3    3    0    0  0.83141139859E+02 -0.34445157014E+02  0.95865645507E+02  0.13148817425E+03  0.00000000000E+00 0.  1.
         22    1    1    2    0    0 -0.20555660559E+03  0.16494420644E+03 -0.67710600825E+03  0.72658974377E+03  0.00000000000E+00 0.  1.
<mgrwt>
<rscale>  0 0.12790541E+04</rscale>
<asrwt>0</asrwt>
<pdfrwt beam="1">  1        2 0.11368345E+00 0.12790541E+04</pdfrwt>
<pdfrwt beam="2">  1       -2 0.85151800E-01 0.12790541E+04</pdfrwt>
<totfact> 0.45049475E+01</totfact>
</mgrwt>
</event>
<event>
 6    1  0.1528034E-005  0.3702490E+04  0.7818608E-02  0.8067410E-01
          2   -1    0    0  501    0  0.00000000000E+00  0.00000000000E+00  0.35454298879E+04  0.35454298879E+04  0.00000000000E+00 0. -1.
         -2   -1    0    0    0  501 -0.00000000000E+00 -0.00000000000E+00 -0.96662668586E+03  0.96662668586E+03  0.00000000000E+00 0.  1.
         23    2    1    2    0    0  0.11366977185E+04 -0.81265404247E+03 -0.18758507424E+03  0.14127998256E+04  0.91251800077E+02 0.  0.
         11    1    3    3    0    0  0.42939291375E+03 -0.35519433783E+03 -0.96276457695E+02  0.56551785853E+03  0.00000000000E+00 0.  1.
        -11    1    3    3    0    0  0.70730480478E+03 -0.45745970464E+03 -0.91308616545E+02  0.84728196705E+03  0.00000000000E+00 0. -1.
         22    1    1    2    0    0 -0.11366977185E+04  0.81265404247E+03  0.27663882763E+04  0.30992567482E+04  0.00000000000E+00 0. -1.
<mgrwt>
<rscale>  0 0.37024895E+04</rscale>
<asrwt>0</asrwt>
<pdfrwt beam="1">  1        2 0.54545075E+00 0.37024895E+04</pdfrwt>
<pdfrwt beam="2">  1       -2 0.14871180E+00 0.37024895E+04</pdfrwt>
<totfact> 0.18676372E-01</totfact>
</mgrwt>
</event>
<event>
 6    1  0.1528034E-005  0.2128846E+04  0.7818608E-02  0.8548642E-01
         -2   -1    0    0    0  501 -0.00000000000E+00  0.00000000000E+00  0.39483338469E+03  0.39483338469E+03  0.00000000000E+00 0.  1.
          2   -1    0    0  501    0  0.00000000000E+00 -0.00000000000E+00 -0.28695546524E+04  0.28695546524E+04  0.00000000000E+00 0. -1.
         23    2    1    2    0    0  0.57565907173E+03  0.23150248967E+03  0.82841088706E+02  0.63263919334E+03  0.91612954205E+02 0.  0.
         11    1    3    3    0    0  0.14727182064E+03  0.10193448549E+03  0.11942981821E+02  0.17950560799E+03  0.00000000000E+00 0.  1.
        -11    1    3    3    0    0  0.42838725109E+03  0.12956800418E+03  0.70898106885E+02  0.45313358534E+03  0.00000000000E+00 0. -1.
         22    1    1    2    0    0 -0.57565907173E+03 -0.23150248967E+03 -0.25575623564E+04  0.26317488438E+04  0.00000000000E+00 0. -1.
<mgrwt>
<rscale>  0 0.21288457E+04</rscale>
<asrwt>0</asrwt>
<pdfrwt beam="1">  1        2 0.44146994E+00 0.21288457E+04</pdfrwt>
<pdfrwt beam="2">  1       -2 0.60743599E-01 0.21288457E+04</pdfrwt>
<totfact> 0.48713038E+00</totfact>
</mgrwt>
</event>
<event>
 6    1  0.1528034E-005  0.3299196E+04  0.7818608E-02  0.8163100E-01
         -1   -1    0    0    0  501 -0.00000000000E+00  0.00000000000E+00  0.77316434411E+03  0.77316434411E+03  0.00000000000E+00 0.  1.
          1   -1    0    0  501    0  0.00000000000E+00 -0.00000000000E+00 -0.35195279543E+04  0.35195279543E+04  0.00000000000E+00 0. -1.
         23    2    1    2    0    0 -0.88089037366E+03 -0.17921907416E+03 -0.31719111418E+04  0.32981180033E+04  0.92058380063E+02 0.  0.
         13    1    3    3    0    0 -0.48161612805E+03 -0.51715751456E+02 -0.17266970407E+04  0.17933519688E+04  0.00000000000E+00 0. -1.
        -13    1    3    3    0    0 -0.39927424562E+03 -0.12750332270E+03 -0.14452141011E+04  0.15047660345E+04  0.00000000000E+00 0.  1.
         22    1    1    2    0    0  0.88089037366E+03  0.17921907416E+03  0.42554753156E+03  0.99457429515E+03  0.00000000000E+00 0.  1.
<mgrwt>
<rscale>  0 0.32991960E+04</rscale>
<asrwt>0</asrwt>
<pdfrwt beam="1">  1        1 0.54146585E+00 0.32991960E+04</pdfrwt>
<pdfrwt beam="2">  1       -1 0.11894836E+00 0.32991960E+04</pdfrwt>
<totfact> 0.12639658E-01</totfact>
</mgrwt>
</event>
<event>
 6    1  0.1528034E-005  0.8490240E+03  0.7818608E-02  0.9491648E-01
         -3   -1    0    0    0  501 -0.00000000000E+00  0.00000000000E+00  0.20961397611E+03  0.20961397611E+03  0.00000000000E+00 0.  1.
          3   -1    0    0  501    0  0.00000000000E+00 -0.00000000000E+00 -0.85972524101E+03  0.85972524101E+03  0.00000000000E+00 0. -1.
         23    2    1    2    0    0 -0.35449118088E+03  0.21141790153E+03 -0.42473153954E+03  0.59906531075E+03  0.90115700416E+02 0.  0.
         13    1    3    3    0    0 -0.19872204285E+03  0.16399605736E+03 -0.28811131895E+03  0.38651428078E+03  0.00000000000E+00 0.  1.
        -13    1    3    3    0    0 -0.15576913803E+03  0.47421844172E+02 -0.13662022059E+03  0.21255102997E+03  0.00000000000E+00 0. -1.
         22    1    1    2    0    0  0.35449118088E+03 -0.21141790153E+03 -0.22537972536E+03  0.47027390637E+03  0.00000000000E+00 0.  1.
<mgrwt>
<rscale>  0 0.84902397E+03</rscale>
<asrwt>0</asrwt>
<pdfrwt beam="1">  1        3 0.13226542E+00 0.84902397E+03</pdfrwt>
<pdfrwt beam="2">  1       -3 0.32248304E-01 0.84902397E+03</pdfrwt>
<totfact> 0.11090091E+01</totfact>
</mgrwt>
</event>
<event>
 6    1  0.1528034E-005  0.1302838E+04  0.7818608E-02  0.9027317E-01
          3   -1    0    0  501    0  0.00000000000E+00  0.00000000000E+00  0.14595408415E+03  0.14595408415E+03  0.00000000000E+00 0. -1.
         -3   -1    0    0    0  501 -0.00000000000E+00 -0.00000000000E+00 -0.29073996512E+04  0.29073996512E+04  0.00000000000E+00 0.  1.
         23    2    1    2    0    0 -0.24776687435E+03  0.45831048602E+03 -0.48312263225E+03  0.71622037997E+03  0.90151146774E+02 0.  0.
         13    1    3    3    0    0 -0.19757548456E+03  0.34026450549E+03 -0.41135444640E+03  0.56923500100E+03  0.00000000000E+00 0. -1.
        -13    1    3    3    0    0 -0.50191389790E+02  0.11804598053E+03 -0.71768185854E+02  0.14698537897E+03  0.00000000000E+00 0.  1.
         22    1    1    2    0    0  0.24776687435E+03 -0.45831048602E+03 -0.22783229348E+04  0.23371333554E+04  0.00000000000E+00 0.  1.
<mgrwt>
<rscale>  0 0.13028382E+04</rscale>
<asrwt>0</asrwt>
<pdfrwt beam="1">  1        3 0.22454474E-01 0.13028382E+04</pdfrwt>
<pdfrwt beam="2">  1       -3 0.44729226E+00 0.13028382E+04</pdfrwt>
<totfact> 0.28374632E-01</totfact>
</mgrwt>
</event>
<event>
 6    1  0.1528034E-005  0.3554727E+03  0.7818608E-02  0.1060391E+00
         -1   -1    0    0    0  501 -0.00000000000E+00  0.00000000000E+00  0.89386487612E+02  0.89386487612E+02  0.00000000000E+00 0.  1.
          1   -1    0    0  501    0  0.00000000000E+00 -0.00000000000E+00 -0.35341155091E+03  0.35341155091E+03  0.00000000000E+00 0. -1.
         23    2    1    2    0    0  0.13099066920E+03 -0.30786037121E+02 -0.26121222796E+03  0.30820885790E+03  0.93029761645E+02 0.  0.
         11    1    3    3    0    0  0.40566565393E+02 -0.25648866064E+02 -0.22725404545E+02  0.53103244438E+02  0.00000000000E+00 0.  1.
        -11    1    3    3    0    0  0.90424103802E+02 -0.51371710572E+01 -0.23848682342E+03  0.25510561346E+03  0.00000000000E+00 0. -1.
         22    1    1    2    0    0 -0.13099066920E+03  0.30786037121E+02 -0.28128353328E+01  0.13458918062E+03  0.00000000000E+00 0.  1.
<mgrwt>
<rscale>  0 0.35547274E+03</rscale>
<asrwt>0</asrwt>
<pdfrwt beam="1">  1        1 0.54371008E-01 0.35547274E+03</pdfrwt>
<pdfrwt beam="2">  1       -1 0.13751767E-01 0.35547274E+03</pdfrwt>
<totfact> 0.26328433E+03</totfact>
</mgrwt>
</event>
<event>
 6    1  0.1528034E-005  0.2081387E+04  0.7818608E-02  0.8569487E-01
         -2   -1    0    0    0  501 -0.00000000000E+00  0.00000000000E+00  0.33778253809E+03  0.33778253809E+03  0.00000000000E+00 0.  1.
          2   -1    0    0  501    0  0.00000000000E+00 -0.00000000000E+00 -0.32063326305E+04  0.32063326305E+04  0.00000000000E+00 0. -1.
         23    2    1    2    0    0  0.31708466867E+03 -0.62289683868E+03 -0.27453389276E+04  0.28343799011E+04  0.90996911277E+02 0.  0.
         13    1    3    3    0    0  0.21702384896E+03 -0.32994043085E+03 -0.14934527959E+04  0.15447851930E+04  0.00000000000E+00 0. -1.
        -13    1    3    3    0    0  0.10006081971E+03 -0.29295640782E+03 -0.12518861317E+04  0.12895947081E+04  0.00000000000E+00 0.  1.
         22    1    1    2    0    0 -0.31708466867E+03  0.62289683868E+03 -0.12321116482E+03  0.70973526746E+03  0.00000000000E+00 0.  1.
<mgrwt>
<rscale>  0 0.20813872E+04</rscale>
<asrwt>0</asrwt>
<pdfrwt beam="1">  1        2 0.49328196E+00 0.20813872E+04</pdfrwt>
<pdfrwt beam="2">  1       -2 0.51966542E-01 0.20813872E+04</pdfrwt>
<totfact> 0.41569921E+00</totfact>
</mgrwt>
</event>
<event>
 6    1  0.1528034E-005  0.3340267E+04  0.7818608E-02  0.8152724E-01
         -2   -1    0    0    0  501 -0.00000000000E+00  0.00000000000E+00  0.16278146187E+04  0.16278146187E+04  0.00000000000E+00 0.  1.
          2   -1    0    0  501    0  0.00000000000E+00 -0.00000000000E+00 -0.17135526175E+04  0.17135526175E+04  0.00000000000E+00 0. -1.
         23    2    1    2    0    0 -0.10695292844E+04 -0.53829100255E+02  0.12373140258E+04  0.16392341269E+04  0.96706060654E+02 0.  0.
         13    1    3    3    0    0 -0.50693995370E+03 -0.65141870185E+02  0.54681075272E+03  0.74848752775E+03  0.00000000000E+00 0. -1.
        -13    1    3    3    0    0 -0.56258933065E+03  0.11312769930E+02  0.69050327307E+03  0.89074659913E+03  0.00000000000E+00 0.  1.
         22    1    1    2    0    0  0.10695292844E+04  0.53829100255E+02 -0.13230520245E+04  0.17021331093E+04  0.00000000000E+00 0. -1.
<mgrwt>
<rscale>  0 0.33402671E+04</rscale>
<asrwt>0</asrwt>
<pdfrwt beam="1">  1        2 0.26362348E+00 0.33402671E+04</pdfrwt>
<pdfrwt beam="2">  1       -2 0.25043302E+00 0.33402671E+04</pdfrwt>
<totfact> 0.51246785E-01</totfact>
</mgrwt>
</event>
<event>
 6    1  0.1528034E-005  0.1643204E+04  0.7818608E-02  0.8794437E-01
          1   -1    0    0  501    0  0.00000000000E+00  0.00000000000E+00  0.14552677833E+04  0.14552677833E+04  0.00000000000E+00 0. -1.
         -1   -1    0    0    0  501 -0.00000000000E+00 -0.00000000000E+00 -0.46385295088E+03  0.46385295088E+03  0.00000000000E+00 0.  1.
         23    2    1    2    0    0  0.73226624239E+02 -0.34730232923E+03  0.13593465176E+04  0.14078920462E+04  0.91411227917E+02 0.  0.
         13    1    3    3    0    0  0.84218298286E+02 -0.18565131777E+03  0.71595969959E+03  0.74441750718E+03  0.00000000000E+00 0.  1.
        -13    1    3    3    0    0 -0.10991674047E+02 -0.16165101145E+03  0.64338681800E+03  0.66347453905E+03  0.00000000000E+00 0. -1.
         22    1    1    2    0    0 -0.73226624239E+02  0.34730232923E+03 -0.36793168519E+03  0.51122868792E+03  0.00000000000E+00 0.  1.
<mgrwt>
<rscale>  0 0.16432045E+04</rscale>
<asrwt>0</asrwt>
<pdfrwt beam="1">  1        1 0.22388735E+00 0.16432045E+04</pdfrwt>
<pdfrwt beam="2">  1       -1 0.71361993E-01 0.16432045E+04</pdfrwt>
<totfact> 0.13322917E+01</totfact>
</mgrwt>
</event>
<event>
 6    1  0.1528034E-005  0.2343709E+04  0.7818608E-02  0.8460884E-01
         -1   -1    0    0    0  501 -0.00000000000E+00  0.00000000000E+00  0.18418475847E+04  0.18418475847E+04  0.00000000000E+00 0.  1.
          1   -1    0    0  501    0  0.00000000000E+00 -0.00000000000E+00 -0.74557915992E+03  0.74557915992E+03  0.00000000000E+00 0. -1.
         23    2    1    2    0    0  0.17981881730E+03 -0.11558971557E+04  0.49394567101E+03  0.12716662264E+04  0.68699518145E+02 0.  0.
         13    1    3    3    0    0  0.11611110758E+03 -0.57416670661E+03  0.27085008572E+03  0.64537505779E+03  0.00000000000E+00 0. -1.
        -13    1    3    3    0    0  0.63707709715E+02 -0.58173044910E+03  0.22309558529E+03  0.62629116860E+03  0.00000000000E+00 0.  1.
         22    1    1    2    0    0 -0.17981881730E+03  0.11558971557E+04  0.60232275376E+03  0.13157605182E+04  0.00000000000E+00 0.  1.
<mgrwt>
<rscale>  0 0.23437092E+04</rscale>
<asrwt>0</asrwt>
<pdfrwt beam="1">  1        1 0.11470449E+00 0.23437092E+04</pdfrwt>
<pdfrwt beam="2">  1       -1 0.28336117E+00 0.23437092E+04</pdfrwt>
<totfact> 0.94240007E-01</totfact>
</mgrwt>
</event>
<event>
 6    1  0.1528034E-005  0.1438689E+04  0.7818608E-02  0.8926280E-01
         -2   -1    0    0    0  501 -0.00000000000E+00  0.00000000000E+00  0.33770451517E+03  0.33770451517E+03  0.00000000000E+00 0.  1.
          2   -1    0    0  501    0  0.00000000000E+00 -0.00000000000E+00 -0.15322750061E+04  0.15322750061E+04  0.00000000000E+00 0. -1.
         23    2    1    2    0    0  0.12732208966E+03 -0.70017155626E+03 -0.49186110605E+03  0.86985372802E+03  0.90923252181E+02 0.  0.
         11    1    3    3    0    0  0.60310344310E+01 -0.72910664536E+02 -0.86219344056E+02  0.11307569884E+03  0.00000000000E+00 0.  1.
        -11    1    3    3    0    0  0.12129105523E+03 -0.62726089173E+03 -0.40564176200E+03  0.75677802918E+03  0.00000000000E+00 0. -1.
         22    1    1    2    0    0 -0.12732208966E+03  0.70017155626E+03 -0.70270938486E+03  0.10001257932E+04  0.00000000000E+00 0.  1.
<mgrwt>
<rscale>  0 0.14386886E+04</rscale>
<asrwt>0</asrwt>
<pdfrwt beam="1">  1        2 0.23573462E+00 0.14386886E+04</pdfrwt>
<pdfrwt beam="2">  1       -2 0.51954540E-01 0.14386886E+04</pdfrwt>
<totfact> 0.41319485E+01</totfact>
</mgrwt>
</event>
<event>
 6    1  0.1528034E-005  0.4082567E+04  0.7818608E-02  0.7988094E-01
          2   -1    0    0  501    0  0.00000000000E+00  0.00000000000E+00  0.25337487295E+04  0.25337487295E+04  0.00000000000E+00 0. -1.
         -2   -1    0    0    0  501 -0.00000000000E+00 -0.00000000000E+00 -0.16445350274E+04  0.16445350274E+04  0.00000000000E+00 0.  1.
         23    2    1    2    0    0 -0.17826709986E+04 -0.87459123573E+03  0.92460056276E+03  0.21923134780E+04  0.92338866479E+02 0.  0.
         13    1    3    3    0    0 -0.51663530757E+03 -0.21279537336E+03  0.28182446148E+03  0.62579464606E+03  0.00000000000E+00 0. -1.
        -13    1    3    3    0    0 -0.12660356910E+04 -0.66179586237E+03  0.64277610128E+03  0.15665188319E+04  0.00000000000E+00 0.  1.
         22    1    1    2    0    0  0.17826709986E+04  0.87459123573E+03 -0.35386860676E+02  0.19859702789E+04  0.00000000000E+00 0.  1.
<mgrwt>
<rscale>  0 0.40825671E+04</rscale>
<asrwt>0</asrwt>
<pdfrwt beam="1">  1        2 0.38980750E+00 0.40825671E+04</pdfrwt>
<pdfrwt beam="2">  1       -2 0.25300539E+00 0.40825671E+04</pdfrwt>
<totfact> 0.16057779E-01</totfact>
</mgrwt>
</event>
<event>
 6    1  0.1528034E-005  0.1592486E+04  0.7818608E-02  0.8825177E-01
          1   -1    0    0  501    0  0.00000000000E+00  0.00000000000E+00  0.14501981060E+04  0.14501981060E+04  0.00000000000E+00 0. -1.
         -1   -1    0    0    0  501 -0.00000000000E+00 -0.00000000000E+00 -0.43718366966E+03  0.43718366966E+03  0.00000000000E+00 0.  1.
         23    2    1    2    0    0  0.69052045244E+03  0.11189247271E+03  0.95263136737E+03  0.11852532008E+04  0.89332005044E+02 0.  0.
         13    1    3    3    0    0  0.24014207242E+03 -0.39145875480E+01  0.32661152055E+03  0.40541167262E+03  0.00000000000E+00 0. -1.
        -13    1    3    3    0    0  0.45037838002E+03  0.11580706026E+03  0.62601984682E+03  0.77984152814E+03  0.00000000000E+00 0.  1.
         22    1    1    2    0    0 -0.69052045244E+03 -0.11189247271E+03  0.60383068974E+02  0.70212857491E+03  0.00000000000E+00 0.  1.
<mgrwt>
<rscale>  0 0.15924860E+04</rscale>
<asrwt>0</asrwt>
<pdfrwt beam="1">  1        1 0.22310740E+00 0.15924860E+04</pdfrwt>
<pdfrwt beam="2">  1       -1 0.67259027E-01 0.15924860E+04</pdfrwt>
<totfact> 0.15230698E+01</totfact>
</mgrwt>
</event>
<event>
 6    1  0.1528034E-005  0.2614727E+04  0.7818608E-02  0.8363216E-01
         -2   -1    0    0    0  501 -0.00000000000E+00  0.00000000000E+00  0.97857042692E+03  0.97857042692E+03  0.00000000000E+00 0.  1.
          2   -1    0    0  501    0  0.00000000000E+00 -0.00000000000E+00 -0.17466292926E+04  0.17466292926E+04  0.00000000000E+00 0. -1.
         23    2    1    2    0    0  0.12549515893E+04 -0.35485553987E+03 -0.31507678619E+03  0.13446133550E+04  0.88801732259E+02 0.  0.
         13    1    3    3    0    0  0.10085023744E+04 -0.30469578535E+03 -0.22360647125E+03  0.10769941573E+04  0.00000000000E+00 0.  1.
        -13    1    3    3    0    0  0.24644921481E+03 -0.50159754516E+02 -0.91470314934E+02  0.26761919768E+03  0.00000000000E+00 0. -1.
         22    1    1    2    0    0 -0.12549515893E+04  0.35485553987E+03 -0.45298207945E+03  0.13805863645E+04  0.00000000000E+00 0.  1.
<mgrwt>
<rscale>  0 0.26147273E+04</rscale>
<asrwt>0</asrwt>
<pdfrwt beam="1">  1        2 0.26871220E+00 0.26147273E+04</pdfrwt>
<pdfrwt beam="2">  1       -2 0.15054930E+00 0.26147273E+04</pdfrwt>
<totfact> 0.24222231E+00</totfact>
</mgrwt>
</event>
<event>
 6    1  0.1528034E-005  0.2034135E+04  0.7818608E-02  0.8590826E-01
          2   -1    0    0  501    0  0.00000000000E+00  0.00000000000E+00  0.91155988988E+03  0.91155988988E+03  0.00000000000E+00 0. -1.
         -2   -1    0    0    0  501 -0.00000000000E+00 -0.00000000000E+00 -0.11347872055E+04  0.11347872055E+04  0.00000000000E+00 0.  1.
         23    2    1    2    0    0 -0.46855556362E+03 -0.36025142631E+03  0.71840819652E+03  0.93459044750E+03  0.89574334403E+02 0.  0.
         11    1    3    3    0    0 -0.36884746542E+03 -0.27640290482E+03  0.49804975731E+03  0.67860192992E+03  0.00000000000E+00 0.  1.
        -11    1    3    3    0    0 -0.99708098206E+02 -0.83848521486E+02  0.22035843921E+03  0.25598851758E+03  0.00000000000E+00 0. -1.
         22    1    1    2    0    0  0.46855556362E+03  0.36025142631E+03 -0.94163551213E+03  0.11117566479E+04  0.00000000000E+00 0.  1.
<mgrwt>
<rscale>  0 0.20341352E+04</rscale>
<asrwt>0</asrwt>
<pdfrwt beam="1">  1        2 0.14023998E+00 0.20341352E+04</pdfrwt>
<pdfrwt beam="2">  1       -2 0.17458265E+00 0.20341352E+04</pdfrwt>
<totfact> 0.52763203E+00</totfact>
</mgrwt>
</event>
<event>
 6    1  0.1528034E-005  0.1533258E+04  0.7818608E-02  0.8862633E-01
          2   -1    0    0  501    0  0.00000000000E+00  0.00000000000E+00  0.20746351427E+04  0.20746351427E+04  0.00000000000E+00 0. -1.
         -2   -1    0    0    0  501 -0.00000000000E+00 -0.00000000000E+00 -0.28328848534E+03  0.28328848534E+03  0.00000000000E+00 0.  1.
         23    2    1    2    0    0  0.53993050884E+03 -0.30470333607E+03  0.21232096500E+03  0.66154772202E+03  0.90532419273E+02 0.  0.
         13    1    3    3    0    0  0.33405140929E+03 -0.20501033139E+03  0.17713094596E+03  0.43011039518E+03  0.00000000000E+00 0.  1.
        -13    1    3    3    0    0  0.20587909955E+03 -0.99693004677E+02  0.35190019043E+02  0.23143732684E+03  0.00000000000E+00 0. -1.
         22    1    1    2    0    0 -0.53993050884E+03  0.30470333607E+03  0.15790256923E+04  0.16963759060E+04  0.00000000000E+00 0. -1.
<mgrwt>
<rscale>  0 0.15332583E+04</rscale>
<asrwt>0</asrwt>
<pdfrwt beam="1">  1        2 0.31917463E+00 0.15332583E+04</pdfrwt>
<pdfrwt beam="2">  1       -2 0.43582845E-01 0.15332583E+04</pdfrwt>
<totfact> 0.29224406E+01</totfact>
</mgrwt>
</event>
<event>
 6    1  0.1528034E-005  0.1770318E+04  0.7818608E-02  0.8722245E-01
         -2   -1    0    0    0  501 -0.00000000000E+00  0.00000000000E+00  0.42865265455E+03  0.42865265455E+03  0.00000000000E+00 0.  1.
          2   -1    0    0  501    0  0.00000000000E+00 -0.00000000000E+00 -0.18278350852E+04  0.18278350852E+04  0.00000000000E+00 0. -1.
         23    2    1    2    0    0  0.77624673599E+03  0.24609094016E+02 -0.12366336953E+04  0.14630227474E+04  0.89487767358E+02 0.  0.
         13    1    3    3    0    0  0.40938105349E+03  0.56945888211E+02 -0.63894566543E+03  0.76097782130E+03  0.00000000000E+00 0. -1.
        -13    1    3    3    0    0  0.36686568250E+03 -0.32336794195E+02 -0.59768802986E+03  0.70204492612E+03  0.00000000000E+00 0.  1.
         22    1    1    2    0    0 -0.77624673599E+03 -0.24609094016E+02 -0.16254873533E+03  0.79346499229E+03  0.00000000000E+00 0.  1.
<mgrwt>
<rscale>  0 0.17703179E+04</rscale>
<asrwt>0</asrwt>
<pdfrwt beam="1">  1        2 0.28120540E+00 0.17703179E+04</pdfrwt>
<pdfrwt beam="2">  1       -2 0.65946562E-01 0.17703179E+04</pdfrwt>
<totfact> 0.16673703E+01</totfact>
</mgrwt>
</event>
<event>
 6    1  0.1528034E-005  0.6712283E+04  0.7818608E-02  0.7607858E-01
          1   -1    0    0  501    0  0.00000000000E+00  0.00000000000E+00  0.31672518385E+04  0.31672518385E+04  0.00000000000E+00 0. -1.
         -1   -1    0    0    0  501 -0.00000000000E+00 -0.00000000000E+00 -0.35562964661E+04  0.35562964661E+04  0.00000000000E+00 0.  1.
         23    2    1    2    0    0 -0.23721677809E+03 -0.15024817966E+04 -0.31905056742E+04  0.35357736350E+04  0.92980601155E+02 0.  0.
         11    1    3    3    0    0 -0.13745810350E+03 -0.62253065530E+03 -0.12785635102E+04  0.14286930379E+04  0.00000000000E+00 0.  1.
        -11    1    3    3    0    0 -0.99758674587E+02 -0.87995114130E+03 -0.19119421640E+04  0.21070805971E+04  0.00000000000E+00 0. -1.
         22    1    1    2    0    0  0.23721677809E+03  0.15024817966E+04  0.28014610466E+04  0.31877746696E+04  0.00000000000E+00 0. -1.
<mgrwt>
<rscale>  0 0.67122832E+04</rscale>
<asrwt>0</asrwt>
<pdfrwt beam="1">  1        1 0.48726952E+00 0.67122832E+04</pdfrwt>
<pdfrwt beam="2">  1       -1 0.54712253E+00 0.67122832E+04</pdfrwt>
<totfact> 0.22625756E-04</totfact>
</mgrwt>
</event>
<event>
 6    1  0.1528034E-005  0.1638197E+04  0.7818608E-02  0.8797420E-01
          2   -1    0    0  501    0  0.00000000000E+00  0.00000000000E+00  0.63252708006E+03  0.63252708006E+03  0.00000000000E+00 0. -1.
         -2   -1    0    0    0  501 -0.00000000000E+00 -0.00000000000E+00 -0.10607015202E+04  0.10607015202E+04  0.00000000000E+00 0.  1.
         23    2    1    2    0    0 -0.25705964851E+03  0.72317864697E+03 -0.50255768802E+03  0.92212556835E+03  0.93189675866E+02 0.  0.
         11    1    3    3    0    0 -0.14575059922E+03  0.51037175300E+03 -0.31318710228E+03  0.61628623582E+03  0.00000000000E+00 0. -1.
        -11    1    3    3    0    0 -0.11130904929E+03  0.21280689398E+03 -0.18937058574E+03  0.30583933253E+03  0.00000000000E+00 0.  1.
         22    1    1    2    0    0  0.25705964851E+03 -0.72317864697E+03  0.74383247841E+02  0.77110303196E+03  0.00000000000E+00 0. -1.
<mgrwt>
<rscale>  0 0.16381971E+04</rscale>
<asrwt>0</asrwt>
<pdfrwt beam="1">  1        2 0.97311858E-01 0.16381971E+04</pdfrwt>
<pdfrwt beam="2">  1       -2 0.16318485E+00 0.16381971E+04</pdfrwt>
<totfact> 0.10603017E+01</totfact>
</mgrwt>
</event>
<event>
 6    1  0.1528034E-005  0.2577977E+04  0.7818608E-02  0.8375721E-01
         -1   -1    0    0    0  501 -0.00000000000E+00  0.00000000000E+00  0.74668489822E+03  0.74668489822E+03  0.00000000000E+00 0.  1.
          1   -1    0    0  501    0  0.00000000000E+00 -0.00000000000E+00 -0.22251568712E+04  0.22251568712E+04  0.00000000000E+00 0. -1.
         23    2    1    2    0    0  0.32991609971E+03 -0.72689326985E+03 -0.19046278718E+04  0.20669509977E+04  0.86374987445E+02 0.  0.
         11    1    3    3    0    0  0.71953230711E+02 -0.13643604115E+03 -0.28930840943E+03  0.32785883624E+03  0.00000000000E+00 0.  1.
        -11    1    3    3    0    0  0.25796286900E+03 -0.59045722870E+03 -0.16153194623E+04  0.17390921615E+04  0.00000000000E+00 0. -1.
         22    1    1    2    0    0 -0.32991609971E+03  0.72689326985E+03  0.42615589880E+03  0.90489077168E+03  0.00000000000E+00 0.  1.
<mgrwt>
<rscale>  0 0.25779768E+04</rscale>
<asrwt>0</asrwt>
<pdfrwt beam="1">  1        1 0.34233182E+00 0.25779768E+04</pdfrwt>
<pdfrwt beam="2">  1       -1 0.11487460E+00 0.25779768E+04</pdfrwt>
<totfact> 0.12713420E+00</totfact>
</mgrwt>
</event>
<event>
 6    1  0.1528034E-005  0.5321201E+04  0.7818608E-02  0.7780783E-01
          2   -1    0    0  501    0  0.00000000000E+00  0.00000000000E+00  0.39460747342E+04  0.39460747342E+04  0.00000000000E+00 0. -1.
         -2   -1    0    0    0  501 -0.00000000000E+00 -0.00000000000E+00 -0.17938824203E+04  0.17938824203E+04  0.00000000000E+00 0.  1.
         23    2    1    2    0    0  0.53560937787E+03 -0.11605690912E+04  0.35925332724E+04  0.38142416777E+04  0.91357767108E+02 0.  0.
         11    1    3    3    0    0  0.32936055281E+03 -0.79904836822E+03  0.24936680439E+04  0.26391924866E+04  0.00000000000E+00 0.  1.
        -11    1    3    3    0    0  0.20624882506E+03 -0.36152072294E+03  0.10988652285E+04  0.11750491911E+04  0.00000000000E+00 0. -1.
         22    1    1    2    0    0 -0.53560937787E+03  0.11605690912E+04 -0.14403409585E+04  0.19257154768E+04  0.00000000000E+00 0.  1.
<mgrwt>
<rscale>  0 0.53212007E+04</rscale>
<asrwt>0</asrwt>
<pdfrwt beam="1">  1        2 0.60708842E+00 0.53212007E+04</pdfrwt>
<pdfrwt beam="2">  1       -2 0.27598191E+00 0.53212007E+04</pdfrwt>
<totfact> 0.11900320E-02</totfact>
</mgrwt>
</event>
<event>
 6    1  0.1528034E-005  0.3496262E+04  0.7818608E-02  0.8114676E-01
         -2   -1    0    0    0  501 -0.00000000000E+00  0.00000000000E+00  0.16708120839E+04  0.16708120839E+04  0.00000000000E+00 0.  1.
          2   -1    0    0  501    0  0.00000000000E+00 -0.00000000000E+00 -0.18290279006E+04  0.18290279006E+04  0.00000000000E+00 0. -1.
         23    2    1    2    0    0  0.15402904819E+04 -0.69852878563E+03 -0.51750202729E+03  0.17708160361E+04  0.86855354011E+02 0.  0.
         13    1    3    3    0    0  0.51943531350E+03 -0.25924466843E+03 -0.14096997434E+03  0.59740553788E+03  0.00000000000E+00 0. -1.
        -13    1    3    3    0    0  0.10208551684E+04 -0.43928411720E+03 -0.37653205295E+03  0.11734104982E+04  0.00000000000E+00 0.  1.
         22    1    1    2    0    0 -0.15402904819E+04  0.69852878563E+03  0.35928621061E+03  0.17290239484E+04  0.00000000000E+00 0.  1.
<mgrwt>
<rscale>  0 0.34962620E+04</rscale>
<asrwt>0</asrwt>
<pdfrwt beam="1">  1        2 0.28138890E+00 0.34962620E+04</pdfrwt>
<pdfrwt beam="2">  1       -2 0.25704802E+00 0.34962620E+04</pdfrwt>
<totfact> 0.39752837E-01</totfact>
</mgrwt>
</event>
<event>
 6    1  0.1528034E-005  0.8783819E+03  0.7818608E-02  0.9453016E-01
         -2   -1    0    0    0  501 -0.00000000000E+00  0.00000000000E+00  0.29905284585E+03  0.29905284585E+03  0.00000000000E+00 0. -1.
          2   -1    0    0  501    0  0.00000000000E+00 -0.00000000000E+00 -0.64499872041E+03  0.64499872041E+03  0.00000000000E+00 0.  1.
         23    2    1    2    0    0  0.15409220154E+03  0.39822632112E+03 -0.26085669694E+03  0.50865659894E+03  0.91415042004E+02 0.  0.
         13    1    3    3    0    0 -0.58384187960E+00  0.76201684551E+02 -0.70721194609E+02  0.10396405613E+03  0.00000000000E+00 0. -1.
        -13    1    3    3    0    0  0.15467604342E+03  0.32202463657E+03 -0.19013550233E+03  0.40469254282E+03  0.00000000000E+00 0.  1.
         22    1    1    2    0    0 -0.15409220154E+03 -0.39822632112E+03 -0.85089177623E+02  0.43539496731E+03  0.00000000000E+00 0.  1.
<mgrwt>
<rscale>  0 0.87838193E+03</rscale>
<asrwt>0</asrwt>
<pdfrwt beam="1">  1        2 0.99230572E-01 0.87838193E+03</pdfrwt>
<pdfrwt beam="2">  1       -2 0.46008130E-01 0.87838193E+03</pdfrwt>
<totfact> 0.20413388E+02</totfact>
</mgrwt>
</event>
<event>
 6    1  0.1528034E-005  0.1767941E+04  0.7818608E-02  0.8723536E-01
          2   -1    0    0  501    0  0.00000000000E+00  0.00000000000E+00  0.13630935247E+04  0.13630935247E+04  0.00000000000E+00 0. -1.
         -2   -1    0    0    0  501 -0.00000000000E+00 -0.00000000000E+00 -0.57325787489E+03  0.57325787489E+03  0.00000000000E+00 0.  1.
         23    2    1    2    0    0 -0.64833898754E+02 -0.13981882349E+03  0.13467432870E+04  0.13585115825E+04  0.89908291750E+02 0.  0.
         13    1    3    3    0    0  0.15644907221E+02  0.87665564275E+00  0.15651941003E+03  0.15730180343E+03  0.00000000000E+00 0. -1.
        -13    1    3    3    0    0 -0.80478805976E+02 -0.14069547914E+03  0.11902238770E+04  0.12012097791E+04  0.00000000000E+00 0.  1.
         22    1    1    2    0    0  0.64833898754E+02  0.13981882349E+03 -0.55690763719E+03  0.57783981707E+03  0.00000000000E+00 0.  1.
<mgrwt>
<rscale>  0 0.17679413E+04</rscale>
<asrwt>0</asrwt>
<pdfrwt beam="1">  1        2 0.20970670E+00 0.17679413E+04</pdfrwt>
<pdfrwt beam="2">  1       -2 0.88193520E-01 0.17679413E+04</pdfrwt>
<totfact> 0.15927185E+01</totfact>
</mgrwt>
</event>
<event>
 6    1  0.1528034E-005  0.2599039E+04  0.7818608E-02  0.8368528E-01
          1   -1    0    0  501    0  0.00000000000E+00  0.00000000000E+00  0.19646079342E+04  0.19646079342E+04  0.00000000000E+00 0. -1.
         -1   -1    0    0    0  501 -0.00000000000E+00 -0.00000000000E+00 -0.85958653981E+03  0.85958653981E+03  0.00000000000E+00 0.  1.
         23    2    1    2    0    0  0.34662636119E+03  0.25026329660E+03 -0.77839294150E+03  0.89286562771E+03  0.92368316400E+02 0.  0.
         13    1    3    3    0    0  0.14235908833E+03  0.48885129580E+02 -0.27314375310E+03  0.31187076776E+03  0.00000000000E+00 0.  1.
        -13    1    3    3    0    0  0.20426727286E+03  0.20137816702E+03 -0.50524918840E+03  0.58099485995E+03  0.00000000000E+00 0. -1.
         22    1    1    2    0    0 -0.34662636119E+03 -0.25026329660E+03  0.18834143359E+04  0.19313288463E+04  0.00000000000E+00 0. -1.
<mgrwt>
<rscale>  0 0.25990387E+04</rscale>
<asrwt>0</asrwt>
<pdfrwt beam="1">  1        1 0.30224737E+00 0.25990387E+04</pdfrwt>
<pdfrwt beam="2">  1       -1 0.13224408E+00 0.25990387E+04</pdfrwt>
<totfact> 0.13468855E+00</totfact>
</mgrwt>
</event>
<event>
 6    1  0.1528034E-005  0.2270875E+04  0.7818608E-02  0.8489494E-01
         -2   -1    0    0    0  501 -0.00000000000E+00  0.00000000000E+00  0.69687757277E+03  0.69687757277E+03  0.00000000000E+00 0.  1.
          2   -1    0    0  501    0  0.00000000000E+00 -0.00000000000E+00 -0.18499925077E+04  0.18499925077E+04  0.00000000000E+00 0. -1.
         23    2    1    2    0    0  0.70123595559E+03 -0.72731848351E+03 -0.11541033935E+04  0.15365607126E+04  0.91324359025E+02 0.  0.
         11    1    3    3    0    0  0.59170331943E+03 -0.61373462242E+03 -0.92023619558E+03  0.12544391817E+04  0.00000000000E+00 0. -1.
        -11    1    3    3    0    0  0.10953263616E+03 -0.11358386109E+03 -0.23386719796E+03  0.28212153084E+03  0.00000000000E+00 0.  1.
         22    1    1    2    0    0 -0.70123595559E+03  0.72731848351E+03  0.98845859530E+00  0.10103093679E+04  0.00000000000E+00 0.  1.
<mgrwt>
<rscale>  0 0.22708750E+04</rscale>
<asrwt>0</asrwt>
<pdfrwt beam="1">  1        2 0.28461422E+00 0.22708750E+04</pdfrwt>
<pdfrwt beam="2">  1       -2 0.10721194E+00 0.22708750E+04</pdfrwt>
<totfact> 0.51427597E+00</totfact>
</mgrwt>
</event>
<event>
 6    1  0.1528034E-005  0.2001298E+04  0.7818608E-02  0.8606014E-01
          2   -1    0    0  501    0  0.00000000000E+00  0.00000000000E+00  0.12236565684E+04  0.12236565684E+04  0.00000000000E+00 0.  1.
         -2   -1    0    0    0  501 -0.00000000000E+00 -0.00000000000E+00 -0.81828388725E+03  0.81828388725E+03  0.00000000000E+00 0. -1.
         23    2    1    2    0    0 -0.20295737404E+03 -0.37592803101E+03 -0.71776390011E+03  0.84029601559E+03  0.91644952600E+02 0.  0.
         11    1    3    3    0    0 -0.56459229561E+02 -0.16166738885E+03 -0.35608421514E+03  0.39512018108E+03  0.00000000000E+00 0.  1.
        -11    1    3    3    0    0 -0.14649814448E+03 -0.21426064217E+03 -0.36167968496E+03  0.44517583451E+03  0.00000000000E+00 0. -1.
         22    1    1    2    0    0  0.20295737404E+03  0.37592803101E+03  0.11231365813E+04  0.12016444401E+04  0.00000000000E+00 0.  1.
<mgrwt>
<rscale>  0 0.20012980E+04</rscale>
<asrwt>0</asrwt>
<pdfrwt beam="1">  1        2 0.18825486E+00 0.20012980E+04</pdfrwt>
<pdfrwt beam="2">  1       -2 0.12588983E+00 0.20012980E+04</pdfrwt>
<totfact> 0.80237639E+00</totfact>
</mgrwt>
</event>
<event>
 6    1  0.1528034E-005  0.1475663E+04  0.7818608E-02  0.8900800E-01
          1   -1    0    0  501    0  0.00000000000E+00  0.00000000000E+00  0.16257838939E+04  0.16257838939E+04  0.00000000000E+00 0. -1.
         -1   -1    0    0    0  501 -0.00000000000E+00 -0.00000000000E+00 -0.33485112129E+03  0.33485112129E+03  0.00000000000E+00 0.  1.
         23    2    1    2    0    0 -0.27953062304E+03 -0.17334884520E+03  0.15212357807E+04  0.15591046092E+04  0.91987448267E+02 0.  0.
         13    1    3    3    0    0 -0.87922007093E+02 -0.23452609526E+02  0.57188746276E+03  0.57908166461E+03  0.00000000000E+00 0. -1.
        -13    1    3    3    0    0 -0.19160861595E+03 -0.14989623567E+03  0.94934831794E+03  0.98002294460E+03  0.00000000000E+00 0.  1.
         22    1    1    2    0    0  0.27953062304E+03  0.17334884520E+03 -0.23030300812E+03  0.40153040595E+03  0.00000000000E+00 0.  1.
<mgrwt>
<rscale>  0 0.14756633E+04</rscale>
<asrwt>0</asrwt>
<pdfrwt beam="1">  1        1 0.25012060E+00 0.14756633E+04</pdfrwt>
<pdfrwt beam="2">  1       -1 0.51515558E-01 0.14756633E+04</pdfrwt>
<totfact> 0.19685228E+01</totfact>
</mgrwt>
</event>
<event>
 6    1  0.1528034E-005  0.1081884E+04  0.7818608E-02  0.9223031E-01
          1   -1    0    0  501    0  0.00000000000E+00  0.00000000000E+00  0.79250654895E+03  0.79250654895E+03  0.00000000000E+00 0. -1.
         -1   -1    0    0    0  501 -0.00000000000E+00 -0.00000000000E+00 -0.36923130379E+03  0.36923130379E+03  0.00000000000E+00 0.  1.
         23    2    1    2    0    0 -0.45469082119E+03 -0.15946457958E+03  0.46781419460E+03  0.67784074278E+03  0.91898078781E+02 0.  0.
         13    1    3    3    0    0 -0.28647104050E+03 -0.73593507430E+02  0.33535824708E+03  0.44715412920E+03  0.00000000000E+00 0.  1.
        -13    1    3    3    0    0 -0.16821978069E+03 -0.85871072151E+02  0.13245594753E+03  0.23068661358E+03  0.00000000000E+00 0. -1.
         22    1    1    2    0    0  0.45469082119E+03  0.15946457958E+03 -0.44538949445E+02  0.48389710997E+03  0.00000000000E+00 0.  1.
<mgrwt>
<rscale>  0 0.10818840E+04</rscale>
<asrwt>0</asrwt>
<pdfrwt beam="1">  1        1 0.12192408E+00 0.10818840E+04</pdfrwt>
<pdfrwt beam="2">  1       -1 0.56804816E-01 0.10818840E+04</pdfrwt>
<totfact> 0.70249387E+01</totfact>
</mgrwt>
</event>
<event>
 6    1  0.1528034E-005  0.1099359E+04  0.7818608E-02  0.9205817E-01
         -2   -1    0    0    0  501 -0.00000000000E+00  0.00000000000E+00  0.33546722681E+03  0.33546722681E+03  0.00000000000E+00 0.  1.
          2   -1    0    0  501    0  0.00000000000E+00 -0.00000000000E+00 -0.90067739712E+03  0.90067739712E+03  0.00000000000E+00 0. -1.
         23    2    1    2    0    0  0.34305527858E+03  0.16380777294E+02 -0.76151482737E+03  0.84055547796E+03  0.93131225759E+02 0.  0.
         13    1    3    3    0    0  0.19081691524E+03 -0.73703677706E+01 -0.31676915104E+03  0.36987580687E+03  0.00000000000E+00 0. -1.
        -13    1    3    3    0    0  0.15223836335E+03  0.23751145064E+02 -0.44474567633E+03  0.47067967109E+03  0.00000000000E+00 0.  1.
         22    1    1    2    0    0 -0.34305527858E+03 -0.16380777294E+02  0.19630465706E+03  0.39558914597E+03  0.00000000000E+00 0.  1.
<mgrwt>
<rscale>  0 0.10993594E+04</rscale>
<asrwt>0</asrwt>
<pdfrwt beam="1">  1        2 0.13856575E+00 0.10993594E+04</pdfrwt>
<pdfrwt beam="2">  1       -2 0.51610344E-01 0.10993594E+04</pdfrwt>
<totfact> 0.10312924E+02</totfact>
</mgrwt>
</event>
<event>
 6    1  0.1528034E-005  0.6537785E+03  0.7818608E-02  0.9799715E-01
          1   -1    0    0  501    0  0.00000000000E+00  0.00000000000E+00  0.84317133535E+03  0.84317133535E+03  0.00000000000E+00 0. -1.
         -1   -1    0    0    0  501 -0.00000000000E+00 -0.00000000000E+00 -0.12673174963E+03  0.12673174963E+03  0.00000000000E+00 0.  1.
         23    2    1    2    0    0  0.12454411063E+03  0.10880200219E+03 -0.40582148359E+02  0.19502824538E+03  0.95078885964E+02 0.  0.
         13    1    3    3    0    0  0.13906623073E+02  0.66696928847E+02  0.46796365580E+01  0.68291825874E+02  0.00000000000E+00 0. -1.
        -13    1    3    3    0    0  0.11063748756E+03  0.42105073342E+02 -0.45261784917E+02  0.12673641950E+03  0.00000000000E+00 0.  1.
         22    1    1    2    0    0 -0.12454411063E+03 -0.10880200219E+03  0.75702173408E+03  0.77487483960E+03  0.00000000000E+00 0. -1.
<mgrwt>
<rscale>  0 0.65377849E+03</rscale>
<asrwt>0</asrwt>
<pdfrwt beam="1">  1        1 0.12971866E+00 0.65377849E+03</pdfrwt>
<pdfrwt beam="2">  1       -1 0.19497193E-01 0.65377849E+03</pdfrwt>
<totfact> 0.43822352E+02</totfact>
</mgrwt>
</event>
<event>
 6    1  0.1528034E-005  0.1316703E+04  0.7818608E-02  0.9016424E-01
          2   -1    0    0  501    0  0.00000000000E+00  0.00000000000E+00  0.19367870323E+04  0.19367870323E+04  0.00000000000E+00 0. -1.
         -2   -1    0    0    0  501 -0.00000000000E+00 -0.00000000000E+00 -0.22378633451E+03  0.22378633451E+03  0.00000000000E+00 0.  1.
         23    2    1    2    0    0  0.90267601529E+02 -0.56756688542E+03  0.13770192747E+04  0.14948677817E+04  0.90372521596E+02 0.  0.
         13    1    3    3    0    0  0.67555977691E+02 -0.16203661794E+03  0.40741664886E+03  0.44363047849E+03  0.00000000000E+00 0. -1.
        -13    1    3    3    0    0  0.22711623838E+02 -0.40553026748E+03  0.96960262582E+03  0.10512373032E+04  0.00000000000E+00 0.  1.
         22    1    1    2    0    0 -0.90267601529E+02  0.56756688542E+03  0.33598142307E+03  0.66570558505E+03  0.00000000000E+00 0.  1.
<mgrwt>
<rscale>  0 0.13167027E+04</rscale>
<asrwt>0</asrwt>
<pdfrwt beam="1">  1        2 0.29796723E+00 0.13167027E+04</pdfrwt>
<pdfrwt beam="2">  1       -2 0.34428668E-01 0.13167027E+04</pdfrwt>
<totfact> 0.56105019E+01</totfact>
</mgrwt>
</event>
<event>
 6    1  0.1528034E-005  0.1002232E+04  0.7818608E-02  0.9306100E-01
          2   -1    0    0  501    0  0.00000000000E+00  0.00000000000E+00  0.14673530490E+04  0.14673530490E+04  0.00000000000E+00 0. -1.
         -2   -1    0    0    0  501 -0.00000000000E+00 -0.00000000000E+00 -0.17113621794E+03  0.17113621794E+03  0.00000000000E+00 0.  1.
         23    2    1    2    0    0 -0.17259159121E+01 -0.50459364363E+02  0.14617155312E+04  0.14654605238E+04  0.91723096313E+02 0.  0.
         11    1    3    3    0    0  0.29157680243E+02  0.93855383694E+01  0.73302730192E+03  0.73366701166E+03  0.00000000000E+00 0. -1.
        -11    1    3    3    0    0 -0.30883596155E+02 -0.59844902732E+02  0.72868822928E+03  0.73179351213E+03  0.00000000000E+00 0.  1.
         22    1    1    2    0    0  0.17259159121E+01  0.50459364363E+02 -0.16549870009E+03  0.17302874319E+03  0.00000000000E+00 0.  1.
<mgrwt>
<rscale>  0 0.10022320E+04</rscale>
<asrwt>0</asrwt>
<pdfrwt beam="1">  1        2 0.22574661E+00 0.10022320E+04</pdfrwt>
<pdfrwt beam="2">  1       -2 0.26328650E-01 0.10022320E+04</pdfrwt>
<totfact> 0.17244382E+02</totfact>
</mgrwt>
</event>
<event>
 6    1  0.1528034E-005  0.1707457E+04  0.7818608E-02  0.8757123E-01
          1   -1    0    0  501    0  0.00000000000E+00  0.00000000000E+00  0.59608540794E+03  0.59608540794E+03  0.00000000000E+00 0. -1.
         -1   -1    0    0    0  501 -0.00000000000E+00 -0.00000000000E+00 -0.12227309819E+04  0.12227309819E+04  0.00000000000E+00 0.  1.
         23    2    1    2    0    0 -0.53134058893E+03 -0.57613119495E+03  0.39757302275E+02  0.79005851323E+03  0.91443075218E+02 0.  0.
         13    1    3    3    0    0 -0.48668556275E+02 -0.55749477011E+02  0.31006603336E+02  0.80237410273E+02  0.00000000000E+00 0.  1.
        -13    1    3    3    0    0 -0.48267203265E+03 -0.52038171793E+03  0.87506989392E+01  0.70982110295E+03  0.00000000000E+00 0. -1.
         22    1    1    2    0    0  0.53134058893E+03  0.57613119495E+03 -0.66640287623E+03  0.10287578766E+04  0.00000000000E+00 0.  1.
<mgrwt>
<rscale>  0 0.17074567E+04</rscale>
<asrwt>0</asrwt>
<pdfrwt beam="1">  1        1 0.91705448E-01 0.17074567E+04</pdfrwt>
<pdfrwt beam="2">  1       -1 0.18811246E+00 0.17074567E+04</pdfrwt>
<totfact> 0.59895967E+00</totfact>
</mgrwt>
</event>
<event>
 6    1  0.1528034E-005  0.1510708E+04  0.7818608E-02  0.8877363E-01
         -2   -1    0    0    0  501 -0.00000000000E+00  0.00000000000E+00  0.70027141801E+03  0.70027141801E+03  0.00000000000E+00 0.  1.
          2   -1    0    0  501    0  0.00000000000E+00 -0.00000000000E+00 -0.81476971519E+03  0.81476971519E+03  0.00000000000E+00 0. -1.
         23    2    1    2    0    0  0.75793044970E+02  0.67508456213E+03  0.26671254091E+03  0.73606394819E+03  0.95764318264E+02 0.  0.
         13    1    3    3    0    0  0.76010674663E+02  0.58815853769E+03  0.26383681548E+03  0.64909009646E+03  0.00000000000E+00 0.  1.
        -13    1    3    3    0    0 -0.21762969293E+00  0.86926024439E+02  0.28757254280E+01  0.86973851727E+02  0.00000000000E+00 0. -1.
         22    1    1    2    0    0 -0.75793044970E+02 -0.67508456213E+03 -0.38121083809E+03  0.77897718501E+03  0.00000000000E+00 0. -1.
<mgrwt>
<rscale>  0 0.15107084E+04</rscale>
<asrwt>0</asrwt>
<pdfrwt beam="1">  1        2 0.12534919E+00 0.15107084E+04</pdfrwt>
<pdfrwt beam="2">  1       -2 0.10773407E+00 0.15107084E+04</pdfrwt>
<totfact> 0.22424691E+01</totfact>
</mgrwt>
</event>
<event>
 6    1  0.1528034E-005  0.5495526E+04  0.7818608E-02  0.7756305E-01
          2   -1    0    0  501    0  0.00000000000E+00  0.00000000000E+00  0.29350124357E+04  0.29350124357E+04  0.00000000000E+00 0.  1.
         -2   -1    0    0    0  501 -0.00000000000E+00 -0.00000000000E+00 -0.25724600092E+04  0.25724600092E+04  0.00000000000E+00 0. -1.
         23    2    1    2    0    0  0.13948474179E+04  0.97294482516E+02 -0.21882913265E+04  0.25985431939E+04  0.93500081517E+02 0.  0.
         13    1    3    3    0    0  0.73233053573E+03  0.10213888157E+02 -0.11864718040E+04  0.13943197907E+04  0.00000000000E+00 0. -1.
        -13    1    3    3    0    0  0.66251688214E+03  0.87080594359E+02 -0.10018195226E+04  0.12042234032E+04  0.00000000000E+00 0.  1.
         22    1    1    2    0    0 -0.13948474179E+04 -0.97294482516E+02  0.25508437530E+04  0.29089292511E+04  0.00000000000E+00 0.  1.
<mgrwt>
<rscale>  0 0.54955262E+04</rscale>
<asrwt>0</asrwt>
<pdfrwt beam="1">  1        2 0.45154037E+00 0.54955262E+04</pdfrwt>
<pdfrwt beam="2">  1       -2 0.39576308E+00 0.54955262E+04</pdfrwt>
<totfact> 0.10591685E-02</totfact>
</mgrwt>
</event>
<event>
 6    1  0.1528034E-005  0.2155159E+04  0.7818608E-02  0.8537327E-01
         -2   -1    0    0    0  501 -0.00000000000E+00  0.00000000000E+00  0.67810441765E+03  0.67810441765E+03  0.00000000000E+00 0.  1.
          2   -1    0    0  501    0  0.00000000000E+00 -0.00000000000E+00 -0.17123874624E+04  0.17123874624E+04  0.00000000000E+00 0. -1.
         23    2    1    2    0    0  0.49318646552E+03  0.95591397582E+03 -0.51791203545E+03  0.11973265780E+04  0.91398243346E+02 0.  0.
         11    1    3    3    0    0  0.31523298759E+03  0.65758891197E+03 -0.30925720676E+03  0.79210796836E+03  0.00000000000E+00 0. -1.
        -11    1    3    3    0    0  0.17795347793E+03  0.29832506385E+03 -0.20865482869E+03  0.40521860960E+03  0.00000000000E+00 0.  1.
         22    1    1    2    0    0 -0.49318646552E+03 -0.95591397582E+03 -0.51637100935E+03  0.11931653021E+04  0.00000000000E+00 0.  1.
<mgrwt>
<rscale>  0 0.21551589E+04</rscale>
<asrwt>0</asrwt>
<pdfrwt beam="1">  1        2 0.26344422E+00 0.21551589E+04</pdfrwt>
<pdfrwt beam="2">  1       -2 0.10432376E+00 0.21551589E+04</pdfrwt>
<totfact> 0.66114650E+00</totfact>
</mgrwt>
</event>
<event>
 6    1  0.1528034E-005  0.3128939E+04  0.7818608E-02  0.8207840E-01
         -1   -1    0    0    0  501 -0.00000000000E+00  0.00000000000E+00  0.14281243817E+04  0.14281243817E+04  0.00000000000E+00 0.  1.
          1   -1    0    0  501    0  0.00000000000E+00 -0.00000000000E+00 -0.17138316555E+04  0.17138316555E+04  0.00000000000E+00 0. -1.
         23    2    1    2    0    0 -0.30027697726E+03  0.77547648137E+03  0.11861213567E+04  0.14514503277E+04  0.91072194702E+02 0.  0.
         11    1    3    3    0    0 -0.10127866792E+03  0.35957180347E+03  0.48215962930E+03  0.60994029097E+03  0.00000000000E+00 0.  1.
        -11    1    3    3    0    0 -0.19899830934E+03  0.41590467790E+03  0.70396172740E+03  0.84151003670E+03  0.00000000000E+00 0. -1.
         22    1    1    2    0    0  0.30027697726E+03 -0.77547648137E+03 -0.14718286305E+04  0.16905057095E+04  0.00000000000E+00 0. -1.
<mgrwt>
<rscale>  0 0.31289390E+04</rscale>
<asrwt>0</asrwt>
<pdfrwt beam="1">  1        1 0.26366641E+00 0.31289390E+04</pdfrwt>
<pdfrwt beam="2">  1       -1 0.21971144E+00 0.31289390E+04</pdfrwt>
<totfact> 0.43395404E-01</totfact>
</mgrwt>
</event>
<event>
 6    1  0.1528034E-005  0.1645566E+04  0.7818608E-02  0.8793034E-01
         -1   -1    0    0    0  501 -0.00000000000E+00  0.00000000000E+00  0.90057175911E+03  0.90057175911E+03  0.00000000000E+00 0.  1.
          1   -1    0    0  501    0  0.00000000000E+00 -0.00000000000E+00 -0.75171327866E+03  0.75171327866E+03  0.00000000000E+00 0. -1.
         23    2    1    2    0    0 -0.24611443227E+03 -0.56621976151E+03 -0.46771583886E+03  0.77973645842E+03  0.89742445691E+02 0.  0.
         13    1    3    3    0    0 -0.22900966227E+03 -0.44534012432E+03 -0.39334486043E+03  0.63678366104E+03  0.00000000000E+00 0. -1.
        -13    1    3    3    0    0 -0.17104770008E+02 -0.12087963719E+03 -0.74370978437E+02  0.14295279738E+03  0.00000000000E+00 0.  1.
         22    1    1    2    0    0  0.24611443227E+03  0.56621976151E+03  0.61657431931E+03  0.87254857935E+03  0.00000000000E+00 0.  1.
<mgrwt>
<rscale>  0 0.16455659E+04</rscale>
<asrwt>0</asrwt>
<pdfrwt beam="1">  1        1 0.11564820E+00 0.16455659E+04</pdfrwt>
<pdfrwt beam="2">  1       -1 0.13854950E+00 0.16455659E+04</pdfrwt>
<totfact> 0.10050328E+01</totfact>
</mgrwt>
</event>
<event>
 6    1  0.1528034E-005  0.3018048E+04  0.7818608E-02  0.8238596E-01
          2   -1    0    0  501    0  0.00000000000E+00  0.00000000000E+00  0.25656866502E+04  0.25656866502E+04  0.00000000000E+00 0.  1.
         -2   -1    0    0    0  501 -0.00000000000E+00 -0.00000000000E+00 -0.88754125118E+03  0.88754125118E+03  0.00000000000E+00 0. -1.
         23    2    1    2    0    0 -0.14005721555E+04 -0.54934880175E+03  0.72849951827E+03  0.16741231356E+04  0.92683636609E+02 0.  0.
         13    1    3    3    0    0 -0.11347448390E+04 -0.41663841337E+03  0.61288102048E+03  0.13553068148E+04  0.00000000000E+00 0.  1.
        -13    1    3    3    0    0 -0.26582731650E+03 -0.13271038838E+03  0.11561849780E+03  0.31881632081E+03  0.00000000000E+00 0. -1.
         22    1    1    2    0    0  0.14005721555E+04  0.54934880175E+03  0.94964588073E+03  0.17791047657E+04  0.00000000000E+00 0.  1.
<mgrwt>
<rscale>  0 0.30180475E+04</rscale>
<asrwt>0</asrwt>
<pdfrwt beam="1">  1        2 0.39472102E+00 0.30180475E+04</pdfrwt>
<pdfrwt beam="2">  1       -2 0.13654481E+00 0.30180475E+04</pdfrwt>
<totfact> 0.10437238E+00</totfact>
</mgrwt>
</event>
<event>
 6    1  0.1528034E-005  0.9022872E+03  0.7818608E-02  0.9422727E-01
          2   -1    0    0  501    0  0.00000000000E+00  0.00000000000E+00  0.20911287055E+04  0.20911287055E+04  0.00000000000E+00 0. -1.
         -2   -1    0    0    0  501 -0.00000000000E+00 -0.00000000000E+00 -0.97330482426E+02  0.97330482426E+02  0.00000000000E+00 0.  1.
         23    2    1    2    0    0 -0.26113228639E+03 -0.34497407033E+03  0.73895908433E+03  0.86112409673E+03  0.90978027387E+02 0.  0.
         11    1    3    3    0    0 -0.22551388304E+03 -0.25871030844E+03  0.63198366809E+03  0.71915985140E+03  0.00000000000E+00 0. -1.
        -11    1    3    3    0    0 -0.35618403350E+02 -0.86263761891E+02  0.10697541624E+03  0.14196424533E+03  0.00000000000E+00 0.  1.
         22    1    1    2    0    0  0.26113228639E+03  0.34497407033E+03  0.12548391388E+04  0.13273350912E+04  0.00000000000E+00 0. -1.
<mgrwt>
<rscale>  0 0.90228724E+03</rscale>
<asrwt>0</asrwt>
<pdfrwt beam="1">  1        2 0.32171207E+00 0.90228724E+03</pdfrwt>
<pdfrwt beam="2">  1       -2 0.14973922E-01 0.90228724E+03</pdfrwt>
<totfact> 0.21163272E+02</totfact>
</mgrwt>
</event>
<event>
 6    1  0.1528034E-005  0.1648134E+04  0.7818608E-02  0.8791511E-01
          1   -1    0    0  501    0  0.00000000000E+00  0.00000000000E+00  0.19258099136E+04  0.19258099136E+04  0.00000000000E+00 0. -1.
         -1   -1    0    0    0  501 -0.00000000000E+00 -0.00000000000E+00 -0.35262395165E+03  0.35262395165E+03  0.00000000000E+00 0.  1.
         23    2    1    2    0    0  0.78080789504E+03  0.10635539706E+03  0.11100813085E+04  0.13644106929E+04  0.91452654980E+02 0.  0.
         13    1    3    3    0    0  0.56347123109E+03  0.10397104706E+03  0.75017416646E+03  0.94396561744E+03  0.00000000000E+00 0. -1.
        -13    1    3    3    0    0  0.21733666394E+03  0.23843500022E+01  0.35990714204E+03  0.42044507550E+03  0.00000000000E+00 0.  1.
         22    1    1    2    0    0 -0.78080789504E+03 -0.10635539706E+03  0.46310465342E+03  0.91402317228E+03  0.00000000000E+00 0.  1.
<mgrwt>
<rscale>  0 0.16481343E+04</rscale>
<asrwt>0</asrwt>
<pdfrwt beam="1">  1        1 0.29627844E+00 0.16481343E+04</pdfrwt>
<pdfrwt beam="2">  1       -1 0.54249840E-01 0.16481343E+04</pdfrwt>
<totfact> 0.10976670E+01</totfact>
</mgrwt>
</event>
<event>
 6    1  0.1528034E-005  0.4748770E+04  0.7818608E-02  0.7868475E-01
          1   -1    0    0  501    0  0.00000000000E+00  0.00000000000E+00  0.38291696864E+04  0.38291696864E+04  0.00000000000E+00 0. -1.
         -1   -1    0    0    0  501 -0.00000000000E+00 -0.00000000000E+00 -0.14723044201E+04  0.14723044201E+04  0.00000000000E+00 0.  1.
         23    2    1    2    0    0 -0.21098032855E+04 -0.90357486152E+03  0.50393732141E+03  0.23517182856E+04  0.94385575338E+02 0.  0.
         11    1    3    3    0    0 -0.11222137138E+04 -0.53130119384E+03  0.26578723089E+03  0.12697588079E+04  0.00000000000E+00 0.  1.
        -11    1    3    3    0    0 -0.98758957167E+03 -0.37227366768E+03  0.23815009053E+03  0.10819594777E+04  0.00000000000E+00 0. -1.
         22    1    1    2    0    0  0.21098032855E+04  0.90357486152E+03  0.18529279449E+04  0.29497558209E+04  0.00000000000E+00 0. -1.
<mgrwt>
<rscale>  0 0.47487697E+04</rscale>
<asrwt>0</asrwt>
<pdfrwt beam="1">  1        1 0.58910302E+00 0.47487697E+04</pdfrwt>
<pdfrwt beam="2">  1       -1 0.22650837E+00 0.47487697E+04</pdfrwt>
<totfact> 0.98516551E-03</totfact>
</mgrwt>
</event>
<event>
 6    1  0.1528034E-005  0.3451549E+04  0.7818608E-02  0.8125369E-01
          2   -1    0    0  501    0  0.00000000000E+00  0.00000000000E+00  0.31072121608E+04  0.31072121608E+04  0.00000000000E+00 0. -1.
         -2   -1    0    0    0  501 -0.00000000000E+00 -0.00000000000E+00 -0.95851121525E+03  0.95851121525E+03  0.00000000000E+00 0.  1.
         23    2    1    2    0    0  0.27241089852E+03  0.13957707490E+04 -0.74104460944E+02  0.14269267646E+04  0.90801095132E+02 0.  0.
         11    1    3    3    0    0  0.11767335787E+03  0.70043895901E+03 -0.78434357240E+02  0.71457239160E+03  0.00000000000E+00 0. -1.
        -11    1    3    3    0    0  0.15473754065E+03  0.69533179003E+03  0.43298962967E+01  0.71235437299E+03  0.00000000000E+00 0.  1.
         22    1    1    2    0    0 -0.27241089852E+03 -0.13957707490E+04  0.22228054065E+04  0.26387966115E+04  0.00000000000E+00 0. -1.
<mgrwt>
<rscale>  0 0.34515490E+04</rscale>
<asrwt>0</asrwt>
<pdfrwt beam="1">  1        2 0.47803264E+00 0.34515490E+04</pdfrwt>
<pdfrwt beam="2">  1       -2 0.14746326E+00 0.34515490E+04</pdfrwt>
<totfact> 0.38468328E-01</totfact>
</mgrwt>
</event>
<event>
 6    1  0.1528034E-005  0.1996081E+04  0.7818608E-02  0.8608455E-01
         -1   -1    0    0    0  501 -0.00000000000E+00  0.00000000000E+00  0.18418311396E+04  0.18418311396E+04  0.00000000000E+00 0.  1.
          1   -1    0    0  501    0  0.00000000000E+00 -0.00000000000E+00 -0.54081198109E+03  0.54081198109E+03  0.00000000000E+00 0. -1.
         23    2    1    2    0    0  0.33664175672E+03  0.39901899062E+03  0.16643775215E+04  0.17465824890E+04  0.88622962421E+02 0.  0.
         11    1    3    3    0    0  0.61773812450E+02  0.12641792163E+03  0.50805781847E+03  0.52718141254E+03  0.00000000000E+00 0.  1.
        -11    1    3    3    0    0  0.27486794427E+03  0.27260106898E+03  0.11563197030E+04  0.12194010764E+04  0.00000000000E+00 0. -1.
         22    1    1    2    0    0 -0.33664175672E+03 -0.39901899062E+03 -0.36335836300E+03  0.63606063171E+03  0.00000000000E+00 0. -1.
<mgrwt>
<rscale>  0 0.19960805E+04</rscale>
<asrwt>0</asrwt>
<pdfrwt beam="1">  1        1 0.83201844E-01 0.19960805E+04</pdfrwt>
<pdfrwt beam="2">  1       -1 0.28335863E+00 0.19960805E+04</pdfrwt>
<totfact> 0.15612006E+00</totfact>
</mgrwt>
</event>
<event>
 6    1  0.1528034E-005  0.1150630E+04  0.7818608E-02  0.9157202E-01
         -2   -1    0    0    0  501 -0.00000000000E+00  0.00000000000E+00  0.22961969364E+03  0.22961969364E+03  0.00000000000E+00 0.  1.
          2   -1    0    0  501    0  0.00000000000E+00 -0.00000000000E+00 -0.14414598232E+04  0.14414598232E+04  0.00000000000E+00 0. -1.
         23    2    1    2    0    0  0.41687368418E+02 -0.35223891005E+03  0.41514627244E+02  0.36850198254E+03  0.90885424700E+02 0.  0.
         13    1    3    3    0    0  0.56927586532E+02 -0.14366544140E+03  0.38908850135E+02  0.15935622918E+03  0.00000000000E+00 0.  1.
        -13    1    3    3    0    0 -0.15240218115E+02 -0.20857346865E+03  0.26057771086E+01  0.20914575336E+03  0.00000000000E+00 0. -1.
         22    1    1    2    0    0 -0.41687368418E+02  0.35223891005E+03 -0.12533547568E+04  0.13025775343E+04  0.00000000000E+00 0. -1.
<mgrwt>
<rscale>  0 0.11506304E+04</rscale>
<asrwt>0</asrwt>
<pdfrwt beam="1">  1        2 0.22176305E+00 0.11506304E+04</pdfrwt>
<pdfrwt beam="2">  1       -2 0.35326107E-01 0.11506304E+04</pdfrwt>
<totfact> 0.10199949E+02</totfact>
</mgrwt>
</event>
<event>
 6    1  0.1528034E-005  0.4163211E+04  0.7818608E-02  0.7972407E-01
          2   -1    0    0  501    0  0.00000000000E+00  0.00000000000E+00  0.24080498032E+04  0.24080498032E+04  0.00000000000E+00 0. -1.
         -2   -1    0    0    0  501 -0.00000000000E+00 -0.00000000000E+00 -0.17994150059E+04  0.17994150059E+04  0.00000000000E+00 0.  1.
         23    2    1    2    0    0 -0.43153520326E+03 -0.20122334178E+04 -0.46407019350E+01  0.20600447762E+04  0.91961864562E+02 0.  0.
         11    1    3    3    0    0 -0.39015781599E+03 -0.16657333812E+04  0.84685151848E+01  0.17108367936E+04  0.00000000000E+00 0.  1.
        -11    1    3    3    0    0 -0.41377387267E+02 -0.34650003661E+03 -0.13109217120E+02  0.34920798262E+03  0.00000000000E+00 0. -1.
         22    1    1    2    0    0  0.43153520326E+03  0.20122334178E+04  0.61327549917E+03  0.21474200328E+04  0.00000000000E+00 0.  1.
<mgrwt>
<rscale>  0 0.41632108E+04</rscale>
<asrwt>0</asrwt>
<pdfrwt beam="1">  1        2 0.37046920E+00 0.41632108E+04</pdfrwt>
<pdfrwt beam="2">  1       -2 0.27683308E+00 0.41632108E+04</pdfrwt>
<totfact> 0.13484055E-01</totfact>
</mgrwt>
</event>
<event>
 6    1  0.1528034E-005  0.2947868E+04  0.7818608E-02  0.8258776E-01
          1   -1    0    0  501    0  0.00000000000E+00  0.00000000000E+00  0.11550264762E+04  0.11550264762E+04  0.00000000000E+00 0. -1.
         -1   -1    0    0    0  501 -0.00000000000E+00 -0.00000000000E+00 -0.18808934766E+04  0.18808934766E+04  0.00000000000E+00 0.  1.
         23    2    1    2    0    0 -0.10616701975E+04  0.96853295243E+03 -0.69412024785E+03  0.15984890695E+04  0.90358721641E+02 0.  0.
         11    1    3    3    0    0 -0.10207729489E+04  0.91803325495E+03 -0.64392891233E+03  0.15163795417E+04  0.00000000000E+00 0. -1.
        -11    1    3    3    0    0 -0.40897248595E+02  0.50499697478E+02 -0.50191335520E+02  0.82109527762E+02  0.00000000000E+00 0.  1.
         22    1    1    2    0    0  0.10616701975E+04 -0.96853295243E+03 -0.31746752601E+02  0.14374308834E+04  0.00000000000E+00 0.  1.
<mgrwt>
<rscale>  0 0.29478682E+04</rscale>
<asrwt>0</asrwt>
<pdfrwt beam="1">  1        1 0.17769638E+00 0.29478682E+04</pdfrwt>
<pdfrwt beam="2">  1       -1 0.28936823E+00 0.29478682E+04</pdfrwt>
<totfact> 0.38154037E-01</totfact>
</mgrwt>
</event>
<event>
 6    1  0.1528034E-005  0.2316448E+04  0.7818608E-02  0.8471464E-01
         -2   -1    0    0    0  501 -0.00000000000E+00  0.00000000000E+00  0.53284899032E+03  0.53284899032E+03  0.00000000000E+00 0.  1.
          2   -1    0    0  501    0  0.00000000000E+00 -0.00000000000E+00 -0.25175673818E+04  0.25175673818E+04  0.00000000000E+00 0. -1.
         23    2    1    2    0    0 -0.89473955523E+02  0.57581564755E+03  0.31919152026E+03  0.67395468927E+03  0.11297100473E+03 0.  0.
         11    1    3    3    0    0 -0.16329906060E+02  0.42904466653E+03  0.23936121712E+03  0.49156869710E+03  0.00000000000E+00 0. -1.
        -11    1    3    3    0    0 -0.73144049464E+02  0.14677098102E+03  0.79830303135E+02  0.18238599217E+03  0.00000000000E+00 0.  1.
         22    1    1    2    0    0  0.89473955523E+02 -0.57581564755E+03 -0.23039099117E+04  0.23764616828E+04  0.00000000000E+00 0. -1.
<mgrwt>
<rscale>  0 0.23164483E+04</rscale>
<asrwt>0</asrwt>
<pdfrwt beam="1">  1        2 0.38731806E+00 0.23164483E+04</pdfrwt>
<pdfrwt beam="2">  1       -2 0.81976767E-01 0.23164483E+04</pdfrwt>
<totfact> 0.40273300E+00</totfact>
</mgrwt>
</event>
<event>
 6    1  0.1528034E-005  0.2250557E+04  0.7818608E-02  0.8497675E-01
         -1   -1    0    0    0  501 -0.00000000000E+00  0.00000000000E+00  0.77896140975E+03  0.77896140975E+03  0.00000000000E+00 0.  1.
          1   -1    0    0  501    0  0.00000000000E+00 -0.00000000000E+00 -0.16255637528E+04  0.16255637528E+04  0.00000000000E+00 0. -1.
         23    2    1    2    0    0 -0.24114593353E+03  0.47642707317E+03  0.63198622720E+03  0.83246973178E+03  0.92006226188E+02 0.  0.
         13    1    3    3    0    0 -0.12716195239E+03  0.16017141834E+03  0.21289690069E+03  0.29521201824E+03  0.00000000000E+00 0. -1.
        -13    1    3    3    0    0 -0.11398398114E+03  0.31625565483E+03  0.41908932651E+03  0.53725771354E+03  0.00000000000E+00 0.  1.
         22    1    1    2    0    0  0.24114593353E+03 -0.47642707317E+03 -0.14785885702E+04  0.15720554307E+04  0.00000000000E+00 0. -1.
<mgrwt>
<rscale>  0 0.22505568E+04</rscale>
<asrwt>0</asrwt>
<pdfrwt beam="1">  1        1 0.25008673E+00 0.22505568E+04</pdfrwt>
<pdfrwt beam="2">  1       -1 0.11984022E+00 0.22505568E+04</pdfrwt>
<totfact> 0.30213550E+00</totfact>
</mgrwt>
</event>
<event>
 6    1  0.1528034E-005  0.2040395E+04  0.7818608E-02  0.8587964E-01
         -2   -1    0    0    0  501 -0.00000000000E+00  0.00000000000E+00  0.65578516546E+03  0.65578516546E+03  0.00000000000E+00 0.  1.
          2   -1    0    0  501    0  0.00000000000E+00 -0.00000000000E+00 -0.15871096714E+04  0.15871096714E+04  0.00000000000E+00 0. -1.
         23    2    1    2    0    0  0.91205780448E+03  0.16009478941E+03 -0.25120647390E+01  0.93134143297E+03  0.99552870270E+02 0.  0.
         11    1    3    3    0    0  0.42409096854E+03  0.42865267981E+02 -0.39807527489E+02  0.42810655220E+03  0.00000000000E+00 0.  1.
        -11    1    3    3    0    0  0.48796683595E+03  0.11722952143E+03  0.37295462750E+02  0.50323488077E+03  0.00000000000E+00 0. -1.
         22    1    1    2    0    0 -0.91205780448E+03 -0.16009478941E+03 -0.92881244118E+03  0.13115534039E+04  0.00000000000E+00 0. -1.
<mgrwt>
<rscale>  0 0.20403950E+04</rscale>
<asrwt>0</asrwt>
<pdfrwt beam="1">  1        2 0.24417072E+00 0.20403950E+04</pdfrwt>
<pdfrwt beam="2">  1       -2 0.10089003E+00 0.20403950E+04</pdfrwt>
<totfact> 0.84930156E+00</totfact>
</mgrwt>
</event>
<event>
 6    1  0.1528034E-005  0.8728237E+03  0.7818608E-02  0.9460206E-01
          3   -1    0    0  501    0  0.00000000000E+00  0.00000000000E+00  0.20041482211E+03  0.20041482211E+03  0.00000000000E+00 0. -1.
         -3   -1    0    0    0  501 -0.00000000000E+00 -0.00000000000E+00 -0.95030551185E+03  0.95030551185E+03  0.00000000000E+00 0.  1.
         23    2    1    2    0    0  0.11553688195E+03  0.12661023428E+03  0.14332237879E+03  0.24121029647E+03  0.90896536488E+02 0.  0.
         13    1    3    3    0    0  0.81689681971E+02  0.49744286540E+02  0.12113338821E+03  0.15434051938E+03  0.00000000000E+00 0.  1.
        -13    1    3    3    0    0  0.33847199981E+02  0.76865947741E+02  0.22188990581E+02  0.86869777090E+02  0.00000000000E+00 0. -1.
         22    1    1    2    0    0 -0.11553688195E+03 -0.12661023428E+03 -0.89321306853E+03  0.90951003749E+03  0.00000000000E+00 0.  1.
<mgrwt>
<rscale>  0 0.87282372E+03</rscale>
<asrwt>0</asrwt>
<pdfrwt beam="1">  1        3 0.30833049E-01 0.87282372E+03</pdfrwt>
<pdfrwt beam="2">  1       -3 0.14620085E+00 0.87282372E+03</pdfrwt>
<totfact> 0.93369423E+00</totfact>
</mgrwt>
</event>
<event>
 6    1  0.1528034E-005  0.8322383E+03  0.7818608E-02  0.9514491E-01
          2   -1    0    0  501    0  0.00000000000E+00  0.00000000000E+00  0.11739300827E+04  0.11739300827E+04  0.00000000000E+00 0. -1.
         -2   -1    0    0    0  501 -0.00000000000E+00 -0.00000000000E+00 -0.14750040851E+03  0.14750040851E+03  0.00000000000E+00 0.  1.
         23    2    1    2    0    0 -0.28647434753E+03  0.29407625004E+03  0.55342284825E+03  0.69510481713E+03  0.91353517676E+02 0.  0.
         13    1    3    3    0    0 -0.11354086860E+03  0.56810929560E+02  0.17070550645E+03  0.21274252159E+03  0.00000000000E+00 0.  1.
        -13    1    3    3    0    0 -0.17293347893E+03  0.23726532048E+03  0.38271734181E+03  0.48236229554E+03  0.00000000000E+00 0. -1.
         22    1    1    2    0    0  0.28647434753E+03 -0.29407625004E+03  0.47300682591E+03  0.62632567406E+03  0.00000000000E+00 0. -1.
<mgrwt>
<rscale>  0 0.83223835E+03</rscale>
<asrwt>0</asrwt>
<pdfrwt beam="1">  1        2 0.18060462E+00 0.83223835E+03</pdfrwt>
<pdfrwt beam="2">  1       -2 0.22692371E-01 0.83223835E+03</pdfrwt>
<totfact> 0.33655940E+02</totfact>
</mgrwt>
</event>
<event>
 6    1  0.1528034E-005  0.1678783E+04  0.7818608E-02  0.8773559E-01
          2   -1    0    0  501    0  0.00000000000E+00  0.00000000000E+00  0.72989600281E+03  0.72989600281E+03  0.00000000000E+00 0. -1.
         -2   -1    0    0    0  501 -0.00000000000E+00 -0.00000000000E+00 -0.96531269066E+03  0.96531269066E+03  0.00000000000E+00 0.  1.
         23    2    1    2    0    0  0.13304462909E+03  0.68491818624E+03  0.34841908750E+03  0.78544058688E+03  0.93312699153E+02 0.  0.
         11    1    3    3    0    0  0.46608989944E+02  0.21408946153E+03  0.15859991060E+03  0.27048221222E+03  0.00000000000E+00 0. -1.
        -11    1    3    3    0    0  0.86435639142E+02  0.47082872471E+03  0.18981917690E+03  0.51495837467E+03  0.00000000000E+00 0.  1.
         22    1    1    2    0    0 -0.13304462909E+03 -0.68491818624E+03 -0.58383577536E+03  0.90976810658E+03  0.00000000000E+00 0.  1.
<mgrwt>
<rscale>  0 0.16787827E+04</rscale>
<asrwt>0</asrwt>
<pdfrwt beam="1">  1        2 0.11229169E+00 0.16787827E+04</pdfrwt>
<pdfrwt beam="2">  1       -2 0.14850965E+00 0.16787827E+04</pdfrwt>
<totfact> 0.11383800E+01</totfact>
</mgrwt>
</event>
<event>
 6    1  0.1528034E-005  0.5864028E+03  0.7818608E-02  0.9934025E-01
          1   -1    0    0  501    0  0.00000000000E+00  0.00000000000E+00  0.18401515492E+03  0.18401515492E+03  0.00000000000E+00 0. -1.
         -1   -1    0    0    0  501 -0.00000000000E+00 -0.00000000000E+00 -0.46717376925E+03  0.46717376925E+03  0.00000000000E+00 0.  1.
         23    2    1    2    0    0 -0.86222099792E+02  0.24889850104E+03 -0.26871048724E+03  0.38738319509E+03  0.92063562666E+02 0.  0.
         11    1    3    3    0    0 -0.73625457940E+02  0.97289915649E+02 -0.15601722592E+03  0.19805910867E+03  0.00000000000E+00 0. -1.
        -11    1    3    3    0    0 -0.12596641852E+02  0.15160858540E+03 -0.11269326132E+03  0.18932408642E+03  0.00000000000E+00 0.  1.
         22    1    1    2    0    0  0.86222099792E+02 -0.24889850104E+03 -0.14448127090E+02  0.26380572907E+03  0.00000000000E+00 0.  1.
<mgrwt>
<rscale>  0 0.58640277E+03</rscale>
<asrwt>0</asrwt>
<pdfrwt beam="1">  1        1 0.28310024E-01 0.58640277E+03</pdfrwt>
<pdfrwt beam="2">  1       -1 0.71872886E-01 0.58640277E+03</pdfrwt>
<totfact> 0.32886942E+02</totfact>
</mgrwt>
</event>
<event>
 6    1  0.1528034E-005  0.2004345E+04  0.7818608E-02  0.8604592E-01
         -1   -1    0    0    0  501 -0.00000000000E+00  0.00000000000E+00  0.70760441947E+03  0.70760441947E+03  0.00000000000E+00 0.  1.
          1   -1    0    0  501    0  0.00000000000E+00 -0.00000000000E+00 -0.14193663849E+04  0.14193663849E+04  0.00000000000E+00 0. -1.
         23    2    1    2    0    0 -0.87897656454E+03 -0.45347247552E+03 -0.51497237092E+03  0.11185248556E+04  0.87545547066E+02 0.  0.
         11    1    3    3    0    0 -0.62373945928E+03 -0.28704799944E+03 -0.38569403571E+03  0.78753244773E+03  0.00000000000E+00 0.  1.
        -11    1    3    3    0    0 -0.25523710525E+03 -0.16642447608E+03 -0.12927833521E+03  0.33099240791E+03  0.00000000000E+00 0. -1.
         22    1    1    2    0    0  0.87897656454E+03  0.45347247552E+03 -0.19678959454E+03  0.10084459488E+04  0.00000000000E+00 0.  1.
<mgrwt>
<rscale>  0 0.20043452E+04</rscale>
<asrwt>0</asrwt>
<pdfrwt beam="1">  1        1 0.21836406E+00 0.20043452E+04</pdfrwt>
<pdfrwt beam="2">  1       -1 0.10886222E+00 0.20043452E+04</pdfrwt>
<totfact> 0.54006947E+00</totfact>
</mgrwt>
</event>
<event>
 6    1  0.1528034E-005  0.4088926E+04  0.7818608E-02  0.7986844E-01
         -2   -1    0    0    0  501 -0.00000000000E+00  0.00000000000E+00  0.10017393544E+04  0.10017393544E+04  0.00000000000E+00 0.  1.
          2   -1    0    0  501    0  0.00000000000E+00 -0.00000000000E+00 -0.41725708262E+04  0.41725708262E+04  0.00000000000E+00 0. -1.
         23    2    1    2    0    0  0.35557229977E+03  0.15729163695E+04 -0.31744072819E+04  0.35617003852E+04  0.91380943480E+02 0.  0.
         13    1    3    3    0    0  0.19005218710E+03  0.79299666742E+03 -0.15069862478E+04  0.17134675659E+04  0.00000000000E+00 0. -1.
        -13    1    3    3    0    0  0.16552011267E+03  0.77991970211E+03 -0.16674210341E+04  0.18482328193E+04  0.00000000000E+00 0.  1.
         22    1    1    2    0    0 -0.35557229977E+03 -0.15729163695E+04  0.35758100295E+01  0.16126097954E+04  0.00000000000E+00 0.  1.
<mgrwt>
<rscale>  0 0.40889257E+04</rscale>
<asrwt>0</asrwt>
<pdfrwt beam="1">  1        2 0.64193397E+00 0.40889257E+04</pdfrwt>
<pdfrwt beam="2">  1       -2 0.15411375E+00 0.40889257E+04</pdfrwt>
<totfact> 0.53364122E-02</totfact>
</mgrwt>
</event>
<event>
 6    1  0.1528034E-005  0.2094491E+04  0.7818608E-02  0.8563674E-01
          1   -1    0    0  501    0  0.00000000000E+00  0.00000000000E+00  0.17315703907E+04  0.17315703907E+04  0.00000000000E+00 0. -1.
         -1   -1    0    0    0  501 -0.00000000000E+00 -0.00000000000E+00 -0.63336905896E+03  0.63336905896E+03  0.00000000000E+00 0.  1.
         23    2    1    2    0    0 -0.12385417215E+03 -0.10296440208E+04  0.69924517591E+03  0.12537811892E+04  0.86699417100E+02 0.  0.
         13    1    3    3    0    0  0.10930858723E+02 -0.44618049134E+02  0.39546562415E+02  0.60615052419E+02  0.00000000000E+00 0. -1.
        -13    1    3    3    0    0 -0.13478503087E+03 -0.98502597163E+03  0.65969861350E+03  0.11931661368E+04  0.00000000000E+00 0.  1.
         22    1    1    2    0    0  0.12385417215E+03  0.10296440208E+04  0.39895615578E+03  0.11111582604E+04  0.00000000000E+00 0.  1.
<mgrwt>
<rscale>  0 0.20944910E+04</rscale>
<asrwt>0</asrwt>
<pdfrwt beam="1">  1        1 0.26639544E+00 0.20944910E+04</pdfrwt>
<pdfrwt beam="2">  1       -1 0.97441394E-01 0.20944910E+04</pdfrwt>
<totfact> 0.42189972E+00</totfact>
</mgrwt>
</event>
<event>
 6    1  0.1528034E-005  0.1374051E+04  0.7818608E-02  0.8972819E-01
         -2   -1    0    0    0  501 -0.00000000000E+00  0.00000000000E+00  0.10755855847E+04  0.10755855847E+04  0.00000000000E+00 0.  1.
          2   -1    0    0  501    0  0.00000000000E+00 -0.00000000000E+00 -0.43883456527E+03  0.43883456527E+03  0.00000000000E+00 0. -1.
         23    2    1    2    0    0 -0.54966087727E+03 -0.37585828481E+03  0.48406424557E+03  0.83125854305E+03  0.11522170500E+03 0.  0.
         13    1    3    3    0    0 -0.38504590589E+03 -0.20358807824E+03  0.34262348036E+03  0.55416541261E+03  0.00000000000E+00 0. -1.
        -13    1    3    3    0    0 -0.16461497138E+03 -0.17227020657E+03  0.14144076520E+03  0.27709313044E+03  0.00000000000E+00 0.  1.
         22    1    1    2    0    0  0.54966087727E+03  0.37585828481E+03  0.15268677385E+03  0.68316160692E+03  0.00000000000E+00 0. -1.
<mgrwt>
<rscale>  0 0.13740511E+04</rscale>
<asrwt>0</asrwt>
<pdfrwt beam="1">  1        2 0.67513010E-01 0.13740511E+04</pdfrwt>
<pdfrwt beam="2">  1       -2 0.16547470E+00 0.13740511E+04</pdfrwt>
<totfact> 0.16013070E+01</totfact>
</mgrwt>
</event>
<event>
 6    1  0.1528034E-005  0.6097971E+04  0.7818608E-02  0.7678372E-01
         -2   -1    0    0    0  501 -0.00000000000E+00  0.00000000000E+00  0.23805473516E+04  0.23805473516E+04  0.00000000000E+00 0.  1.
          2   -1    0    0  501    0  0.00000000000E+00 -0.00000000000E+00 -0.39051158680E+04  0.39051158680E+04  0.00000000000E+00 0. -1.
         23    2    1    2    0    0  0.17741227563E+04 -0.16990228129E+04 -0.26229765445E+04  0.35948101448E+04  0.91999734752E+02 0.  0.
         13    1    3    3    0    0  0.42628475828E+03 -0.42412906418E+03 -0.69829016186E+03  0.92152770353E+03  0.00000000000E+00 0.  1.
        -13    1    3    3    0    0  0.13478379980E+04 -0.12748937488E+04 -0.19246863826E+04  0.26732824413E+04  0.00000000000E+00 0. -1.
         22    1    1    2    0    0 -0.17741227563E+04  0.16990228129E+04  0.10984080281E+04  0.26908530747E+04  0.00000000000E+00 0.  1.
<mgrwt>
<rscale>  0 0.60979712E+04</rscale>
<asrwt>0</asrwt>
<pdfrwt beam="1">  1        2 0.60078705E+00 0.60979712E+04</pdfrwt>
<pdfrwt beam="2">  1       -2 0.36623806E+00 0.60979712E+04</pdfrwt>
<totfact> 0.33244228E-03</totfact>
</mgrwt>
</event>
<event>
 6    1  0.1528034E-005  0.1047004E+04  0.7818608E-02  0.9258442E-01
          2   -1    0    0  501    0  0.00000000000E+00  0.00000000000E+00  0.85205108002E+03  0.85205108002E+03  0.00000000000E+00 0. -1.
         -2   -1    0    0    0  501 -0.00000000000E+00 -0.00000000000E+00 -0.32164088600E+03  0.32164088600E+03  0.00000000000E+00 0.  1.
         23    2    1    2    0    0  0.16873126391E+03  0.60029650261E+02 -0.27943538447E+03  0.34428033158E+03  0.91493247235E+02 0.  0.
         13    1    3    3    0    0  0.12645668668E+02  0.39325232179E+02 -0.81380293100E+02  0.91264116317E+02  0.00000000000E+00 0. -1.
        -13    1    3    3    0    0  0.15608559524E+03  0.20704418082E+02 -0.19805509137E+03  0.25301621527E+03  0.00000000000E+00 0.  1.
         22    1    1    2    0    0 -0.16873126391E+03 -0.60029650261E+02  0.80984557850E+03  0.82941163444E+03  0.00000000000E+00 0. -1.
<mgrwt>
<rscale>  0 0.10470042E+04</rscale>
<asrwt>0</asrwt>
<pdfrwt beam="1">  1        2 0.13108478E+00 0.10470042E+04</pdfrwt>
<pdfrwt beam="2">  1       -2 0.49483214E-01 0.10470042E+04</pdfrwt>
<totfact> 0.12176176E+02</totfact>
</mgrwt>
</event>
<event>
 6    1  0.1528034E-005  0.2488042E+04  0.7818608E-02  0.8407258E-01
          2   -1    0    0  501    0  0.00000000000E+00  0.00000000000E+00  0.26790723213E+04  0.26790723213E+04  0.00000000000E+00 0. -1.
         -2   -1    0    0    0  501 -0.00000000000E+00 -0.00000000000E+00 -0.57765827815E+03  0.57765827815E+03  0.00000000000E+00 0.  1.
         23    2    1    2    0    0  0.17655057435E+03 -0.91737052197E+03  0.21241003248E+04  0.23222502908E+04  0.91134207003E+02 0.  0.
         13    1    3    3    0    0  0.12954753135E+03 -0.45703568050E+03  0.10259910302E+04  0.11306289268E+04  0.00000000000E+00 0. -1.
        -13    1    3    3    0    0  0.47003042998E+02 -0.46033484147E+03  0.10981092946E+04  0.11916213640E+04  0.00000000000E+00 0.  1.
         22    1    1    2    0    0 -0.17655057435E+03  0.91737052197E+03 -0.22686281595E+02  0.93448030865E+03  0.00000000000E+00 0.  1.
<mgrwt>
<rscale>  0 0.24880420E+04</rscale>
<asrwt>0</asrwt>
<pdfrwt beam="1">  1        2 0.41216497E+00 0.24880420E+04</pdfrwt>
<pdfrwt beam="2">  1       -2 0.88870506E-01 0.24880420E+04</pdfrwt>
<totfact> 0.26542164E+00</totfact>
</mgrwt>
</event>
<event>
 6    1  0.1528034E-005  0.1399458E+04  0.7818608E-02  0.8954211E-01
         -1   -1    0    0    0  501 -0.00000000000E+00  0.00000000000E+00  0.17876042333E+03  0.17876042333E+03  0.00000000000E+00 0.  1.
          1   -1    0    0  501    0  0.00000000000E+00 -0.00000000000E+00 -0.27389785365E+04  0.27389785365E+04  0.00000000000E+00 0. -1.
         23    2    1    2    0    0 -0.68073721898E+02  0.15812324235E+03 -0.26931821228E+04  0.27002155834E+04  0.91089290619E+02 0.  0.
         13    1    3    3    0    0 -0.10876326489E+02  0.74721631732E+02 -0.62209335174E+03  0.62665920165E+03  0.00000000000E+00 0.  1.
        -13    1    3    3    0    0 -0.57197395409E+02  0.83401610621E+02 -0.20710887711E+04  0.20735563818E+04  0.00000000000E+00 0. -1.
         22    1    1    2    0    0  0.68073721898E+02 -0.15812324235E+03  0.13296400970E+03  0.21752337636E+03  0.00000000000E+00 0.  1.
<mgrwt>
<rscale>  0 0.13994584E+04</rscale>
<asrwt>0</asrwt>
<pdfrwt beam="1">  1        1 0.42138126E+00 0.13994584E+04</pdfrwt>
<pdfrwt beam="2">  1       -1 0.27501607E-01 0.13994584E+04</pdfrwt>
<totfact> 0.10725778E+01</totfact>
</mgrwt>
</event>
<event>
 6    1  0.1528034E-005  0.3397553E+04  0.7818608E-02  0.8138507E-01
         -2   -1    0    0    0  501 -0.00000000000E+00  0.00000000000E+00  0.14335220835E+04  0.14335220835E+04  0.00000000000E+00 0.  1.
          2   -1    0    0  501    0  0.00000000000E+00 -0.00000000000E+00 -0.20131128405E+04  0.20131128405E+04  0.00000000000E+00 0. -1.
         23    2    1    2    0    0 -0.88199739354E+03 -0.13683667230E+04  0.19730811246E+03  0.16427727496E+04  0.97082050849E+02 0.  0.
         13    1    3    3    0    0 -0.14013520740E+03 -0.28200881913E+03  0.53810849642E+02  0.31947215521E+03  0.00000000000E+00 0. -1.
        -13    1    3    3    0    0 -0.74186218614E+03 -0.10863579039E+04  0.14349726281E+03  0.13233005943E+04  0.00000000000E+00 0.  1.
         22    1    1    2    0    0  0.88199739354E+03  0.13683667230E+04 -0.77689886954E+03  0.18038621744E+04  0.00000000000E+00 0. -1.
<mgrwt>
<rscale>  0 0.33975531E+04</rscale>
<asrwt>0</asrwt>
<pdfrwt beam="1">  1        2 0.30970967E+00 0.33975531E+04</pdfrwt>
<pdfrwt beam="2">  1       -2 0.22054186E+00 0.33975531E+04</pdfrwt>
<totfact> 0.53383636E-01</totfact>
</mgrwt>
</event>
<event>
 6    1  0.1528034E-005  0.1419282E+04  0.7818608E-02  0.8939978E-01
         -2   -1    0    0    0  501 -0.00000000000E+00  0.00000000000E+00  0.26278405564E+03  0.26278405564E+03  0.00000000000E+00 0.  1.
          2   -1    0    0  501    0  0.00000000000E+00 -0.00000000000E+00 -0.19163660823E+04  0.19163660823E+04  0.00000000000E+00 0. -1.
         23    2    1    2    0    0 -0.31854749640E+03  0.12558285458E+03  0.11900498227E+03  0.37379469785E+03  0.91196104675E+02 0.  0.
         13    1    3    3    0    0 -0.14617200851E+03  0.10457555794E+02  0.39402797972E+02  0.15175044327E+03  0.00000000000E+00 0. -1.
        -13    1    3    3    0    0 -0.17237548789E+03  0.11512529879E+03  0.79602184302E+02  0.22204425458E+03  0.00000000000E+00 0.  1.
         22    1    1    2    0    0  0.31854749640E+03 -0.12558285458E+03 -0.17725870089E+04  0.18053554401E+04  0.00000000000E+00 0. -1.
<mgrwt>
<rscale>  0 0.14192821E+04</rscale>
<asrwt>0</asrwt>
<pdfrwt beam="1">  1        2 0.29482554E+00 0.14192821E+04</pdfrwt>
<pdfrwt beam="2">  1       -2 0.40428317E-01 0.14192821E+04</pdfrwt>
<totfact> 0.41874349E+01</totfact>
</mgrwt>
</event>
<event>
 6    1  0.1528034E-005  0.2258709E+04  0.7818608E-02  0.8494382E-01
         -2   -1    0    0    0  501 -0.00000000000E+00  0.00000000000E+00  0.61729025569E+03  0.61729025569E+03  0.00000000000E+00 0.  1.
          2   -1    0    0  501    0  0.00000000000E+00 -0.00000000000E+00 -0.20661935638E+04  0.20661935638E+04  0.00000000000E+00 0. -1.
         23    2    1    2    0    0  0.35947038513E+03 -0.10518527200E+04 -0.50234849284E+03  0.12234909700E+04  0.94673349883E+02 0.  0.
         13    1    3    3    0    0  0.16797828523E+03 -0.62219138893E+03 -0.31228148027E+03  0.71614143274E+03  0.00000000000E+00 0.  1.
        -13    1    3    3    0    0  0.19149209990E+03 -0.42966133103E+03 -0.19006701257E+03  0.50734953727E+03  0.00000000000E+00 0. -1.
         22    1    1    2    0    0 -0.35947038513E+03  0.10518527200E+04 -0.94655481529E+03  0.14599928495E+04  0.00000000000E+00 0. -1.
<mgrwt>
<rscale>  0 0.22587086E+04</rscale>
<asrwt>0</asrwt>
<pdfrwt beam="1">  1        2 0.31787593E+00 0.22587086E+04</pdfrwt>
<pdfrwt beam="2">  1       -2 0.94967732E-01 0.22587086E+04</pdfrwt>
<totfact> 0.52067256E+00</totfact>
</mgrwt>
</event>
<event>
 6    1  0.1528034E-005  0.3598244E+04  0.7818608E-02  0.8090894E-01
          2   -1    0    0  501    0  0.00000000000E+00  0.00000000000E+00  0.35102832724E+04  0.35102832724E+04  0.00000000000E+00 0. -1.
         -2   -1    0    0    0  501 -0.00000000000E+00 -0.00000000000E+00 -0.92210203292E+03  0.92210203292E+03  0.00000000000E+00 0.  1.
         23    2    1    2    0    0  0.11838725635E+04  0.13531779855E+04  0.12867221563E+04  0.22128266437E+04  0.91120471919E+02 0.  0.
         11    1    3    3    0    0  0.96106451743E+03  0.10766483664E+04  0.10727391699E+04  0.17982174613E+04  0.00000000000E+00 0.  1.
        -11    1    3    3    0    0  0.22280804608E+03  0.27652961915E+03  0.21398298647E+03  0.41460918244E+03  0.00000000000E+00 0. -1.
         22    1    1    2    0    0 -0.11838725635E+04 -0.13531779855E+04  0.13014590832E+04  0.22195586616E+04  0.00000000000E+00 0.  1.
<mgrwt>
<rscale>  0 0.35982437E+04</rscale>
<asrwt>0</asrwt>
<pdfrwt beam="1">  1        2 0.54004357E+00 0.35982437E+04</pdfrwt>
<pdfrwt beam="2">  1       -2 0.14186185E+00 0.35982437E+04</pdfrwt>
<totfact> 0.22578745E-01</totfact>
</mgrwt>
</event>
<event>
 6    1  0.1528034E-005  0.3459303E+04  0.7818608E-02  0.8123503E-01
          1   -1    0    0  501    0  0.00000000000E+00  0.00000000000E+00  0.27774135797E+04  0.27774135797E+04  0.00000000000E+00 0. -1.
         -1   -1    0    0    0  501 -0.00000000000E+00 -0.00000000000E+00 -0.10771509660E+04  0.10771509660E+04  0.00000000000E+00 0.  1.
         23    2    1    2    0    0  0.38625092857E+03 -0.17932006659E+03  0.27172237317E+04  0.27520422640E+04  0.95322340646E+02 0.  0.
         11    1    3    3    0    0  0.18396538108E+03 -0.91528929538E+02  0.16112562674E+04  0.16243052563E+04  0.00000000000E+00 0. -1.
        -11    1    3    3    0    0  0.20228554749E+03 -0.87791137054E+02  0.11059674644E+04  0.11277370078E+04  0.00000000000E+00 0.  1.
         22    1    1    2    0    0 -0.38625092857E+03  0.17932006659E+03 -0.10169611180E+04  0.11025222817E+04  0.00000000000E+00 0.  1.
<mgrwt>
<rscale>  0 0.34593027E+04</rscale>
<asrwt>0</asrwt>
<pdfrwt beam="1">  1        1 0.42729439E+00 0.34593027E+04</pdfrwt>
<pdfrwt beam="2">  1       -1 0.16571553E+00 0.34593027E+04</pdfrwt>
<totfact> 0.18732407E-01</totfact>
</mgrwt>
</event>
<event>
 6    1  0.1528034E-005  0.1883501E+04  0.7818608E-02  0.8663113E-01
          1   -1    0    0  501    0  0.00000000000E+00  0.00000000000E+00  0.71321883920E+03  0.71321883920E+03  0.00000000000E+00 0. -1.
         -1   -1    0    0    0  501 -0.00000000000E+00 -0.00000000000E+00 -0.12435090046E+04  0.12435090046E+04  0.00000000000E+00 0.  1.
         23    2    1    2    0    0 -0.48026909954E+03  0.14440994307E+03 -0.10893703492E+04  0.12056730579E+04  0.12412544066E+03 0.  0.
         13    1    3    3    0    0 -0.19066291665E+03  0.11877773320E+03 -0.43326281946E+03  0.48803398285E+03  0.00000000000E+00 0. -1.
        -13    1    3    3    0    0 -0.28960618289E+03  0.25632209875E+02 -0.65610752979E+03  0.71763907502E+03  0.00000000000E+00 0.  1.
         22    1    1    2    0    0  0.48026909954E+03 -0.14440994307E+03  0.55908018379E+03  0.75105478598E+03  0.00000000000E+00 0. -1.
<mgrwt>
<rscale>  0 0.18835010E+04</rscale>
<asrwt>0</asrwt>
<pdfrwt beam="1">  1        1 0.10972598E+00 0.18835010E+04</pdfrwt>
<pdfrwt beam="2">  1       -1 0.19130908E+00 0.18835010E+04</pdfrwt>
<totfact> 0.42909416E+00</totfact>
</mgrwt>
</event>
<event>
 6    1  0.1528034E-005  0.9240398E+03  0.7818608E-02  0.9396020E-01
         -2   -1    0    0    0  501 -0.00000000000E+00  0.00000000000E+00  0.98832109270E+02  0.98832109270E+02  0.00000000000E+00 0.  1.
          2   -1    0    0  501    0  0.00000000000E+00 -0.00000000000E+00 -0.21598486309E+04  0.21598486309E+04  0.00000000000E+00 0. -1.
         23    2    1    2    0    0 -0.40545052124E+03 -0.11811132528E+02 -0.52574755070E+03  0.67073223939E+03  0.94560149496E+02 0.  0.
         11    1    3    3    0    0 -0.35066040969E+03  0.23275978987E+02 -0.44477805007E+03  0.56686154213E+03  0.00000000000E+00 0. -1.
        -11    1    3    3    0    0 -0.54790111543E+02 -0.35087111515E+02 -0.80969500633E+02  0.10387069726E+03  0.00000000000E+00 0.  1.
         22    1    1    2    0    0  0.40545052124E+03  0.11811132528E+02 -0.15352689710E+04  0.15879485008E+04  0.00000000000E+00 0. -1.
<mgrwt>
<rscale>  0 0.92403982E+03</rscale>
<asrwt>0</asrwt>
<pdfrwt beam="1">  1        2 0.33228441E+00 0.92403982E+03</pdfrwt>
<pdfrwt beam="2">  1       -2 0.15204940E-01 0.92403982E+03</pdfrwt>
<totfact> 0.18864053E+02</totfact>
</mgrwt>
</event>
<event>
 6    1  0.1528034E-005  0.2350838E+04  0.7818608E-02  0.8458142E-01
         -2   -1    0    0    0  501 -0.00000000000E+00  0.00000000000E+00  0.11598488855E+04  0.11598488855E+04  0.00000000000E+00 0. -1.
          2   -1    0    0  501    0  0.00000000000E+00 -0.00000000000E+00 -0.11911981870E+04  0.11911981870E+04  0.00000000000E+00 0.  1.
         23    2    1    2    0    0 -0.87194764258E+03  0.77340697079E+03 -0.15418527042E+03  0.11790659680E+04  0.89288439812E+02 0.  0.
         11    1    3    3    0    0 -0.31712684073E+03  0.22857703368E+03 -0.36677151264E+02  0.39263482635E+03  0.00000000000E+00 0. -1.
        -11    1    3    3    0    0 -0.55482080184E+03  0.54482993711E+03 -0.11750811915E+03  0.78643114168E+03  0.00000000000E+00 0.  1.
         22    1    1    2    0    0  0.87194764258E+03 -0.77340697079E+03  0.12283596896E+03  0.11719811044E+04  0.00000000000E+00 0.  1.
<mgrwt>
<rscale>  0 0.23508381E+04</rscale>
<asrwt>0</asrwt>
<pdfrwt beam="1">  1        2 0.18326126E+00 0.23508381E+04</pdfrwt>
<pdfrwt beam="2">  1       -2 0.17843829E+00 0.23508381E+04</pdfrwt>
<totfact> 0.32179732E+00</totfact>
</mgrwt>
</event>
<event>
 6    1  0.1528034E-005  0.2540639E+04  0.7818608E-02  0.8388649E-01
          1   -1    0    0  501    0  0.00000000000E+00  0.00000000000E+00  0.11176961753E+04  0.11176961753E+04  0.00000000000E+00 0. -1.
         -1   -1    0    0    0  501 -0.00000000000E+00 -0.00000000000E+00 -0.14437840900E+04  0.14437840900E+04  0.00000000000E+00 0.  1.
         23    2    1    2    0    0 -0.59680360382E+03  0.21872092213E+03  0.94317726466E+03  0.11419565851E+04  0.10231376380E+03 0.  0.
         11    1    3    3    0    0 -0.14560318962E+03  0.19647236116E+02  0.27105972859E+03  0.30831749736E+03  0.00000000000E+00 0. -1.
        -11    1    3    3    0    0 -0.45120041420E+03  0.19907368602E+03  0.67211753608E+03  0.83363908770E+03  0.00000000000E+00 0.  1.
         22    1    1    2    0    0  0.59680360382E+03 -0.21872092213E+03 -0.12692651793E+04  0.14195236802E+04  0.00000000000E+00 0.  1.
<mgrwt>
<rscale>  0 0.25406393E+04</rscale>
<asrwt>0</asrwt>
<pdfrwt beam="1">  1        1 0.17195326E+00 0.25406393E+04</pdfrwt>
<pdfrwt beam="2">  1       -1 0.22212063E+00 0.25406393E+04</pdfrwt>
<totfact> 0.11594074E+00</totfact>
</mgrwt>
</event>
<event>
 6    1  0.1528034E-005  0.9627936E+03  0.7818608E-02  0.9350321E-01
         -1   -1    0    0    0  501 -0.00000000000E+00  0.00000000000E+00  0.17827417594E+03  0.17827417594E+03  0.00000000000E+00 0.  1.
          1   -1    0    0  501    0  0.00000000000E+00 -0.00000000000E+00 -0.12999240141E+04  0.12999240141E+04  0.00000000000E+00 0. -1.
         23    2    1    2    0    0  0.29113453816E+03  0.57509254546E+02 -0.11394538345E+04  0.11809043691E+04  0.90074715713E+02 0.  0.
         11    1    3    3    0    0  0.12187865728E+03  0.61614828806E+02 -0.60734547559E+03  0.62251049867E+03  0.00000000000E+00 0. -1.
        -11    1    3    3    0    0  0.16925588088E+03 -0.41055742594E+01 -0.53210835890E+03  0.55839387046E+03  0.00000000000E+00 0.  1.
         22    1    1    2    0    0 -0.29113453816E+03 -0.57509254546E+02  0.17803996324E+02  0.29729382092E+03  0.00000000000E+00 0.  1.
<mgrwt>
<rscale>  0 0.96279361E+03</rscale>
<asrwt>0</asrwt>
<pdfrwt beam="1">  1        1 0.19998831E+00 0.96279361E+03</pdfrwt>
<pdfrwt beam="2">  1       -1 0.27426797E-01 0.96279361E+03</pdfrwt>
<totfact> 0.10838820E+02</totfact>
</mgrwt>
</event>
<event>
 6    1  0.1528034E-005  0.2496143E+04  0.7818608E-02  0.8404361E-01
          2   -1    0    0  501    0  0.00000000000E+00  0.00000000000E+00  0.24316647509E+04  0.24316647509E+04  0.00000000000E+00 0. -1.
         -2   -1    0    0    0  501 -0.00000000000E+00 -0.00000000000E+00 -0.64058280588E+03  0.64058280588E+03  0.00000000000E+00 0.  1.
         23    2    1    2    0    0 -0.11276043918E+04 -0.14869999932E+03  0.26940716531E+03  0.11724850744E+04  0.92399538170E+02 0.  0.
         13    1    3    3    0    0 -0.69356350511E+03 -0.12795563201E+03  0.13934894978E+03  0.71890271191E+03  0.00000000000E+00 0. -1.
        -13    1    3    3    0    0 -0.43404088674E+03 -0.20744367304E+02  0.13005821553E+03  0.45358236249E+03  0.00000000000E+00 0.  1.
         22    1    1    2    0    0  0.11276043918E+04  0.14869999932E+03  0.15216747797E+04  0.18997624824E+04  0.00000000000E+00 0. -1.
<mgrwt>
<rscale>  0 0.24961431E+04</rscale>
<asrwt>0</asrwt>
<pdfrwt beam="1">  1        2 0.37410226E+00 0.24961431E+04</pdfrwt>
<pdfrwt beam="2">  1       -2 0.98551202E-01 0.24961431E+04</pdfrwt>
<totfact> 0.29076525E+00</totfact>
</mgrwt>
</event>
<event>
 6    1  0.1528034E-005  0.8818895E+03  0.7818608E-02  0.9448508E-01
          1   -1    0    0  501    0  0.00000000000E+00  0.00000000000E+00  0.17220828038E+03  0.17220828038E+03  0.00000000000E+00 0. -1.
         -1   -1    0    0    0  501 -0.00000000000E+00 -0.00000000000E+00 -0.11290530065E+04  0.11290530065E+04  0.00000000000E+00 0.  1.
         23    2    1    2    0    0  0.25404926478E+03 -0.33458068811E+03 -0.65716344439E+03  0.78522433432E+03  0.90709408449E+02 0.  0.
         11    1    3    3    0    0  0.36900097673E+02 -0.40234029540E+02 -0.39519148127E+02  0.67395529599E+02  0.00000000000E+00 0. -1.
        -11    1    3    3    0    0  0.21714916710E+03 -0.29434665857E+03 -0.61764429626E+03  0.71782880472E+03  0.00000000000E+00 0.  1.
         22    1    1    2    0    0 -0.25404926478E+03  0.33458068811E+03 -0.29968128176E+03  0.51603695258E+03  0.00000000000E+00 0. -1.
<mgrwt>
<rscale>  0 0.88188951E+03</rscale>
<asrwt>0</asrwt>
<pdfrwt beam="1">  1        1 0.26493581E-01 0.88188951E+03</pdfrwt>
<pdfrwt beam="2">  1       -1 0.17370047E+00 0.88188951E+03</pdfrwt>
<totfact> 0.42298810E+01</totfact>
</mgrwt>
</event>
<event>
 6    1  0.1528034E-005  0.2782570E+04  0.7818608E-02  0.8308700E-01
         -1   -1    0    0    0  501 -0.00000000000E+00  0.00000000000E+00  0.79005666032E+03  0.79005666032E+03  0.00000000000E+00 0.  1.
          1   -1    0    0  501    0  0.00000000000E+00 -0.00000000000E+00 -0.24500447305E+04  0.24500447305E+04  0.00000000000E+00 0. -1.
         23    2    1    2    0    0 -0.10241170853E+04 -0.88544366519E+03 -0.46449439343E+03  0.14339919202E+04  0.88042587151E+02 0.  0.
         13    1    3    3    0    0 -0.76707001467E+03 -0.67235194757E+03 -0.30999920864E+03  0.10660924248E+04  0.00000000000E+00 0. -1.
        -13    1    3    3    0    0 -0.25704707063E+03 -0.21309171762E+03 -0.15449518480E+03  0.36789949546E+03  0.00000000000E+00 0.  1.
         22    1    1    2    0    0  0.10241170853E+04  0.88544366519E+03 -0.11954936768E+04  0.18061094706E+04  0.00000000000E+00 0. -1.
<mgrwt>
<rscale>  0 0.27825701E+04</rscale>
<asrwt>0</asrwt>
<pdfrwt beam="1">  1        1 0.37692995E+00 0.27825701E+04</pdfrwt>
<pdfrwt beam="2">  1       -1 0.12154718E+00 0.27825701E+04</pdfrwt>
<totfact> 0.76276507E-01</totfact>
</mgrwt>
</event>
<event>
 6    1  0.1528034E-005  0.5821214E+04  0.7818608E-02  0.7712973E-01
         -2   -1    0    0    0  501 -0.00000000000E+00  0.00000000000E+00  0.30082463556E+04  0.30082463556E+04  0.00000000000E+00 0.  1.
          2   -1    0    0  501    0  0.00000000000E+00 -0.00000000000E+00 -0.28161372021E+04  0.28161372021E+04  0.00000000000E+00 0. -1.
         23    2    1    2    0    0 -0.15982054004E+04 -0.14778223225E+04  0.20282412477E+04  0.29766475471E+04  0.91917039609E+02 0.  0.
         13    1    3    3    0    0 -0.36185783305E+03 -0.37185878385E+03  0.52202159820E+03  0.73602078466E+03  0.00000000000E+00 0.  1.
        -13    1    3    3    0    0 -0.12363475674E+04 -0.11059635387E+04  0.15062196495E+04  0.22406267625E+04  0.00000000000E+00 0. -1.
         22    1    1    2    0    0  0.15982054004E+04  0.14778223225E+04 -0.18361320941E+04  0.28477360106E+04  0.00000000000E+00 0. -1.
<mgrwt>
<rscale>  0 0.58212145E+04</rscale>
<asrwt>0</asrwt>
<pdfrwt beam="1">  1        2 0.43325188E+00 0.58212145E+04</pdfrwt>
<pdfrwt beam="2">  1       -2 0.46280713E+00 0.58212145E+04</pdfrwt>
<totfact> 0.44342796E-03</totfact>
</mgrwt>
</event>
<event>
 6    1  0.1528034E-005  0.3595776E+04  0.7818608E-02  0.8091460E-01
          1   -1    0    0  501    0  0.00000000000E+00  0.00000000000E+00  0.28249358515E+04  0.28249358515E+04  0.00000000000E+00 0. -1.
         -1   -1    0    0    0  501 -0.00000000000E+00 -0.00000000000E+00 -0.11442388095E+04  0.11442388095E+04  0.00000000000E+00 0.  1.
         23    2    1    2    0    0 -0.11205762037E+04 -0.11337710885E+04 -0.74054330027E+02  0.15984616275E+04  0.92019679910E+02 0.  0.
         13    1    3    3    0    0 -0.25922349442E+03 -0.30856866711E+03 -0.41958822471E+02  0.40518142253E+03  0.00000000000E+00 0. -1.
        -13    1    3    3    0    0 -0.86135270925E+03 -0.82520242138E+03 -0.32095507557E+02  0.11932802050E+04  0.00000000000E+00 0.  1.
         22    1    1    2    0    0  0.11205762037E+04  0.11337710885E+04  0.17547513721E+04  0.23707130335E+04  0.00000000000E+00 0. -1.
<mgrwt>
<rscale>  0 0.35957760E+04</rscale>
<asrwt>0</asrwt>
<pdfrwt beam="1">  1        1 0.43460552E+00 0.35957760E+04</pdfrwt>
<pdfrwt beam="2">  1       -1 0.17603674E+00 0.35957760E+04</pdfrwt>
<totfact> 0.14384317E-01</totfact>
</mgrwt>
</event>
<event>
 6    1  0.1528034E-005  0.3645960E+04  0.7818608E-02  0.8080044E-01
         -2   -1    0    0    0  501 -0.00000000000E+00  0.00000000000E+00  0.14223909863E+04  0.14223909863E+04  0.00000000000E+00 0.  1.
          2   -1    0    0  501    0  0.00000000000E+00 -0.00000000000E+00 -0.23363873341E+04  0.23363873341E+04  0.00000000000E+00 0. -1.
         23    2    1    2    0    0 -0.11287837193E+04 -0.13731428190E+04 -0.86883223462E+03  0.19806574912E+04  0.91982384276E+02 0.  0.
         13    1    3    3    0    0 -0.75442659917E+03 -0.94823197773E+03 -0.54922751494E+03  0.13303962719E+04  0.00000000000E+00 0. -1.
        -13    1    3    3    0    0 -0.37435712012E+03 -0.42491084131E+03 -0.31960471969E+03  0.65026121927E+03  0.00000000000E+00 0.  1.
         22    1    1    2    0    0  0.11287837193E+04  0.13731428190E+04 -0.45164113207E+02  0.17781208293E+04  0.00000000000E+00 0.  1.
<mgrwt>
<rscale>  0 0.36459601E+04</rscale>
<asrwt>0</asrwt>
<pdfrwt beam="1">  1        2 0.35944420E+00 0.36459601E+04</pdfrwt>
<pdfrwt beam="2">  1       -2 0.21882938E+00 0.36459601E+04</pdfrwt>
<totfact> 0.35288928E-01</totfact>
</mgrwt>
</event>
<event>
 6    1  0.1528034E-005  0.1471181E+04  0.7818608E-02  0.8903846E-01
          1   -1    0    0  501    0  0.00000000000E+00  0.00000000000E+00  0.46398105250E+03  0.46398105250E+03  0.00000000000E+00 0. -1.
         -1   -1    0    0    0  501 -0.00000000000E+00 -0.00000000000E+00 -0.11661978637E+04  0.11661978637E+04  0.00000000000E+00 0.  1.
         23    2    1    2    0    0 -0.30303708092E+03 -0.66443398458E+03 -0.28559113856E+03  0.78941679563E+03  0.91173387194E+02 0.  0.
         11    1    3    3    0    0 -0.21453266947E+03 -0.46289009636E+03 -0.15382992043E+03  0.53287442422E+03  0.00000000000E+00 0.  1.
        -11    1    3    3    0    0 -0.88504411455E+02 -0.20154388822E+03 -0.13176121813E+03  0.25654237141E+03  0.00000000000E+00 0. -1.
         22    1    1    2    0    0  0.30303708092E+03  0.66443398458E+03 -0.41662567263E+03  0.84076212056E+03  0.00000000000E+00 0.  1.
<mgrwt>
<rscale>  0 0.14711814E+04</rscale>
<asrwt>0</asrwt>
<pdfrwt beam="1">  1        1 0.71381702E-01 0.14711814E+04</pdfrwt>
<pdfrwt beam="2">  1       -1 0.17941505E+00 0.14711814E+04</pdfrwt>
<totfact> 0.10005910E+01</totfact>
</mgrwt>
</event>
<event>
 6    1  0.1528034E-005  0.1482220E+04  0.7818608E-02  0.8896363E-01
          2   -1    0    0  501    0  0.00000000000E+00  0.00000000000E+00  0.24786089156E+04  0.24786089156E+04  0.00000000000E+00 0. -1.
         -2   -1    0    0    0  501 -0.00000000000E+00 -0.00000000000E+00 -0.22159356057E+03  0.22159356057E+03  0.00000000000E+00 0.  1.
         23    2    1    2    0    0 -0.52622168277E+03  0.36799593389E+03  0.46635498930E+03  0.79788945982E+03  0.82524828246E+02 0.  0.
         11    1    3    3    0    0 -0.22688154366E+03  0.15612373710E+03  0.15027296714E+03  0.31373845922E+03  0.00000000000E+00 0. -1.
        -11    1    3    3    0    0 -0.29934013911E+03  0.21187219679E+03  0.31608202216E+03  0.48415100061E+03  0.00000000000E+00 0.  1.
         22    1    1    2    0    0  0.52622168277E+03 -0.36799593389E+03  0.17906603657E+04  0.19023130164E+04  0.00000000000E+00 0. -1.
<mgrwt>
<rscale>  0 0.14822197E+04</rscale>
<asrwt>0</asrwt>
<pdfrwt beam="1">  1        2 0.38132443E+00 0.14822197E+04</pdfrwt>
<pdfrwt beam="2">  1       -2 0.34091319E-01 0.14822197E+04</pdfrwt>
<totfact> 0.27994581E+01</totfact>
</mgrwt>
</event>
<event>
 6    1  0.1528034E-005  0.4274258E+04  0.7818608E-02  0.7951395E-01
         -1   -1    0    0    0  501 -0.00000000000E+00  0.00000000000E+00  0.24166969056E+04  0.24166969056E+04  0.00000000000E+00 0.  1.
          1   -1    0    0  501    0  0.00000000000E+00 -0.00000000000E+00 -0.18899020648E+04  0.18899020648E+04  0.00000000000E+00 0. -1.
         23    2    1    2    0    0  0.16396329773E+03 -0.21062518838E+04  0.58221815789E+03  0.21932479098E+04  0.90429249300E+02 0.  0.
         13    1    3    3    0    0  0.44396693227E+02 -0.10448266556E+04  0.31523380401E+03  0.10922482126E+04  0.00000000000E+00 0.  1.
        -13    1    3    3    0    0  0.11956660451E+03 -0.10614252282E+04  0.26698435388E+03  0.11009996972E+04  0.00000000000E+00 0. -1.
         22    1    1    2    0    0 -0.16396329773E+03  0.21062518838E+04 -0.55423317084E+02  0.21133510606E+04  0.00000000000E+00 0. -1.
<mgrwt>
<rscale>  0 0.42742581E+04</rscale>
<asrwt>0</asrwt>
<pdfrwt beam="1">  1        1 0.29075416E+00 0.42742581E+04</pdfrwt>
<pdfrwt beam="2">  1       -1 0.37179952E+00 0.42742581E+04</pdfrwt>
<totfact> 0.30092513E-02</totfact>
</mgrwt>
</event>
<event>
 6    1  0.1528034E-005  0.1931732E+04  0.7818608E-02  0.8639220E-01
          1   -1    0    0  501    0  0.00000000000E+00  0.00000000000E+00  0.38911040259E+04  0.38911040259E+04  0.00000000000E+00 0. -1.
         -1   -1    0    0    0  501 -0.00000000000E+00 -0.00000000000E+00 -0.23975134462E+03  0.23975134462E+03  0.00000000000E+00 0.  1.
         23    2    1    2    0    0 -0.91733264173E+03  0.28654843519E+03  0.16744315241E+04  0.19327137820E+04  0.89735461487E+02 0.  0.
         13    1    3    3    0    0 -0.53641558284E+03  0.19765395573E+03  0.10603368367E+04  0.12046256559E+04  0.00000000000E+00 0.  1.
        -13    1    3    3    0    0 -0.38091705889E+03  0.88894479462E+02  0.61409468741E+03  0.72808812608E+03  0.00000000000E+00 0. -1.
         22    1    1    2    0    0  0.91733264173E+03 -0.28654843519E+03  0.19769211571E+04  0.21981415884E+04  0.00000000000E+00 0. -1.
<mgrwt>
<rscale>  0 0.19317323E+04</rscale>
<asrwt>0</asrwt>
<pdfrwt beam="1">  1        1 0.59863135E+00 0.19317323E+04</pdfrwt>
<pdfrwt beam="2">  1       -1 0.36884825E-01 0.19317323E+04</pdfrwt>
<totfact> 0.79241515E-01</totfact>
</mgrwt>
</event>
<event>
 6    1  0.1528034E-005  0.3141878E+04  0.7818608E-02  0.8204338E-01
          1   -1    0    0  501    0  0.00000000000E+00  0.00000000000E+00  0.15249814243E+04  0.15249814243E+04  0.00000000000E+00 0. -1.
         -1   -1    0    0    0  501 -0.00000000000E+00 -0.00000000000E+00 -0.16182812588E+04  0.16182812588E+04  0.00000000000E+00 0.  1.
         23    2    1    2    0    0 -0.36353883451E+03  0.33556043653E+03 -0.15359412259E+04  0.16181477776E+04  0.12052173984E+03 0.  0.
         13    1    3    3    0    0 -0.98243003368E+02  0.16765720277E+03 -0.63503238535E+03  0.66409845339E+03  0.00000000000E+00 0. -1.
        -13    1    3    3    0    0 -0.26529583114E+03  0.16790323375E+03 -0.90090884060E+03  0.95404932419E+03  0.00000000000E+00 0.  1.
         22    1    1    2    0    0  0.36353883451E+03 -0.33556043653E+03  0.14426413914E+04  0.15251149055E+04  0.00000000000E+00 0. -1.
<mgrwt>
<rscale>  0 0.31418777E+04</rscale>
<asrwt>0</asrwt>
<pdfrwt beam="1">  1        1 0.23461253E+00 0.31418777E+04</pdfrwt>
<pdfrwt beam="2">  1       -1 0.24896635E+00 0.31418777E+04</pdfrwt>
<totfact> 0.37427232E-01</totfact>
</mgrwt>
</event>
<event>
 6    1  0.1528034E-005  0.1960440E+04  0.7818608E-02  0.8625343E-01
          1   -1    0    0  501    0  0.00000000000E+00  0.00000000000E+00  0.12370889980E+04  0.12370889980E+04  0.00000000000E+00 0. -1.
         -1   -1    0    0    0  501 -0.00000000000E+00 -0.00000000000E+00 -0.77668702853E+03  0.77668702853E+03  0.00000000000E+00 0.  1.
         23    2    1    2    0    0  0.26396165540E+03 -0.83343397338E+03  0.68074028685E+03  0.11122013388E+04  0.96418547908E+02 0.  0.
         13    1    3    3    0    0  0.25041329560E+03 -0.66657480111E+03  0.54567097474E+03  0.89709843203E+03  0.00000000000E+00 0.  1.
        -13    1    3    3    0    0  0.13548359799E+02 -0.16685917227E+03  0.13506931211E+03  0.21510290677E+03  0.00000000000E+00 0. -1.
         22    1    1    2    0    0 -0.26396165540E+03  0.83343397338E+03 -0.22033831736E+03  0.90157468776E+03  0.00000000000E+00 0.  1.
<mgrwt>
<rscale>  0 0.19604397E+04</rscale>
<asrwt>0</asrwt>
<pdfrwt beam="1">  1        1 0.19032138E+00 0.19604397E+04</pdfrwt>
<pdfrwt beam="2">  1       -1 0.11949031E+00 0.19604397E+04</pdfrwt>
<totfact> 0.58471391E+00</totfact>
</mgrwt>
</event>
<event>
 6    1  0.1528034E-005  0.5076049E+04  0.7818608E-02  0.7816882E-01
          2   -1    0    0  501    0  0.00000000000E+00  0.00000000000E+00  0.18682242592E+04  0.18682242592E+04  0.00000000000E+00 0. -1.
         -2   -1    0    0    0  501 -0.00000000000E+00 -0.00000000000E+00 -0.34479632511E+04  0.34479632511E+04  0.00000000000E+00 0.  1.
         23    2    1    2    0    0 -0.11575636219E+04 -0.19944101511E+04 -0.18984495116E+04  0.29882696026E+04  0.89550431886E+02 0.  0.
         13    1    3    3    0    0 -0.97513527719E+03 -0.16565172070E+04 -0.15411082187E+04  0.24637273809E+04  0.00000000000E+00 0. -1.
        -13    1    3    3    0    0 -0.18242834473E+03 -0.33789294417E+03 -0.35734129290E+03  0.52454222165E+03  0.00000000000E+00 0.  1.
         22    1    1    2    0    0  0.11575636219E+04  0.19944101511E+04  0.31871051972E+03  0.23279179077E+04  0.00000000000E+00 0.  1.
<mgrwt>
<rscale>  0 0.50760491E+04</rscale>
<asrwt>0</asrwt>
<pdfrwt beam="1">  1        2 0.28741912E+00 0.50760491E+04</pdfrwt>
<pdfrwt beam="2">  1       -2 0.53045588E+00 0.50760491E+04</pdfrwt>
<totfact> 0.62871864E-03</totfact>
</mgrwt>
</event>
<event>
 6    1  0.1528034E-005  0.4004457E+04  0.7818608E-02  0.8003648E-01
          2   -1    0    0  501    0  0.00000000000E+00  0.00000000000E+00  0.31504247743E+04  0.31504247743E+04  0.00000000000E+00 0. -1.
         -2   -1    0    0    0  501 -0.00000000000E+00 -0.00000000000E+00 -0.12725008183E+04  0.12725008183E+04  0.00000000000E+00 0.  1.
         23    2    1    2    0    0 -0.32113982126E+03 -0.77667957341E+03 -0.10664554863E+04  0.13609438414E+04  0.92080890898E+02 0.  0.
         13    1    3    3    0    0 -0.11920636128E+03 -0.21475990941E+03 -0.26236165549E+03  0.35939617907E+03  0.00000000000E+00 0. -1.
        -13    1    3    3    0    0 -0.20193345998E+03 -0.56191966401E+03 -0.80409383083E+03  0.10015476623E+04  0.00000000000E+00 0.  1.
         22    1    1    2    0    0  0.32113982126E+03  0.77667957341E+03  0.29443794423E+04  0.30619817512E+04  0.00000000000E+00 0. -1.
<mgrwt>
<rscale>  0 0.40044566E+04</rscale>
<asrwt>0</asrwt>
<pdfrwt beam="1">  1        2 0.48468073E+00 0.40044566E+04</pdfrwt>
<pdfrwt beam="2">  1       -2 0.19576936E+00 0.40044566E+04</pdfrwt>
<totfact> 0.15607387E-01</totfact>
</mgrwt>
</event>
<event>
 6    1  0.1528034E-005  0.3543365E+04  0.7818608E-02  0.8103589E-01
          2   -1    0    0  501    0  0.00000000000E+00  0.00000000000E+00  0.24818296295E+04  0.24818296295E+04  0.00000000000E+00 0.  1.
         -2   -1    0    0    0  501 -0.00000000000E+00 -0.00000000000E+00 -0.12647357004E+04  0.12647357004E+04  0.00000000000E+00 0. -1.
         23    2    1    2    0    0  0.15533121474E+04 -0.31951110988E+02  0.15051991358E+04  0.21664374518E+04  0.11843687553E+03 0.  0.
         11    1    3    3    0    0  0.65378931412E+03  0.29356000693E+02  0.68876577870E+03  0.95010554147E+03  0.00000000000E+00 0. -1.
        -11    1    3    3    0    0  0.89952283331E+03 -0.61307111681E+02  0.81643335707E+03  0.12163319103E+04  0.00000000000E+00 0.  1.
         22    1    1    2    0    0 -0.15533121474E+04  0.31951110988E+02 -0.28810520668E+03  0.15801278780E+04  0.00000000000E+00 0. -1.
<mgrwt>
<rscale>  0 0.35433648E+04</rscale>
<asrwt>0</asrwt>
<pdfrwt beam="1">  1        2 0.38181994E+00 0.35433648E+04</pdfrwt>
<pdfrwt beam="2">  1       -2 0.19457472E+00 0.35433648E+04</pdfrwt>
<totfact> 0.42182148E-01</totfact>
</mgrwt>
</event>
<event>
 6    1  0.1528034E-005  0.5383312E+04  0.7818608E-02  0.7771953E-01
          2   -1    0    0  501    0  0.00000000000E+00  0.00000000000E+00  0.44443143287E+04  0.44443143287E+04  0.00000000000E+00 0. -1.
         -2   -1    0    0    0  501 -0.00000000000E+00 -0.00000000000E+00 -0.16301756243E+04  0.16301756243E+04  0.00000000000E+00 0.  1.
         23    2    1    2    0    0  0.22952810236E+04  0.12795412618E+04  0.75404711722E+03  0.27354005313E+04  0.91039517072E+02 0.  0.
         13    1    3    3    0    0  0.47897749923E+03  0.24250013357E+03  0.18521375355E+03  0.56791715422E+03  0.00000000000E+00 0. -1.
        -13    1    3    3    0    0  0.18163035244E+04  0.10370411282E+04  0.56883336367E+03  0.21674833771E+04  0.00000000000E+00 0.  1.
         22    1    1    2    0    0 -0.22952810236E+04 -0.12795412618E+04  0.20600915872E+04  0.33390894216E+04  0.00000000000E+00 0. -1.
<mgrwt>
<rscale>  0 0.53833123E+04</rscale>
<asrwt>0</asrwt>
<pdfrwt beam="1">  1        2 0.68374066E+00 0.53833123E+04</pdfrwt>
<pdfrwt beam="2">  1       -2 0.25079625E+00 0.53833123E+04</pdfrwt>
<totfact> 0.61920370E-03</totfact>
</mgrwt>
</event>
<event>
 6    1  0.1528034E-005  0.1503851E+04  0.7818608E-02  0.8881896E-01
         -1   -1    0    0    0  501 -0.00000000000E+00  0.00000000000E+00  0.32807924432E+03  0.32807924432E+03  0.00000000000E+00 0.  1.
          1   -1    0    0  501    0  0.00000000000E+00 -0.00000000000E+00 -0.17233385447E+04  0.17233385447E+04  0.00000000000E+00 0. -1.
         23    2    1    2    0    0 -0.58380202792E+03 -0.13575138683E+03 -0.13129220201E+04  0.14464114465E+04  0.95334121325E+02 0.  0.
         13    1    3    3    0    0 -0.12006304394E+03 -0.60847725045E+02 -0.35081057310E+03  0.37574677425E+03  0.00000000000E+00 0. -1.
        -13    1    3    3    0    0 -0.46373898398E+03 -0.74903661783E+02 -0.96211144704E+03  0.10706646722E+04  0.00000000000E+00 0.  1.
         22    1    1    2    0    0  0.58380202792E+03  0.13575138683E+03 -0.82337280269E+02  0.60500634257E+03  0.00000000000E+00 0.  1.
<mgrwt>
<rscale>  0 0.15038505E+04</rscale>
<asrwt>0</asrwt>
<pdfrwt beam="1">  1        1 0.26512900E+00 0.15038505E+04</pdfrwt>
<pdfrwt beam="2">  1       -1 0.50473730E-01 0.15038505E+04</pdfrwt>
<totfact> 0.17517121E+01</totfact>
</mgrwt>
</event>
<event>
 6    1  0.1528034E-005  0.2202539E+04  0.7818608E-02  0.8517372E-01
          2   -1    0    0  501    0  0.00000000000E+00  0.00000000000E+00  0.18123927763E+04  0.18123927763E+04  0.00000000000E+00 0. -1.
         -2   -1    0    0    0  501 -0.00000000000E+00 -0.00000000000E+00 -0.66916736286E+03  0.66916736286E+03  0.00000000000E+00 0.  1.
         23    2    1    2    0    0  0.79266865895E+03  0.21989907974E+03 -0.24915786800E+03  0.86433708386E+03  0.91212626326E+02 0.  0.
         11    1    3    3    0    0  0.17435753739E+03  0.33380617705E+02 -0.90693744182E+02  0.19934937100E+03  0.00000000000E+00 0. -1.
        -11    1    3    3    0    0  0.61831112156E+03  0.18651846203E+03 -0.15846412382E+03  0.66498771287E+03  0.00000000000E+00 0.  1.
         22    1    1    2    0    0 -0.79266865895E+03 -0.21989907974E+03  0.13923832814E+04  0.16172230553E+04  0.00000000000E+00 0. -1.
<mgrwt>
<rscale>  0 0.22025386E+04</rscale>
<asrwt>0</asrwt>
<pdfrwt beam="1">  1        2 0.27882966E+00 0.22025386E+04</pdfrwt>
<pdfrwt beam="2">  1       -2 0.10294883E+00 0.22025386E+04</pdfrwt>
<totfact> 0.59817955E+00</totfact>
</mgrwt>
</event>
<event>
 6    1  0.1528034E-005  0.2197986E+04  0.7818608E-02  0.8519267E-01
         -2   -1    0    0    0  501 -0.00000000000E+00  0.00000000000E+00  0.64674702694E+03  0.64674702694E+03  0.00000000000E+00 0. -1.
          2   -1    0    0  501    0  0.00000000000E+00 -0.00000000000E+00 -0.18674779646E+04  0.18674779646E+04  0.00000000000E+00 0.  1.
         23    2    1    2    0    0 -0.20276058855E+03 -0.11874619306E+03 -0.18372450616E+04  0.18544506515E+04  0.91133352173E+02 0.  0.
         11    1    3    3    0    0 -0.20031673464E+02 -0.43916711363E+02 -0.22237931683E+03  0.22755769825E+03  0.00000000000E+00 0. -1.
        -11    1    3    3    0    0 -0.18272891508E+03 -0.74829481701E+02 -0.16148657448E+04  0.16268929533E+04  0.00000000000E+00 0.  1.
         22    1    1    2    0    0  0.20276058855E+03  0.11874619306E+03  0.61651412399E+03  0.65977433999E+03  0.00000000000E+00 0. -1.
<mgrwt>
<rscale>  0 0.21979862E+04</rscale>
<asrwt>0</asrwt>
<pdfrwt beam="1">  1        2 0.28730430E+00 0.21979862E+04</pdfrwt>
<pdfrwt beam="2">  1       -2 0.99499544E-01 0.21979862E+04</pdfrwt>
<totfact> 0.60487928E+00</totfact>
</mgrwt>
</event>
<event>
 6    1  0.1528034E-005  0.2575350E+04  0.7818608E-02  0.8376623E-01
         -2   -1    0    0    0  501 -0.00000000000E+00  0.00000000000E+00  0.55070749876E+03  0.55070749876E+03  0.00000000000E+00 0.  1.
          2   -1    0    0  501    0  0.00000000000E+00 -0.00000000000E+00 -0.30108658816E+04  0.30108658816E+04  0.00000000000E+00 0. -1.
         23    2    1    2    0    0  0.63184487667E+03 -0.12449552663E+03 -0.27710841552E+04  0.28464496706E+04  0.92958311288E+02 0.  0.
         13    1    3    3    0    0  0.92467770536E+02  0.12248920376E+02 -0.34668731345E+03  0.35901590208E+03  0.00000000000E+00 0. -1.
        -13    1    3    3    0    0  0.53937710614E+03 -0.13674444701E+03 -0.24243968418E+04  0.24874337685E+04  0.00000000000E+00 0.  1.
         22    1    1    2    0    0 -0.63184487667E+03  0.12449552663E+03  0.31092577237E+03  0.71512370976E+03  0.00000000000E+00 0.  1.
<mgrwt>
<rscale>  0 0.25753496E+04</rscale>
<asrwt>0</asrwt>
<pdfrwt beam="1">  1        2 0.46321013E+00 0.25753496E+04</pdfrwt>
<pdfrwt beam="2">  1       -2 0.84724231E-01 0.25753496E+04</pdfrwt>
<totfact> 0.18441154E+00</totfact>
</mgrwt>
</event>
<event>
 6    1  0.1528034E-005  0.3518463E+04  0.7818608E-02  0.8109428E-01
          2   -1    0    0  501    0  0.00000000000E+00  0.00000000000E+00  0.29378222561E+04  0.29378222561E+04  0.00000000000E+00 0. -1.
         -2   -1    0    0    0  501 -0.00000000000E+00 -0.00000000000E+00 -0.10534658795E+04  0.10534658795E+04  0.00000000000E+00 0.  1.
         23    2    1    2    0    0  0.16619680699E+04 -0.19852233760E+03  0.33312216641E+03  0.17092108892E+04  0.94247027039E+02 0.  0.
         13    1    3    3    0    0  0.15040429251E+04 -0.19359224434E+03  0.27702955017E+03  0.15415474204E+04  0.00000000000E+00 0. -1.
        -13    1    3    3    0    0  0.15792514479E+03 -0.49300932637E+01  0.56092616238E+02  0.16766346881E+03  0.00000000000E+00 0.  1.
         22    1    1    2    0    0 -0.16619680699E+04  0.19852233760E+03  0.15512342102E+04  0.22820772464E+04  0.00000000000E+00 0. -1.
<mgrwt>
<rscale>  0 0.35184630E+04</rscale>
<asrwt>0</asrwt>
<pdfrwt beam="1">  1        2 0.45197265E+00 0.35184630E+04</pdfrwt>
<pdfrwt beam="2">  1       -2 0.16207167E+00 0.35184630E+04</pdfrwt>
<totfact> 0.37963470E-01</totfact>
</mgrwt>
</event>
<event>
 6    1  0.1528034E-005  0.1726439E+04  0.7818608E-02  0.8746427E-01
         -1   -1    0    0    0  501 -0.00000000000E+00  0.00000000000E+00  0.69571587313E+03  0.69571587313E+03  0.00000000000E+00 0.  1.
          1   -1    0    0  501    0  0.00000000000E+00 -0.00000000000E+00 -0.10710515617E+04  0.10710515617E+04  0.00000000000E+00 0. -1.
         23    2    1    2    0    0  0.82053999938E+03 -0.25296475217E+03 -0.25386383609E+03  0.89956937942E+03  0.86609264416E+02 0.  0.
         11    1    3    3    0    0  0.73021633413E+03 -0.23267084740E+03 -0.25273820352E+03  0.80698712343E+03  0.00000000000E+00 0. -1.
        -11    1    3    3    0    0  0.90323665248E+02 -0.20293904770E+02 -0.11256325725E+01  0.92582255985E+02  0.00000000000E+00 0.  1.
         22    1    1    2    0    0 -0.82053999938E+03  0.25296475217E+03 -0.12147185250E+03  0.86719805545E+03  0.00000000000E+00 0.  1.
<mgrwt>
<rscale>  0 0.17264386E+04</rscale>
<asrwt>0</asrwt>
<pdfrwt beam="1">  1        1 0.16477716E+00 0.17264386E+04</pdfrwt>
<pdfrwt beam="2">  1       -1 0.10703321E+00 0.17264386E+04</pdfrwt>
<totfact> 0.10308854E+01</totfact>
</mgrwt>
</event>
<event>
 6    1  0.1528034E-005  0.3620262E+03  0.7818608E-02  0.1057784E+00
         -2   -1    0    0    0  501 -0.00000000000E+00  0.00000000000E+00  0.76003007477E+02  0.76003007477E+02  0.00000000000E+00 0.  1.
          2   -1    0    0  501    0  0.00000000000E+00 -0.00000000000E+00 -0.43111112584E+03  0.43111112584E+03  0.00000000000E+00 0. -1.
         23    2    1    2    0    0 -0.95219769205E+02 -0.51608119652E+02 -0.76808652694E+01  0.14319669948E+03  0.93360037425E+02 0.  0.
         11    1    3    3    0    0 -0.57343817989E+02 -0.67817498766E+02 -0.33109092415E+02  0.94782585959E+02  0.00000000000E+00 0.  1.
        -11    1    3    3    0    0 -0.37875951216E+02  0.16209379115E+02  0.25428227146E+02  0.48414113516E+02  0.00000000000E+00 0. -1.
         22    1    1    2    0    0  0.95219769205E+02  0.51608119652E+02 -0.34742725309E+03  0.36391743384E+03  0.00000000000E+00 0. -1.
<mgrwt>
<rscale>  0 0.36202620E+03</rscale>
<asrwt>0</asrwt>
<pdfrwt beam="1">  1        2 0.66324789E-01 0.36202620E+03</pdfrwt>
<pdfrwt beam="2">  1       -2 0.11692770E-01 0.36202620E+03</pdfrwt>
<totfact> 0.38064193E+03</totfact>
</mgrwt>
</event>
<event>
 6    1  0.1528034E-005  0.3243121E+04  0.7818608E-02  0.8177521E-01
          2   -1    0    0  501    0  0.00000000000E+00  0.00000000000E+00  0.78122828191E+03  0.78122828191E+03  0.00000000000E+00 0. -1.
         -2   -1    0    0    0  501 -0.00000000000E+00 -0.00000000000E+00 -0.33658003529E+04  0.33658003529E+04  0.00000000000E+00 0.  1.
         23    2    1    2    0    0 -0.14187719955E+04  0.75444267533E+03 -0.10274517489E+04  0.19094582062E+04  0.90971529215E+02 0.  0.
         13    1    3    3    0    0 -0.69664639522E+03  0.32490414602E+03 -0.51601022020E+03  0.92582150084E+03  0.00000000000E+00 0.  1.
        -13    1    3    3    0    0 -0.72212560032E+03  0.42953852931E+03 -0.51144152873E+03  0.98363670535E+03  0.00000000000E+00 0. -1.
         22    1    1    2    0    0  0.14187719955E+04 -0.75444267533E+03 -0.15571203221E+04  0.22375704287E+04  0.00000000000E+00 0.  1.
<mgrwt>
<rscale>  0 0.32431210E+04</rscale>
<asrwt>0</asrwt>
<pdfrwt beam="1">  1        2 0.12018896E+00 0.32431210E+04</pdfrwt>
<pdfrwt beam="2">  1       -2 0.51781545E+00 0.32431210E+04</pdfrwt>
<totfact> 0.38253710E-02</totfact>
</mgrwt>
</event>
<event>
 6    1  0.1528034E-005  0.1530090E+04  0.7818608E-02  0.8864686E-01
         -1   -1    0    0    0  501 -0.00000000000E+00  0.00000000000E+00  0.35946060556E+03  0.35946060556E+03  0.00000000000E+00 0.  1.
          1   -1    0    0  501    0  0.00000000000E+00 -0.00000000000E+00 -0.16282562417E+04  0.16282562417E+04  0.00000000000E+00 0. -1.
         23    2    1    2    0    0  0.90777637078E+02  0.46375139640E+03 -0.14138565592E+04  0.14934005432E+04  0.89156465336E+02 0.  0.
         13    1    3    3    0    0  0.37508947609E+02  0.21896641272E+03 -0.52872300700E+03  0.57349911001E+03  0.00000000000E+00 0. -1.
        -13    1    3    3    0    0  0.53268689469E+02  0.24478498368E+03 -0.88513355220E+03  0.91990143317E+03  0.00000000000E+00 0.  1.
         22    1    1    2    0    0 -0.90777637078E+02 -0.46375139640E+03  0.14506092308E+03  0.49431630407E+03  0.00000000000E+00 0.  1.
<mgrwt>
<rscale>  0 0.15300902E+04</rscale>
<asrwt>0</asrwt>
<pdfrwt beam="1">  1        1 0.25050097E+00 0.15300902E+04</pdfrwt>
<pdfrwt beam="2">  1       -1 0.55301630E-01 0.15300902E+04</pdfrwt>
<totfact> 0.17022821E+01</totfact>
</mgrwt>
</event>
<event>
 6    1  0.1528034E-005  0.1148790E+04  0.7818608E-02  0.9158901E-01
          1   -1    0    0  501    0  0.00000000000E+00  0.00000000000E+00  0.55055748254E+03  0.55055748254E+03  0.00000000000E+00 0. -1.
         -1   -1    0    0    0  501 -0.00000000000E+00 -0.00000000000E+00 -0.59926437795E+03  0.59926437795E+03  0.00000000000E+00 0.  1.
         23    2    1    2    0    0  0.22497181483E+03 -0.40919145235E+03  0.30371572252E+03  0.56479907139E+03  0.93299457669E+02 0.  0.
         13    1    3    3    0    0  0.92292149211E+01 -0.65976680841E+02  0.71003694025E+02  0.97363367794E+02  0.00000000000E+00 0. -1.
        -13    1    3    3    0    0  0.21574259991E+03 -0.34321477151E+03  0.23271202849E+03  0.46743570360E+03  0.00000000000E+00 0.  1.
         22    1    1    2    0    0 -0.22497181483E+03  0.40919145235E+03 -0.35242261792E+03  0.58502278910E+03  0.00000000000E+00 0.  1.
<mgrwt>
<rscale>  0 0.11487898E+04</rscale>
<asrwt>0</asrwt>
<pdfrwt beam="1">  1        1 0.84701151E-01 0.11487898E+04</pdfrwt>
<pdfrwt beam="2">  1       -1 0.92194520E-01 0.11487898E+04</pdfrwt>
<totfact> 0.44080963E+01</totfact>
</mgrwt>
</event>
<event>
 6    1  0.1528034E-005  0.2088679E+04  0.7818608E-02  0.8566247E-01
         -2   -1    0    0    0  501 -0.00000000000E+00  0.00000000000E+00  0.62932709983E+03  0.62932709983E+03  0.00000000000E+00 0.  1.
          2   -1    0    0  501    0  0.00000000000E+00 -0.00000000000E+00 -0.17330334599E+04  0.17330334599E+04  0.00000000000E+00 0. -1.
         23    2    1    2    0    0  0.42444187268E+03 -0.60342160824E+03  0.27977236833E+03  0.79446964117E+03  0.92956398827E+02 0.  0.
         13    1    3    3    0    0  0.14922396876E+03 -0.29111373809E+03  0.13172178746E+03  0.35265511573E+03  0.00000000000E+00 0. -1.
        -13    1    3    3    0    0  0.27521790391E+03 -0.31230787015E+03  0.14805058087E+03  0.44181452544E+03  0.00000000000E+00 0.  1.
         22    1    1    2    0    0 -0.42444187268E+03  0.60342160824E+03 -0.13834787284E+04  0.15678909186E+04  0.00000000000E+00 0. -1.
<mgrwt>
<rscale>  0 0.20886789E+04</rscale>
<asrwt>0</asrwt>
<pdfrwt beam="1">  1        2 0.26662053E+00 0.20886789E+04</pdfrwt>
<pdfrwt beam="2">  1       -2 0.96819556E-01 0.20886789E+04</pdfrwt>
<totfact> 0.77300558E+00</totfact>
</mgrwt>
</event>
<event>
 6    1  0.1528034E-005  0.2251177E+04  0.7818608E-02  0.8497424E-01
         -2   -1    0    0    0  501 -0.00000000000E+00  0.00000000000E+00  0.71802921224E+03  0.71802921224E+03  0.00000000000E+00 0.  1.
          2   -1    0    0  501    0  0.00000000000E+00 -0.00000000000E+00 -0.17644814135E+04  0.17644814135E+04  0.00000000000E+00 0. -1.
         23    2    1    2    0    0  0.75866726056E+03 -0.77150730647E+03 -0.18945922016E+03  0.11022075772E+04  0.90372622735E+02 0.  0.
         11    1    3    3    0    0  0.46516793709E+03 -0.51079434209E+03 -0.85729474220E+02  0.69616205897E+03  0.00000000000E+00 0. -1.
        -11    1    3    3    0    0  0.29349932347E+03 -0.26071296438E+03 -0.10372974594E+03  0.40604551822E+03  0.00000000000E+00 0.  1.
         22    1    1    2    0    0 -0.75866726056E+03  0.77150730647E+03 -0.85699298112E+03  0.13803030486E+04  0.00000000000E+00 0. -1.
<mgrwt>
<rscale>  0 0.22511768E+04</rscale>
<asrwt>0</asrwt>
<pdfrwt beam="1">  1        2 0.27145868E+00 0.22511768E+04</pdfrwt>
<pdfrwt beam="2">  1       -2 0.11046603E+00 0.22511768E+04</pdfrwt>
<totfact> 0.53453516E+00</totfact>
</mgrwt>
</event>
<event>
 6    1  0.1528034E-005  0.1850518E+04  0.7818608E-02  0.8679887E-01
          2   -1    0    0  501    0  0.00000000000E+00  0.00000000000E+00  0.17135916615E+04  0.17135916615E+04  0.00000000000E+00 0. -1.
         -2   -1    0    0    0  501 -0.00000000000E+00 -0.00000000000E+00 -0.49959618025E+03  0.49959618025E+03  0.00000000000E+00 0.  1.
         23    2    1    2    0    0  0.75325688698E+03 -0.16258824899E+03  0.12161731239E+04  0.14425805366E+04  0.90170177089E+02 0.  0.
         11    1    3    3    0    0  0.94573809250E+02 -0.36361615851E+02  0.21296405940E+03  0.23583906186E+03  0.00000000000E+00 0.  1.
        -11    1    3    3    0    0  0.65868307773E+03 -0.12622663314E+03  0.10032090645E+04  0.12067414748E+04  0.00000000000E+00 0. -1.
         22    1    1    2    0    0 -0.75325688698E+03  0.16258824899E+03 -0.21776427271E+01  0.77060730506E+03  0.00000000000E+00 0.  1.
<mgrwt>
<rscale>  0 0.18505176E+04</rscale>
<asrwt>0</asrwt>
<pdfrwt beam="1">  1        2 0.26362948E+00 0.18505176E+04</pdfrwt>
<pdfrwt beam="2">  1       -2 0.76860952E-01 0.18505176E+04</pdfrwt>
<totfact> 0.13700775E+01</totfact>
</mgrwt>
</event>
<event>
 6    1  0.1528034E-005  0.2974657E+04  0.7818608E-02  0.8251005E-01
         -2   -1    0    0    0  501 -0.00000000000E+00  0.00000000000E+00  0.11770924344E+04  0.11770924344E+04  0.00000000000E+00 0.  1.
          2   -1    0    0  501    0  0.00000000000E+00 -0.00000000000E+00 -0.18793304886E+04  0.18793304886E+04  0.00000000000E+00 0. -1.
         23    2    1    2    0    0  0.12308064402E+04  0.46048277087E+02 -0.12055724375E+04  0.17258777572E+04  0.90797542246E+02 0.  0.
         13    1    3    3    0    0  0.41021185939E+03  0.18423635076E+02 -0.46268253523E+03  0.61861807953E+03  0.00000000000E+00 0. -1.
        -13    1    3    3    0    0  0.82059458079E+03  0.27624642011E+02 -0.74288990224E+03  0.11072596776E+04  0.00000000000E+00 0.  1.
         22    1    1    2    0    0 -0.12308064402E+04 -0.46048277087E+02  0.50333438326E+03  0.13305451659E+04  0.00000000000E+00 0.  1.
<mgrwt>
<rscale>  0 0.29746568E+04</rscale>
<asrwt>0</asrwt>
<pdfrwt beam="1">  1        2 0.28912777E+00 0.29746568E+04</pdfrwt>
<pdfrwt beam="2">  1       -2 0.18109115E+00 0.29746568E+04</pdfrwt>
<totfact> 0.11920129E+00</totfact>
</mgrwt>
</event>
<event>
 6    1  0.1528034E-005  0.1575734E+04  0.7818608E-02  0.8835596E-01
         -2   -1    0    0    0  501 -0.00000000000E+00  0.00000000000E+00  0.40098065800E+03  0.40098065800E+03  0.00000000000E+00 0. -1.
          2   -1    0    0  501    0  0.00000000000E+00 -0.00000000000E+00 -0.15480402142E+04  0.15480402142E+04  0.00000000000E+00 0.  1.
         23    2    1    2    0    0 -0.63950735078E+03 -0.23714829750E+03 -0.10567732897E+04  0.12610088253E+04  0.90357651185E+02 0.  0.
         13    1    3    3    0    0 -0.16448340533E+03 -0.10233499373E+03 -0.27610014142E+03  0.33728108406E+03  0.00000000000E+00 0. -1.
        -13    1    3    3    0    0 -0.47502394545E+03 -0.13481330376E+03 -0.78067314824E+03  0.92372774128E+03  0.00000000000E+00 0.  1.
         22    1    1    2    0    0  0.63950735078E+03  0.23714829750E+03 -0.90286266544E+02  0.68801204686E+03  0.00000000000E+00 0. -1.
<mgrwt>
<rscale>  0 0.15757337E+04</rscale>
<asrwt>0</asrwt>
<pdfrwt beam="1">  1        2 0.23816003E+00 0.15757337E+04</pdfrwt>
<pdfrwt beam="2">  1       -2 0.61689333E-01 0.15757337E+04</pdfrwt>
<totfact> 0.27972403E+01</totfact>
</mgrwt>
</event>
<event>
 6    1  0.1528034E-005  0.1007676E+04  0.7818608E-02  0.9300165E-01
          1   -1    0    0  501    0  0.00000000000E+00  0.00000000000E+00  0.69950386618E+03  0.69950386618E+03  0.00000000000E+00 0. -1.
         -1   -1    0    0    0  501 -0.00000000000E+00 -0.00000000000E+00 -0.36290429832E+03  0.36290429832E+03  0.00000000000E+00 0.  1.
         23    2    1    2    0    0 -0.65544269832E+02  0.42464924145E+03  0.43825608444E+03  0.62086872466E+03  0.93736589102E+02 0.  0.
         11    1    3    3    0    0 -0.10895869343E+02  0.23753659573E+03  0.18497245394E+03  0.30125929528E+03  0.00000000000E+00 0. -1.
        -11    1    3    3    0    0 -0.54648400488E+02  0.18711264573E+03  0.25328363050E+03  0.31960942937E+03  0.00000000000E+00 0.  1.
         22    1    1    2    0    0  0.65544269832E+02 -0.42464924145E+03 -0.10165651658E+03  0.44153943984E+03  0.00000000000E+00 0.  1.
<mgrwt>
<rscale>  0 0.10076765E+04</rscale>
<asrwt>0</asrwt>
<pdfrwt beam="1">  1        1 0.10761598E+00 0.10076765E+04</pdfrwt>
<pdfrwt beam="2">  1       -1 0.55831431E-01 0.10076765E+04</pdfrwt>
<totfact> 0.88689494E+01</totfact>
</mgrwt>
</event>
<event>
 6    1  0.1528034E-005  0.1113347E+04  0.7818608E-02  0.9192280E-01
         -2   -1    0    0    0  501 -0.00000000000E+00  0.00000000000E+00  0.31749753254E+03  0.31749753254E+03  0.00000000000E+00 0. -1.
          2   -1    0    0  501    0  0.00000000000E+00 -0.00000000000E+00 -0.97602473302E+03  0.97602473302E+03  0.00000000000E+00 0.  1.
         23    2    1    2    0    0 -0.49553403624E+03  0.24515514538E+03 -0.33540476970E+03  0.65316054618E+03  0.92018004631E+02 0.  0.
         13    1    3    3    0    0 -0.20351300943E+03  0.69843946804E+02 -0.89353463150E+02  0.23298017789E+03  0.00000000000E+00 0. -1.
        -13    1    3    3    0    0 -0.29202102680E+03  0.17531119857E+03 -0.24605130655E+03  0.42018036829E+03  0.00000000000E+00 0.  1.
         22    1    1    2    0    0  0.49553403624E+03 -0.24515514538E+03 -0.32312243078E+03  0.64036171938E+03  0.00000000000E+00 0.  1.
<mgrwt>
<rscale>  0 0.11133471E+04</rscale>
<asrwt>0</asrwt>
<pdfrwt beam="1">  1        2 0.15015765E+00 0.11133471E+04</pdfrwt>
<pdfrwt beam="2">  1       -2 0.48845774E-01 0.11133471E+04</pdfrwt>
<totfact> 0.10275940E+02</totfact>
</mgrwt>
</event>
<event>
 6    1  0.1528034E-005  0.1669216E+04  0.7818608E-02  0.8779119E-01
         -1   -1    0    0    0  501 -0.00000000000E+00  0.00000000000E+00  0.12989969762E+04  0.12989969762E+04  0.00000000000E+00 0.  1.
          1   -1    0    0  501    0  0.00000000000E+00 -0.00000000000E+00 -0.53623719927E+03  0.53623719927E+03  0.00000000000E+00 0. -1.
         23    2    1    2    0    0  0.44895170139E+03 -0.32324997907E+03 -0.30088805097E+03  0.63632013312E+03  0.91222329781E+02 0.  0.
         11    1    3    3    0    0  0.24735062248E+03 -0.12196669967E+03 -0.15054764529E+03  0.31420184559E+03  0.00000000000E+00 0.  1.
        -11    1    3    3    0    0  0.20160107891E+03 -0.20128327940E+03 -0.15034040569E+03  0.32211828753E+03  0.00000000000E+00 0. -1.
         22    1    1    2    0    0 -0.44895170139E+03  0.32324997907E+03  0.10636478279E+04  0.11989140424E+04  0.00000000000E+00 0.  1.
<mgrwt>
<rscale>  0 0.16692160E+04</rscale>
<asrwt>0</asrwt>
<pdfrwt beam="1">  1        1 0.82498031E-01 0.16692160E+04</pdfrwt>
<pdfrwt beam="2">  1       -1 0.19984569E+00 0.16692160E+04</pdfrwt>
<totfact> 0.57858109E+00</totfact>
</mgrwt>
</event>
<event>
 6    1  0.1528034E-005  0.2148855E+04  0.7818608E-02  0.8540023E-01
         -2   -1    0    0    0  501 -0.00000000000E+00  0.00000000000E+00  0.55561131399E+03  0.55561131399E+03  0.00000000000E+00 0.  1.
          2   -1    0    0  501    0  0.00000000000E+00 -0.00000000000E+00 -0.20777010381E+04  0.20777010381E+04  0.00000000000E+00 0. -1.
         23    2    1    2    0    0 -0.36942862035E+03 -0.36021035601E+03  0.38978977382E+03  0.65303150819E+03  0.91022397189E+02 0.  0.
         11    1    3    3    0    0 -0.63433658813E+02 -0.93076730729E+02  0.12444412095E+03  0.16784947457E+03  0.00000000000E+00 0. -1.
        -11    1    3    3    0    0 -0.30599496154E+03 -0.26713362529E+03  0.26534565287E+03  0.48518203362E+03  0.00000000000E+00 0.  1.
         22    1    1    2    0    0  0.36942862035E+03  0.36021035601E+03 -0.19118794980E+04  0.19802808439E+04  0.00000000000E+00 0. -1.
<mgrwt>
<rscale>  0 0.21488548E+04</rscale>
<asrwt>0</asrwt>
<pdfrwt beam="1">  1        2 0.31964631E+00 0.21488548E+04</pdfrwt>
<pdfrwt beam="2">  1       -2 0.85478665E-01 0.21488548E+04</pdfrwt>
<totfact> 0.66018629E+00</totfact>
</mgrwt>
</event>
<event>
 6    1  0.1528034E-005  0.4814057E+04  0.7818608E-02  0.7857849E-01
         -2   -1    0    0    0  501 -0.00000000000E+00  0.00000000000E+00  0.18183653221E+04  0.18183653221E+04  0.00000000000E+00 0.  1.
          2   -1    0    0  501    0  0.00000000000E+00 -0.00000000000E+00 -0.31862608758E+04  0.31862608758E+04  0.00000000000E+00 0. -1.
         23    2    1    2    0    0  0.21325193738E+04 -0.36726594317E+02 -0.18420798919E+04  0.28197146416E+04  0.92437054877E+02 0.  0.
         11    1    3    3    0    0  0.10203436254E+04 -0.12016291827E+02 -0.94191544575E+03  0.13886865061E+04  0.00000000000E+00 0.  1.
        -11    1    3    3    0    0  0.11121757484E+04 -0.24710302490E+02 -0.90016444615E+03  0.14310281355E+04  0.00000000000E+00 0. -1.
         22    1    1    2    0    0 -0.21325193738E+04  0.36726594317E+02  0.47418433814E+03  0.21849115563E+04  0.00000000000E+00 0.  1.
<mgrwt>
<rscale>  0 0.48140570E+04</rscale>
<asrwt>0</asrwt>
<pdfrwt beam="1">  1        2 0.49019398E+00 0.48140570E+04</pdfrwt>
<pdfrwt beam="2">  1       -2 0.27974851E+00 0.48140570E+04</pdfrwt>
<totfact> 0.41296362E-02</totfact>
</mgrwt>
</event>
<event>
 6    1  0.1528034E-005  0.2211635E+04  0.7818608E-02  0.8513601E-01
         -2   -1    0    0    0  501 -0.00000000000E+00  0.00000000000E+00  0.80295582749E+03  0.80295582749E+03  0.00000000000E+00 0.  1.
          2   -1    0    0  501    0  0.00000000000E+00 -0.00000000000E+00 -0.15229132924E+04  0.15229132924E+04  0.00000000000E+00 0. -1.
         23    2    1    2    0    0 -0.78634258418E+03 -0.71378564346E+03 -0.43696599621E+02  0.10668403821E+04  0.91730058552E+02 0.  0.
         11    1    3    3    0    0 -0.36561376174E+03 -0.27193565996E+03 -0.92310503987E+01  0.45574953453E+03  0.00000000000E+00 0.  1.
        -11    1    3    3    0    0 -0.42072882244E+03 -0.44184998350E+03 -0.34465549222E+02  0.61109084761E+03  0.00000000000E+00 0. -1.
         22    1    1    2    0    0  0.78634258418E+03  0.71378564346E+03 -0.67626086525E+03  0.12590287377E+04  0.00000000000E+00 0. -1.
<mgrwt>
<rscale>  0 0.22116348E+04</rscale>
<asrwt>0</asrwt>
<pdfrwt beam="1">  1        2 0.23429435E+00 0.22116348E+04</pdfrwt>
<pdfrwt beam="2">  1       -2 0.12353167E+00 0.22116348E+04</pdfrwt>
<totfact> 0.55580921E+00</totfact>
</mgrwt>
</event>
<event>
 6    1  0.1528034E-005  0.1730681E+04  0.7818608E-02  0.8744057E-01
         -2   -1    0    0    0  501 -0.00000000000E+00  0.00000000000E+00  0.46158041802E+03  0.46158041802E+03  0.00000000000E+00 0.  1.
          2   -1    0    0  501    0  0.00000000000E+00 -0.00000000000E+00 -0.16222826918E+04  0.16222826918E+04  0.00000000000E+00 0. -1.
         23    2    1    2    0    0  0.22407465242E+03 -0.41625702820E+03 -0.14512366322E+04  0.15289851262E+04  0.90710474065E+02 0.  0.
         13    1    3    3    0    0  0.15989476178E+03 -0.31155095384E+03 -0.11874805084E+04  0.12380388885E+04  0.00000000000E+00 0.  1.
        -13    1    3    3    0    0  0.64179890640E+02 -0.10470607436E+03 -0.26375612383E+03  0.29094623769E+03  0.00000000000E+00 0. -1.
         22    1    1    2    0    0 -0.22407465242E+03  0.41625702820E+03  0.29053435837E+03  0.55487798368E+03  0.00000000000E+00 0.  1.
<mgrwt>
<rscale>  0 0.17306807E+04</rscale>
<asrwt>0</asrwt>
<pdfrwt beam="1">  1        2 0.24958196E+00 0.17306807E+04</pdfrwt>
<pdfrwt beam="2">  1       -2 0.71012370E-01 0.17306807E+04</pdfrwt>
<totfact> 0.18528212E+01</totfact>
</mgrwt>
</event>
<event>
 6    1  0.1528034E-005  0.1039129E+04  0.7818608E-02  0.9266641E-01
          1   -1    0    0  501    0  0.00000000000E+00  0.00000000000E+00  0.10439057192E+04  0.10439057192E+04  0.00000000000E+00 0. -1.
         -1   -1    0    0    0  501 -0.00000000000E+00 -0.00000000000E+00 -0.25859333024E+03  0.25859333024E+03  0.00000000000E+00 0.  1.
         23    2    1    2    0    0 -0.54765916324E+02 -0.12836313189E+02  0.10380454013E+04  0.10435819738E+04  0.91438526682E+02 0.  0.
         13    1    3    3    0    0 -0.74501152608E+02  0.11896509373E+02  0.69660818291E+03  0.70068174600E+03  0.00000000000E+00 0.  1.
        -13    1    3    3    0    0  0.19735236284E+02 -0.24732822562E+02  0.34143721844E+03  0.34290022776E+03  0.00000000000E+00 0. -1.
         22    1    1    2    0    0  0.54765916324E+02  0.12836313189E+02 -0.25273301239E+03  0.25891707568E+03  0.00000000000E+00 0.  1.
<mgrwt>
<rscale>  0 0.10391286E+04</rscale>
<asrwt>0</asrwt>
<pdfrwt beam="1">  1        1 0.16060088E+00 0.10391286E+04</pdfrwt>
<pdfrwt beam="2">  1       -1 0.39783590E-01 0.10391286E+04</pdfrwt>
<totfact> 0.86009037E+01</totfact>
</mgrwt>
</event>
<event>
 6    1  0.1528034E-005  0.5602411E+04  0.7818608E-02  0.7741752E-01
          2   -1    0    0  501    0  0.00000000000E+00  0.00000000000E+00  0.32671209759E+04  0.32671209759E+04  0.00000000000E+00 0.  1.
         -2   -1    0    0    0  501 -0.00000000000E+00 -0.00000000000E+00 -0.24017331552E+04  0.24017331552E+04  0.00000000000E+00 0. -1.
         23    2    1    2    0    0  0.23515227478E+04  0.94005790648E+03  0.16424384803E+04  0.30198588823E+04  0.92603490076E+02 0.  0.
         11    1    3    3    0    0  0.76125141795E+03  0.26882667017E+03  0.49036935520E+03  0.94458117938E+03  0.00000000000E+00 0. -1.
        -11    1    3    3    0    0  0.15902713298E+04  0.67123123630E+03  0.11520691251E+04  0.20752777029E+04  0.00000000000E+00 0.  1.
         22    1    1    2    0    0 -0.23515227478E+04 -0.94005790648E+03 -0.77705065956E+03  0.26489952488E+04  0.00000000000E+00 0.  1.
<mgrwt>
<rscale>  0 0.56024112E+04</rscale>
<asrwt>0</asrwt>
<pdfrwt beam="1">  1        2 0.50263400E+00 0.56024112E+04</pdfrwt>
<pdfrwt beam="2">  1       -2 0.36949741E+00 0.56024112E+04</pdfrwt>
<totfact> 0.95031700E-03</totfact>
</mgrwt>
</event>
<event>
 6    1  0.1528034E-005  0.2372758E+04  0.7818608E-02  0.8449773E-01
         -1   -1    0    0    0  501 -0.00000000000E+00  0.00000000000E+00  0.74472551585E+03  0.74472551585E+03  0.00000000000E+00 0.  1.
          1   -1    0    0  501    0  0.00000000000E+00 -0.00000000000E+00 -0.18899518436E+04  0.18899518436E+04  0.00000000000E+00 0. -1.
         23    2    1    2    0    0 -0.77686515332E+03 -0.42031688156E+03  0.30344857535E+03  0.93796149572E+03  0.86631300325E+02 0.  0.
         11    1    3    3    0    0 -0.12777418391E+03 -0.61801306531E+02  0.82743461618E+02  0.16429279961E+03  0.00000000000E+00 0. -1.
        -11    1    3    3    0    0 -0.64909096942E+03 -0.35851557502E+03  0.22070511374E+03  0.77366869611E+03  0.00000000000E+00 0.  1.
         22    1    1    2    0    0  0.77686515332E+03  0.42031688156E+03 -0.14486749031E+04  0.16967158637E+04  0.00000000000E+00 0. -1.
<mgrwt>
<rscale>  0 0.23727582E+04</rscale>
<asrwt>0</asrwt>
<pdfrwt beam="1">  1        1 0.29076182E+00 0.23727582E+04</pdfrwt>
<pdfrwt beam="2">  1       -1 0.11457316E+00 0.23727582E+04</pdfrwt>
<totfact> 0.22013797E+00</totfact>
</mgrwt>
</event>
<event>
 6    1  0.1528034E-005  0.1212067E+04  0.7818608E-02  0.9102360E-01
          1   -1    0    0  501    0  0.00000000000E+00  0.00000000000E+00  0.44513076029E+03  0.44513076029E+03  0.00000000000E+00 0. -1.
         -1   -1    0    0    0  501 -0.00000000000E+00 -0.00000000000E+00 -0.82509789677E+03  0.82509789677E+03  0.00000000000E+00 0.  1.
         23    2    1    2    0    0  0.54599797043E+02 -0.36084403772E+03  0.31142082273E+03  0.48843145348E+03  0.91612218199E+02 0.  0.
         11    1    3    3    0    0  0.44357332407E+02 -0.10679912694E+03  0.14095215699E+03  0.18232152098E+03  0.00000000000E+00 0.  1.
        -11    1    3    3    0    0  0.10242464637E+02 -0.25404491077E+03  0.17046866574E+03  0.30610993250E+03  0.00000000000E+00 0. -1.
         22    1    1    2    0    0 -0.54599797043E+02  0.36084403772E+03 -0.69138795921E+03  0.78179720358E+03  0.00000000000E+00 0.  1.
<mgrwt>
<rscale>  0 0.12120668E+04</rscale>
<asrwt>0</asrwt>
<pdfrwt beam="1">  1        1 0.68481656E-01 0.12120668E+04</pdfrwt>
<pdfrwt beam="2">  1       -1 0.12693814E+00 0.12120668E+04</pdfrwt>
<totfact> 0.27681223E+01</totfact>
</mgrwt>
</event>
<event>
 6    1  0.1528034E-005  0.3567750E+04  0.7818608E-02  0.8097919E-01
         -2   -1    0    0    0  501 -0.00000000000E+00  0.00000000000E+00  0.16753852616E+04  0.16753852616E+04  0.00000000000E+00 0. -1.
          2   -1    0    0  501    0  0.00000000000E+00 -0.00000000000E+00 -0.18993899689E+04  0.18993899689E+04  0.00000000000E+00 0.  1.
         23    2    1    2    0    0  0.11021532829E+04  0.12811914896E+04 -0.68066035918E+03  0.18241388100E+04  0.89388933476E+02 0.  0.
         11    1    3    3    0    0  0.55996651719E+03  0.60483031674E+03 -0.36739519519E+03  0.90241977033E+03  0.00000000000E+00 0. -1.
        -11    1    3    3    0    0  0.54218676570E+03  0.67636117290E+03 -0.31326516399E+03  0.92171903966E+03  0.00000000000E+00 0.  1.
         22    1    1    2    0    0 -0.11021532829E+04 -0.12811914896E+04  0.45665565190E+03  0.17506364204E+04  0.00000000000E+00 0.  1.
<mgrwt>
<rscale>  0 0.35677500E+04</rscale>
<asrwt>0</asrwt>
<pdfrwt beam="1">  1        2 0.29221384E+00 0.35677500E+04</pdfrwt>
<pdfrwt beam="2">  1       -2 0.25775158E+00 0.35677500E+04</pdfrwt>
<totfact> 0.35765858E-01</totfact>
</mgrwt>
</event>
<event>
 6    1  0.1528034E-005  0.5891711E+03  0.7818608E-02  0.9928131E-01
         -3   -1    0    0    0  501 -0.00000000000E+00  0.00000000000E+00  0.65545384424E+03  0.65545384424E+03  0.00000000000E+00 0.  1.
          3   -1    0    0  501    0  0.00000000000E+00 -0.00000000000E+00 -0.13239781540E+03  0.13239781540E+03  0.00000000000E+00 0. -1.
         23    2    1    2    0    0  0.83772520218E+01  0.11023448588E+03 -0.91081413775E+02  0.16384315116E+03  0.79542026742E+02 0.  0.
         11    1    3    3    0    0 -0.25365549250E+02  0.62404465309E+01 -0.24622422956E+02  0.35897325442E+02  0.00000000000E+00 0.  1.
        -11    1    3    3    0    0  0.33742801272E+02  0.10399403935E+03 -0.66458990819E+02  0.12794582572E+03  0.00000000000E+00 0. -1.
         22    1    1    2    0    0 -0.83772520218E+01 -0.11023448588E+03  0.61413744261E+03  0.62400850848E+03  0.00000000000E+00 0.  1.
<mgrwt>
<rscale>  0 0.58917114E+03</rscale>
<asrwt>0</asrwt>
<pdfrwt beam="1">  1        3 0.20368895E-01 0.58917114E+03</pdfrwt>
<pdfrwt beam="2">  1       -3 0.10083905E+00 0.58917114E+03</pdfrwt>
<totfact> 0.50011837E+01</totfact>
</mgrwt>
</event>
<event>
 6    1  0.1528034E-005  0.1810859E+04  0.7818608E-02  0.8700546E-01
         -2   -1    0    0    0  501 -0.00000000000E+00  0.00000000000E+00  0.57127031966E+03  0.57127031966E+03  0.00000000000E+00 0.  1.
          2   -1    0    0  501    0  0.00000000000E+00 -0.00000000000E+00 -0.14350515455E+04  0.14350515455E+04  0.00000000000E+00 0. -1.
         23    2    1    2    0    0  0.26174347052E+03 -0.38980872944E+03 -0.12866013501E+04  0.13744695506E+04  0.11559853671E+03 0.  0.
         11    1    3    3    0    0  0.17933376538E+03 -0.25933367881E+03 -0.69686259910E+03  0.76487387091E+03  0.00000000000E+00 0.  1.
        -11    1    3    3    0    0  0.82409705138E+02 -0.13047505063E+03 -0.58973875096E+03  0.60959567971E+03  0.00000000000E+00 0. -1.
         22    1    1    2    0    0 -0.26174347052E+03  0.38980872944E+03  0.42282012423E+03  0.63185231452E+03  0.00000000000E+00 0.  1.
<mgrwt>
<rscale>  0 0.18108588E+04</rscale>
<asrwt>0</asrwt>
<pdfrwt beam="1">  1        2 0.22077716E+00 0.18108588E+04</pdfrwt>
<pdfrwt beam="2">  1       -2 0.87887741E-01 0.18108588E+04</pdfrwt>
<totfact> 0.14549977E+01</totfact>
</mgrwt>
</event>
<event>
 6    1  0.1528034E-005  0.3131981E+04  0.7818608E-02  0.8207015E-01
          1   -1    0    0  501    0  0.00000000000E+00  0.00000000000E+00  0.20075114495E+04  0.20075114495E+04  0.00000000000E+00 0. -1.
         -1   -1    0    0    0  501 -0.00000000000E+00 -0.00000000000E+00 -0.12215753232E+04  0.12215753232E+04  0.00000000000E+00 0.  1.
         23    2    1    2    0    0  0.51217679815E+02  0.68694259469E+03 -0.10551318048E+04  0.12633694720E+04  0.91027018977E+02 0.  0.
         13    1    3    3    0    0  0.62256810241E+02  0.61389644102E+03 -0.89588182883E+03  0.10878184600E+04  0.00000000000E+00 0. -1.
        -13    1    3    3    0    0 -0.11039130426E+02  0.73046153668E+02 -0.15924997598E+03  0.17555101200E+03  0.00000000000E+00 0.  1.
         22    1    1    2    0    0 -0.51217679815E+02 -0.68694259469E+03  0.18410679311E+04  0.19657173007E+04  0.00000000000E+00 0. -1.
<mgrwt>
<rscale>  0 0.31319811E+04</rscale>
<asrwt>0</asrwt>
<pdfrwt beam="1">  1        1 0.30884792E+00 0.31319811E+04</pdfrwt>
<pdfrwt beam="2">  1       -1 0.18793466E+00 0.31319811E+04</pdfrwt>
<totfact> 0.45286346E-01</totfact>
</mgrwt>
</event>
<event>
 6    1  0.1528034E-005  0.4165147E+04  0.7818608E-02  0.7972035E-01
          1   -1    0    0  501    0  0.00000000000E+00  0.00000000000E+00  0.87237162336E+03  0.87237162336E+03  0.00000000000E+00 0. -1.
         -1   -1    0    0    0  501 -0.00000000000E+00 -0.00000000000E+00 -0.49716327809E+04  0.49716327809E+04  0.00000000000E+00 0.  1.
         23    2    1    2    0    0 -0.15651045517E+04  0.85485048512E+03 -0.35569909868E+04  0.39800359100E+04  0.90439787194E+02 0.  0.
         11    1    3    3    0    0 -0.46055910398E+03  0.25417975133E+03 -0.95927870676E+03  0.10940464668E+04  0.00000000000E+00 0.  1.
        -11    1    3    3    0    0 -0.11045454477E+04  0.60067073379E+03 -0.25977122800E+04  0.28859894432E+04  0.00000000000E+00 0. -1.
         22    1    1    2    0    0  0.15651045517E+04 -0.85485048512E+03 -0.54227017077E+03  0.18639684943E+04  0.00000000000E+00 0. -1.
<mgrwt>
<rscale>  0 0.41651465E+04</rscale>
<asrwt>0</asrwt>
<pdfrwt beam="1">  1        1 0.13421102E+00 0.41651465E+04</pdfrwt>
<pdfrwt beam="2">  1       -1 0.76486657E+00 0.41651465E+04</pdfrwt>
<totfact> 0.16112122E-03</totfact>
</mgrwt>
</event>
<event>
 6    1  0.1528034E-005  0.2046726E+04  0.7818608E-02  0.8585081E-01
         -2   -1    0    0    0  501 -0.00000000000E+00  0.00000000000E+00  0.51547955654E+03  0.51547955654E+03  0.00000000000E+00 0.  1.
          2   -1    0    0  501    0  0.00000000000E+00 -0.00000000000E+00 -0.20316457436E+04  0.20316457436E+04  0.00000000000E+00 0. -1.
         23    2    1    2    0    0  0.96148515179E+03 -0.11064375416E+03 -0.35340067200E+03  0.10342738929E+04  0.90192644059E+02 0.  0.
         11    1    3    3    0    0  0.61494225833E+03 -0.11322451941E+03 -0.21750128308E+03  0.66202762859E+03  0.00000000000E+00 0.  1.
        -11    1    3    3    0    0  0.34654289346E+03  0.25807652483E+01 -0.13589938892E+03  0.37224626427E+03  0.00000000000E+00 0. -1.
         22    1    1    2    0    0 -0.96148515179E+03  0.11064375416E+03 -0.11627655150E+04  0.15128514072E+04  0.00000000000E+00 0.  1.
<mgrwt>
<rscale>  0 0.20467260E+04</rscale>
<asrwt>0</asrwt>
<pdfrwt beam="1">  1        2 0.31256089E+00 0.20467260E+04</pdfrwt>
<pdfrwt beam="2">  1       -2 0.79304545E-01 0.20467260E+04</pdfrwt>
<totfact> 0.83699406E+00</totfact>
</mgrwt>
</event>
<event>
 6    1  0.1528034E-005  0.2889021E+04  0.7818608E-02  0.8276152E-01
          1   -1    0    0  501    0  0.00000000000E+00  0.00000000000E+00  0.21866625961E+04  0.21866625961E+04  0.00000000000E+00 0. -1.
         -1   -1    0    0    0  501 -0.00000000000E+00 -0.00000000000E+00 -0.95424412984E+03  0.95424412984E+03  0.00000000000E+00 0.  1.
         23    2    1    2    0    0  0.88017773905E+03 -0.45064130495E+03 -0.52435305340E+03  0.11249611388E+04  0.11314150932E+03 0.  0.
         11    1    3    3    0    0  0.34647988287E+03 -0.13534773626E+03 -0.15189253553E+03  0.40179430222E+03  0.00000000000E+00 0. -1.
        -11    1    3    3    0    0  0.53369785618E+03 -0.31529356869E+03 -0.37246051787E+03  0.72316683657E+03  0.00000000000E+00 0.  1.
         22    1    1    2    0    0 -0.88017773905E+03  0.45064130495E+03  0.17567715197E+04  0.20159455871E+04  0.00000000000E+00 0. -1.
<mgrwt>
<rscale>  0 0.28890206E+04</rscale>
<asrwt>0</asrwt>
<pdfrwt beam="1">  1        1 0.33640963E+00 0.28890206E+04</pdfrwt>
<pdfrwt beam="2">  1       -1 0.14680679E+00 0.28890206E+04</pdfrwt>
<totfact> 0.70643177E-01</totfact>
</mgrwt>
</event>
<event>
 6    1  0.1528034E-005  0.1777858E+04  0.7818608E-02  0.8718164E-01
         -1   -1    0    0    0  501 -0.00000000000E+00  0.00000000000E+00  0.48413217372E+03  0.48413217372E+03  0.00000000000E+00 0.  1.
          1   -1    0    0  501    0  0.00000000000E+00 -0.00000000000E+00 -0.16321883836E+04  0.16321883836E+04  0.00000000000E+00 0. -1.
         23    2    1    2    0    0 -0.20953864897E+03 -0.90803767826E+02 -0.15953066865E+04  0.16141405513E+04  0.91074286597E+02 0.  0.
         13    1    3    3    0    0 -0.18119525759E+03 -0.10955469584E+03 -0.13924163149E+04  0.14084236390E+04  0.00000000000E+00 0. -1.
        -13    1    3    3    0    0 -0.28343391386E+02  0.18750928019E+02 -0.20289037158E+03  0.20571691233E+03  0.00000000000E+00 0.  1.
         22    1    1    2    0    0  0.20953864897E+03  0.90803767826E+02  0.44725047659E+03  0.50218000605E+03  0.00000000000E+00 0.  1.
<mgrwt>
<rscale>  0 0.17778582E+04</rscale>
<asrwt>0</asrwt>
<pdfrwt beam="1">  1        1 0.25110591E+00 0.17778582E+04</pdfrwt>
<pdfrwt beam="2">  1       -1 0.74481873E-01 0.17778582E+04</pdfrwt>
<totfact> 0.90944093E+00</totfact>
</mgrwt>
</event>
<event>
 6    1  0.1528034E-005  0.2684174E+04  0.7818608E-02  0.8340158E-01
          2   -1    0    0  501    0  0.00000000000E+00  0.00000000000E+00  0.29500214544E+04  0.29500214544E+04  0.00000000000E+00 0.  1.
         -2   -1    0    0    0  501 -0.00000000000E+00 -0.00000000000E+00 -0.61057094599E+03  0.61057094599E+03  0.00000000000E+00 0. -1.
         23    2    1    2    0    0  0.53333980905E+03 -0.77999456947E+03  0.24324443005E+04  0.26111237460E+04  0.91318463804E+02 0.  0.
         13    1    3    3    0    0  0.13684490414E+03 -0.13691196340E+03  0.52024820669E+03  0.55509423531E+03  0.00000000000E+00 0.  1.
        -13    1    3    3    0    0  0.39649490492E+03 -0.64308260607E+03  0.19121960938E+04  0.20560295107E+04  0.00000000000E+00 0. -1.
         22    1    1    2    0    0 -0.53333980905E+03  0.77999456947E+03 -0.92993792029E+02  0.94946865440E+03  0.00000000000E+00 0. -1.
<mgrwt>
<rscale>  0 0.26841739E+04</rscale>
<asrwt>0</asrwt>
<pdfrwt beam="1">  1        2 0.45384945E+00 0.26841739E+04</pdfrwt>
<pdfrwt beam="2">  1       -2 0.93933994E-01 0.26841739E+04</pdfrwt>
<totfact> 0.15721642E+00</totfact>
</mgrwt>
</event>
<event>
 6    1  0.1528034E-005  0.2223935E+04  0.7818608E-02  0.8508531E-01
          2   -1    0    0  501    0  0.00000000000E+00  0.00000000000E+00  0.30455209026E+04  0.30455209026E+04  0.00000000000E+00 0.  1.
         -2   -1    0    0    0  501 -0.00000000000E+00 -0.00000000000E+00 -0.40599694392E+03  0.40599694392E+03  0.00000000000E+00 0. -1.
         23    2    1    2    0    0  0.57952815922E+03  0.90955287294E+03  0.91400266397E+03  0.14166804932E+04  0.91888160714E+02 0.  0.
         11    1    3    3    0    0  0.34072238436E+03  0.48587155346E+03  0.45312940715E+03  0.74665197334E+03  0.00000000000E+00 0.  1.
        -11    1    3    3    0    0  0.23880577486E+03  0.42368131948E+03  0.46087325682E+03  0.67002851987E+03  0.00000000000E+00 0. -1.
         22    1    1    2    0    0 -0.57952815922E+03 -0.90955287294E+03  0.17255212948E+04  0.20348373534E+04  0.00000000000E+00 0.  1.
<mgrwt>
<rscale>  0 0.22239354E+04</rscale>
<asrwt>0</asrwt>
<pdfrwt beam="1">  1        2 0.46854166E+00 0.22239354E+04</pdfrwt>
<pdfrwt beam="2">  1       -2 0.62461070E-01 0.22239354E+04</pdfrwt>
<totfact> 0.35398916E+00</totfact>
</mgrwt>
</event>
<event>
 6    1  0.1528034E-005  0.3807665E+04  0.7818608E-02  0.8044512E-01
         -2   -1    0    0    0  501 -0.00000000000E+00  0.00000000000E+00  0.20684584419E+04  0.20684584419E+04  0.00000000000E+00 0.  1.
          2   -1    0    0  501    0  0.00000000000E+00 -0.00000000000E+00 -0.17523091214E+04  0.17523091214E+04  0.00000000000E+00 0. -1.
         23    2    1    2    0    0  0.18655385729E+04  0.29569738894E+03 -0.73983177929E+02  0.18920699511E+04  0.82365503361E+02 0.  0.
         11    1    3    3    0    0  0.66095647265E+03  0.11693667541E+03 -0.63882239628E+02  0.67425409553E+03  0.00000000000E+00 0. -1.
        -11    1    3    3    0    0  0.12045821003E+04  0.17876071353E+03 -0.10100938301E+02  0.12178158555E+04  0.00000000000E+00 0.  1.
         22    1    1    2    0    0 -0.18655385729E+04 -0.29569738894E+03  0.39013249847E+03  0.19286976122E+04  0.00000000000E+00 0.  1.
<mgrwt>
<rscale>  0 0.38076652E+04</rscale>
<asrwt>0</asrwt>
<pdfrwt beam="1">  1        2 0.26958602E+00 0.38076652E+04</pdfrwt>
<pdfrwt beam="2">  1       -2 0.31822438E+00 0.38076652E+04</pdfrwt>
<totfact> 0.18044917E-01</totfact>
</mgrwt>
</event>
<event>
 6    1  0.1528034E-005  0.1711524E+04  0.7818608E-02  0.8754819E-01
          1   -1    0    0  501    0  0.00000000000E+00  0.00000000000E+00  0.12384199483E+04  0.12384199483E+04  0.00000000000E+00 0. -1.
         -1   -1    0    0    0  501 -0.00000000000E+00 -0.00000000000E+00 -0.59134121169E+03  0.59134121169E+03  0.00000000000E+00 0.  1.
         23    2    1    2    0    0 -0.36947506442E+03  0.67379774075E+03  0.72077190470E+03  0.10577858354E+04  0.94252407974E+02 0.  0.
         13    1    3    3    0    0 -0.25983148587E+03  0.50127386692E+03  0.47287299524E+03  0.73647590615E+03  0.00000000000E+00 0.  1.
        -13    1    3    3    0    0 -0.10964357855E+03  0.17252387383E+03  0.24789890946E+03  0.32130992930E+03  0.00000000000E+00 0. -1.
         22    1    1    2    0    0  0.36947506442E+03 -0.67379774075E+03 -0.73693168091E+02  0.77197532453E+03  0.00000000000E+00 0.  1.
<mgrwt>
<rscale>  0 0.17115242E+04</rscale>
<asrwt>0</asrwt>
<pdfrwt beam="1">  1        1 0.19052615E+00 0.17115242E+04</pdfrwt>
<pdfrwt beam="2">  1       -1 0.90975571E-01 0.17115242E+04</pdfrwt>
<totfact> 0.11234616E+01</totfact>
</mgrwt>
</event>
<event>
 6    1  0.1528034E-005  0.9270202E+03  0.7818608E-02  0.9392421E-01
         -1   -1    0    0    0  501 -0.00000000000E+00  0.00000000000E+00  0.27775544267E+03  0.27775544267E+03  0.00000000000E+00 0. -1.
          1   -1    0    0  501    0  0.00000000000E+00 -0.00000000000E+00 -0.77349207799E+03  0.77349207799E+03  0.00000000000E+00 0.  1.
         23    2    1    2    0    0 -0.41615429973E+03 -0.11619992848E+03 -0.42693059466E+03  0.61373055436E+03  0.87798839040E+02 0.  0.
         11    1    3    3    0    0 -0.14658985793E+03 -0.18636436803E+01 -0.16670697154E+03  0.22199836480E+03  0.00000000000E+00 0. -1.
        -11    1    3    3    0    0 -0.26956444181E+03 -0.11433628480E+03 -0.26022362311E+03  0.39173218956E+03  0.00000000000E+00 0.  1.
         22    1    1    2    0    0  0.41615429973E+03  0.11619992848E+03 -0.68806040659E+02  0.43751696630E+03  0.00000000000E+00 0.  1.
<mgrwt>
<rscale>  0 0.92702025E+03</rscale>
<asrwt>0</asrwt>
<pdfrwt beam="1">  1        1 0.11899878E+00 0.92702025E+03</pdfrwt>
<pdfrwt beam="2">  1       -1 0.42731607E-01 0.92702025E+03</pdfrwt>
<totfact> 0.12653368E+02</totfact>
</mgrwt>
</event>
<event>
 6    1  0.1528034E-005  0.3050505E+04  0.7818608E-02  0.8229454E-01
         -2   -1    0    0    0  501 -0.00000000000E+00  0.00000000000E+00  0.19614804495E+04  0.19614804495E+04  0.00000000000E+00 0.  1.
          2   -1    0    0  501    0  0.00000000000E+00 -0.00000000000E+00 -0.11860403788E+04  0.11860403788E+04  0.00000000000E+00 0. -1.
         23    2    1    2    0    0  0.55295120856E+03 -0.11743707217E+04 -0.43569120767E+03  0.13722066013E+04  0.90677986189E+02 0.  0.
         11    1    3    3    0    0  0.43049040603E+03 -0.87944616091E+03 -0.36619863498E+03  0.10453941744E+04  0.00000000000E+00 0.  1.
        -11    1    3    3    0    0  0.12246080253E+03 -0.29492456077E+03 -0.69492572686E+02  0.32681242688E+03  0.00000000000E+00 0. -1.
         22    1    1    2    0    0 -0.55295120856E+03  0.11743707217E+04  0.12111312784E+04  0.17753142270E+04  0.00000000000E+00 0.  1.
<mgrwt>
<rscale>  0 0.30505049E+04</rscale>
<asrwt>0</asrwt>
<pdfrwt beam="1">  1        2 0.18246775E+00 0.30505049E+04</pdfrwt>
<pdfrwt beam="2">  1       -2 0.30176622E+00 0.30505049E+04</pdfrwt>
<totfact> 0.51027340E-01</totfact>
</mgrwt>
</event>
<event>
 6    1  0.1528034E-005  0.2438683E+04  0.7818608E-02  0.8425162E-01
          1   -1    0    0  501    0  0.00000000000E+00  0.00000000000E+00  0.22387652831E+04  0.22387652831E+04  0.00000000000E+00 0. -1.
         -1   -1    0    0    0  501 -0.00000000000E+00 -0.00000000000E+00 -0.66411337427E+03  0.66411337427E+03  0.00000000000E+00 0.  1.
         23    2    1    2    0    0  0.65969290431E+03  0.41041556428E+03 -0.32770281994E+03  0.84798469965E+03  0.89739897697E+02 0.  0.
         11    1    3    3    0    0  0.33083938289E+03  0.21499497959E+03 -0.11844860336E+03  0.41195583521E+03  0.00000000000E+00 0.  1.
        -11    1    3    3    0    0  0.32885352142E+03  0.19542058469E+03 -0.20925421659E+03  0.43602886444E+03  0.00000000000E+00 0. -1.
         22    1    1    2    0    0 -0.65969290431E+03 -0.41041556428E+03  0.19023547288E+04  0.20548939578E+04  0.00000000000E+00 0. -1.
<mgrwt>
<rscale>  0 0.24386832E+04</rscale>
<asrwt>0</asrwt>
<pdfrwt beam="1">  1        1 0.34442542E+00 0.24386832E+04</pdfrwt>
<pdfrwt beam="2">  1       -1 0.10217129E+00 0.24386832E+04</pdfrwt>
<totfact> 0.16601696E+00</totfact>
</mgrwt>
</event>
<event>
 6    1  0.1528034E-005  0.5649331E+03  0.7818608E-02  0.9980954E-01
         -1   -1    0    0    0  501 -0.00000000000E+00  0.00000000000E+00  0.29665837234E+03  0.29665837234E+03  0.00000000000E+00 0.  1.
          1   -1    0    0  501    0  0.00000000000E+00 -0.00000000000E+00 -0.26895362907E+03  0.26895362907E+03  0.00000000000E+00 0. -1.
         23    2    1    2    0    0  0.21881277215E+03 -0.15999219958E+03  0.61508700522E+02  0.29244677539E+03  0.90913491918E+02 0.  0.
         11    1    3    3    0    0  0.97522798990E+02 -0.20313819198E+02  0.83237827886E+01  0.99963157879E+02  0.00000000000E+00 0. -1.
        -11    1    3    3    0    0  0.12128997316E+03 -0.13967838038E+03  0.53184917734E+02  0.19248361751E+03  0.00000000000E+00 0.  1.
         22    1    1    2    0    0 -0.21881277215E+03  0.15999219958E+03 -0.33803957246E+02  0.27316522602E+03  0.00000000000E+00 0. -1.
<mgrwt>
<rscale>  0 0.56493308E+03</rscale>
<asrwt>0</asrwt>
<pdfrwt beam="1">  1        1 0.41377481E-01 0.56493308E+03</pdfrwt>
<pdfrwt beam="2">  1       -1 0.45639750E-01 0.56493308E+03</pdfrwt>
<totfact> 0.48776239E+02</totfact>
</mgrwt>
</event>
<event>
 6    1  0.1528034E-005  0.2194065E+04  0.7818608E-02  0.8520902E-01
         -2   -1    0    0    0  501 -0.00000000000E+00  0.00000000000E+00  0.59378201559E+03  0.59378201559E+03  0.00000000000E+00 0.  1.
          2   -1    0    0  501    0  0.00000000000E+00 -0.00000000000E+00 -0.20268050138E+04  0.20268050138E+04  0.00000000000E+00 0. -1.
         23    2    1    2    0    0 -0.34138808279E+03 -0.95219699318E+03 -0.12189354031E+04  0.15866342088E+04  0.91540475526E+02 0.  0.
         13    1    3    3    0    0 -0.10714958326E+03 -0.29984937880E+03 -0.45198966890E+03  0.55288818395E+03  0.00000000000E+00 0.  1.
        -13    1    3    3    0    0 -0.23423849953E+03 -0.65234761438E+03 -0.76694573417E+03  0.10337460248E+04  0.00000000000E+00 0. -1.
         22    1    1    2    0    0  0.34138808279E+03  0.95219699318E+03 -0.21408759514E+03  0.10339528206E+04  0.00000000000E+00 0.  1.
<mgrwt>
<rscale>  0 0.21940651E+04</rscale>
<asrwt>0</asrwt>
<pdfrwt beam="1">  1        2 0.31181615E+00 0.21940651E+04</pdfrwt>
<pdfrwt beam="2">  1       -2 0.91351080E-01 0.21940651E+04</pdfrwt>
<totfact> 0.60268172E+00</totfact>
</mgrwt>
</event>
<event>
 6    1  0.1528034E-005  0.2240268E+04  0.7818608E-02  0.8501852E-01
          2   -1    0    0  501    0  0.00000000000E+00  0.00000000000E+00  0.31533702316E+04  0.31533702316E+04  0.00000000000E+00 0. -1.
         -2   -1    0    0    0  501 -0.00000000000E+00 -0.00000000000E+00 -0.39789188759E+03  0.39789188759E+03  0.00000000000E+00 0.  1.
         23    2    1    2    0    0 -0.31534325979E+02 -0.25112503618E+03  0.31067176261E+04  0.31183334520E+04  0.90834529558E+02 0.  0.
         13    1    3    3    0    0 -0.39453041115E+02 -0.52384177935E+02  0.55124597046E+03  0.55513310521E+03  0.00000000000E+00 0.  1.
        -13    1    3    3    0    0  0.79187151356E+01 -0.19874085825E+03  0.25554716557E+04  0.25632003468E+04  0.00000000000E+00 0. -1.
         22    1    1    2    0    0  0.31534325979E+02  0.25112503618E+03 -0.35123928217E+03  0.43292866716E+03  0.00000000000E+00 0.  1.
<mgrwt>
<rscale>  0 0.22402682E+04</rscale>
<asrwt>0</asrwt>
<pdfrwt beam="1">  1        2 0.48513386E+00 0.22402682E+04</pdfrwt>
<pdfrwt beam="2">  1       -2 0.61214139E-01 0.22402682E+04</pdfrwt>
<totfact> 0.31492950E+00</totfact>
</mgrwt>
</event>
<event>
 6    1  0.1528034E-005  0.1691457E+04  0.7818608E-02  0.8766252E-01
          2   -1    0    0  501    0  0.00000000000E+00  0.00000000000E+00  0.27077648787E+04  0.27077648787E+04  0.00000000000E+00 0. -1.
         -2   -1    0    0    0  501 -0.00000000000E+00 -0.00000000000E+00 -0.26415037358E+03  0.26415037358E+03  0.00000000000E+00 0.  1.
         23    2    1    2    0    0 -0.72385503972E+03  0.35134132787E+02  0.19831369640E+04  0.21132883882E+04  0.89191188228E+02 0.  0.
         11    1    3    3    0    0 -0.35088395451E+03 -0.23227558551E+02  0.90088423718E+03  0.96708400763E+03  0.00000000000E+00 0. -1.
        -11    1    3    3    0    0 -0.37297108521E+03  0.58361691338E+02  0.10822527268E+04  0.11462043806E+04  0.00000000000E+00 0.  1.
         22    1    1    2    0    0  0.72385503972E+03 -0.35134132787E+02  0.46047754114E+03  0.85862686407E+03  0.00000000000E+00 0.  1.
<mgrwt>
<rscale>  0 0.16914575E+04</rscale>
<asrwt>0</asrwt>
<pdfrwt beam="1">  1        2 0.41657919E+00 0.16914575E+04</pdfrwt>
<pdfrwt beam="2">  1       -2 0.40638521E-01 0.16914575E+04</pdfrwt>
<totfact> 0.14383281E+01</totfact>
</mgrwt>
</event>
<event>
 6    1  0.1528034E-005  0.2813049E+04  0.7818608E-02  0.8299229E-01
          2   -1    0    0  501    0  0.00000000000E+00  0.00000000000E+00  0.25625044381E+04  0.25625044381E+04  0.00000000000E+00 0. -1.
         -2   -1    0    0    0  501 -0.00000000000E+00 -0.00000000000E+00 -0.77202238683E+03  0.77202238683E+03  0.00000000000E+00 0.  1.
         23    2    1    2    0    0  0.68926279780E+03  0.42017071828E+03  0.22593797912E+04  0.24009896122E+04  0.91254808513E+02 0.  0.
         13    1    3    3    0    0  0.53968099416E+03  0.29207477548E+03  0.17763280775E+04  0.18793362362E+04  0.00000000000E+00 0.  1.
        -13    1    3    3    0    0  0.14958180365E+03  0.12809594280E+03  0.48305171370E+03  0.52165337597E+03  0.00000000000E+00 0. -1.
         22    1    1    2    0    0 -0.68926279780E+03 -0.42017071828E+03 -0.46889773996E+03  0.93353721269E+03  0.00000000000E+00 0.  1.
<mgrwt>
<rscale>  0 0.28130487E+04</rscale>
<asrwt>0</asrwt>
<pdfrwt beam="1">  1        2 0.39423145E+00 0.28130487E+04</pdfrwt>
<pdfrwt beam="2">  1       -2 0.11877268E+00 0.28130487E+04</pdfrwt>
<totfact> 0.15153955E+00</totfact>
</mgrwt>
</event>
<event>
 6    1  0.1528034E-005  0.2531055E+04  0.7818608E-02  0.8392005E-01
          1   -1    0    0  501    0  0.00000000000E+00  0.00000000000E+00  0.20525115442E+04  0.20525115442E+04  0.00000000000E+00 0. -1.
         -1   -1    0    0    0  501 -0.00000000000E+00 -0.00000000000E+00 -0.78029270416E+03  0.78029270416E+03  0.00000000000E+00 0.  1.
         23    2    1    2    0    0 -0.64228031410E+03  0.10558604228E+04  0.34074426034E+03  0.12852222225E+04  0.91237469533E+02 0.  0.
         11    1    3    3    0    0 -0.19307858571E+03  0.24817011973E+03  0.10394146519E+03  0.33116699227E+03  0.00000000000E+00 0. -1.
        -11    1    3    3    0    0 -0.44920172839E+03  0.80769030306E+03  0.23680279515E+03  0.95405523018E+03  0.00000000000E+00 0.  1.
         22    1    1    2    0    0  0.64228031410E+03 -0.10558604228E+04  0.93147457973E+03  0.15475820259E+04  0.00000000000E+00 0. -1.
<mgrwt>
<rscale>  0 0.25310549E+04</rscale>
<asrwt>0</asrwt>
<pdfrwt beam="1">  1        1 0.31577100E+00 0.25310549E+04</pdfrwt>
<pdfrwt beam="2">  1       -1 0.12004503E+00 0.25310549E+04</pdfrwt>
<totfact> 0.15040482E+00</totfact>
</mgrwt>
</event>
<event>
 6    1  0.1528034E-005  0.2114673E+04  0.7818608E-02  0.8554807E-01
          1   -1    0    0  501    0  0.00000000000E+00  0.00000000000E+00  0.31037718496E+04  0.31037718496E+04  0.00000000000E+00 0. -1.
         -1   -1    0    0    0  501 -0.00000000000E+00 -0.00000000000E+00 -0.36019404125E+03  0.36019404125E+03  0.00000000000E+00 0.  1.
         23    2    1    2    0    0 -0.61109915217E+03 -0.81781297037E+03  0.18122366262E+04  0.20820626287E+04  0.92319945411E+02 0.  0.
         11    1    3    3    0    0 -0.47058967267E+03 -0.56152466139E+03  0.13117538926E+04  0.15024855607E+04  0.00000000000E+00 0. -1.
        -11    1    3    3    0    0 -0.14050947950E+03 -0.25628830898E+03  0.50048273362E+03  0.57957706804E+03  0.00000000000E+00 0.  1.
         22    1    1    2    0    0  0.61109915217E+03  0.81781297037E+03  0.93134118214E+03  0.13819032621E+04  0.00000000000E+00 0.  1.
<mgrwt>
<rscale>  0 0.21146727E+04</rscale>
<asrwt>0</asrwt>
<pdfrwt beam="1">  1        1 0.47750334E+00 0.21146727E+04</pdfrwt>
<pdfrwt beam="2">  1       -1 0.55414470E-01 0.21146727E+04</pdfrwt>
<totfact> 0.15189967E+00</totfact>
</mgrwt>
</event>
<event>
 6    1  0.1528034E-005  0.1299587E+04  0.7818608E-02  0.9029893E-01
          1   -1    0    0  501    0  0.00000000000E+00  0.00000000000E+00  0.17326527669E+04  0.17326527669E+04  0.00000000000E+00 0. -1.
         -1   -1    0    0    0  501 -0.00000000000E+00 -0.00000000000E+00 -0.24369065052E+03  0.24369065052E+03  0.00000000000E+00 0.  1.
         23    2    1    2    0    0  0.30030518331E+03 -0.20549869358E+03  0.15621099193E+04  0.16051783365E+04  0.63223223306E+02 0.  0.
         11    1    3    3    0    0  0.11308115868E+03 -0.51939603667E+02  0.62674858904E+03  0.63898267953E+03  0.00000000000E+00 0. -1.
        -11    1    3    3    0    0  0.18722402462E+03 -0.15355908992E+03  0.93536133022E+03  0.96619565698E+03  0.00000000000E+00 0.  1.
         22    1    1    2    0    0 -0.30030518331E+03  0.20549869358E+03 -0.73147802915E+02  0.37116508087E+03  0.00000000000E+00 0.  1.
<mgrwt>
<rscale>  0 0.12995865E+04</rscale>
<asrwt>0</asrwt>
<pdfrwt beam="1">  1        1 0.26656196E+00 0.12995865E+04</pdfrwt>
<pdfrwt beam="2">  1       -1 0.37490870E-01 0.12995865E+04</pdfrwt>
<totfact> 0.30502253E+01</totfact>
</mgrwt>
</event>
<event>
 6    1  0.1528034E-005  0.3350155E+04  0.7818608E-02  0.8150249E-01
         -1   -1    0    0    0  501 -0.00000000000E+00  0.00000000000E+00  0.11439618396E+04  0.11439618396E+04  0.00000000000E+00 0.  1.
          1   -1    0    0  501    0  0.00000000000E+00 -0.00000000000E+00 -0.24527787867E+04  0.24527787867E+04  0.00000000000E+00 0. -1.
         23    2    1    2    0    0 -0.15999501116E+04  0.34324364732E+03 -0.10336241320E+04  0.19374071316E+04  0.86665946378E+02 0.  0.
         11    1    3    3    0    0 -0.85031673755E+03  0.21796247290E+03 -0.58432463899E+03  0.10545053236E+04  0.00000000000E+00 0.  1.
        -11    1    3    3    0    0 -0.74963337405E+03  0.12528117442E+03 -0.44929949297E+03  0.88290180798E+03  0.00000000000E+00 0. -1.
         22    1    1    2    0    0  0.15999501116E+04 -0.34324364732E+03 -0.27519281513E+03  0.16593334947E+04  0.00000000000E+00 0.  1.
<mgrwt>
<rscale>  0 0.33501554E+04</rscale>
<asrwt>0</asrwt>
<pdfrwt beam="1">  1        1 0.37735058E+00 0.33501554E+04</pdfrwt>
<pdfrwt beam="2">  1       -1 0.17599413E+00 0.33501554E+04</pdfrwt>
<totfact> 0.26840706E-01</totfact>
</mgrwt>
</event>
<event>
 6    1  0.1528034E-005  0.1292412E+04  0.7818608E-02  0.9035604E-01
          2   -1    0    0  501    0  0.00000000000E+00  0.00000000000E+00  0.29266997157E+04  0.29266997157E+04  0.00000000000E+00 0. -1.
         -2   -1    0    0    0  501 -0.00000000000E+00 -0.00000000000E+00 -0.14268027744E+03  0.14268027744E+03  0.00000000000E+00 0.  1.
         23    2    1    2    0    0  0.18385382110E+03  0.47562446054E+03  0.46966918540E+03  0.69951967070E+03  0.93369004422E+02 0.  0.
         11    1    3    3    0    0  0.11094329166E+03  0.26969524675E+03  0.20565446563E+03  0.35684408265E+03  0.00000000000E+00 0.  1.
        -11    1    3    3    0    0  0.72910529436E+02  0.20592921379E+03  0.26401471977E+03  0.34267558805E+03  0.00000000000E+00 0. -1.
         22    1    1    2    0    0 -0.18385382110E+03 -0.47562446054E+03  0.23143502528E+04  0.23698603224E+04  0.00000000000E+00 0. -1.
<mgrwt>
<rscale>  0 0.12924122E+04</rscale>
<asrwt>0</asrwt>
<pdfrwt beam="1">  1        2 0.45026145E+00 0.12924122E+04</pdfrwt>
<pdfrwt beam="2">  1       -2 0.21950814E-01 0.12924122E+04</pdfrwt>
<totfact> 0.34747312E+01</totfact>
</mgrwt>
</event>
<event>
 6    1  0.1528034E-005  0.4597874E+03  0.7818608E-02  0.1024843E+00
         -2   -1    0    0    0  501 -0.00000000000E+00  0.00000000000E+00  0.27463376848E+03  0.27463376848E+03  0.00000000000E+00 0.  1.
          2   -1    0    0  501    0  0.00000000000E+00 -0.00000000000E+00 -0.19244212117E+03  0.19244212117E+03  0.00000000000E+00 0. -1.
         23    2    1    2    0    0 -0.11697126843E+03 -0.18243617039E+03  0.86080215615E+02  0.25032636862E+03  0.91039845146E+02 0.  0.
         11    1    3    3    0    0 -0.64800584481E+02 -0.86211325623E+02 -0.49491057433E+01  0.10796296616E+03  0.00000000000E+00 0. -1.
        -11    1    3    3    0    0 -0.52170683948E+02 -0.96224844765E+02  0.91029321358E+02  0.14236340246E+03  0.00000000000E+00 0.  1.
         22    1    1    2    0    0  0.11697126843E+03  0.18243617039E+03 -0.38885683080E+01  0.21674952103E+03  0.00000000000E+00 0.  1.
<mgrwt>
<rscale>  0 0.45978736E+03</rscale>
<asrwt>0</asrwt>
<pdfrwt beam="1">  1        2 0.29606480E-01 0.45978736E+03</pdfrwt>
<pdfrwt beam="2">  1       -2 0.42251349E-01 0.45978736E+03</pdfrwt>
<totfact> 0.96044694E+02</totfact>
</mgrwt>
</event>
<event>
 6    1  0.1528034E-005  0.7348561E+03  0.7818608E-02  0.9659413E-01
          2   -1    0    0  501    0  0.00000000000E+00  0.00000000000E+00  0.38613260138E+03  0.38613260138E+03  0.00000000000E+00 0. -1.
         -2   -1    0    0    0  501 -0.00000000000E+00 -0.00000000000E+00 -0.34962956806E+03  0.34962956806E+03  0.00000000000E+00 0.  1.
         23    2    1    2    0    0 -0.19831256054E+03 -0.49705656454E+02 -0.28037563575E+03  0.35865394245E+03  0.90684228861E+02 0.  0.
         11    1    3    3    0    0 -0.93502488567E+02  0.10211325542E+02 -0.74489365127E+02  0.11998188219E+03  0.00000000000E+00 0.  1.
        -11    1    3    3    0    0 -0.10481007198E+03 -0.59916981996E+02 -0.20588627062E+03  0.23867206026E+03  0.00000000000E+00 0. -1.
         22    1    1    2    0    0  0.19831256054E+03  0.49705656454E+02  0.31687866907E+03  0.37710822699E+03  0.00000000000E+00 0. -1.
<mgrwt>
<rscale>  0 0.73485611E+03</rscale>
<asrwt>0</asrwt>
<pdfrwt beam="1">  1        2 0.59405016E-01 0.73485611E+03</pdfrwt>
<pdfrwt beam="2">  1       -2 0.53789164E-01 0.73485611E+03</pdfrwt>
<totfact> 0.27185463E+02</totfact>
</mgrwt>
</event>
<event>
 6    1  0.1528034E-005  0.1003699E+04  0.7818608E-02  0.9304497E-01
         -1   -1    0    0    0  501 -0.00000000000E+00  0.00000000000E+00  0.32660539056E+03  0.32660539056E+03  0.00000000000E+00 0.  1.
          1   -1    0    0  501    0  0.00000000000E+00 -0.00000000000E+00 -0.77112352892E+03  0.77112352892E+03  0.00000000000E+00 0. -1.
         23    2    1    2    0    0 -0.32673493324E+03  0.24013970880E+03  0.91649586725E+02  0.42549486368E+03  0.90683162335E+02 0.  0.
         13    1    3    3    0    0 -0.17360992617E+03  0.74838461075E+02  0.57440090214E+02  0.19758685606E+03  0.00000000000E+00 0. -1.
        -13    1    3    3    0    0 -0.15312500707E+03  0.16530124773E+03  0.34209496510E+02  0.22790800763E+03  0.00000000000E+00 0.  1.
         22    1    1    2    0    0  0.32673493324E+03 -0.24013970880E+03 -0.53616772509E+03  0.67223405579E+03  0.00000000000E+00 0. -1.
<mgrwt>
<rscale>  0 0.10036994E+04</rscale>
<asrwt>0</asrwt>
<pdfrwt beam="1">  1        1 0.11863439E+00 0.10036994E+04</pdfrwt>
<pdfrwt beam="2">  1       -1 0.50246984E-01 0.10036994E+04</pdfrwt>
<totfact> 0.93420163E+01</totfact>
</mgrwt>
</event>
<event>
 6    1  0.1528034E-005  0.1353785E+04  0.7818608E-02  0.8987968E-01
         -2   -1    0    0    0  501 -0.00000000000E+00  0.00000000000E+00  0.35275290774E+03  0.35275290774E+03  0.00000000000E+00 0.  1.
          2   -1    0    0  501    0  0.00000000000E+00 -0.00000000000E+00 -0.12988796659E+04  0.12988796659E+04  0.00000000000E+00 0. -1.
         23    2    1    2    0    0  0.29630954902E+03 -0.54261437629E+03 -0.14793796936E+03  0.64201133140E+03  0.89795304239E+02 0.  0.
         11    1    3    3    0    0  0.67698289907E+01 -0.34650169344E+02  0.93762851107E+01  0.36529160168E+02  0.00000000000E+00 0.  1.
        -11    1    3    3    0    0  0.28953972003E+03 -0.50796420695E+03 -0.15731425447E+03  0.60548217123E+03  0.00000000000E+00 0. -1.
         22    1    1    2    0    0 -0.29630954902E+03  0.54261437629E+03 -0.79818878875E+03  0.10096212422E+04  0.00000000000E+00 0.  1.
<mgrwt>
<rscale>  0 0.13537852E+04</rscale>
<asrwt>0</asrwt>
<pdfrwt beam="1">  1        2 0.19982764E+00 0.13537852E+04</pdfrwt>
<pdfrwt beam="2">  1       -2 0.54269678E-01 0.13537852E+04</pdfrwt>
<totfact> 0.51672641E+01</totfact>
</mgrwt>
</event>
<event>
 6    1  0.1528034E-005  0.1794434E+04  0.7818608E-02  0.8709265E-01
          2   -1    0    0  501    0  0.00000000000E+00  0.00000000000E+00  0.34864302705E+04  0.34864302705E+04  0.00000000000E+00 0. -1.
         -2   -1    0    0    0  501 -0.00000000000E+00 -0.00000000000E+00 -0.23089462655E+03  0.23089462655E+03  0.00000000000E+00 0.  1.
         23    2    1    2    0    0 -0.49884732388E+03  0.47310965226E+03  0.28187768095E+04  0.29028068340E+04  0.90018987444E+02 0.  0.
         13    1    3    3    0    0 -0.36282294113E+03  0.29165091860E+03  0.19703706657E+04  0.20246138657E+04  0.00000000000E+00 0. -1.
        -13    1    3    3    0    0 -0.13602438275E+03  0.18145873366E+03  0.84840614383E+03  0.87819296832E+03  0.00000000000E+00 0.  1.
         22    1    1    2    0    0  0.49884732388E+03 -0.47310965226E+03  0.43675883449E+03  0.81451806310E+03  0.00000000000E+00 0.  1.
<mgrwt>
<rscale>  0 0.17944336E+04</rscale>
<asrwt>0</asrwt>
<pdfrwt beam="1">  1        2 0.53637385E+00 0.17944336E+04</pdfrwt>
<pdfrwt beam="2">  1       -2 0.35522253E-01 0.17944336E+04</pdfrwt>
<totfact> 0.58919975E+00</totfact>
</mgrwt>
</event>
<event>
 6    1  0.1528034E-005  0.2553306E+04  0.7818608E-02  0.8384237E-01
         -1   -1    0    0    0  501 -0.00000000000E+00  0.00000000000E+00  0.67537835932E+03  0.67537835932E+03  0.00000000000E+00 0.  1.
          1   -1    0    0  501    0  0.00000000000E+00 -0.00000000000E+00 -0.24132286613E+04  0.24132286613E+04  0.00000000000E+00 0. -1.
         23    2    1    2    0    0  0.50049612485E+02 -0.12673486494E+04 -0.10272224362E+04  0.16347605615E+04  0.92620716484E+02 0.  0.
         13    1    3    3    0    0  0.77424654517E+02 -0.94537189883E+03 -0.77171531925E+03  0.12228111621E+04  0.00000000000E+00 0.  1.
        -13    1    3    3    0    0 -0.27375042032E+02 -0.32197675061E+03 -0.25550711698E+03  0.41194939942E+03  0.00000000000E+00 0. -1.
         22    1    1    2    0    0 -0.50049612485E+02  0.12673486494E+04 -0.71062786572E+03  0.14538464590E+04  0.00000000000E+00 0.  1.
<mgrwt>
<rscale>  0 0.25533056E+04</rscale>
<asrwt>0</asrwt>
<pdfrwt beam="1">  1        1 0.37126594E+00 0.25533056E+04</pdfrwt>
<pdfrwt beam="2">  1       -1 0.10390437E+00 0.25533056E+04</pdfrwt>
<totfact> 0.11997559E+00</totfact>
</mgrwt>
</event>
<event>
 6    1  0.1528034E-005  0.1899528E+04  0.7818608E-02  0.8655091E-01
          2   -1    0    0  501    0  0.00000000000E+00  0.00000000000E+00  0.12926533046E+04  0.12926533046E+04  0.00000000000E+00 0. -1.
         -2   -1    0    0    0  501 -0.00000000000E+00 -0.00000000000E+00 -0.69782955075E+03  0.69782955075E+03  0.00000000000E+00 0.  1.
         23    2    1    2    0    0  0.84979502646E+03 -0.39318945535E+03  0.44885714514E+03  0.10428248022E+04  0.96235630494E+02 0.  0.
         13    1    3    3    0    0  0.59571835981E+03 -0.24483467095E+03  0.34616229044E+03  0.73119950194E+03  0.00000000000E+00 0. -1.
        -13    1    3    3    0    0  0.25407666664E+03 -0.14835478440E+03  0.10269485470E+03  0.31162530027E+03  0.00000000000E+00 0.  1.
         22    1    1    2    0    0 -0.84979502646E+03  0.39318945535E+03  0.14596660868E+03  0.94765805312E+03  0.00000000000E+00 0.  1.
<mgrwt>
<rscale>  0 0.18995280E+04</rscale>
<asrwt>0</asrwt>
<pdfrwt beam="1">  1        2 0.19886974E+00 0.18995280E+04</pdfrwt>
<pdfrwt beam="2">  1       -2 0.10735839E+00 0.18995280E+04</pdfrwt>
<totfact> 0.10897868E+01</totfact>
</mgrwt>
</event>
<event>
 6    1  0.1528034E-005  0.1975394E+04  0.7818608E-02  0.8618212E-01
          2   -1    0    0  501    0  0.00000000000E+00  0.00000000000E+00  0.19939157317E+04  0.19939157317E+04  0.00000000000E+00 0. -1.
         -2   -1    0    0    0  501 -0.00000000000E+00 -0.00000000000E+00 -0.48926116505E+03  0.48926116505E+03  0.00000000000E+00 0.  1.
         23    2    1    2    0    0 -0.52208227742E+03  0.81983380488E+03  0.54503505576E+03  0.11173192989E+04  0.81497432915E+02 0.  0.
         13    1    3    3    0    0 -0.33001511181E+03  0.57603331739E+03  0.34614743134E+03  0.74869379655E+03  0.00000000000E+00 0.  1.
        -13    1    3    3    0    0 -0.19206716561E+03  0.24380048749E+03  0.19888762442E+03  0.36862550231E+03  0.00000000000E+00 0. -1.
         22    1    1    2    0    0  0.52208227742E+03 -0.81983380488E+03  0.95961951087E+03  0.13658575979E+04  0.00000000000E+00 0. -1.
<mgrwt>
<rscale>  0 0.19753942E+04</rscale>
<asrwt>0</asrwt>
<pdfrwt beam="1">  1        2 0.30675626E+00 0.19753942E+04</pdfrwt>
<pdfrwt beam="2">  1       -2 0.75270950E-01 0.19753942E+04</pdfrwt>
<totfact> 0.99286263E+00</totfact>
</mgrwt>
</event>
<event>
 6    1  0.1528034E-005  0.2927668E+04  0.7818608E-02  0.8264693E-01
         -2   -1    0    0    0  501 -0.00000000000E+00  0.00000000000E+00  0.82900196180E+03  0.82900196180E+03  0.00000000000E+00 0.  1.
          2   -1    0    0  501    0  0.00000000000E+00 -0.00000000000E+00 -0.25848060433E+04  0.25848060433E+04  0.00000000000E+00 0. -1.
         23    2    1    2    0    0 -0.13011399091E+04  0.61148621175E+03 -0.56650192125E+03  0.15479784098E+04  0.91827448135E+02 0.  0.
         11    1    3    3    0    0 -0.86937250527E+03  0.36078349319E+03 -0.36350576687E+03  0.10090142340E+04  0.00000000000E+00 0.  1.
        -11    1    3    3    0    0 -0.43176740384E+03  0.25070271856E+03 -0.20299615438E+03  0.53896417581E+03  0.00000000000E+00 0. -1.
         22    1    1    2    0    0  0.13011399091E+04 -0.61148621175E+03 -0.11893021602E+04  0.18658295953E+04  0.00000000000E+00 0. -1.
<mgrwt>
<rscale>  0 0.29276675E+04</rscale>
<asrwt>0</asrwt>
<pdfrwt beam="1">  1        2 0.39766246E+00 0.29276675E+04</pdfrwt>
<pdfrwt beam="2">  1       -2 0.12753877E+00 0.29276675E+04</pdfrwt>
<totfact> 0.12189246E+00</totfact>
</mgrwt>
</event>
<event>
 6    1  0.1528034E-005  0.3033651E+04  0.7818608E-02  0.8234186E-01
          2   -1    0    0  501    0  0.00000000000E+00  0.00000000000E+00  0.12335372758E+04  0.12335372758E+04  0.00000000000E+00 0. -1.
         -2   -1    0    0    0  501 -0.00000000000E+00 -0.00000000000E+00 -0.18651720291E+04  0.18651720291E+04  0.00000000000E+00 0.  1.
         23    2    1    2    0    0 -0.10379874090E+04  0.21252247038E+03  0.79150903478E+03  0.13244709041E+04  0.71784134076E+02 0.  0.
         13    1    3    3    0    0 -0.63419275987E+03  0.12236363902E+03  0.52479493926E+03  0.83221574432E+03  0.00000000000E+00 0. -1.
        -13    1    3    3    0    0 -0.40379464916E+03  0.90158831357E+02  0.26671409552E+03  0.49225515976E+03  0.00000000000E+00 0.  1.
         22    1    1    2    0    0  0.10379874090E+04 -0.21252247038E+03 -0.14231437880E+04  0.17742384009E+04  0.00000000000E+00 0.  1.
<mgrwt>
<rscale>  0 0.30336508E+04</rscale>
<asrwt>0</asrwt>
<pdfrwt beam="1">  1        2 0.18977497E+00 0.30336508E+04</pdfrwt>
<pdfrwt beam="2">  1       -2 0.28694954E+00 0.30336508E+04</pdfrwt>
<totfact> 0.58975645E-01</totfact>
</mgrwt>
</event>
<event>
 6    1  0.1528034E-005  0.1638448E+04  0.7818608E-02  0.8797270E-01
          2   -1    0    0  501    0  0.00000000000E+00  0.00000000000E+00  0.17457778068E+04  0.17457778068E+04  0.00000000000E+00 0. -1.
         -2   -1    0    0    0  501 -0.00000000000E+00 -0.00000000000E+00 -0.38442905699E+03  0.38442905699E+03  0.00000000000E+00 0.  1.
         23    2    1    2    0    0 -0.56527193155E+03  0.64796146893E+02  0.14445231209E+04  0.15551861048E+04  0.90696617185E+02 0.  0.
         11    1    3    3    0    0 -0.45134614381E+03  0.88120015628E+02  0.11524536433E+04  0.12408174236E+04  0.00000000000E+00 0.  1.
        -11    1    3    3    0    0 -0.11392578774E+03 -0.23323868734E+02  0.29206947761E+03  0.31436868120E+03  0.00000000000E+00 0. -1.
         22    1    1    2    0    0  0.56527193155E+03 -0.64796146893E+02 -0.83174371122E+02  0.57502075899E+03  0.00000000000E+00 0.  1.
<mgrwt>
<rscale>  0 0.16384477E+04</rscale>
<asrwt>0</asrwt>
<pdfrwt beam="1">  1        2 0.26858120E+00 0.16384477E+04</pdfrwt>
<pdfrwt beam="2">  1       -2 0.59142933E-01 0.16384477E+04</pdfrwt>
<totfact> 0.23606532E+01</totfact>
</mgrwt>
</event>
<event>
 6    1  0.1528034E-005  0.1844709E+04  0.7818608E-02  0.8682879E-01
         -1   -1    0    0    0  501 -0.00000000000E+00  0.00000000000E+00  0.77017284472E+03  0.77017284472E+03  0.00000000000E+00 0.  1.
          1   -1    0    0  501    0  0.00000000000E+00 -0.00000000000E+00 -0.11046064055E+04  0.11046064055E+04  0.00000000000E+00 0. -1.
         23    2    1    2    0    0 -0.23799407036E+03  0.30646706420E+03  0.68031215404E+03  0.78837596197E+03  0.90270656949E+02 0.  0.
         11    1    3    3    0    0 -0.18001361368E+03  0.16590034077E+03  0.45260915048E+03  0.51457056588E+03  0.00000000000E+00 0.  1.
        -11    1    3    3    0    0 -0.57980456682E+02  0.14056672343E+03  0.22770300356E+03  0.27380539608E+03  0.00000000000E+00 0. -1.
         22    1    1    2    0    0  0.23799407036E+03 -0.30646706420E+03 -0.10147457148E+04  0.10864032883E+04  0.00000000000E+00 0. -1.
<mgrwt>
<rscale>  0 0.18447090E+04</rscale>
<asrwt>0</asrwt>
<pdfrwt beam="1">  1        1 0.16993945E+00 0.18447090E+04</pdfrwt>
<pdfrwt beam="2">  1       -1 0.11848813E+00 0.18447090E+04</pdfrwt>
<totfact> 0.75514321E+00</totfact>
</mgrwt>
</event>
<event>
 6    1  0.1528034E-005  0.2850110E+04  0.7818608E-02  0.8287878E-01
         -2   -1    0    0    0  501 -0.00000000000E+00  0.00000000000E+00  0.10732029713E+04  0.10732029713E+04  0.00000000000E+00 0. -1.
          2   -1    0    0  501    0  0.00000000000E+00 -0.00000000000E+00 -0.18922622850E+04  0.18922622850E+04  0.00000000000E+00 0.  1.
         23    2    1    2    0    0  0.21723886689E+03 -0.98820331616E+03  0.63201209820E+03  0.11964692807E+04  0.91438110320E+02 0.  0.
         13    1    3    3    0    0  0.30766401635E+01 -0.17149070086E+03  0.10113590090E+03  0.19911553592E+03  0.00000000000E+00 0.  1.
        -13    1    3    3    0    0  0.21416222672E+03 -0.81671261530E+03  0.53087619730E+03  0.99735374477E+03  0.00000000000E+00 0. -1.
         22    1    1    2    0    0 -0.21723886689E+03  0.98820331616E+03 -0.14510714119E+04  0.17689959756E+04  0.00000000000E+00 0.  1.
<mgrwt>
<rscale>  0 0.28501098E+04</rscale>
<asrwt>0</asrwt>
<pdfrwt beam="1">  1        2 0.29111727E+00 0.28501098E+04</pdfrwt>
<pdfrwt beam="2">  1       -2 0.16510815E+00 0.28501098E+04</pdfrwt>
<totfact> 0.15360447E+00</totfact>
</mgrwt>
</event>
<event>
 6    1  0.2546948E-005  0.3449079E+04  0.7818608E-02  0.8125965E-01
          2   -1    0    0  501    0  0.00000000000E+00  0.00000000000E+00  0.23061967026E+04  0.23061967026E+04  0.00000000000E+00 0. -1.
         -2   -1    0    0    0  501 -0.00000000000E+00 -0.00000000000E+00 -0.12895848001E+04  0.12895848001E+04  0.00000000000E+00 0.  1.
         23    2    1    2    0    0 -0.43649120783E+03 -0.43624682417E+03 -0.11690979963E+04  0.13246224093E+04  0.83657253363E+02 0.  0.
         11    1    3    3    0    0 -0.19115269593E+03 -0.24662265944E+03 -0.61678427875E+03  0.69121988963E+03  0.00000000000E+00 0.  1.
        -11    1    3    3    0    0 -0.24533851191E+03 -0.18962416472E+03 -0.55231371756E+03  0.63340251964E+03  0.00000000000E+00 0. -1.
         22    1    1    2    0    0  0.43649120783E+03  0.43624682417E+03  0.21857098988E+04  0.22711590935E+04  0.00000000000E+00 0. -1.
<mgrwt>
<rscale>  0 0.34490788E+04</rscale>
<asrwt>0</asrwt>
<pdfrwt beam="1">  1        2 0.35479949E+00 0.34490788E+04</pdfrwt>
<pdfrwt beam="2">  1       -2 0.19839766E+00 0.34490788E+04</pdfrwt>
<totfact> 0.50564169E-01</totfact>
</mgrwt>
</event>
<event>
 6    1  0.1528034E-005  0.1731932E+04  0.7818608E-02  0.8743359E-01
         -2   -1    0    0    0  501 -0.00000000000E+00  0.00000000000E+00  0.19102613361E+03  0.19102613361E+03  0.00000000000E+00 0.  1.
          2   -1    0    0  501    0  0.00000000000E+00 -0.00000000000E+00 -0.39256262100E+04  0.39256262100E+04  0.00000000000E+00 0. -1.
         23    2    1    2    0    0  0.56326805442E+03  0.37651503241E+03 -0.31455689142E+04  0.32188816709E+04  0.86953703058E+02 0.  0.
         13    1    3    3    0    0  0.41850817945E+03  0.28398506230E+03 -0.21575730752E+04  0.22160591568E+04  0.00000000000E+00 0. -1.
        -13    1    3    3    0    0  0.14475987496E+03  0.92529970112E+02 -0.98799583907E+03  0.10028225141E+04  0.00000000000E+00 0.  1.
         22    1    1    2    0    0 -0.56326805442E+03 -0.37651503241E+03 -0.58903116221E+03  0.89777067273E+03  0.00000000000E+00 0.  1.
<mgrwt>
<rscale>  0 0.17319321E+04</rscale>
<asrwt>0</asrwt>
<pdfrwt beam="1">  1        2 0.60394246E+00 0.17319321E+04</pdfrwt>
<pdfrwt beam="2">  1       -2 0.29388638E-01 0.17319321E+04</pdfrwt>
<totfact> 0.40296870E+00</totfact>
</mgrwt>
</event>
<event>
 6    1  0.1528034E-005  0.3530075E+04  0.7818608E-02  0.8106699E-01
         -2   -1    0    0    0  501 -0.00000000000E+00  0.00000000000E+00  0.31164165811E+04  0.31164165811E+04  0.00000000000E+00 0.  1.
          2   -1    0    0  501    0  0.00000000000E+00 -0.00000000000E+00 -0.99966009329E+03  0.99966009329E+03  0.00000000000E+00 0. -1.
         23    2    1    2    0    0 -0.93590216381E+03  0.28729058786E+02 -0.68389312880E+03  0.11630483145E+04  0.90737816240E+02 0.  0.
         11    1    3    3    0    0 -0.70828948930E+03 -0.14145247091E+02 -0.53423832747E+03  0.88729063965E+03  0.00000000000E+00 0. -1.
        -11    1    3    3    0    0 -0.22761267451E+03  0.42874305877E+02 -0.14965480133E+03  0.27575767489E+03  0.00000000000E+00 0.  1.
         22    1    1    2    0    0  0.93590216381E+03 -0.28729058786E+02  0.28006496166E+04  0.29530283598E+04  0.00000000000E+00 0.  1.
<mgrwt>
<rscale>  0 0.35300750E+04</rscale>
<asrwt>0</asrwt>
<pdfrwt beam="1">  1        2 0.15379386E+00 0.35300750E+04</pdfrwt>
<pdfrwt beam="2">  1       -2 0.47944870E+00 0.35300750E+04</pdfrwt>
<totfact> 0.45942751E-02</totfact>
</mgrwt>
</event>
<event>
 6    1  0.1528034E-005  0.2251533E+04  0.7818608E-02  0.8497280E-01
          2   -1    0    0  501    0  0.00000000000E+00  0.00000000000E+00  0.28687896510E+04  0.28687896510E+04  0.00000000000E+00 0. -1.
         -2   -1    0    0    0  501 -0.00000000000E+00 -0.00000000000E+00 -0.44177193794E+03  0.44177193794E+03  0.00000000000E+00 0.  1.
         23    2    1    2    0    0  0.13475824270E+03  0.64229429392E+03 -0.12684985552E+03  0.67371853297E+03  0.84285418920E+02 0.  0.
         11    1    3    3    0    0  0.13478695140E+02  0.14476405363E+03  0.29718775438E+01  0.14542055736E+03  0.00000000000E+00 0.  1.
        -11    1    3    3    0    0  0.12127954756E+03  0.49753024029E+03 -0.12982173306E+03  0.52829797561E+03  0.00000000000E+00 0. -1.
         22    1    1    2    0    0 -0.13475824270E+03 -0.64229429392E+03  0.25538675685E+04  0.26368430559E+04  0.00000000000E+00 0. -1.
<mgrwt>
<rscale>  0 0.22515335E+04</rscale>
<asrwt>0</asrwt>
<pdfrwt beam="1">  1        2 0.44135224E+00 0.22515335E+04</pdfrwt>
<pdfrwt beam="2">  1       -2 0.67964915E-01 0.22515335E+04</pdfrwt>
<totfact> 0.37911829E+00</totfact>
</mgrwt>
</event>
<event>
 6    1  0.1528034E-005  0.2543560E+04  0.7818608E-02  0.8387629E-01
          2   -1    0    0  501    0  0.00000000000E+00  0.00000000000E+00  0.49084384879E+04  0.49084384879E+04  0.00000000000E+00 0. -1.
         -2   -1    0    0    0  501 -0.00000000000E+00 -0.00000000000E+00 -0.32951906495E+03  0.32951906495E+03  0.00000000000E+00 0.  1.
         23    2    1    2    0    0 -0.22315520285E+03  0.96254693906E+03  0.64850893031E+03  0.11852520991E+04  0.89240412468E+02 0.  0.
         13    1    3    3    0    0 -0.13253096911E+03  0.38119515372E+03  0.25379181058E+03  0.47674362724E+03  0.00000000000E+00 0. -1.
        -13    1    3    3    0    0 -0.90624233736E+02  0.58135178534E+03  0.39471711973E+03  0.70850847183E+03  0.00000000000E+00 0.  1.
         22    1    1    2    0    0  0.22315520285E+03 -0.96254693906E+03  0.39304104926E+04  0.40527054537E+04  0.00000000000E+00 0. -1.
<mgrwt>
<rscale>  0 0.25435598E+04</rscale>
<asrwt>0</asrwt>
<pdfrwt beam="1">  1        2 0.75514433E+00 0.25435598E+04</pdfrwt>
<pdfrwt beam="2">  1       -2 0.50695244E-01 0.25435598E+04</pdfrwt>
<totfact> 0.14666198E-01</totfact>
</mgrwt>
</event>
<event>
 6    1  0.1528034E-005  0.1486315E+04  0.7818608E-02  0.8893604E-01
         -2   -1    0    0    0  501 -0.00000000000E+00  0.00000000000E+00  0.15085024610E+03  0.15085024610E+03  0.00000000000E+00 0.  1.
          2   -1    0    0  501    0  0.00000000000E+00 -0.00000000000E+00 -0.36611369654E+04  0.36611369654E+04  0.00000000000E+00 0. -1.
         23    2    1    2    0    0  0.20476820077E+03  0.48909645969E+03 -0.30869068466E+04  0.31334624297E+04  0.91910584995E+02 0.  0.
         13    1    3    3    0    0  0.49023121654E+02  0.68476762193E+02 -0.67189098007E+03  0.67714830171E+03  0.00000000000E+00 0.  1.
        -13    1    3    3    0    0  0.15574507911E+03  0.42061969750E+03 -0.24150158665E+04  0.24563141280E+04  0.00000000000E+00 0. -1.
         22    1    1    2    0    0 -0.20476820077E+03 -0.48909645969E+03 -0.42337987265E+03  0.67852478178E+03  0.00000000000E+00 0.  1.
<mgrwt>
<rscale>  0 0.14863155E+04</rscale>
<asrwt>0</asrwt>
<pdfrwt beam="1">  1        2 0.56325182E+00 0.14863155E+04</pdfrwt>
<pdfrwt beam="2">  1       -2 0.23207731E-01 0.14863155E+04</pdfrwt>
<totfact> 0.10067323E+01</totfact>
</mgrwt>
</event>
<event>
 6    1  0.1528034E-005  0.5921588E+04  0.7818608E-02  0.7700201E-01
         -1   -1    0    0    0  501 -0.00000000000E+00  0.00000000000E+00  0.57945491969E+04  0.57945491969E+04  0.00000000000E+00 0.  1.
          1   -1    0    0  501    0  0.00000000000E+00 -0.00000000000E+00 -0.15128529114E+04  0.15128529114E+04  0.00000000000E+00 0. -1.
         23    2    1    2    0    0 -0.19759637988E+04 -0.59272410929E+03  0.47610167193E+04  0.51895015248E+04  0.88831699200E+02 0.  0.
         11    1    3    3    0    0 -0.51482816782E+03 -0.13762671900E+03  0.11424784358E+04  0.12606530580E+04  0.00000000000E+00 0. -1.
        -11    1    3    3    0    0 -0.14611356309E+04 -0.45509739030E+03  0.36185382834E+04  0.39288484668E+04  0.00000000000E+00 0.  1.
         22    1    1    2    0    0  0.19759637988E+04  0.59272410929E+03 -0.47932043379E+03  0.21179005836E+04  0.00000000000E+00 0. -1.
<mgrwt>
<rscale>  0 0.59215878E+04</rscale>
<asrwt>0</asrwt>
<pdfrwt beam="1">  1        1 0.23274661E+00 0.59215878E+04</pdfrwt>
<pdfrwt beam="2">  1       -1 0.89146909E+00 0.59215878E+04</pdfrwt>
<totfact> 0.44253916E-05</totfact>
</mgrwt>
</event>
<event>
 6    1  0.1528034E-005  0.1954700E+04  0.7818608E-02  0.8628098E-01
         -2   -1    0    0    0  501 -0.00000000000E+00  0.00000000000E+00  0.14226256785E+04  0.14226256785E+04  0.00000000000E+00 0.  1.
          2   -1    0    0  501    0  0.00000000000E+00 -0.00000000000E+00 -0.67144368582E+03  0.67144368582E+03  0.00000000000E+00 0. -1.
         23    2    1    2    0    0  0.70816506908E+03  0.25838133383E+03 -0.28635862078E+03  0.81159160494E+03  0.91765978327E+02 0.  0.
         11    1    3    3    0    0  0.56687069628E+03  0.16697932902E+03 -0.22980282454E+03  0.63406136989E+03  0.00000000000E+00 0. -1.
        -11    1    3    3    0    0  0.14129437280E+03  0.91402004816E+02 -0.56555796239E+02  0.17753023506E+03  0.00000000000E+00 0.  1.
         22    1    1    2    0    0 -0.70816506908E+03 -0.25838133383E+03  0.10375406135E+04  0.12824777594E+04  0.00000000000E+00 0.  1.
<mgrwt>
<rscale>  0 0.19547000E+04</rscale>
<asrwt>0</asrwt>
<pdfrwt beam="1">  1        2 0.10329903E+00 0.19547000E+04</pdfrwt>
<pdfrwt beam="2">  1       -2 0.21886549E+00 0.19547000E+04</pdfrwt>
<totfact> 0.40437165E+00</totfact>
</mgrwt>
</event>
<event>
 6    1  0.1528034E-005  0.1396489E+04  0.7818608E-02  0.8956364E-01
          2   -1    0    0  501    0  0.00000000000E+00  0.00000000000E+00  0.23168493662E+04  0.23168493662E+04  0.00000000000E+00 0. -1.
         -2   -1    0    0    0  501 -0.00000000000E+00 -0.00000000000E+00 -0.21043474523E+03  0.21043474523E+03  0.00000000000E+00 0.  1.
         23    2    1    2    0    0 -0.18893206293E+02 -0.68621309392E+03  0.85807266980E+03  0.11026427564E+04  0.91032840303E+02 0.  0.
         13    1    3    3    0    0 -0.54248913896E+02 -0.32297758284E+03  0.41085066666E+03  0.52541006268E+03  0.00000000000E+00 0. -1.
        -13    1    3    3    0    0  0.35355707603E+02 -0.36323551109E+03  0.44722200315E+03  0.57723269370E+03  0.00000000000E+00 0.  1.
         22    1    1    2    0    0  0.18893206293E+02  0.68621309392E+03  0.12483419512E+04  0.14246413551E+04  0.00000000000E+00 0. -1.
<mgrwt>
<rscale>  0 0.13964893E+04</rscale>
<asrwt>0</asrwt>
<pdfrwt beam="1">  1        2 0.35643835E+00 0.13964893E+04</pdfrwt>
<pdfrwt beam="2">  1       -2 0.32374578E-01 0.13964893E+04</pdfrwt>
<totfact> 0.38455228E+01</totfact>
</mgrwt>
</event>
<event>
 6    1  0.1528034E-005  0.1664418E+04  0.7818608E-02  0.8781923E-01
         -2   -1    0    0    0  501 -0.00000000000E+00  0.00000000000E+00  0.47168267078E+03  0.47168267078E+03  0.00000000000E+00 0.  1.
          2   -1    0    0  501    0  0.00000000000E+00 -0.00000000000E+00 -0.14682998336E+04  0.14682998336E+04  0.00000000000E+00 0. -1.
         23    2    1    2    0    0  0.31300435134E+01  0.64987240968E+03 -0.11010459040E+04  0.12817657406E+04  0.90980135892E+02 0.  0.
         13    1    3    3    0    0  0.29023673900E+02  0.26340499362E+03 -0.51690753206E+03  0.58087688972E+03  0.00000000000E+00 0. -1.
        -13    1    3    3    0    0 -0.25893630387E+02  0.38646741606E+03 -0.58413837194E+03  0.70088885092E+03  0.00000000000E+00 0.  1.
         22    1    1    2    0    0 -0.31300435134E+01 -0.64987240968E+03  0.10442874120E+03  0.65821676371E+03  0.00000000000E+00 0.  1.
<mgrwt>
<rscale>  0 0.16644177E+04</rscale>
<asrwt>0</asrwt>
<pdfrwt beam="1">  1        2 0.22589228E+00 0.16644177E+04</pdfrwt>
<pdfrwt beam="2">  1       -2 0.72566565E-01 0.16644177E+04</pdfrwt>
<totfact> 0.21681798E+01</totfact>
</mgrwt>
</event>
<event>
 6    1  0.1528034E-005  0.1041445E+04  0.7818608E-02  0.9264221E-01
          2   -1    0    0  501    0  0.00000000000E+00  0.00000000000E+00  0.22669186652E+04  0.22669186652E+04  0.00000000000E+00 0. -1.
         -2   -1    0    0    0  501 -0.00000000000E+00 -0.00000000000E+00 -0.11961253719E+03  0.11961253719E+03  0.00000000000E+00 0.  1.
         23    2    1    2    0    0 -0.21220889916E+03 -0.37491688568E+03  0.42883261853E+03  0.61488042109E+03  0.92656513428E+02 0.  0.
         13    1    3    3    0    0 -0.45936374622E+02 -0.17231682248E+03  0.18344160718E+03  0.25583991297E+03  0.00000000000E+00 0. -1.
        -13    1    3    3    0    0 -0.16627252454E+03 -0.20260006320E+03  0.24539101134E+03  0.35904050813E+03  0.00000000000E+00 0.  1.
         22    1    1    2    0    0  0.21220889916E+03  0.37491688568E+03  0.17184735095E+04  0.17716507813E+04  0.00000000000E+00 0. -1.
<mgrwt>
<rscale>  0 0.10414449E+04</rscale>
<asrwt>0</asrwt>
<pdfrwt beam="1">  1        2 0.34875668E+00 0.10414449E+04</pdfrwt>
<pdfrwt beam="2">  1       -2 0.18401931E-01 0.10414449E+04</pdfrwt>
<totfact> 0.11737183E+02</totfact>
</mgrwt>
</event>
<event>
 6    1  0.1528034E-005  0.2198789E+04  0.7818608E-02  0.8518932E-01
          2   -1    0    0  501    0  0.00000000000E+00  0.00000000000E+00  0.25064711333E+04  0.25064711333E+04  0.00000000000E+00 0. -1.
         -2   -1    0    0    0  501 -0.00000000000E+00 -0.00000000000E+00 -0.48221929822E+03  0.48221929822E+03  0.00000000000E+00 0.  1.
         23    2    1    2    0    0 -0.90210795746E+03 -0.61850282465E+03  0.11376319388E+04  0.15806991845E+04  0.89771782331E+02 0.  0.
         13    1    3    3    0    0 -0.34457137880E+03 -0.19583444232E+03  0.45125243423E+03  0.60059081185E+03  0.00000000000E+00 0. -1.
        -13    1    3    3    0    0 -0.55753657866E+03 -0.42266838233E+03  0.68637950452E+03  0.98010837268E+03  0.00000000000E+00 0.  1.
         22    1    1    2    0    0  0.90210795746E+03  0.61850282465E+03  0.88661989629E+03  0.14079912470E+04  0.00000000000E+00 0. -1.
<mgrwt>
<rscale>  0 0.21987894E+04</rscale>
<asrwt>0</asrwt>
<pdfrwt beam="1">  1        2 0.38561094E+00 0.21987894E+04</pdfrwt>
<pdfrwt beam="2">  1       -2 0.74187586E-01 0.21987894E+04</pdfrwt>
<totfact> 0.51612977E+00</totfact>
</mgrwt>
</event>
<event>
 6    1  0.1528034E-005  0.2358853E+04  0.7818608E-02  0.8455071E-01
          2   -1    0    0  501    0  0.00000000000E+00  0.00000000000E+00  0.11357224125E+04  0.11357224125E+04  0.00000000000E+00 0.  1.
         -2   -1    0    0    0  501 -0.00000000000E+00 -0.00000000000E+00 -0.12248120151E+04  0.12248120151E+04  0.00000000000E+00 0. -1.
         23    2    1    2    0    0  0.19119382418E+02  0.10724109345E+04 -0.53134792696E+03  0.12003520330E+04  0.89908955908E+02 0.  0.
         13    1    3    3    0    0  0.34029502250E+02  0.34682531181E+03 -0.13753227040E+03  0.37464774033E+03  0.00000000000E+00 0. -1.
        -13    1    3    3    0    0 -0.14910119832E+02  0.72558562273E+03 -0.39381565657E+03  0.82570429268E+03  0.00000000000E+00 0.  1.
         22    1    1    2    0    0 -0.19119382418E+02 -0.10724109345E+04  0.44225832429E+03  0.11601823946E+04  0.00000000000E+00 0.  1.
<mgrwt>
<rscale>  0 0.23588527E+04</rscale>
<asrwt>0</asrwt>
<pdfrwt beam="1">  1        2 0.17472653E+00 0.23588527E+04</pdfrwt>
<pdfrwt beam="2">  1       -2 0.18843262E+00 0.23588527E+04</pdfrwt>
<totfact> 0.29677607E+00</totfact>
</mgrwt>
</event>
<event>
 6    1  0.1797268E-005  0.2916126E+04  0.7818608E-02  0.8268096E-01
          1   -1    0    0  501    0  0.00000000000E+00  0.00000000000E+00  0.11078042094E+04  0.11078042094E+04  0.00000000000E+00 0. -1.
         -1   -1    0    0    0  501 -0.00000000000E+00 -0.00000000000E+00 -0.19190650407E+04  0.19190650407E+04  0.00000000000E+00 0.  1.
         23    2    1    2    0    0 -0.14531413605E+04 -0.26229356546E+02 -0.30558882004E+03  0.14880346340E+04  0.92491904063E+02 0.  0.
         11    1    3    3    0    0 -0.72659130395E+03 -0.46858639157E+02 -0.18524463848E+03  0.75129636704E+03  0.00000000000E+00 0.  1.
        -11    1    3    3    0    0 -0.72655005656E+03  0.20629282612E+02 -0.12034418156E+03  0.73673826698E+03  0.00000000000E+00 0. -1.
         22    1    1    2    0    0  0.14531413605E+04  0.26229356546E+02 -0.50567201118E+03  0.15388346161E+04  0.00000000000E+00 0.  1.
<mgrwt>
<rscale>  0 0.29161264E+04</rscale>
<asrwt>0</asrwt>
<pdfrwt beam="1">  1        1 0.17043142E+00 0.29161264E+04</pdfrwt>
<pdfrwt beam="2">  1       -1 0.29524077E+00 0.29161264E+04</pdfrwt>
<totfact> 0.38012216E-01</totfact>
</mgrwt>
</event>
<event>
 6    1  0.1528034E-005  0.1699035E+04  0.7818608E-02  0.8761915E-01
          2   -1    0    0  501    0  0.00000000000E+00  0.00000000000E+00  0.95846470307E+03  0.95846470307E+03  0.00000000000E+00 0. -1.
         -2   -1    0    0    0  501 -0.00000000000E+00 -0.00000000000E+00 -0.75295377701E+03  0.75295377701E+03  0.00000000000E+00 0.  1.
         23    2    1    2    0    0  0.19449643435E+03  0.35552696067E+03  0.85236274429E+03  0.94810625203E+03  0.90304676183E+02 0.  0.
         13    1    3    3    0    0  0.50323811264E+02  0.18145089093E+03  0.35710508969E+03  0.40370900025E+03  0.00000000000E+00 0. -1.
        -13    1    3    3    0    0  0.14417262309E+03  0.17407606974E+03  0.49525765460E+03  0.54439725178E+03  0.00000000000E+00 0.  1.
         22    1    1    2    0    0 -0.19449643435E+03 -0.35552696067E+03 -0.64685181823E+03  0.76331222805E+03  0.00000000000E+00 0.  1.
<mgrwt>
<rscale>  0 0.16990346E+04</rscale>
<asrwt>0</asrwt>
<pdfrwt beam="1">  1        2 0.14745611E+00 0.16990346E+04</pdfrwt>
<pdfrwt beam="2">  1       -2 0.11583904E+00 0.16990346E+04</pdfrwt>
<totfact> 0.14776359E+01</totfact>
</mgrwt>
</event>
<event>
 6    1  0.1528034E-005  0.6748092E+03  0.7818608E-02  0.9761309E-01
          1   -1    0    0  501    0  0.00000000000E+00  0.00000000000E+00  0.64410343333E+03  0.64410343333E+03  0.00000000000E+00 0. -1.
         -1   -1    0    0    0  501 -0.00000000000E+00 -0.00000000000E+00 -0.17674469073E+03  0.17674469073E+03  0.00000000000E+00 0.  1.
         23    2    1    2    0    0 -0.16956753736E+03 -0.64018795784E+02 -0.99055411725E+02  0.22614101114E+03  0.92066423793E+02 0.  0.
         13    1    3    3    0    0 -0.15549740117E+03 -0.21724972676E+02 -0.88888627438E+02  0.18042340285E+03  0.00000000000E+00 0. -1.
        -13    1    3    3    0    0 -0.14070136188E+02 -0.42293823107E+02 -0.10166784287E+02  0.45717608294E+02  0.00000000000E+00 0.  1.
         22    1    1    2    0    0  0.16956753736E+03  0.64018795784E+02  0.56641415432E+03  0.59470711292E+03  0.00000000000E+00 0. -1.
<mgrwt>
<rscale>  0 0.67480919E+03</rscale>
<asrwt>0</asrwt>
<pdfrwt beam="1">  1        1 0.99092834E-01 0.67480919E+03</pdfrwt>
<pdfrwt beam="2">  1       -1 0.27191491E-01 0.67480919E+03</pdfrwt>
<totfact> 0.37817757E+02</totfact>
</mgrwt>
</event>
<event>
 6    1  0.1528034E-005  0.8510723E+03  0.7818608E-02  0.9488899E-01
         -1   -1    0    0    0  501 -0.00000000000E+00  0.00000000000E+00  0.25310515230E+03  0.25310515230E+03  0.00000000000E+00 0.  1.
          1   -1    0    0  501    0  0.00000000000E+00 -0.00000000000E+00 -0.71543780825E+03  0.71543780825E+03  0.00000000000E+00 0. -1.
         23    2    1    2    0    0 -0.80526792585E+02 -0.33513603783E+03 -0.50848519308E+03  0.62079192193E+03  0.89580637288E+02 0.  0.
         11    1    3    3    0    0 -0.57144841781E+01 -0.20260434704E+03 -0.26442861505E+03  0.33317213153E+03  0.00000000000E+00 0. -1.
        -11    1    3    3    0    0 -0.74812308407E+02 -0.13253169079E+03 -0.24405657803E+03  0.28761979040E+03  0.00000000000E+00 0.  1.
         22    1    1    2    0    0  0.80526792585E+02  0.33513603783E+03  0.46152537123E+02  0.34775103862E+03  0.00000000000E+00 0.  1.
<mgrwt>
<rscale>  0 0.85107225E+03</rscale>
<asrwt>0</asrwt>
<pdfrwt beam="1">  1        1 0.11006736E+00 0.85107225E+03</pdfrwt>
<pdfrwt beam="2">  1       -1 0.38939254E-01 0.85107225E+03</pdfrwt>
<totfact> 0.17005458E+02</totfact>
</mgrwt>
</event>
<event>
 6    1  0.1528034E-005  0.1391803E+04  0.7818608E-02  0.8959773E-01
         -1   -1    0    0    0  501 -0.00000000000E+00  0.00000000000E+00  0.57038979171E+03  0.57038979171E+03  0.00000000000E+00 0.  1.
          1   -1    0    0  501    0  0.00000000000E+00 -0.00000000000E+00 -0.84903136169E+03  0.84903136169E+03  0.00000000000E+00 0. -1.
         23    2    1    2    0    0  0.51345342077E+03  0.18711496704E+03 -0.57434345624E+03  0.79806293810E+03  0.91583957373E+02 0.  0.
         13    1    3    3    0    0  0.11659059607E+03  0.91253519288E+01 -0.15218191906E+03  0.19192700600E+03  0.00000000000E+00 0.  1.
        -13    1    3    3    0    0  0.39686282469E+03  0.17798961511E+03 -0.42216153718E+03  0.60613593210E+03  0.00000000000E+00 0. -1.
         22    1    1    2    0    0 -0.51345342077E+03 -0.18711496704E+03  0.29570188626E+03  0.62135821530E+03  0.00000000000E+00 0.  1.
<mgrwt>
<rscale>  0 0.13918029E+04</rscale>
<asrwt>0</asrwt>
<pdfrwt beam="1">  1        1 0.13062021E+00 0.13918029E+04</pdfrwt>
<pdfrwt beam="2">  1       -1 0.87752276E-01 0.13918029E+04</pdfrwt>
<totfact> 0.25012346E+01</totfact>
</mgrwt>
</event>
<event>
 6    1  0.1528034E-005  0.1675430E+04  0.7818608E-02  0.8775503E-01
         -2   -1    0    0    0  501 -0.00000000000E+00  0.00000000000E+00  0.42773347877E+03  0.42773347877E+03  0.00000000000E+00 0.  1.
          2   -1    0    0  501    0  0.00000000000E+00 -0.00000000000E+00 -0.16406637565E+04  0.16406637565E+04  0.00000000000E+00 0. -1.
         23    2    1    2    0    0 -0.58265396818E+03 -0.20701525028E+03  0.85013231582E+02  0.63069131476E+03  0.90572205868E+02 0.  0.
         11    1    3    3    0    0 -0.37978543376E+03 -0.12196892897E+03  0.96572217170E+02  0.41041392333E+03  0.00000000000E+00 0.  1.
        -11    1    3    3    0    0 -0.20286853442E+03 -0.85046321309E+02 -0.11558985588E+02  0.22027739143E+03  0.00000000000E+00 0. -1.
         22    1    1    2    0    0  0.58265396818E+03  0.20701525028E+03 -0.12979435093E+04  0.14377059205E+04  0.00000000000E+00 0. -1.
<mgrwt>
<rscale>  0 0.16754305E+04</rscale>
<asrwt>0</asrwt>
<pdfrwt beam="1">  1        2 0.25240981E+00 0.16754305E+04</pdfrwt>
<pdfrwt beam="2">  1       -2 0.65805151E-01 0.16754305E+04</pdfrwt>
<totfact> 0.21448071E+01</totfact>
</mgrwt>
</event>
<event>
 6    1  0.1528034E-005  0.3578938E+04  0.7818608E-02  0.8095333E-01
         -1   -1    0    0    0  501 -0.00000000000E+00  0.00000000000E+00  0.20747980529E+04  0.20747980529E+04  0.00000000000E+00 0.  1.
          1   -1    0    0  501    0  0.00000000000E+00 -0.00000000000E+00 -0.15433791392E+04  0.15433791392E+04  0.00000000000E+00 0. -1.
         23    2    1    2    0    0 -0.11684614254E+04 -0.13537415298E+04  0.25940640102E+03  0.18093352865E+04  0.92110075276E+02 0.  0.
         11    1    3    3    0    0 -0.55960736245E+03 -0.63162214749E+03  0.16755146125E+03  0.86033739282E+03  0.00000000000E+00 0. -1.
        -11    1    3    3    0    0 -0.60885406298E+03 -0.72211938232E+03  0.91854939773E+02  0.94899789372E+03  0.00000000000E+00 0.  1.
         22    1    1    2    0    0  0.11684614254E+04  0.13537415298E+04  0.27201251269E+03  0.18088419056E+04  0.00000000000E+00 0. -1.
<mgrwt>
<rscale>  0 0.35789384E+04</rscale>
<asrwt>0</asrwt>
<pdfrwt beam="1">  1        1 0.23744295E+00 0.35789384E+04</pdfrwt>
<pdfrwt beam="2">  1       -1 0.31919970E+00 0.35789384E+04</pdfrwt>
<totfact> 0.12253150E-01</totfact>
</mgrwt>
</event>
<event>
 6    1  0.1528034E-005  0.8897615E+03  0.7818608E-02  0.9438471E-01
          2   -1    0    0  501    0  0.00000000000E+00  0.00000000000E+00  0.14730217853E+04  0.14730217853E+04  0.00000000000E+00 0. -1.
         -2   -1    0    0    0  501 -0.00000000000E+00 -0.00000000000E+00 -0.13436248398E+03  0.13436248398E+03  0.00000000000E+00 0.  1.
         23    2    1    2    0    0  0.24988948781E+03 -0.24702392310E+03  0.11549888505E+04  0.12108992012E+04  0.93872551769E+02 0.  0.
         11    1    3    3    0    0  0.13784151473E+03 -0.16895312301E+03  0.57257527923E+03  0.61268906580E+03  0.00000000000E+00 0. -1.
        -11    1    3    3    0    0  0.11204797308E+03 -0.78070800095E+02  0.58241357131E+03  0.59821013544E+03  0.00000000000E+00 0.  1.
         22    1    1    2    0    0 -0.24988948781E+03  0.24702392310E+03  0.18367045081E+03  0.39648506807E+03  0.00000000000E+00 0.  1.
<mgrwt>
<rscale>  0 0.88976146E+03</rscale>
<asrwt>0</asrwt>
<pdfrwt beam="1">  1        2 0.22661872E+00 0.88976146E+03</pdfrwt>
<pdfrwt beam="2">  1       -2 0.20671152E-01 0.88976146E+03</pdfrwt>
<totfact> 0.26591987E+02</totfact>
</mgrwt>
</event>
<event>
 6    1  0.1528034E-005  0.9606506E+03  0.7818608E-02  0.9352788E-01
          2   -1    0    0  501    0  0.00000000000E+00  0.00000000000E+00  0.58037544467E+03  0.58037544467E+03  0.00000000000E+00 0. -1.
         -2   -1    0    0    0  501 -0.00000000000E+00 -0.00000000000E+00 -0.39752266849E+03  0.39752266849E+03  0.00000000000E+00 0.  1.
         23    2    1    2    0    0  0.33073137647E+02 -0.37258084079E+03  0.39190256211E+03  0.54939825510E+03  0.91326388085E+02 0.  0.
         13    1    3    3    0    0 -0.25888685367E+02 -0.21883358178E+03  0.22249345732E+03  0.31314804661E+03  0.00000000000E+00 0. -1.
        -13    1    3    3    0    0  0.58961823014E+02 -0.15374725901E+03  0.16940910479E+03  0.23625020849E+03  0.00000000000E+00 0.  1.
         22    1    1    2    0    0 -0.33073137647E+02  0.37258084079E+03 -0.20904978592E+03  0.42849985806E+03  0.00000000000E+00 0.  1.
<mgrwt>
<rscale>  0 0.96065060E+03</rscale>
<asrwt>0</asrwt>
<pdfrwt beam="1">  1        2 0.89288530E-01 0.96065060E+03</pdfrwt>
<pdfrwt beam="2">  1       -2 0.61157333E-01 0.96065060E+03</pdfrwt>
<totfact> 0.12853639E+02</totfact>
</mgrwt>
</event>
<event>
 6    1  0.1528034E-005  0.2431459E+04  0.7818608E-02  0.8427819E-01
          1   -1    0    0  501    0  0.00000000000E+00  0.00000000000E+00  0.91779414726E+03  0.91779414726E+03  0.00000000000E+00 0. -1.
         -1   -1    0    0    0  501 -0.00000000000E+00 -0.00000000000E+00 -0.16103814378E+04  0.16103814378E+04  0.00000000000E+00 0.  1.
         23    2    1    2    0    0  0.27989147986E+03 -0.10850232634E+04  0.13910055791E+03  0.11327117195E+04  0.89845153759E+02 0.  0.
         13    1    3    3    0    0  0.11895996266E+03 -0.48145988539E+03  0.10628829621E+03  0.50720044940E+03  0.00000000000E+00 0.  1.
        -13    1    3    3    0    0  0.16093151720E+03 -0.60356337805E+03  0.32812261695E+02  0.62551127014E+03  0.00000000000E+00 0. -1.
         22    1    1    2    0    0 -0.27989147986E+03  0.10850232634E+04 -0.83168784843E+03  0.13954638655E+04  0.00000000000E+00 0.  1.
<mgrwt>
<rscale>  0 0.24314594E+04</rscale>
<asrwt>0</asrwt>
<pdfrwt beam="1">  1        1 0.14119910E+00 0.24314594E+04</pdfrwt>
<pdfrwt beam="2">  1       -1 0.24775099E+00 0.24314594E+04</pdfrwt>
<totfact> 0.11341475E+00</totfact>
</mgrwt>
</event>
<event>
 6    1  0.1528034E-005  0.1542794E+04  0.7818608E-02  0.8856484E-01
         -1   -1    0    0    0  501 -0.00000000000E+00  0.00000000000E+00  0.54253137155E+03  0.54253137155E+03  0.00000000000E+00 0.  1.
          1   -1    0    0  501    0  0.00000000000E+00 -0.00000000000E+00 -0.10968085180E+04  0.10968085180E+04  0.00000000000E+00 0. -1.
         23    2    1    2    0    0 -0.36488213344E+03  0.58633621081E+03  0.80688963241E+02  0.70119753157E+03  0.90764233472E+02 0.  0.
         11    1    3    3    0    0 -0.24897767027E+03  0.39986836647E+03  0.12183396646E+02  0.47120380511E+03  0.00000000000E+00 0.  1.
        -11    1    3    3    0    0 -0.11590446317E+03  0.18646784434E+03  0.68505566595E+02  0.22999372645E+03  0.00000000000E+00 0. -1.
         22    1    1    2    0    0  0.36488213344E+03 -0.58633621081E+03 -0.63496610973E+03  0.93814235802E+03  0.00000000000E+00 0. -1.
<mgrwt>
<rscale>  0 0.15427936E+04</rscale>
<asrwt>0</asrwt>
<pdfrwt beam="1">  1        1 0.16873977E+00 0.15427936E+04</pdfrwt>
<pdfrwt beam="2">  1       -1 0.83466366E-01 0.15427936E+04</pdfrwt>
<totfact> 0.17506364E+01</totfact>
</mgrwt>
</event>
<event>
 6    1  0.1528034E-005  0.1529320E+04  0.7818608E-02  0.8865186E-01
         -1   -1    0    0    0  501 -0.00000000000E+00  0.00000000000E+00  0.27464811449E+03  0.27464811449E+03  0.00000000000E+00 0.  1.
          1   -1    0    0  501    0  0.00000000000E+00 -0.00000000000E+00 -0.21289236921E+04  0.21289236921E+04  0.00000000000E+00 0. -1.
         23    2    1    2    0    0  0.34125961393E+03 -0.55180537654E+03 -0.15585049346E+04  0.16905307342E+04  0.89494325985E+02 0.  0.
         13    1    3    3    0    0  0.15498886993E+03 -0.26875315499E+03 -0.63279536497E+03  0.70475512205E+03  0.00000000000E+00 0. -1.
        -13    1    3    3    0    0  0.18627074399E+03 -0.28305222155E+03 -0.92570956960E+03  0.98577561212E+03  0.00000000000E+00 0.  1.
         22    1    1    2    0    0 -0.34125961393E+03  0.55180537654E+03 -0.29577064302E+03  0.71304107241E+03  0.00000000000E+00 0.  1.
<mgrwt>
<rscale>  0 0.15293200E+04</rscale>
<asrwt>0</asrwt>
<pdfrwt beam="1">  1        1 0.32752673E+00 0.15293200E+04</pdfrwt>
<pdfrwt beam="2">  1       -1 0.42253556E-01 0.15293200E+04</pdfrwt>
<totfact> 0.12953518E+01</totfact>
</mgrwt>
</event>
<event>
 6    1  0.1528034E-005  0.2495669E+04  0.7818608E-02  0.8404530E-01
          3   -1    0    0  501    0  0.00000000000E+00  0.00000000000E+00  0.14255075713E+04  0.14255075713E+04  0.00000000000E+00 0. -1.
         -3   -1    0    0    0  501 -0.00000000000E+00 -0.00000000000E+00 -0.10923066631E+04  0.10923066631E+04  0.00000000000E+00 0.  1.
         23    2    1    2    0    0  0.57733238303E+03  0.93205469114E+03 -0.43072888257E+03  0.11815405524E+04  0.92043897210E+02 0.  0.
         11    1    3    3    0    0  0.46631026676E+03  0.67788090132E+03 -0.31560678959E+03  0.88123517116E+03  0.00000000000E+00 0. -1.
        -11    1    3    3    0    0  0.11102211626E+03  0.25417378982E+03 -0.11512209297E+03  0.30030538127E+03  0.00000000000E+00 0.  1.
         22    1    1    2    0    0 -0.57733238303E+03 -0.93205469114E+03  0.76392979078E+03  0.13362736819E+04  0.00000000000E+00 0. -1.
<mgrwt>
<rscale>  0 0.24956694E+04</rscale>
<asrwt>0</asrwt>
<pdfrwt beam="1">  1        3 0.21930886E+00 0.24956694E+04</pdfrwt>
<pdfrwt beam="2">  1       -3 0.16804718E+00 0.24956694E+04</pdfrwt>
<totfact> 0.62089924E-02</totfact>
</mgrwt>
</event>
<event>
 6    1  0.1528034E-005  0.2190495E+04  0.7818608E-02  0.8522395E-01
          2   -1    0    0  501    0  0.00000000000E+00  0.00000000000E+00  0.22001810041E+04  0.22001810041E+04  0.00000000000E+00 0. -1.
         -2   -1    0    0    0  501 -0.00000000000E+00 -0.00000000000E+00 -0.54521313521E+03  0.54521313521E+03  0.00000000000E+00 0.  1.
         23    2    1    2    0    0 -0.10064085288E+02 -0.28120542955E+03  0.21530314916E+04  0.21733406877E+04  0.93206016848E+02 0.  0.
         11    1    3    3    0    0  0.28993787767E+02 -0.90574466351E+02  0.50655098658E+03  0.51540108235E+03  0.00000000000E+00 0. -1.
        -11    1    3    3    0    0 -0.39057873055E+02 -0.19063096320E+03  0.16464805050E+04  0.16579396053E+04  0.00000000000E+00 0.  1.
         22    1    1    2    0    0  0.10064085288E+02  0.28120542955E+03 -0.49806362262E+03  0.57205345169E+03  0.00000000000E+00 0.  1.
<mgrwt>
<rscale>  0 0.21904955E+04</rscale>
<asrwt>0</asrwt>
<pdfrwt beam="1">  1        2 0.33848938E+00 0.21904955E+04</pdfrwt>
<pdfrwt beam="2">  1       -2 0.83878945E-01 0.21904955E+04</pdfrwt>
<totfact> 0.58641270E+00</totfact>
</mgrwt>
</event>
<event>
 6    1  0.1528034E-005  0.1182845E+04  0.7818608E-02  0.9128006E-01
         -2   -1    0    0    0  501 -0.00000000000E+00  0.00000000000E+00  0.10146037635E+04  0.10146037635E+04  0.00000000000E+00 0.  1.
          2   -1    0    0  501    0  0.00000000000E+00 -0.00000000000E+00 -0.34474617672E+03  0.34474617672E+03  0.00000000000E+00 0. -1.
         23    2    1    2    0    0  0.12314457992E+03 -0.28298387094E+03  0.91205831328E+03  0.96704183336E+03  0.89861459282E+02 0.  0.
         13    1    3    3    0    0  0.92521569937E+02 -0.12975534118E+03  0.36882942723E+03  0.40178580843E+03  0.00000000000E+00 0. -1.
        -13    1    3    3    0    0  0.30623009984E+02 -0.15322852976E+03  0.54322888606E+03  0.56525602493E+03  0.00000000000E+00 0.  1.
         22    1    1    2    0    0 -0.12314457992E+03  0.28298387094E+03 -0.24220072652E+03  0.39230810685E+03  0.00000000000E+00 0. -1.
<mgrwt>
<rscale>  0 0.11828453E+04</rscale>
<asrwt>0</asrwt>
<pdfrwt beam="1">  1        2 0.53037874E-01 0.11828453E+04</pdfrwt>
<pdfrwt beam="2">  1       -2 0.15609289E+00 0.11828453E+04</pdfrwt>
<totfact> 0.24980945E+01</totfact>
</mgrwt>
</event>
<event>
 6    1  0.1528034E-005  0.2070270E+04  0.7818608E-02  0.8574454E-01
         -2   -1    0    0    0  501 -0.00000000000E+00  0.00000000000E+00  0.51289728583E+03  0.51289728583E+03  0.00000000000E+00 0.  1.
          2   -1    0    0  501    0  0.00000000000E+00 -0.00000000000E+00 -0.20891210762E+04  0.20891210762E+04  0.00000000000E+00 0. -1.
         23    2    1    2    0    0 -0.60327645137E+03 -0.37988609059E+03 -0.17295268525E+04  0.18728011464E+04  0.88685296137E+02 0.  0.
         13    1    3    3    0    0 -0.22677200094E+03 -0.12851395958E+03 -0.74204711136E+03  0.78649557767E+03  0.00000000000E+00 0.  1.
        -13    1    3    3    0    0 -0.37650445043E+03 -0.25137213101E+03 -0.98747974117E+03  0.10863055687E+04  0.00000000000E+00 0. -1.
         22    1    1    2    0    0  0.60327645137E+03  0.37988609059E+03  0.15330306221E+03  0.72921721557E+03  0.00000000000E+00 0.  1.
<mgrwt>
<rscale>  0 0.20702701E+04</rscale>
<asrwt>0</asrwt>
<pdfrwt beam="1">  1        2 0.32140324E+00 0.20702701E+04</pdfrwt>
<pdfrwt beam="2">  1       -2 0.78907276E-01 0.20702701E+04</pdfrwt>
<totfact> 0.78471937E+00</totfact>
</mgrwt>
</event>
<event>
 6    1  0.1876495E-005  0.4983946E+04  0.7818608E-02  0.7830988E-01
         -2   -1    0    0    0  501 -0.00000000000E+00  0.00000000000E+00  0.16645436922E+04  0.16645436922E+04  0.00000000000E+00 0.  1.
          2   -1    0    0  501    0  0.00000000000E+00 -0.00000000000E+00 -0.37307099248E+04  0.37307099248E+04  0.00000000000E+00 0. -1.
         23    2    1    2    0    0  0.75546419863E+02 -0.12778745214E+04 -0.33469256972E+04  0.35844484480E+04  0.87684091201E+02 0.  0.
         13    1    3    3    0    0  0.91782149361E+01 -0.78391427789E+03 -0.21049624575E+04  0.22462129868E+04  0.00000000000E+00 0.  1.
        -13    1    3    3    0    0  0.66368204927E+02 -0.49396024348E+03 -0.12419632397E+04  0.13382354611E+04  0.00000000000E+00 0. -1.
         22    1    1    2    0    0 -0.75546419863E+02  0.12778745214E+04  0.12807594646E+04  0.18108051690E+04  0.00000000000E+00 0.  1.
<mgrwt>
<rscale>  0 0.49839461E+04</rscale>
<asrwt>0</asrwt>
<pdfrwt beam="1">  1        2 0.57395537E+00 0.49839461E+04</pdfrwt>
<pdfrwt beam="2">  1       -2 0.25608365E+00 0.49839461E+04</pdfrwt>
<totfact> 0.23732342E-02</totfact>
</mgrwt>
</event>
<event>
 6    1  0.1528034E-005  0.1327129E+04  0.7818608E-02  0.9008324E-01
          1   -1    0    0  501    0  0.00000000000E+00  0.00000000000E+00  0.94975918728E+03  0.94975918728E+03  0.00000000000E+00 0. -1.
         -1   -1    0    0    0  501 -0.00000000000E+00 -0.00000000000E+00 -0.46361021444E+03  0.46361021444E+03  0.00000000000E+00 0.  1.
         23    2    1    2    0    0  0.22103966424E+03 -0.33456605252E+03 -0.31443741789E+03  0.51797477046E+03  0.92919300448E+02 0.  0.
         13    1    3    3    0    0  0.17916652447E+03 -0.27849328675E+03 -0.20953839088E+03  0.39187433127E+03  0.00000000000E+00 0.  1.
        -13    1    3    3    0    0  0.41873139769E+02 -0.56072765767E+02 -0.10489902701E+03  0.12610043919E+03  0.00000000000E+00 0. -1.
         22    1    1    2    0    0 -0.22103966424E+03  0.33456605252E+03  0.80058639073E+03  0.89539463126E+03  0.00000000000E+00 0. -1.
<mgrwt>
<rscale>  0 0.13271293E+04</rscale>
<asrwt>0</asrwt>
<pdfrwt beam="1">  1        1 0.14611680E+00 0.13271293E+04</pdfrwt>
<pdfrwt beam="2">  1       -1 0.71324649E-01 0.13271293E+04</pdfrwt>
<totfact> 0.32281363E+01</totfact>
</mgrwt>
</event>
<event>
 6    1  0.1528034E-005  0.2268240E+04  0.7818608E-02  0.8490550E-01
          2   -1    0    0  501    0  0.00000000000E+00  0.00000000000E+00  0.69364232768E+03  0.69364232768E+03  0.00000000000E+00 0. -1.
         -2   -1    0    0    0  501 -0.00000000000E+00 -0.00000000000E+00 -0.18543106073E+04  0.18543106073E+04  0.00000000000E+00 0.  1.
         23    2    1    2    0    0  0.83953331770E+03  0.54690711777E+03  0.11578962303E+02  0.10058481450E+04  0.87594700200E+02 0.  0.
         11    1    3    3    0    0  0.35002343852E+03  0.22638042227E+03 -0.38336500663E+02  0.41860983073E+03  0.00000000000E+00 0. -1.
        -11    1    3    3    0    0  0.48950987918E+03  0.32052669550E+03  0.49915462966E+02  0.58723831430E+03  0.00000000000E+00 0.  1.
         22    1    1    2    0    0 -0.83953331770E+03 -0.54690711777E+03 -0.11722472420E+04  0.15421047900E+04  0.00000000000E+00 0.  1.
<mgrwt>
<rscale>  0 0.22682401E+04</rscale>
<asrwt>0</asrwt>
<pdfrwt beam="1">  1        2 0.10671421E+00 0.22682401E+04</pdfrwt>
<pdfrwt beam="2">  1       -2 0.28527855E+00 0.22682401E+04</pdfrwt>
<totfact> 0.14735320E+00</totfact>
</mgrwt>
</event>
<event>
 6    1  0.1528034E-005  0.9724567E+03  0.7818608E-02  0.9339281E-01
         -1   -1    0    0    0  501 -0.00000000000E+00  0.00000000000E+00  0.24759615948E+03  0.24759615948E+03  0.00000000000E+00 0.  1.
          1   -1    0    0  501    0  0.00000000000E+00 -0.00000000000E+00 -0.95485326818E+03  0.95485326818E+03  0.00000000000E+00 0. -1.
         23    2    1    2    0    0 -0.87839726897E+02  0.37294550484E+03 -0.71807384007E+03  0.81914645496E+03  0.92556510732E+02 0.  0.
         13    1    3    3    0    0  0.19301492170E+02  0.48455297658E+02 -0.10617806451E+03  0.11829727324E+03  0.00000000000E+00 0. -1.
        -13    1    3    3    0    0 -0.10714121907E+03  0.32449020718E+03 -0.61189577555E+03  0.70084918172E+03  0.00000000000E+00 0.  1.
         22    1    1    2    0    0  0.87839726897E+02 -0.37294550484E+03  0.10816731367E+02  0.38330297270E+03  0.00000000000E+00 0.  1.
<mgrwt>
<rscale>  0 0.97245669E+03</rscale>
<asrwt>0</asrwt>
<pdfrwt beam="1">  1        1 0.14690050E+00 0.97245669E+03</pdfrwt>
<pdfrwt beam="2">  1       -1 0.38091717E-01 0.97245669E+03</pdfrwt>
<totfact> 0.10973021E+02</totfact>
</mgrwt>
</event>
<event>
 6    1  0.1528034E-005  0.2938980E+04  0.7818608E-02  0.8261373E-01
         -2   -1    0    0    0  501 -0.00000000000E+00  0.00000000000E+00  0.15876774733E+04  0.15876774733E+04  0.00000000000E+00 0.  1.
          2   -1    0    0  501    0  0.00000000000E+00 -0.00000000000E+00 -0.13601001342E+04  0.13601001342E+04  0.00000000000E+00 0. -1.
         23    2    1    2    0    0 -0.85176249779E+03 -0.10503310960E+04  0.68704762517E+03  0.15195592391E+04  0.91274738408E+02 0.  0.
         13    1    3    3    0    0 -0.51216295278E+03 -0.56235899501E+03  0.37182530263E+03  0.84664785191E+03  0.00000000000E+00 0. -1.
        -13    1    3    3    0    0 -0.33959954501E+03 -0.48797210103E+03  0.31522232254E+03  0.67291138717E+03  0.00000000000E+00 0.  1.
         22    1    1    2    0    0  0.85176249779E+03  0.10503310960E+04 -0.45947028611E+03  0.14282183684E+04  0.00000000000E+00 0. -1.
<mgrwt>
<rscale>  0 0.29389796E+04</rscale>
<asrwt>0</asrwt>
<pdfrwt beam="1">  1        2 0.20924617E+00 0.29389796E+04</pdfrwt>
<pdfrwt beam="2">  1       -2 0.24425807E+00 0.29389796E+04</pdfrwt>
<totfact> 0.91503288E-01</totfact>
</mgrwt>
</event>
<event>
 6    1  0.1528034E-005  0.1425157E+04  0.7818608E-02  0.8935808E-01
          1   -1    0    0  501    0  0.00000000000E+00  0.00000000000E+00  0.22093157266E+04  0.22093157266E+04  0.00000000000E+00 0. -1.
         -1   -1    0    0    0  501 -0.00000000000E+00 -0.00000000000E+00 -0.22983036045E+03  0.22983036045E+03  0.00000000000E+00 0.  1.
         23    2    1    2    0    0 -0.47241876530E+02 -0.58658573356E+03  0.16726576876E+04  0.17754761073E+04  0.90647945086E+02 0.  0.
         11    1    3    3    0    0 -0.60753878321E+02 -0.46900403201E+03  0.12468514726E+04  0.13335270565E+04  0.00000000000E+00 0.  1.
        -11    1    3    3    0    0  0.13512001790E+02 -0.11758170156E+03  0.42580621508E+03  0.44194905084E+03  0.00000000000E+00 0. -1.
         22    1    1    2    0    0  0.47241876530E+02  0.58658573356E+03  0.30682767856E+03  0.66366997977E+03  0.00000000000E+00 0.  1.
<mgrwt>
<rscale>  0 0.14251566E+04</rscale>
<asrwt>0</asrwt>
<pdfrwt beam="1">  1        1 0.33989471E+00 0.14251566E+04</pdfrwt>
<pdfrwt beam="2">  1       -1 0.35358519E-01 0.14251566E+04</pdfrwt>
<totfact> 0.15944332E+01</totfact>
</mgrwt>
</event>
<event>
 6    1  0.1528034E-005  0.2162659E+04  0.7818608E-02  0.8534133E-01
          1   -1    0    0  501    0  0.00000000000E+00  0.00000000000E+00  0.14999018404E+04  0.14999018404E+04  0.00000000000E+00 0. -1.
         -1   -1    0    0    0  501 -0.00000000000E+00 -0.00000000000E+00 -0.77956636360E+03  0.77956636360E+03  0.00000000000E+00 0.  1.
         23    2    1    2    0    0  0.58359864968E+02 -0.78198857992E+03  0.11426697166E+04  0.13888065268E+04  0.90429391002E+02 0.  0.
         11    1    3    3    0    0  0.40080100988E+02 -0.15483289589E+03  0.27365196738E+03  0.31696220500E+03  0.00000000000E+00 0.  1.
        -11    1    3    3    0    0  0.18279763980E+02 -0.62715568402E+03  0.86901774922E+03  0.10718443218E+04  0.00000000000E+00 0. -1.
         22    1    1    2    0    0 -0.58359864968E+02  0.78198857992E+03 -0.42233423985E+03  0.89066167713E+03  0.00000000000E+00 0.  1.
<mgrwt>
<rscale>  0 0.21626586E+04</rscale>
<asrwt>0</asrwt>
<pdfrwt beam="1">  1        1 0.23075413E+00 0.21626586E+04</pdfrwt>
<pdfrwt beam="2">  1       -1 0.11993329E+00 0.21626586E+04</pdfrwt>
<totfact> 0.37099684E+00</totfact>
</mgrwt>
</event>
<event>
 6    1  0.1528034E-005  0.1823536E+04  0.7818608E-02  0.8693882E-01
         -2   -1    0    0    0  501 -0.00000000000E+00  0.00000000000E+00  0.40695898657E+03  0.40695898657E+03  0.00000000000E+00 0. -1.
          2   -1    0    0  501    0  0.00000000000E+00 -0.00000000000E+00 -0.20427638139E+04  0.20427638139E+04  0.00000000000E+00 0.  1.
         23    2    1    2    0    0 -0.68008300883E+03  0.16987976046E+03 -0.15984550591E+04  0.17477491278E+04  0.90534003392E+02 0.  0.
         13    1    3    3    0    0 -0.10125394872E+03  0.56671612988E+02 -0.29823246869E+03  0.32001037363E+03  0.00000000000E+00 0. -1.
        -13    1    3    3    0    0 -0.57882906010E+03  0.11320814747E+03 -0.13002225904E+04  0.14277387541E+04  0.00000000000E+00 0.  1.
         22    1    1    2    0    0  0.68008300883E+03 -0.16987976046E+03 -0.37349768191E+02  0.70197367265E+03  0.00000000000E+00 0. -1.
<mgrwt>
<rscale>  0 0.18235362E+04</rscale>
<asrwt>0</asrwt>
<pdfrwt beam="1">  1        2 0.31427136E+00 0.18235362E+04</pdfrwt>
<pdfrwt beam="2">  1       -2 0.62609074E-01 0.18235362E+04</pdfrwt>
<totfact> 0.14099628E+01</totfact>
</mgrwt>
</event>
<event>
 6    1  0.1528034E-005  0.6371669E+03  0.7818608E-02  0.9831162E-01
          2   -1    0    0  501    0  0.00000000000E+00  0.00000000000E+00  0.34375561636E+03  0.34375561636E+03  0.00000000000E+00 0. -1.
         -2   -1    0    0    0  501 -0.00000000000E+00 -0.00000000000E+00 -0.29525453523E+03  0.29525453523E+03  0.00000000000E+00 0.  1.
         23    2    1    2    0    0  0.80911258458E+02  0.79468261201E+02 -0.26572956047E+03  0.30494020022E+03  0.97542247882E+02 0.  0.
         11    1    3    3    0    0  0.78445872955E+02  0.61449336185E+02 -0.11108624246E+03  0.14923112666E+03  0.00000000000E+00 0. -1.
        -11    1    3    3    0    0  0.24653855033E+01  0.18018925016E+02 -0.15464331801E+03  0.15570907356E+03  0.00000000000E+00 0.  1.
         22    1    1    2    0    0 -0.80911258458E+02 -0.79468261201E+02  0.31423064160E+03  0.33406995137E+03  0.00000000000E+00 0. -1.
<mgrwt>
<rscale>  0 0.63716687E+03</rscale>
<asrwt>0</asrwt>
<pdfrwt beam="1">  1        2 0.52885479E-01 0.63716687E+03</pdfrwt>
<pdfrwt beam="2">  1       -2 0.45423775E-01 0.63716687E+03</pdfrwt>
<totfact> 0.43719754E+02</totfact>
</mgrwt>
</event>
<event>
 6    1  0.1528034E-005  0.6078230E+03  0.7818608E-02  0.9889307E-01
         -2   -1    0    0    0  501 -0.00000000000E+00  0.00000000000E+00  0.45889188915E+03  0.45889188915E+03  0.00000000000E+00 0.  1.
          2   -1    0    0  501    0  0.00000000000E+00 -0.00000000000E+00 -0.20127224305E+03  0.20127224305E+03  0.00000000000E+00 0. -1.
         23    2    1    2    0    0  0.58292647569E+02 -0.83426356652E+02  0.43527907295E+03  0.45541828562E+03  0.87062929996E+02 0.  0.
         11    1    3    3    0    0  0.67695284548E+02 -0.21291861648E+02  0.22097150976E+03  0.23208705920E+03  0.00000000000E+00 0.  1.
        -11    1    3    3    0    0 -0.94026369794E+01 -0.62134495003E+02  0.21430756320E+03  0.22333122642E+03  0.00000000000E+00 0. -1.
         22    1    1    2    0    0 -0.58292647569E+02  0.83426356652E+02 -0.17765942685E+03  0.20474584658E+03  0.00000000000E+00 0. -1.
<mgrwt>
<rscale>  0 0.60782300E+03</rscale>
<asrwt>0</asrwt>
<pdfrwt beam="1">  1        2 0.30964961E-01 0.60782300E+03</pdfrwt>
<pdfrwt beam="2">  1       -2 0.70598752E-01 0.60782300E+03</pdfrwt>
<totfact> 0.31657586E+02</totfact>
</mgrwt>
</event>
<event>
 6    1  0.1528034E-005  0.5406361E+04  0.7818608E-02  0.7768707E-01
         -2   -1    0    0    0  501 -0.00000000000E+00  0.00000000000E+00  0.36888764982E+04  0.36888764982E+04  0.00000000000E+00 0.  1.
          2   -1    0    0  501    0  0.00000000000E+00 -0.00000000000E+00 -0.19808701664E+04  0.19808701664E+04  0.00000000000E+00 0. -1.
         23    2    1    2    0    0 -0.21990547745E+04  0.15528386805E+04  0.11021850720E+04  0.29103682441E+04  0.91002825955E+02 0.  0.
         11    1    3    3    0    0 -0.65932529161E+03  0.46692491550E+03  0.37608250781E+03  0.89116035008E+03  0.00000000000E+00 0. -1.
        -11    1    3    3    0    0 -0.15397294829E+04  0.10859137649E+04  0.72610256420E+03  0.20192078940E+04  0.00000000000E+00 0.  1.
         22    1    1    2    0    0  0.21990547745E+04 -0.15528386805E+04  0.60582125973E+03  0.27593784205E+04  0.00000000000E+00 0. -1.
<mgrwt>
<rscale>  0 0.54063612E+04</rscale>
<asrwt>0</asrwt>
<pdfrwt beam="1">  1        2 0.30474926E+00 0.54063612E+04</pdfrwt>
<pdfrwt beam="2">  1       -2 0.56751946E+00 0.54063612E+04</pdfrwt>
<totfact> 0.34283510E-03</totfact>
</mgrwt>
</event>
<event>
 6    1  0.1528034E-005  0.4645378E+04  0.7818608E-02  0.7885668E-01
         -2   -1    0    0    0  501 -0.00000000000E+00  0.00000000000E+00  0.23629849498E+04  0.23629849498E+04  0.00000000000E+00 0.  1.
          2   -1    0    0  501    0  0.00000000000E+00 -0.00000000000E+00 -0.22830801766E+04  0.22830801766E+04  0.00000000000E+00 0. -1.
         23    2    1    2    0    0 -0.37796248191E+03 -0.13752711063E+04 -0.17923897386E+04  0.22924056370E+04  0.90754481127E+02 0.  0.
         11    1    3    3    0    0 -0.31017180778E+03 -0.10874411725E+04 -0.14753226238E+04  0.18588468732E+04  0.00000000000E+00 0.  1.
        -11    1    3    3    0    0 -0.67790674134E+02 -0.28782993387E+03 -0.31706711482E+03  0.43355876376E+03  0.00000000000E+00 0. -1.
         22    1    1    2    0    0  0.37796248191E+03  0.13752711063E+04  0.18722945118E+04  0.23536594895E+04  0.00000000000E+00 0.  1.
<mgrwt>
<rscale>  0 0.46453780E+04</rscale>
<asrwt>0</asrwt>
<pdfrwt beam="1">  1        2 0.35124310E+00 0.46453780E+04</pdfrwt>
<pdfrwt beam="2">  1       -2 0.36353615E+00 0.46453780E+04</pdfrwt>
<totfact> 0.44320531E-02</totfact>
</mgrwt>
</event>
<event>
 6    1  0.1528034E-005  0.1870044E+04  0.7818608E-02  0.8669913E-01
          1   -1    0    0  501    0  0.00000000000E+00  0.00000000000E+00  0.17501051014E+04  0.17501051014E+04  0.00000000000E+00 0. -1.
         -1   -1    0    0    0  501 -0.00000000000E+00 -0.00000000000E+00 -0.49955040303E+03  0.49955040303E+03  0.00000000000E+00 0.  1.
         23    2    1    2    0    0  0.37816966068E+03  0.42961198586E+02  0.16512571719E+04  0.16970069460E+04  0.91237986991E+02 0.  0.
         13    1    3    3    0    0  0.93553188200E+02  0.26064261791E+02  0.27832117626E+03  0.29477825890E+03  0.00000000000E+00 0.  1.
        -13    1    3    3    0    0  0.28461647248E+03  0.16896936795E+02  0.13729359956E+04  0.14022286871E+04  0.00000000000E+00 0. -1.
         22    1    1    2    0    0 -0.37816966068E+03 -0.42961198586E+02 -0.40070247352E+03  0.55264855842E+03  0.00000000000E+00 0.  1.
<mgrwt>
<rscale>  0 0.18700435E+04</rscale>
<asrwt>0</asrwt>
<pdfrwt beam="1">  1        1 0.26924694E+00 0.18700435E+04</pdfrwt>
<pdfrwt beam="2">  1       -1 0.76853909E-01 0.18700435E+04</pdfrwt>
<totfact> 0.70178018E+00</totfact>
</mgrwt>
</event>
<event>
 6    1  0.1528034E-005  0.1620351E+04  0.7818608E-02  0.8808142E-01
         -2   -1    0    0    0  501 -0.00000000000E+00  0.00000000000E+00  0.45320321757E+03  0.45320321757E+03  0.00000000000E+00 0. -1.
          2   -1    0    0  501    0  0.00000000000E+00 -0.00000000000E+00 -0.14483219949E+04  0.14483219949E+04  0.00000000000E+00 0.  1.
         23    2    1    2    0    0  0.74175174318E+03  0.19163667075E+03 -0.79916068058E+03  0.11107535401E+04  0.90528291047E+02 0.  0.
         11    1    3    3    0    0  0.30738417991E+03  0.43852074778E+02 -0.28257473496E+03  0.41982915497E+03  0.00000000000E+00 0. -1.
        -11    1    3    3    0    0  0.43436756327E+03  0.14778459597E+03 -0.51658594562E+03  0.69092438518E+03  0.00000000000E+00 0.  1.
         22    1    1    2    0    0 -0.74175174318E+03 -0.19163667075E+03 -0.19595809678E+03  0.79077167234E+03  0.00000000000E+00 0. -1.
<mgrwt>
<rscale>  0 0.16203508E+04</rscale>
<asrwt>0</asrwt>
<pdfrwt beam="1">  1        2 0.22281877E+00 0.16203508E+04</pdfrwt>
<pdfrwt beam="2">  1       -2 0.69723571E-01 0.16203508E+04</pdfrwt>
<totfact> 0.24378305E+01</totfact>
</mgrwt>
</event>
<event>
 6    1  0.1528034E-005  0.1263773E+04  0.7818608E-02  0.9058797E-01
         -2   -1    0    0    0  501 -0.00000000000E+00  0.00000000000E+00  0.20943014210E+03  0.20943014210E+03  0.00000000000E+00 0.  1.
          2   -1    0    0  501    0  0.00000000000E+00 -0.00000000000E+00 -0.19065103502E+04  0.19065103502E+04  0.00000000000E+00 0. -1.
         23    2    1    2    0    0  0.35723415083E+03 -0.14378936445E+03 -0.20685023090E+02  0.39588455247E+03  0.89471162141E+02 0.  0.
         11    1    3    3    0    0  0.22106432798E+03 -0.41281065717E+02 -0.99481979477E+01  0.22510559774E+03  0.00000000000E+00 0.  1.
        -11    1    3    3    0    0  0.13616982286E+03 -0.10250829873E+03 -0.10736825142E+02  0.17077895473E+03  0.00000000000E+00 0. -1.
         22    1    1    2    0    0 -0.35723415083E+03  0.14378936445E+03 -0.16763951850E+04  0.17200559398E+04  0.00000000000E+00 0. -1.
<mgrwt>
<rscale>  0 0.12637733E+04</rscale>
<asrwt>0</asrwt>
<pdfrwt beam="1">  1        2 0.29330929E+00 0.12637733E+04</pdfrwt>
<pdfrwt beam="2">  1       -2 0.32220021E-01 0.12637733E+04</pdfrwt>
<totfact> 0.66388169E+01</totfact>
</mgrwt>
</event>
<event>
 6    1  0.1528034E-005  0.1705649E+04  0.7818608E-02  0.8758149E-01
          2   -1    0    0  501    0  0.00000000000E+00  0.00000000000E+00  0.20356667344E+04  0.20356667344E+04  0.00000000000E+00 0. -1.
         -2   -1    0    0    0  501 -0.00000000000E+00 -0.00000000000E+00 -0.35728321552E+03  0.35728321552E+03  0.00000000000E+00 0.  1.
         23    2    1    2    0    0 -0.32339371611E+03 -0.66948260090E+03  0.14207319451E+04  0.16060733510E+04  0.90564344108E+02 0.  0.
         13    1    3    3    0    0 -0.14041295665E+03 -0.39275393199E+03  0.77579351071E+03  0.88081043406E+03  0.00000000000E+00 0.  1.
        -13    1    3    3    0    0 -0.18298075946E+03 -0.27672866892E+03  0.64493843436E+03  0.72526291692E+03  0.00000000000E+00 0. -1.
         22    1    1    2    0    0  0.32339371611E+03  0.66948260090E+03  0.25765157386E+03  0.78687659899E+03  0.00000000000E+00 0.  1.
<mgrwt>
<rscale>  0 0.17056489E+04</rscale>
<asrwt>0</asrwt>
<pdfrwt beam="1">  1        2 0.31317949E+00 0.17056489E+04</pdfrwt>
<pdfrwt beam="2">  1       -2 0.54966650E-01 0.17056489E+04</pdfrwt>
<totfact> 0.18899949E+01</totfact>
</mgrwt>
</event>
<event>
 6    1  0.1528034E-005  0.3107558E+04  0.7818608E-02  0.8213667E-01
         -2   -1    0    0    0  501 -0.00000000000E+00  0.00000000000E+00  0.18453988540E+04  0.18453988540E+04  0.00000000000E+00 0. -1.
          2   -1    0    0  501    0  0.00000000000E+00 -0.00000000000E+00 -0.13082425276E+04  0.13082425276E+04  0.00000000000E+00 0.  1.
         23    2    1    2    0    0  0.66316646736E+03 -0.55009936261E+03  0.15794118378E+04  0.18013486532E+04  0.88972719125E+02 0.  0.
         11    1    3    3    0    0  0.36212316987E+03 -0.28806849063E+03  0.75728066414E+03  0.88746304133E+03  0.00000000000E+00 0.  1.
        -11    1    3    3    0    0  0.30104329749E+03 -0.26203087197E+03  0.82213117366E+03  0.91388561184E+03  0.00000000000E+00 0. -1.
         22    1    1    2    0    0 -0.66316646736E+03  0.55009936261E+03 -0.10422555115E+04  0.13522927284E+04  0.00000000000E+00 0.  1.
<mgrwt>
<rscale>  0 0.31075581E+04</rscale>
<asrwt>0</asrwt>
<pdfrwt beam="1">  1        2 0.20126808E+00 0.31075581E+04</pdfrwt>
<pdfrwt beam="2">  1       -2 0.28390752E+00 0.31075581E+04</pdfrwt>
<totfact> 0.55296731E-01</totfact>
</mgrwt>
</event>
<event>
 6    1  0.1528034E-005  0.7209716E+04  0.7818608E-02  0.7556186E-01
          2   -1    0    0  501    0  0.00000000000E+00  0.00000000000E+00  0.34875566587E+04  0.34875566587E+04  0.00000000000E+00 0. -1.
         -2   -1    0    0    0  501 -0.00000000000E+00 -0.00000000000E+00 -0.37261051734E+04  0.37261051734E+04  0.00000000000E+00 0.  1.
         23    2    1    2    0    0  0.89945951342E+02 -0.22038291634E+04 -0.29714377150E+04  0.37017340657E+04  0.91868077452E+02 0.  0.
         13    1    3    3    0    0  0.57070020856E+02 -0.17643908546E+04 -0.23202770644E+04  0.29154789882E+04  0.00000000000E+00 0. -1.
        -13    1    3    3    0    0  0.32875930487E+02 -0.43943830880E+03 -0.65116065062E+03  0.78625507755E+03  0.00000000000E+00 0.  1.
         22    1    1    2    0    0 -0.89945951342E+02  0.22038291634E+04  0.27328892002E+04  0.35119277664E+04  0.00000000000E+00 0. -1.
<mgrwt>
<rscale>  0 0.72097165E+04</rscale>
<asrwt>0</asrwt>
<pdfrwt beam="1">  1        2 0.53654718E+00 0.72097165E+04</pdfrwt>
<pdfrwt beam="2">  1       -2 0.57324695E+00 0.72097165E+04</pdfrwt>
<totfact> 0.34445052E-04</totfact>
</mgrwt>
</event>
<event>
 6    1  0.1528034E-005  0.3348111E+04  0.7818608E-02  0.8150760E-01
         -2   -1    0    0    0  501 -0.00000000000E+00  0.00000000000E+00  0.13831230271E+04  0.13831230271E+04  0.00000000000E+00 0.  1.
          2   -1    0    0  501    0  0.00000000000E+00 -0.00000000000E+00 -0.20261835228E+04  0.20261835228E+04  0.00000000000E+00 0. -1.
         23    2    1    2    0    0 -0.14161111445E+04 -0.56989058226E+02  0.58309765341E+03  0.15352514992E+04  0.91519212413E+02 0.  0.
         11    1    3    3    0    0 -0.53288507257E+03  0.22027592932E+02  0.20952198151E+03  0.57301935059E+03  0.00000000000E+00 0. -1.
        -11    1    3    3    0    0 -0.88322607191E+03 -0.79016651158E+02  0.37357567190E+03  0.96223214865E+03  0.00000000000E+00 0.  1.
         22    1    1    2    0    0  0.14161111445E+04  0.56989058226E+02 -0.12261581491E+04  0.18740550507E+04  0.00000000000E+00 0. -1.
<mgrwt>
<rscale>  0 0.33481106E+04</rscale>
<asrwt>0</asrwt>
<pdfrwt beam="1">  1        2 0.31172054E+00 0.33481106E+04</pdfrwt>
<pdfrwt beam="2">  1       -2 0.21278816E+00 0.33481106E+04</pdfrwt>
<totfact> 0.59061588E-01</totfact>
</mgrwt>
</event>
<event>
 6    1  0.1528034E-005  0.3771236E+04  0.7818608E-02  0.8052356E-01
         -1   -1    0    0    0  501 -0.00000000000E+00  0.00000000000E+00  0.12130009919E+04  0.12130009919E+04  0.00000000000E+00 0.  1.
          1   -1    0    0  501    0  0.00000000000E+00 -0.00000000000E+00 -0.29312054924E+04  0.29312054924E+04  0.00000000000E+00 0. -1.
         23    2    1    2    0    0 -0.14227296752E+04  0.11126835228E+04 -0.26804906463E+03  0.18279217136E+04  0.84989052960E+02 0.  0.
         11    1    3    3    0    0 -0.65761673344E+03  0.46400930720E+03 -0.10453245706E+03  0.81159807777E+03  0.00000000000E+00 0. -1.
        -11    1    3    3    0    0 -0.76511294178E+03  0.64867421564E+03 -0.16351660757E+03  0.10163236358E+04  0.00000000000E+00 0.  1.
         22    1    1    2    0    0  0.14227296752E+04 -0.11126835228E+04 -0.14501554359E+04  0.23162847707E+04  0.00000000000E+00 0. -1.
<mgrwt>
<rscale>  0 0.37712360E+04</rscale>
<asrwt>0</asrwt>
<pdfrwt beam="1">  1        1 0.45095469E+00 0.37712360E+04</pdfrwt>
<pdfrwt beam="2">  1       -1 0.18661554E+00 0.37712360E+04</pdfrwt>
<totfact> 0.99813781E-02</totfact>
</mgrwt>
</event>
<event>
 6    1  0.1528034E-005  0.2597973E+04  0.7818608E-02  0.8368890E-01
         -2   -1    0    0    0  501 -0.00000000000E+00  0.00000000000E+00  0.75879135936E+03  0.75879135936E+03  0.00000000000E+00 0. -1.
          2   -1    0    0  501    0  0.00000000000E+00 -0.00000000000E+00 -0.22237543920E+04  0.22237543920E+04  0.00000000000E+00 0.  1.
         23    2    1    2    0    0 -0.26295816465E+03 -0.57963014461E+03  0.56445956902E+03  0.85565266589E+03  0.91699393031E+02 0.  0.
         13    1    3    3    0    0 -0.97079584977E+02 -0.32435478354E+03  0.30271784305E+03  0.45416799086E+03  0.00000000000E+00 0.  1.
        -13    1    3    3    0    0 -0.16587857967E+03 -0.25527536107E+03  0.26174172598E+03  0.40148467502E+03  0.00000000000E+00 0. -1.
         22    1    1    2    0    0  0.26295816465E+03  0.57963014461E+03 -0.20294226017E+04  0.21268930855E+04  0.00000000000E+00 0.  1.
<mgrwt>
<rscale>  0 0.25979728E+04</rscale>
<asrwt>0</asrwt>
<pdfrwt beam="1">  1        2 0.34211605E+00 0.25979728E+04</pdfrwt>
<pdfrwt beam="2">  1       -2 0.11673713E+00 0.25979728E+04</pdfrwt>
<totfact> 0.25176546E+00</totfact>
</mgrwt>
</event>
<event>
 6    1  0.1528034E-005  0.3472387E+04  0.7818608E-02  0.8120365E-01
          2   -1    0    0  501    0  0.00000000000E+00  0.00000000000E+00  0.26149277317E+04  0.26149277317E+04  0.00000000000E+00 0. -1.
         -2   -1    0    0    0  501 -0.00000000000E+00 -0.00000000000E+00 -0.11527540394E+04  0.11527540394E+04  0.00000000000E+00 0.  1.
         23    2    1    2    0    0  0.31299254405E+02  0.13144522653E+04  0.19599752193E+04  0.23617760981E+04  0.87858271775E+02 0.  0.
         11    1    3    3    0    0  0.22458983967E+02  0.22735974293E+03  0.39376035646E+03  0.45524068028E+03  0.00000000000E+00 0. -1.
        -11    1    3    3    0    0  0.88402704382E+01  0.10870925224E+04  0.15662148629E+04  0.19065354178E+04  0.00000000000E+00 0.  1.
         22    1    1    2    0    0 -0.31299254405E+02 -0.13144522653E+04 -0.49780152707E+03  0.14059056730E+04  0.00000000000E+00 0.  1.
<mgrwt>
<rscale>  0 0.34723874E+04</rscale>
<asrwt>0</asrwt>
<pdfrwt beam="1">  1        2 0.40229657E+00 0.34723874E+04</pdfrwt>
<pdfrwt beam="2">  1       -2 0.17734678E+00 0.34723874E+04</pdfrwt>
<totfact> 0.46456096E-01</totfact>
</mgrwt>
</event>
<event>
 6    1  0.1528034E-005  0.1737846E+04  0.7818608E-02  0.8740069E-01
          2   -1    0    0  501    0  0.00000000000E+00  0.00000000000E+00  0.16842677288E+04  0.16842677288E+04  0.00000000000E+00 0. -1.
         -2   -1    0    0    0  501 -0.00000000000E+00 -0.00000000000E+00 -0.44828227110E+03  0.44828227110E+03  0.00000000000E+00 0.  1.
         23    2    1    2    0    0 -0.13719705523E+03  0.44594933488E+03  0.15158323434E+04  0.15884837165E+04  0.88538032307E+02 0.  0.
         13    1    3    3    0    0 -0.12400694841E+02  0.16594750882E+03  0.46666168540E+03  0.49544473106E+03  0.00000000000E+00 0. -1.
        -13    1    3    3    0    0 -0.12479636039E+03  0.28000182606E+03  0.10491706580E+04  0.10930389855E+04  0.00000000000E+00 0.  1.
         22    1    1    2    0    0  0.13719705523E+03 -0.44594933488E+03 -0.27984688571E+03  0.54406628336E+03  0.00000000000E+00 0.  1.
<mgrwt>
<rscale>  0 0.17378462E+04</rscale>
<asrwt>0</asrwt>
<pdfrwt beam="1">  1        2 0.25911811E+00 0.17378462E+04</pdfrwt>
<pdfrwt beam="2">  1       -2 0.68966504E-01 0.17378462E+04</pdfrwt>
<totfact> 0.18228608E+01</totfact>
</mgrwt>
</event>
<event>
 6    1  0.1528034E-005  0.1442899E+04  0.7818608E-02  0.8923338E-01
         -2   -1    0    0    0  501 -0.00000000000E+00  0.00000000000E+00  0.52804413236E+03  0.52804413236E+03  0.00000000000E+00 0.  1.
          2   -1    0    0  501    0  0.00000000000E+00 -0.00000000000E+00 -0.98569313723E+03  0.98569313723E+03  0.00000000000E+00 0. -1.
         23    2    1    2    0    0  0.64340281990E+01  0.57173974525E+03 -0.68626200364E+03  0.89795188796E+03  0.91838567211E+02 0.  0.
         13    1    3    3    0    0 -0.10850053164E+02  0.32331792497E+03 -0.45369904026E+03  0.55722080309E+03  0.00000000000E+00 0. -1.
        -13    1    3    3    0    0  0.17284081363E+02  0.24842182028E+03 -0.23256296337E+03  0.34073108486E+03  0.00000000000E+00 0.  1.
         22    1    1    2    0    0 -0.64340281990E+01 -0.57173974525E+03  0.22861299877E+03  0.61578538163E+03  0.00000000000E+00 0.  1.
<mgrwt>
<rscale>  0 0.14428991E+04</rscale>
<asrwt>0</asrwt>
<pdfrwt beam="1">  1        2 0.15164510E+00 0.14428991E+04</pdfrwt>
<pdfrwt beam="2">  1       -2 0.81237559E-01 0.14428991E+04</pdfrwt>
<totfact> 0.33344271E+01</totfact>
</mgrwt>
</event>
<event>
 6    1  0.1528034E-005  0.2066533E+04  0.7818608E-02  0.8576131E-01
         -1   -1    0    0    0  501 -0.00000000000E+00  0.00000000000E+00  0.22522520409E+04  0.22522520409E+04  0.00000000000E+00 0.  1.
          1   -1    0    0  501    0  0.00000000000E+00 -0.00000000000E+00 -0.47403184646E+03  0.47403184646E+03  0.00000000000E+00 0. -1.
         23    2    1    2    0    0 -0.80696454671E+02 -0.86209455957E+02  0.22423325627E+04  0.22473848599E+04  0.93484750713E+02 0.  0.
         13    1    3    3    0    0 -0.99687185791E+02 -0.54746813401E+02  0.17337385477E+04  0.17374648487E+04  0.00000000000E+00 0. -1.
        -13    1    3    3    0    0  0.18990731120E+02 -0.31462642555E+02  0.50859401500E+03  0.50992001121E+03  0.00000000000E+00 0.  1.
         22    1    1    2    0    0  0.80696454671E+02  0.86209455957E+02 -0.46411236829E+03  0.47889902745E+03  0.00000000000E+00 0. -1.
<mgrwt>
<rscale>  0 0.20665325E+04</rscale>
<asrwt>0</asrwt>
<pdfrwt beam="1">  1        1 0.72927978E-01 0.20665325E+04</pdfrwt>
<pdfrwt beam="2">  1       -1 0.34650031E+00 0.20665325E+04</pdfrwt>
<totfact> 0.72198689E-01</totfact>
</mgrwt>
</event>
<event>
 6    1  0.1528034E-005  0.6721929E+04  0.7818608E-02  0.7606813E-01
          2   -1    0    0  501    0  0.00000000000E+00  0.00000000000E+00  0.30436750236E+04  0.30436750236E+04  0.00000000000E+00 0. -1.
         -2   -1    0    0    0  501 -0.00000000000E+00 -0.00000000000E+00 -0.37113299926E+04  0.37113299926E+04  0.00000000000E+00 0.  1.
         23    2    1    2    0    0  0.26870301483E+04  0.18176816045E+04  0.54672200703E+03  0.32910753297E+04  0.90412608481E+02 0.  0.
         11    1    3    3    0    0  0.17720139464E+04  0.12147720565E+04  0.40320596427E+03  0.21859276349E+04  0.00000000000E+00 0. -1.
        -11    1    3    3    0    0  0.91501620195E+03  0.60290954803E+03  0.14351604276E+03  0.11051476949E+04  0.00000000000E+00 0.  1.
         22    1    1    2    0    0 -0.26870301483E+04 -0.18176816045E+04 -0.12143769760E+04  0.34639296865E+04  0.00000000000E+00 0. -1.
<mgrwt>
<rscale>  0 0.67219290E+04</rscale>
<asrwt>0</asrwt>
<pdfrwt beam="1">  1        2 0.46825770E+00 0.67219290E+04</pdfrwt>
<pdfrwt beam="2">  1       -2 0.57097384E+00 0.67219290E+04</pdfrwt>
<totfact> 0.71976018E-04</totfact>
</mgrwt>
</event>
<event>
 6    1  0.1528034E-005  0.3877807E+04  0.7818608E-02  0.8029661E-01
         -1   -1    0    0    0  501 -0.00000000000E+00  0.00000000000E+00  0.30693177348E+04  0.30693177348E+04  0.00000000000E+00 0.  1.
          1   -1    0    0  501    0  0.00000000000E+00 -0.00000000000E+00 -0.12248152888E+04  0.12248152888E+04  0.00000000000E+00 0. -1.
         23    2    1    2    0    0  0.16585164030E+03  0.58365997843E+03 -0.11150716089E+04  0.12730000700E+04  0.94756256012E+02 0.  0.
         13    1    3    3    0    0  0.44885816328E+02  0.25519878801E+03 -0.39569067966E+03  0.47298231667E+03  0.00000000000E+00 0. -1.
        -13    1    3    3    0    0  0.12096582398E+03  0.32846119042E+03 -0.71938092926E+03  0.80001775328E+03  0.00000000000E+00 0.  1.
         22    1    1    2    0    0 -0.16585164030E+03 -0.58365997843E+03  0.29595740549E+04  0.30211329537E+04  0.00000000000E+00 0.  1.
<mgrwt>
<rscale>  0 0.38778073E+04</rscale>
<asrwt>0</asrwt>
<pdfrwt beam="1">  1        1 0.18843312E+00 0.38778073E+04</pdfrwt>
<pdfrwt beam="2">  1       -1 0.47220273E+00 0.38778073E+04</pdfrwt>
<totfact> 0.18473367E-02</totfact>
</mgrwt>
</event>
<event>
 6    1  0.1528034E-005  0.1515072E+04  0.7818608E-02  0.8874492E-01
          1   -1    0    0  501    0  0.00000000000E+00  0.00000000000E+00  0.18859689430E+04  0.18859689430E+04  0.00000000000E+00 0. -1.
         -1   -1    0    0    0  501 -0.00000000000E+00 -0.00000000000E+00 -0.30427883257E+03  0.30427883257E+03  0.00000000000E+00 0.  1.
         23    2    1    2    0    0 -0.23663137392E+03  0.36034476930E+03 -0.10312402180E+03  0.45115565033E+03  0.84048182973E+02 0.  0.
         13    1    3    3    0    0 -0.12699580269E+03  0.21771992805E+03 -0.10020063934E+03  0.27123803032E+03  0.00000000000E+00 0. -1.
        -13    1    3    3    0    0 -0.10963557123E+03  0.14262484126E+03 -0.29233824606E+01  0.17991762000E+03  0.00000000000E+00 0.  1.
         22    1    1    2    0    0  0.23663137392E+03 -0.36034476930E+03  0.16848141322E+04  0.17390921252E+04  0.00000000000E+00 0. -1.
<mgrwt>
<rscale>  0 0.15150715E+04</rscale>
<asrwt>0</asrwt>
<pdfrwt beam="1">  1        1 0.29014906E+00 0.15150715E+04</pdfrwt>
<pdfrwt beam="2">  1       -1 0.46812129E-01 0.15150715E+04</pdfrwt>
<totfact> 0.15653141E+01</totfact>
</mgrwt>
</event>
<event>
 6    1  0.1528034E-005  0.8439506E+03  0.7818608E-02  0.9498492E-01
          2   -1    0    0  501    0  0.00000000000E+00  0.00000000000E+00  0.67030075861E+03  0.67030075861E+03  0.00000000000E+00 0. -1.
         -2   -1    0    0    0  501 -0.00000000000E+00 -0.00000000000E+00 -0.26564663631E+03  0.26564663631E+03  0.00000000000E+00 0.  1.
         23    2    1    2    0    0  0.27692411692E+03 -0.33135157553E+02 -0.13907044561E+03  0.32486531292E+03  0.91716833227E+02 0.  0.
         11    1    3    3    0    0  0.41095081208E+02  0.28165062876E+02 -0.26930677764E+02  0.56633363586E+02  0.00000000000E+00 0. -1.
        -11    1    3    3    0    0  0.23582903571E+03 -0.61300220429E+02 -0.11213976785E+03  0.26823194933E+03  0.00000000000E+00 0.  1.
         22    1    1    2    0    0 -0.27692411692E+03  0.33135157553E+02  0.54372456791E+03  0.61108208201E+03  0.00000000000E+00 0. -1.
<mgrwt>
<rscale>  0 0.84395057E+03</rscale>
<asrwt>0</asrwt>
<pdfrwt beam="1">  1        2 0.10312319E+00 0.84395057E+03</pdfrwt>
<pdfrwt beam="2">  1       -2 0.40868714E-01 0.84395057E+03</pdfrwt>
<totfact> 0.24648187E+02</totfact>
</mgrwt>
</event>
<event>
 6    1  0.1528034E-005  0.4568235E+03  0.7818608E-02  0.1025707E+00
         -2   -1    0    0    0  501 -0.00000000000E+00  0.00000000000E+00  0.61076598215E+02  0.61076598215E+02  0.00000000000E+00 0.  1.
          2   -1    0    0  501    0  0.00000000000E+00 -0.00000000000E+00 -0.85420489870E+03  0.85420489870E+03  0.00000000000E+00 0. -1.
         23    2    1    2    0    0 -0.35214325721E+02 -0.20652386301E+03 -0.53977707054E+03  0.58652778903E+03  0.93613069069E+02 0.  0.
         13    1    3    3    0    0 -0.57231062484E+02 -0.11850319688E+03 -0.24505204547E+03  0.27815266883E+03  0.00000000000E+00 0.  1.
        -13    1    3    3    0    0  0.22016736763E+02 -0.88020666129E+02 -0.29472502506E+03  0.30837512020E+03  0.00000000000E+00 0. -1.
         22    1    1    2    0    0  0.35214325721E+02  0.20652386301E+03 -0.25335122994E+03  0.32875370788E+03  0.00000000000E+00 0.  1.
<mgrwt>
<rscale>  0 0.45682351E+03</rscale>
<asrwt>0</asrwt>
<pdfrwt beam="1">  1        2 0.13141613E+00 0.45682351E+03</pdfrwt>
<pdfrwt beam="2">  1       -2 0.93964007E-02 0.45682351E+03</pdfrwt>
<totfact> 0.23956826E+03</totfact>
</mgrwt>
</event>
<event>
 6    1  0.1528034E-005  0.1656338E+04  0.7818608E-02  0.8786666E-01
          1   -1    0    0  501    0  0.00000000000E+00  0.00000000000E+00  0.14798049065E+04  0.14798049065E+04  0.00000000000E+00 0. -1.
         -1   -1    0    0    0  501 -0.00000000000E+00 -0.00000000000E+00 -0.46348278817E+03  0.46348278817E+03  0.00000000000E+00 0.  1.
         23    2    1    2    0    0 -0.98446923724E+02 -0.77932340580E+03  0.80757736999E+03  0.11305078121E+04  0.93967744614E+02 0.  0.
         11    1    3    3    0    0 -0.45418573181E+02 -0.60761254447E+03  0.58793660330E+03  0.84671441495E+03  0.00000000000E+00 0.  1.
        -11    1    3    3    0    0 -0.53028350543E+02 -0.17171086134E+03  0.21964076669E+03  0.28379339713E+03  0.00000000000E+00 0. -1.
         22    1    1    2    0    0  0.98446923724E+02  0.77932340580E+03  0.20874474837E+03  0.81277988262E+03  0.00000000000E+00 0. -1.
<mgrwt>
<rscale>  0 0.16563383E+04</rscale>
<asrwt>0</asrwt>
<pdfrwt beam="1">  1        1 0.22766229E+00 0.16563383E+04</pdfrwt>
<pdfrwt beam="2">  1       -1 0.71305045E-01 0.16563383E+04</pdfrwt>
<totfact> 0.12815845E+01</totfact>
</mgrwt>
</event>
<event>
 6    1  0.1528034E-005  0.3071055E+04  0.7818608E-02  0.8223727E-01
          2   -1    0    0  501    0  0.00000000000E+00  0.00000000000E+00  0.36412588480E+04  0.36412588480E+04  0.00000000000E+00 0.  1.
         -2   -1    0    0    0  501 -0.00000000000E+00 -0.00000000000E+00 -0.64753544811E+03  0.64753544811E+03  0.00000000000E+00 0. -1.
         23    2    1    2    0    0 -0.70741176398E+03 -0.13198219747E+04  0.19639694842E+04  0.24714460698E+04  0.92239321024E+02 0.  0.
         13    1    3    3    0    0 -0.14220688214E+03 -0.34342233273E+03  0.46237213806E+03  0.59325347871E+03  0.00000000000E+00 0.  1.
        -13    1    3    3    0    0 -0.56520488184E+03 -0.97639964197E+03  0.15015973462E+04  0.18781925911E+04  0.00000000000E+00 0. -1.
         22    1    1    2    0    0  0.70741176398E+03  0.13198219747E+04  0.10297539156E+04  0.18173482263E+04  0.00000000000E+00 0. -1.
<mgrwt>
<rscale>  0 0.30710547E+04</rscale>
<asrwt>0</asrwt>
<pdfrwt beam="1">  1        2 0.56019366E+00 0.30710547E+04</pdfrwt>
<pdfrwt beam="2">  1       -2 0.99620840E-01 0.30710547E+04</pdfrwt>
<totfact> 0.45673189E-01</totfact>
</mgrwt>
</event>
<event>
 6    1  0.1528034E-005  0.4415905E+04  0.7818608E-02  0.7925527E-01
         -2   -1    0    0    0  501 -0.00000000000E+00  0.00000000000E+00  0.16550263169E+04  0.16550263169E+04  0.00000000000E+00 0.  1.
          2   -1    0    0  501    0  0.00000000000E+00 -0.00000000000E+00 -0.29456050870E+04  0.29456050870E+04  0.00000000000E+00 0. -1.
         23    2    1    2    0    0 -0.11412644338E+04  0.49322067696E+03  0.12540771375E+04  0.17684900176E+04  0.95374691691E+02 0.  0.
         13    1    3    3    0    0 -0.25970221881E+03  0.70030141662E+02  0.27883914285E+03  0.38742835567E+03  0.00000000000E+00 0. -1.
        -13    1    3    3    0    0 -0.88156221496E+03  0.42319053530E+03  0.97523799462E+03  0.13810616620E+04  0.00000000000E+00 0.  1.
         22    1    1    2    0    0  0.11412644338E+04 -0.49322067696E+03 -0.25446559076E+04  0.28321413863E+04  0.00000000000E+00 0. -1.
<mgrwt>
<rscale>  0 0.44159049E+04</rscale>
<asrwt>0</asrwt>
<pdfrwt beam="1">  1        2 0.45317001E+00 0.44159049E+04</pdfrwt>
<pdfrwt beam="2">  1       -2 0.25461943E+00 0.44159049E+04</pdfrwt>
<totfact> 0.86417239E-02</totfact>
</mgrwt>
</event>
<event>
 6    1  0.1528034E-005  0.1825791E+04  0.7818608E-02  0.8692703E-01
          1   -1    0    0  501    0  0.00000000000E+00  0.00000000000E+00  0.25654866980E+04  0.25654866980E+04  0.00000000000E+00 0. -1.
         -1   -1    0    0    0  501 -0.00000000000E+00 -0.00000000000E+00 -0.32484220539E+03  0.32484220539E+03  0.00000000000E+00 0.  1.
         23    2    1    2    0    0  0.82599560632E+03  0.14380584065E+03  0.16853807128E+04  0.18847113187E+04  0.93165156249E+02 0.  0.
         13    1    3    3    0    0  0.18295260249E+03  0.49482227761E+02  0.46307752886E+03  0.50036081317E+03  0.00000000000E+00 0.  1.
        -13    1    3    3    0    0  0.64304300383E+03  0.94323612891E+02  0.12223031839E+04  0.13843505055E+04  0.00000000000E+00 0. -1.
         22    1    1    2    0    0 -0.82599560632E+03 -0.14380584065E+03  0.55526377982E+03  0.10056175847E+04  0.00000000000E+00 0.  1.
<mgrwt>
<rscale>  0 0.18257912E+04</rscale>
<asrwt>0</asrwt>
<pdfrwt beam="1">  1        1 0.39469025E+00 0.18257912E+04</pdfrwt>
<pdfrwt beam="2">  1       -1 0.49975725E-01 0.18257912E+04</pdfrwt>
<totfact> 0.46194228E+00</totfact>
</mgrwt>
</event>
<event>
 6    1  0.1528034E-005  0.9416136E+03  0.7818608E-02  0.9375007E-01
         -1   -1    0    0    0  501 -0.00000000000E+00  0.00000000000E+00  0.10609777309E+04  0.10609777309E+04  0.00000000000E+00 0.  1.
          1   -1    0    0  501    0  0.00000000000E+00 -0.00000000000E+00 -0.20891957946E+03  0.20891957946E+03  0.00000000000E+00 0. -1.
         23    2    1    2    0    0 -0.10009188030E+03  0.41449066127E+03  0.68713463238E+03  0.81270953718E+03  0.80758256734E+02 0.  0.
         11    1    3    3    0    0 -0.43056463758E+02  0.27196912113E+03  0.37916888684E+03  0.46860442451E+03  0.00000000000E+00 0. -1.
        -11    1    3    3    0    0 -0.57035416545E+02  0.14252154014E+03  0.30796574554E+03  0.34410511268E+03  0.00000000000E+00 0.  1.
         22    1    1    2    0    0  0.10009188030E+03 -0.41449066127E+03  0.16492351903E+03  0.45718777315E+03  0.00000000000E+00 0. -1.
<mgrwt>
<rscale>  0 0.94161355E+03</rscale>
<asrwt>0</asrwt>
<pdfrwt beam="1">  1        1 0.32141474E-01 0.94161355E+03</pdfrwt>
<pdfrwt beam="2">  1       -1 0.16322734E+00 0.94161355E+03</pdfrwt>
<totfact> 0.39095590E+01</totfact>
</mgrwt>
</event>
<event>
 6    1  0.1528034E-005  0.3364633E+04  0.7818608E-02  0.8146641E-01
         -1   -1    0    0    0  501 -0.00000000000E+00  0.00000000000E+00  0.14576545577E+04  0.14576545577E+04  0.00000000000E+00 0.  1.
          1   -1    0    0  501    0  0.00000000000E+00 -0.00000000000E+00 -0.19416047215E+04  0.19416047215E+04  0.00000000000E+00 0. -1.
         23    2    1    2    0    0  0.27993198474E+03  0.16332141443E+04 -0.52827311365E+03  0.17416360166E+04  0.92049847098E+02 0.  0.
         13    1    3    3    0    0  0.75763621636E+02  0.25140365353E+03 -0.73736988609E+02  0.27272892560E+03  0.00000000000E+00 0.  1.
        -13    1    3    3    0    0  0.20416836310E+03  0.13818104908E+04 -0.45453612504E+03  0.14689070910E+04  0.00000000000E+00 0. -1.
         22    1    1    2    0    0 -0.27993198474E+03 -0.16332141443E+04  0.44322949856E+02  0.16576232627E+04  0.00000000000E+00 0.  1.
<mgrwt>
<rscale>  0 0.33646331E+04</rscale>
<asrwt>0</asrwt>
<pdfrwt beam="1">  1        1 0.29870842E+00 0.33646331E+04</pdfrwt>
<pdfrwt beam="2">  1       -1 0.22425455E+00 0.33646331E+04</pdfrwt>
<totfact> 0.27768547E-01</totfact>
</mgrwt>
</event>
<event>
 6    1  0.1528034E-005  0.4127774E+04  0.7818608E-02  0.7979255E-01
         -2   -1    0    0    0  501 -0.00000000000E+00  0.00000000000E+00  0.11428612286E+04  0.11428612286E+04  0.00000000000E+00 0.  1.
          2   -1    0    0  501    0  0.00000000000E+00 -0.00000000000E+00 -0.37271616422E+04  0.37271616422E+04  0.00000000000E+00 0. -1.
         23    2    1    2    0    0  0.56405787704E+03  0.90602855912E+03 -0.33755376911E+04  0.35414501525E+04  0.92549659654E+02 0.  0.
         11    1    3    3    0    0  0.80723188659E+02  0.19965926519E+03 -0.68266115276E+03  0.71582561064E+03  0.00000000000E+00 0. -1.
        -11    1    3    3    0    0  0.48333468839E+03  0.70636929393E+03 -0.26928765384E+04  0.28256245418E+04  0.00000000000E+00 0.  1.
         22    1    1    2    0    0 -0.56405787704E+03 -0.90602855912E+03  0.79123727754E+03  0.13285727184E+04  0.00000000000E+00 0.  1.
<mgrwt>
<rscale>  0 0.41277735E+04</rscale>
<asrwt>0</asrwt>
<pdfrwt beam="1">  1        2 0.57340947E+00 0.41277735E+04</pdfrwt>
<pdfrwt beam="2">  1       -2 0.17582481E+00 0.41277735E+04</pdfrwt>
<totfact> 0.84130636E-02</totfact>
</mgrwt>
</event>
<event>
 6    1  0.1528034E-005  0.1451099E+04  0.7818608E-02  0.8917639E-01
         -2   -1    0    0    0  501 -0.00000000000E+00  0.00000000000E+00  0.24552311113E+03  0.24552311113E+03  0.00000000000E+00 0.  1.
          2   -1    0    0  501    0  0.00000000000E+00 -0.00000000000E+00 -0.21440831138E+04  0.21440831138E+04  0.00000000000E+00 0. -1.
         23    2    1    2    0    0 -0.35615747529E+03 -0.53614423427E+03 -0.14946780640E+04  0.16297250451E+04  0.87420938292E+02 0.  0.
         11    1    3    3    0    0 -0.19242855755E+03 -0.23395776564E+03 -0.62321793837E+03  0.69293981309E+03  0.00000000000E+00 0. -1.
        -11    1    3    3    0    0 -0.16372891774E+03 -0.30218646863E+03 -0.87146012561E+03  0.93678523197E+03  0.00000000000E+00 0.  1.
         22    1    1    2    0    0  0.35615747529E+03  0.53614423427E+03 -0.40388193874E+03  0.75988117991E+03  0.00000000000E+00 0.  1.
<mgrwt>
<rscale>  0 0.14510988E+04</rscale>
<asrwt>0</asrwt>
<pdfrwt beam="1">  1        2 0.32985893E+00 0.14510988E+04</pdfrwt>
<pdfrwt beam="2">  1       -2 0.37772787E-01 0.14510988E+04</pdfrwt>
<totfact> 0.35637450E+01</totfact>
</mgrwt>
</event>
<event>
 6    1  0.1528034E-005  0.2484016E+04  0.7818608E-02  0.8408702E-01
          1   -1    0    0  501    0  0.00000000000E+00  0.00000000000E+00  0.61409948027E+03  0.61409948027E+03  0.00000000000E+00 0.  1.
         -1   -1    0    0    0  501 -0.00000000000E+00 -0.00000000000E+00 -0.25119451692E+04  0.25119451692E+04  0.00000000000E+00 0. -1.
         23    2    1    2    0    0  0.12036101871E+04 -0.29430436030E+03 -0.10200530630E+04  0.16075544674E+04  0.91818163438E+02 0.  0.
         13    1    3    3    0    0  0.10280654630E+04 -0.27937823771E+03 -0.89656599398E+03  0.13924084808E+04  0.00000000000E+00 0.  1.
        -13    1    3    3    0    0  0.17554472413E+03 -0.14926122589E+02 -0.12348706902E+03  0.21514598654E+03  0.00000000000E+00 0. -1.
         22    1    1    2    0    0 -0.12036101871E+04  0.29430436030E+03 -0.87779262595E+03  0.15184901821E+04  0.00000000000E+00 0.  1.
<mgrwt>
<rscale>  0 0.24840163E+04</rscale>
<asrwt>0</asrwt>
<pdfrwt beam="1">  1        1 0.94476844E-01 0.24840163E+04</pdfrwt>
<pdfrwt beam="2">  1       -1 0.38645310E+00 0.24840163E+04</pdfrwt>
<totfact> 0.26067394E-01</totfact>
</mgrwt>
</event>
<event>
 6    1  0.1528034E-005  0.5437084E+03  0.7818608E-02  0.1002961E+00
          2   -1    0    0  501    0  0.00000000000E+00  0.00000000000E+00  0.56961767871E+03  0.56961767871E+03  0.00000000000E+00 0.  1.
         -2   -1    0    0    0  501 -0.00000000000E+00 -0.00000000000E+00 -0.12974442090E+03  0.12974442090E+03  0.00000000000E+00 0. -1.
         23    2    1    2    0    0  0.15960271940E+03  0.14185851285E+03  0.42592472084E+03  0.48537278355E+03  0.92617522540E+02 0.  0.
         13    1    3    3    0    0  0.13414315141E+02  0.53247477902E+02  0.59107100197E+02  0.80677673784E+02  0.00000000000E+00 0. -1.
        -13    1    3    3    0    0  0.14618840426E+03  0.88611034944E+02  0.36681762064E+03  0.40469510976E+03  0.00000000000E+00 0.  1.
         22    1    1    2    0    0 -0.15960271940E+03 -0.14185851285E+03  0.13948536976E+02  0.21398931607E+03  0.00000000000E+00 0. -1.
<mgrwt>
<rscale>  0 0.54370844E+03</rscale>
<asrwt>0</asrwt>
<pdfrwt beam="1">  1        2 0.87633487E-01 0.54370844E+03</pdfrwt>
<pdfrwt beam="2">  1       -2 0.19960681E-01 0.54370844E+03</pdfrwt>
<totfact> 0.11332267E+03</totfact>
</mgrwt>
</event>
<event>
 6    1  0.1528034E-005  0.1702913E+04  0.7818608E-02  0.8759705E-01
         -2   -1    0    0    0  501 -0.00000000000E+00  0.00000000000E+00  0.11589043194E+04  0.11589043194E+04  0.00000000000E+00 0. -1.
          2   -1    0    0  501    0  0.00000000000E+00 -0.00000000000E+00 -0.62557181251E+03  0.62557181251E+03  0.00000000000E+00 0.  1.
         23    2    1    2    0    0  0.81313330504E+03 -0.20971861199E+03  0.13606719980E+03  0.85550498477E+03  0.90591545582E+02 0.  0.
         13    1    3    3    0    0  0.38928890599E+03 -0.14196617522E+03  0.87874352286E+02  0.42358251737E+03  0.00000000000E+00 0. -1.
        -13    1    3    3    0    0  0.42384439905E+03 -0.67752436766E+02  0.48192847514E+02  0.43192246740E+03  0.00000000000E+00 0.  1.
         22    1    1    2    0    0 -0.81313330504E+03  0.20971861199E+03  0.39726530707E+03  0.92897114712E+03  0.00000000000E+00 0. -1.
<mgrwt>
<rscale>  0 0.17029127E+04</rscale>
<asrwt>0</asrwt>
<pdfrwt beam="1">  1        2 0.96241818E-01 0.17029127E+04</pdfrwt>
<pdfrwt beam="2">  1       -2 0.17829297E+00 0.17029127E+04</pdfrwt>
<totfact> 0.83485682E+00</totfact>
</mgrwt>
</event>
<event>
 6    1  0.1528034E-005  0.1198231E+04  0.7818608E-02  0.9114406E-01
         -2   -1    0    0    0  501 -0.00000000000E+00  0.00000000000E+00  0.17399450735E+03  0.17399450735E+03  0.00000000000E+00 0.  1.
          2   -1    0    0  501    0  0.00000000000E+00 -0.00000000000E+00 -0.20629359139E+04  0.20629359139E+04  0.00000000000E+00 0. -1.
         23    2    1    2    0    0  0.17104919352E+03 -0.55943159213E+03 -0.11583341554E+04  0.13009771701E+04  0.92639347333E+02 0.  0.
         13    1    3    3    0    0  0.17228721299E+03 -0.55183656703E+03 -0.11566847167E+04  0.12931071163E+04  0.00000000000E+00 0. -1.
        -13    1    3    3    0    0 -0.12380194646E+01 -0.75950251043E+01 -0.16494387270E+01  0.78700537891E+01  0.00000000000E+00 0.  1.
         22    1    1    2    0    0 -0.17104919352E+03  0.55943159213E+03 -0.73060725108E+03  0.93595325108E+03  0.00000000000E+00 0.  1.
<mgrwt>
<rscale>  0 0.11982312E+04</rscale>
<asrwt>0</asrwt>
<pdfrwt beam="1">  1        2 0.31737477E+00 0.11982312E+04</pdfrwt>
<pdfrwt beam="2">  1       -2 0.26768385E-01 0.11982312E+04</pdfrwt>
<totfact> 0.77159728E+01</totfact>
</mgrwt>
</event>
<event>
 6    1  0.1528034E-005  0.4587500E+04  0.7818608E-02  0.7895495E-01
         -2   -1    0    0    0  501 -0.00000000000E+00  0.00000000000E+00  0.21998699732E+04  0.21998699732E+04  0.00000000000E+00 0.  1.
          2   -1    0    0  501    0  0.00000000000E+00 -0.00000000000E+00 -0.23916368261E+04  0.23916368261E+04  0.00000000000E+00 0. -1.
         23    2    1    2    0    0 -0.77046259852E+03  0.18021086264E+03 -0.22499139567E+04  0.23864993001E+04  0.84720280074E+02 0.  0.
         11    1    3    3    0    0 -0.55867769861E+03  0.10673138863E+03 -0.17009973636E+04  0.17935730794E+04  0.00000000000E+00 0. -1.
        -11    1    3    3    0    0 -0.21178489991E+03  0.73479474016E+02 -0.54891659308E+03  0.59292622061E+03  0.00000000000E+00 0.  1.
         22    1    1    2    0    0  0.77046259852E+03 -0.18021086264E+03  0.20581471038E+04  0.22050074992E+04  0.00000000000E+00 0.  1.
<mgrwt>
<rscale>  0 0.45875004E+04</rscale>
<asrwt>0</asrwt>
<pdfrwt beam="1">  1        2 0.36794413E+00 0.45875004E+04</pdfrwt>
<pdfrwt beam="2">  1       -2 0.33844153E+00 0.45875004E+04</pdfrwt>
<totfact> 0.55615014E-02</totfact>
</mgrwt>
</event>
<event>
 6    1  0.1528034E-005  0.2776529E+04  0.7818608E-02  0.8310592E-01
         -2   -1    0    0    0  501 -0.00000000000E+00  0.00000000000E+00  0.84590251521E+03  0.84590251521E+03  0.00000000000E+00 0. -1.
          2   -1    0    0  501    0  0.00000000000E+00 -0.00000000000E+00 -0.22783691214E+04  0.22783691214E+04  0.00000000000E+00 0.  1.
         23    2    1    2    0    0 -0.90100403243E+02 -0.13819343406E+04 -0.63400903632E+03  0.15257113170E+04  0.89257831549E+02 0.  0.
         11    1    3    3    0    0 -0.30177858430E+02 -0.69630454781E+03 -0.27285547343E+03  0.74846565440E+03  0.00000000000E+00 0. -1.
        -11    1    3    3    0    0 -0.59922544813E+02 -0.68562979277E+03 -0.36115356289E+03  0.77724566264E+03  0.00000000000E+00 0.  1.
         22    1    1    2    0    0  0.90100403243E+02  0.13819343406E+04 -0.79845756983E+03  0.15985603195E+04  0.00000000000E+00 0. -1.
<mgrwt>
<rscale>  0 0.27765289E+04</rscale>
<asrwt>0</asrwt>
<pdfrwt beam="1">  1        2 0.35051833E+00 0.27765289E+04</pdfrwt>
<pdfrwt beam="2">  1       -2 0.13013885E+00 0.27765289E+04</pdfrwt>
<totfact> 0.17608158E+00</totfact>
</mgrwt>
</event>
<event>
 6    1  0.1528034E-005  0.1754934E+04  0.7818608E-02  0.8730639E-01
          1   -1    0    0  501    0  0.00000000000E+00  0.00000000000E+00  0.22156563649E+04  0.22156563649E+04  0.00000000000E+00 0. -1.
         -1   -1    0    0    0  501 -0.00000000000E+00 -0.00000000000E+00 -0.34750361580E+03  0.34750361580E+03  0.00000000000E+00 0.  1.
         23    2    1    2    0    0 -0.10768366468E+03 -0.83168329148E+03  0.57147844688E+03  0.10189264767E+04  0.91272562169E+02 0.  0.
         13    1    3    3    0    0 -0.81540986444E+02 -0.54297370861E+03  0.42374264072E+03  0.69356124912E+03  0.00000000000E+00 0.  1.
        -13    1    3    3    0    0 -0.26142678231E+02 -0.28870958287E+03  0.14773580616E+03  0.32536522753E+03  0.00000000000E+00 0. -1.
         22    1    1    2    0    0  0.10768366468E+03  0.83168329148E+03  0.12966743023E+04  0.15442335041E+04  0.00000000000E+00 0. -1.
<mgrwt>
<rscale>  0 0.17549343E+04</rscale>
<asrwt>0</asrwt>
<pdfrwt beam="1">  1        1 0.34087020E+00 0.17549343E+04</pdfrwt>
<pdfrwt beam="2">  1       -1 0.53462096E-01 0.17549343E+04</pdfrwt>
<totfact> 0.71108412E+00</totfact>
</mgrwt>
</event>
<event>
 6    1  0.1528034E-005  0.4822593E+03  0.7818608E-02  0.1018516E+00
         -1   -1    0    0    0  501 -0.00000000000E+00  0.00000000000E+00  0.53311075599E+03  0.53311075599E+03  0.00000000000E+00 0.  1.
          1   -1    0    0  501    0  0.00000000000E+00 -0.00000000000E+00 -0.10906458533E+03  0.10906458533E+03  0.00000000000E+00 0. -1.
         23    2    1    2    0    0 -0.28416876298E+02  0.22286129004E+02  0.52548938286E+03  0.53449565101E+03  0.90787218514E+02 0.  0.
         13    1    3    3    0    0 -0.29403116848E+02 -0.31306341901E+02  0.19370211983E+03  0.19840650582E+03  0.00000000000E+00 0.  1.
        -13    1    3    3    0    0  0.98624054940E+00  0.53592470905E+02  0.33178726302E+03  0.33608914519E+03  0.00000000000E+00 0. -1.
         22    1    1    2    0    0  0.28416876298E+02 -0.22286129004E+02 -0.10144321220E+03  0.10767969031E+03  0.00000000000E+00 0. -1.
<mgrwt>
<rscale>  0 0.48225928E+03</rscale>
<asrwt>0</asrwt>
<pdfrwt beam="1">  1        1 0.16779167E-01 0.48225928E+03</pdfrwt>
<pdfrwt beam="2">  1       -1 0.82017038E-01 0.48225928E+03</pdfrwt>
<totfact> 0.49704584E+02</totfact>
</mgrwt>
</event>
<event>
 6    1  0.1528034E-005  0.2354514E+04  0.7818608E-02  0.8456732E-01
          2   -1    0    0  501    0  0.00000000000E+00  0.00000000000E+00  0.19815310783E+04  0.19815310783E+04  0.00000000000E+00 0. -1.
         -2   -1    0    0    0  501 -0.00000000000E+00 -0.00000000000E+00 -0.69942580283E+03  0.69942580283E+03  0.00000000000E+00 0.  1.
         23    2    1    2    0    0  0.17256183940E+03  0.49909123595E+03  0.18377974237E+04  0.19143648033E+04  0.91780059678E+02 0.  0.
         13    1    3    3    0    0  0.80865888148E+02  0.25691874653E+03  0.10981105323E+04  0.11306605482E+04  0.00000000000E+00 0. -1.
        -13    1    3    3    0    0  0.91695951247E+02  0.24217248942E+03  0.73968689143E+03  0.78370425510E+03  0.00000000000E+00 0.  1.
         22    1    1    2    0    0 -0.17256183940E+03 -0.49909123595E+03 -0.55569214822E+03  0.76659207784E+03  0.00000000000E+00 0.  1.
<mgrwt>
<rscale>  0 0.23545139E+04</rscale>
<asrwt>0</asrwt>
<pdfrwt beam="1">  1        2 0.30485093E+00 0.23545139E+04</pdfrwt>
<pdfrwt beam="2">  1       -2 0.10760397E+00 0.23545139E+04</pdfrwt>
<totfact> 0.42787676E+00</totfact>
</mgrwt>
</event>
<event>
 6    1  0.1528034E-005  0.1198797E+04  0.7818608E-02  0.9113911E-01
         -2   -1    0    0    0  501 -0.00000000000E+00  0.00000000000E+00  0.14755179502E+03  0.14755179502E+03  0.00000000000E+00 0.  1.
          2   -1    0    0  501    0  0.00000000000E+00 -0.00000000000E+00 -0.24349301559E+04  0.24349301559E+04  0.00000000000E+00 0. -1.
         23    2    1    2    0    0  0.36887752616E+03  0.39459892282E+03 -0.60944304461E+03  0.81974377843E+03  0.93702179512E+02 0.  0.
         11    1    3    3    0    0  0.20092828049E+03  0.15103385830E+03 -0.30486407170E+03  0.39512719783E+03  0.00000000000E+00 0.  1.
        -11    1    3    3    0    0  0.16794924568E+03  0.24356506451E+03 -0.30457897292E+03  0.42461658060E+03  0.00000000000E+00 0. -1.
         22    1    1    2    0    0 -0.36887752616E+03 -0.39459892282E+03 -0.16779353163E+04  0.17627381725E+04  0.00000000000E+00 0.  1.
<mgrwt>
<rscale>  0 0.11987966E+04</rscale>
<asrwt>0</asrwt>
<pdfrwt beam="1">  1        2 0.37460464E+00 0.11987966E+04</pdfrwt>
<pdfrwt beam="2">  1       -2 0.22700276E-01 0.11987966E+04</pdfrwt>
<totfact> 0.64311004E+01</totfact>
</mgrwt>
</event>
<event>
 6    1  0.1528034E-005  0.1558522E+04  0.7818608E-02  0.8846443E-01
         -1   -1    0    0    0  501 -0.00000000000E+00  0.00000000000E+00  0.71721937119E+03  0.71721937119E+03  0.00000000000E+00 0.  1.
          1   -1    0    0  501    0  0.00000000000E+00 -0.00000000000E+00 -0.84666936615E+03  0.84666936615E+03  0.00000000000E+00 0. -1.
         23    2    1    2    0    0  0.53607139842E+02 -0.69843048523E+03 -0.40129369688E+03  0.81250476998E+03  0.91915732857E+02 0.  0.
         13    1    3    3    0    0  0.12100899761E+02 -0.54402578935E+03 -0.28108013813E+03  0.61246757898E+03  0.00000000000E+00 0. -1.
        -13    1    3    3    0    0  0.41506240080E+02 -0.15440469587E+03 -0.12021355875E+03  0.20003719099E+03  0.00000000000E+00 0.  1.
         22    1    1    2    0    0 -0.53607139842E+02  0.69843048523E+03  0.27184370191E+03  0.75138396736E+03  0.00000000000E+00 0.  1.
<mgrwt>
<rscale>  0 0.15585220E+04</rscale>
<asrwt>0</asrwt>
<pdfrwt beam="1">  1        1 0.13025683E+00 0.15585220E+04</pdfrwt>
<pdfrwt beam="2">  1       -1 0.11034144E+00 0.15585220E+04</pdfrwt>
<totfact> 0.14707908E+01</totfact>
</mgrwt>
</event>
<event>
 6    1  0.1528034E-005  0.1188885E+04  0.7818608E-02  0.9122641E-01
          2   -1    0    0  501    0  0.00000000000E+00  0.00000000000E+00  0.17114902330E+04  0.17114902330E+04  0.00000000000E+00 0. -1.
         -2   -1    0    0    0  501 -0.00000000000E+00 -0.00000000000E+00 -0.20646453646E+03  0.20646453646E+03  0.00000000000E+00 0.  1.
         23    2    1    2    0    0  0.28832081799E+03  0.23719287685E+03  0.14958845646E+04  0.15444940417E+04  0.91661656130E+02 0.  0.
         11    1    3    3    0    0  0.13033346539E+03  0.66592304687E+02  0.45522856712E+03  0.47817820483E+03  0.00000000000E+00 0.  1.
        -11    1    3    3    0    0  0.15798735259E+03  0.17060057216E+03  0.10406559975E+04  0.10663158368E+04  0.00000000000E+00 0. -1.
         22    1    1    2    0    0 -0.28832081799E+03 -0.23719287685E+03  0.91411319248E+01  0.37346072779E+03  0.00000000000E+00 0.  1.
<mgrwt>
<rscale>  0 0.11888853E+04</rscale>
<asrwt>0</asrwt>
<pdfrwt beam="1">  1        2 0.26330618E+00 0.11888853E+04</pdfrwt>
<pdfrwt beam="2">  1       -2 0.31763776E-01 0.11888853E+04</pdfrwt>
<totfact> 0.87893219E+01</totfact>
</mgrwt>
</event>
<event>
 6    1  0.1528034E-005  0.3530859E+04  0.7818608E-02  0.8106515E-01
         -2   -1    0    0    0  501 -0.00000000000E+00  0.00000000000E+00  0.16274091687E+04  0.16274091687E+04  0.00000000000E+00 0.  1.
          2   -1    0    0  501    0  0.00000000000E+00 -0.00000000000E+00 -0.19151551802E+04  0.19151551802E+04  0.00000000000E+00 0. -1.
         23    2    1    2    0    0 -0.12571489497E+04  0.97227204451E+03 -0.91304688152E+03  0.18347184576E+04  0.82466965350E+02 0.  0.
         13    1    3    3    0    0 -0.10432841165E+04  0.78989341229E+03 -0.71813381661E+03  0.14926786423E+04  0.00000000000E+00 0. -1.
        -13    1    3    3    0    0 -0.21386483320E+03  0.18237863223E+03 -0.19491306491E+03  0.34203981530E+03  0.00000000000E+00 0.  1.
         22    1    1    2    0    0  0.12571489497E+04 -0.97227204451E+03  0.62530087002E+03  0.17078458913E+04  0.00000000000E+00 0.  1.
<mgrwt>
<rscale>  0 0.35308589E+04</rscale>
<asrwt>0</asrwt>
<pdfrwt beam="1">  1        2 0.29463926E+00 0.35308589E+04</pdfrwt>
<pdfrwt beam="2">  1       -2 0.25037064E+00 0.35308589E+04</pdfrwt>
<totfact> 0.39025352E-01</totfact>
</mgrwt>
</event>
<event>
 6    1  0.1528034E-005  0.1357782E+04  0.7818608E-02  0.8984958E-01
         -1   -1    0    0    0  501 -0.00000000000E+00  0.00000000000E+00  0.40048513988E+03  0.40048513988E+03  0.00000000000E+00 0.  1.
          1   -1    0    0  501    0  0.00000000000E+00 -0.00000000000E+00 -0.11508370220E+04  0.11508370220E+04  0.00000000000E+00 0. -1.
         23    2    1    2    0    0 -0.57486152809E+02  0.48732567472E+03  0.15456271200E+03  0.52192360269E+03  0.87884265363E+02 0.  0.
         11    1    3    3    0    0 -0.47736313104E+02  0.10373873903E+03  0.46378030173E+02  0.12325341069E+03  0.00000000000E+00 0. -1.
        -11    1    3    3    0    0 -0.97498397044E+01  0.38358693569E+03  0.10818468183E+03  0.39867019200E+03  0.00000000000E+00 0.  1.
         22    1    1    2    0    0  0.57486152809E+02 -0.48732567472E+03 -0.90491459412E+03  0.10293985592E+04  0.00000000000E+00 0. -1.
<mgrwt>
<rscale>  0 0.13577822E+04</rscale>
<asrwt>0</asrwt>
<pdfrwt beam="1">  1        1 0.17705185E+00 0.13577822E+04</pdfrwt>
<pdfrwt beam="2">  1       -1 0.61613099E-01 0.13577822E+04</pdfrwt>
<totfact> 0.30359247E+01</totfact>
</mgrwt>
</event>
<event>
 6    1  0.1528034E-005  0.2065308E+04  0.7818608E-02  0.8576681E-01
          2   -1    0    0  501    0  0.00000000000E+00  0.00000000000E+00  0.35077536805E+04  0.35077536805E+04  0.00000000000E+00 0. -1.
         -2   -1    0    0    0  501 -0.00000000000E+00 -0.00000000000E+00 -0.30400479628E+03  0.30400479628E+03  0.00000000000E+00 0.  1.
         23    2    1    2    0    0  0.83151864343E+03  0.57967980012E+03  0.12602185466E+04  0.16197817209E+04  0.89945056254E+02 0.  0.
         11    1    3    3    0    0  0.54459259336E+03  0.38138057880E+03  0.75705009614E+03  0.10075500418E+04  0.00000000000E+00 0.  1.
        -11    1    3    3    0    0  0.28692605007E+03  0.19829922132E+03  0.50316845045E+03  0.61223167911E+03  0.00000000000E+00 0. -1.
         22    1    1    2    0    0 -0.83151864343E+03 -0.57967980012E+03  0.19435303376E+04  0.21919767559E+04  0.00000000000E+00 0. -1.
<mgrwt>
<rscale>  0 0.20653077E+04</rscale>
<asrwt>0</asrwt>
<pdfrwt beam="1">  1        2 0.53965438E+00 0.20653077E+04</pdfrwt>
<pdfrwt beam="2">  1       -2 0.46769971E-01 0.20653077E+04</pdfrwt>
<totfact> 0.32315103E+00</totfact>
</mgrwt>
</event>
<event>
 6    1  0.1528034E-005  0.3370790E+04  0.7818608E-02  0.8145113E-01
         -2   -1    0    0    0  501 -0.00000000000E+00  0.00000000000E+00  0.15572309857E+04  0.15572309857E+04  0.00000000000E+00 0.  1.
          2   -1    0    0  501    0  0.00000000000E+00 -0.00000000000E+00 -0.18241069754E+04  0.18241069754E+04  0.00000000000E+00 0. -1.
         23    2    1    2    0    0 -0.16738118089E+04  0.91328065777E+02 -0.29646956366E+03  0.17047752374E+04  0.91529344396E+02 0.  0.
         11    1    3    3    0    0 -0.55830543350E+03 -0.12713340184E+02 -0.97950350114E+02  0.56697518216E+03  0.00000000000E+00 0.  1.
        -11    1    3    3    0    0 -0.11155063754E+04  0.10404140596E+03 -0.19851921354E+03  0.11378000553E+04  0.00000000000E+00 0. -1.
         22    1    1    2    0    0  0.16738118089E+04 -0.91328065777E+02  0.29593573931E+02  0.16765627238E+04  0.00000000000E+00 0. -1.
<mgrwt>
<rscale>  0 0.33707898E+04</rscale>
<asrwt>0</asrwt>
<pdfrwt beam="1">  1        2 0.28063184E+00 0.33707898E+04</pdfrwt>
<pdfrwt beam="2">  1       -2 0.23957400E+00 0.33707898E+04</pdfrwt>
<totfact> 0.51784689E-01</totfact>
</mgrwt>
</event>
<event>
 6    1  0.1528034E-005  0.2570925E+04  0.7818608E-02  0.8378145E-01
         -2   -1    0    0    0  501 -0.00000000000E+00  0.00000000000E+00  0.47548782298E+03  0.47548782298E+03  0.00000000000E+00 0.  1.
          2   -1    0    0  501    0  0.00000000000E+00 -0.00000000000E+00 -0.34751981692E+04  0.34751981692E+04  0.00000000000E+00 0. -1.
         23    2    1    2    0    0 -0.23135164934E+03 -0.11307187492E+04 -0.63765985392E+03  0.13217449499E+04  0.91384615133E+02 0.  0.
         13    1    3    3    0    0 -0.11542621307E+03 -0.66824660110E+03 -0.32863730485E+03  0.75357760627E+03  0.00000000000E+00 0.  1.
        -13    1    3    3    0    0 -0.11592543627E+03 -0.46247214811E+03 -0.30902254907E+03  0.56816734365E+03  0.00000000000E+00 0. -1.
         22    1    1    2    0    0  0.23135164934E+03  0.11307187492E+04 -0.23620504923E+04  0.26289410423E+04  0.00000000000E+00 0. -1.
<mgrwt>
<rscale>  0 0.25709254E+04</rscale>
<asrwt>0</asrwt>
<pdfrwt beam="1">  1        2 0.53464587E+00 0.25709254E+04</pdfrwt>
<pdfrwt beam="2">  1       -2 0.73151973E-01 0.25709254E+04</pdfrwt>
<totfact> 0.12669559E+00</totfact>
</mgrwt>
</event>
<event>
 6    1  0.1528034E-005  0.4071765E+04  0.7818608E-02  0.7990224E-01
          2   -1    0    0  501    0  0.00000000000E+00  0.00000000000E+00  0.33804071865E+04  0.33804071865E+04  0.00000000000E+00 0. -1.
         -2   -1    0    0    0  501 -0.00000000000E+00 -0.00000000000E+00 -0.12261296521E+04  0.12261296521E+04  0.00000000000E+00 0.  1.
         23    2    1    2    0    0 -0.95753265821E+03  0.17861139623E+04  0.12847349696E+04  0.24012758223E+04  0.92248330376E+02 0.  0.
         11    1    3    3    0    0 -0.67946569260E+03  0.11777323177E+04  0.87194752174E+03  0.16152459628E+04  0.00000000000E+00 0. -1.
        -11    1    3    3    0    0 -0.27806696561E+03  0.60838164467E+03  0.41278744785E+03  0.78602985950E+03  0.00000000000E+00 0.  1.
         22    1    1    2    0    0  0.95753265821E+03 -0.17861139623E+04  0.86954256487E+03  0.22052610163E+04  0.00000000000E+00 0. -1.
<mgrwt>
<rscale>  0 0.40717650E+04</rscale>
<asrwt>0</asrwt>
<pdfrwt beam="1">  1        2 0.52006264E+00 0.40717650E+04</pdfrwt>
<pdfrwt beam="2">  1       -2 0.18863533E+00 0.40717650E+04</pdfrwt>
<totfact> 0.12190257E-01</totfact>
</mgrwt>
</event>
<event>
 6    1  0.1528034E-005  0.1230659E+04  0.7818608E-02  0.9086436E-01
         -2   -1    0    0    0  501 -0.00000000000E+00  0.00000000000E+00  0.39128764817E+03  0.39128764817E+03  0.00000000000E+00 0.  1.
          2   -1    0    0  501    0  0.00000000000E+00 -0.00000000000E+00 -0.96765229083E+03  0.96765229083E+03  0.00000000000E+00 0. -1.
         23    2    1    2    0    0  0.16408935579E+03  0.34847119493E+02  0.36005972181E+03  0.40760917171E+03  0.91447226152E+02 0.  0.
         11    1    3    3    0    0  0.12432153376E+03 -0.95794045534E+01  0.18872818202E+03  0.22619888469E+03  0.00000000000E+00 0. -1.
        -11    1    3    3    0    0  0.39767822029E+02  0.44426524047E+02  0.17133153980E+03  0.18141028702E+03  0.00000000000E+00 0.  1.
         22    1    1    2    0    0 -0.16408935579E+03 -0.34847119493E+02 -0.93642436447E+03  0.95133076729E+03  0.00000000000E+00 0. -1.
<mgrwt>
<rscale>  0 0.12306590E+04</rscale>
<asrwt>0</asrwt>
<pdfrwt beam="1">  1        2 0.14886958E+00 0.12306590E+04</pdfrwt>
<pdfrwt beam="2">  1       -2 0.60198100E-01 0.12306590E+04</pdfrwt>
<totfact> 0.66963502E+01</totfact>
</mgrwt>
</event>
<event>
 6    1  0.1528034E-005  0.8574387E+03  0.7818608E-02  0.9480407E-01
          1   -1    0    0  501    0  0.00000000000E+00  0.00000000000E+00  0.51832245528E+03  0.51832245528E+03  0.00000000000E+00 0. -1.
         -1   -1    0    0    0  501 -0.00000000000E+00 -0.00000000000E+00 -0.35460605896E+03  0.35460605896E+03  0.00000000000E+00 0.  1.
         23    2    1    2    0    0  0.41710417899E+02 -0.18376967930E+03  0.46941797661E+03  0.51381222364E+03  0.90214801482E+02 0.  0.
         11    1    3    3    0    0 -0.93315017030E+01 -0.40599529728E+02  0.20168445692E+03  0.20594178522E+03  0.00000000000E+00 0. -1.
        -11    1    3    3    0    0  0.51041919602E+02 -0.14317014957E+03  0.26773351969E+03  0.30787043841E+03  0.00000000000E+00 0.  1.
         22    1    1    2    0    0 -0.41710417899E+02  0.18376967930E+03 -0.30570158028E+03  0.35911629061E+03  0.00000000000E+00 0.  1.
<mgrwt>
<rscale>  0 0.85743870E+03</rscale>
<asrwt>0</asrwt>
<pdfrwt beam="1">  1        1 0.79741916E-01 0.85743870E+03</pdfrwt>
<pdfrwt beam="2">  1       -1 0.54554778E-01 0.85743870E+03</pdfrwt>
<totfact> 0.14449326E+02</totfact>
</mgrwt>
</event>
<event>
 6    1  0.1528034E-005  0.2978930E+04  0.7818608E-02  0.8249773E-01
         -1   -1    0    0    0  501 -0.00000000000E+00  0.00000000000E+00  0.12224698202E+04  0.12224698202E+04  0.00000000000E+00 0.  1.
          1   -1    0    0  501    0  0.00000000000E+00 -0.00000000000E+00 -0.18147737284E+04  0.18147737284E+04  0.00000000000E+00 0. -1.
         23    2    1    2    0    0  0.64793154829E+03  0.85238926797E+03  0.75725751499E+03  0.13145425327E+04  0.90555898317E+02 0.  0.
         11    1    3    3    0    0  0.10772555755E+03  0.93528136385E+02  0.89308555178E+02  0.16831020787E+03  0.00000000000E+00 0.  1.
        -11    1    3    3    0    0  0.54020599075E+03  0.75886113159E+03  0.66794895981E+03  0.11462323248E+04  0.00000000000E+00 0. -1.
         22    1    1    2    0    0 -0.64793154829E+03 -0.85238926797E+03 -0.13495614232E+04  0.17227010159E+04  0.00000000000E+00 0. -1.
<mgrwt>
<rscale>  0 0.29789301E+04</rscale>
<asrwt>0</asrwt>
<pdfrwt beam="1">  1        1 0.27919596E+00 0.29789301E+04</pdfrwt>
<pdfrwt beam="2">  1       -1 0.18807228E+00 0.29789301E+04</pdfrwt>
<totfact> 0.61879185E-01</totfact>
</mgrwt>
</event>
<event>
 6    1  0.1528034E-005  0.3383040E+04  0.7818608E-02  0.8142081E-01
          2   -1    0    0  501    0  0.00000000000E+00  0.00000000000E+00  0.21873116212E+04  0.21873116212E+04  0.00000000000E+00 0.  1.
         -2   -1    0    0    0  501 -0.00000000000E+00 -0.00000000000E+00 -0.13081080570E+04  0.13081080570E+04  0.00000000000E+00 0. -1.
         23    2    1    2    0    0  0.10362371122E+04  0.77814424887E+03  0.15611163663E+04  0.20310765167E+04  0.94295718750E+02 0.  0.
         11    1    3    3    0    0  0.47244738526E+03  0.41368615397E+03  0.75267571983E+03  0.98023645364E+03  0.00000000000E+00 0. -1.
        -11    1    3    3    0    0  0.56378972697E+03  0.36445809490E+03  0.80844064650E+03  0.10508400630E+04  0.00000000000E+00 0.  1.
         22    1    1    2    0    0 -0.10362371122E+04 -0.77814424887E+03 -0.68191280216E+03  0.14643431615E+04  0.00000000000E+00 0. -1.
<mgrwt>
<rscale>  0 0.33830400E+04</rscale>
<asrwt>0</asrwt>
<pdfrwt beam="1">  1        2 0.33650948E+00 0.33830400E+04</pdfrwt>
<pdfrwt beam="2">  1       -2 0.20124739E+00 0.33830400E+04</pdfrwt>
<totfact> 0.56838839E-01</totfact>
</mgrwt>
</event>
<event>
 6    1  0.1528034E-005  0.2452662E+04  0.7818608E-02  0.8420047E-01
          2   -1    0    0  501    0  0.00000000000E+00  0.00000000000E+00  0.22104749590E+04  0.22104749590E+04  0.00000000000E+00 0. -1.
         -2   -1    0    0    0  501 -0.00000000000E+00 -0.00000000000E+00 -0.68034608023E+03  0.68034608023E+03  0.00000000000E+00 0.  1.
         23    2    1    2    0    0 -0.54027238832E+03  0.10035880738E+04  0.23735991379E+03  0.11673550917E+04  0.85410221959E+02 0.  0.
         13    1    3    3    0    0 -0.22235003293E+03  0.35971383534E+03  0.54779945714E+02  0.42642047668E+03  0.00000000000E+00 0.  1.
        -13    1    3    3    0    0 -0.31792235539E+03  0.64387423846E+03  0.18257996808E+03  0.74093461503E+03  0.00000000000E+00 0. -1.
         22    1    1    2    0    0  0.54027238832E+03 -0.10035880738E+04  0.12927689650E+04  0.17234659475E+04  0.00000000000E+00 0.  1.
<mgrwt>
<rscale>  0 0.24526622E+04</rscale>
<asrwt>0</asrwt>
<pdfrwt beam="1">  1        2 0.34007307E+00 0.24526622E+04</pdfrwt>
<pdfrwt beam="2">  1       -2 0.10466863E+00 0.24526622E+04</pdfrwt>
<totfact> 0.33778840E+00</totfact>
</mgrwt>
</event>
<event>
 6    1  0.1528034E-005  0.1582815E+04  0.7818608E-02  0.8831176E-01
         -1   -1    0    0    0  501 -0.00000000000E+00  0.00000000000E+00  0.59936490674E+03  0.59936490674E+03  0.00000000000E+00 0.  1.
          1   -1    0    0  501    0  0.00000000000E+00 -0.00000000000E+00 -0.10449824625E+04  0.10449824625E+04  0.00000000000E+00 0. -1.
         23    2    1    2    0    0 -0.65728958066E+03  0.22448625927E+03  0.16474415707E+03  0.71970414403E+03  0.91704657480E+02 0.  0.
         11    1    3    3    0    0 -0.40299017787E+03  0.95203562378E+02  0.11849414218E+03  0.43070368408E+03  0.00000000000E+00 0. -1.
        -11    1    3    3    0    0 -0.25429940278E+03  0.12928269689E+03  0.46250014890E+02  0.28900045995E+03  0.00000000000E+00 0.  1.
         22    1    1    2    0    0  0.65728958066E+03 -0.22448625927E+03 -0.61036171283E+03  0.92464322521E+03  0.00000000000E+00 0. -1.
<mgrwt>
<rscale>  0 0.15828150E+04</rscale>
<asrwt>0</asrwt>
<pdfrwt beam="1">  1        1 0.16076653E+00 0.15828150E+04</pdfrwt>
<pdfrwt beam="2">  1       -1 0.92209987E-01 0.15828150E+04</pdfrwt>
<totfact> 0.15360188E+01</totfact>
</mgrwt>
</event>
<event>
 6    1  0.1528034E-005  0.4213550E+04  0.7818608E-02  0.7962800E-01
         -1   -1    0    0    0  501 -0.00000000000E+00  0.00000000000E+00  0.19601520339E+04  0.19601520339E+04  0.00000000000E+00 0.  1.
          1   -1    0    0  501    0  0.00000000000E+00 -0.00000000000E+00 -0.22643659449E+04  0.22643659449E+04  0.00000000000E+00 0. -1.
         23    2    1    2    0    0 -0.41788431727E+03 -0.16721289818E+04  0.10607986313E+04  0.20259043531E+04  0.91389700639E+02 0.  0.
         11    1    3    3    0    0 -0.27388517030E+03 -0.11382333097E+04  0.67137143706E+03  0.13495657673E+04  0.00000000000E+00 0. -1.
        -11    1    3    3    0    0 -0.14399914697E+03 -0.53389567214E+03  0.38942719425E+03  0.67633858583E+03  0.00000000000E+00 0.  1.
         22    1    1    2    0    0  0.41788431727E+03  0.16721289818E+04 -0.13650125422E+04  0.21986136257E+04  0.00000000000E+00 0.  1.
<mgrwt>
<rscale>  0 0.42135503E+04</rscale>
<asrwt>0</asrwt>
<pdfrwt beam="1">  1        1 0.34836399E+00 0.42135503E+04</pdfrwt>
<pdfrwt beam="2">  1       -1 0.30156185E+00 0.42135503E+04</pdfrwt>
<totfact> 0.48856081E-02</totfact>
</mgrwt>
</event>
<event>
 6    1  0.1528034E-005  0.1264534E+04  0.7818608E-02  0.9058173E-01
          1   -1    0    0  501    0  0.00000000000E+00  0.00000000000E+00  0.16416128672E+04  0.16416128672E+04  0.00000000000E+00 0. -1.
         -1   -1    0    0    0  501 -0.00000000000E+00 -0.00000000000E+00 -0.24351748959E+03  0.24351748959E+03  0.00000000000E+00 0.  1.
         23    2    1    2    0    0  0.99376933701E+02 -0.59193024273E+03  0.42346656404E+03  0.74050879861E+03  0.93659824618E+02 0.  0.
         11    1    3    3    0    0  0.40281172339E+02 -0.15567462648E+03  0.67638989663E+02  0.17444825909E+03  0.00000000000E+00 0.  1.
        -11    1    3    3    0    0  0.59095761362E+02 -0.43625561625E+03  0.35582757437E+03  0.56606053952E+03  0.00000000000E+00 0. -1.
         22    1    1    2    0    0 -0.99376933701E+02  0.59193024273E+03  0.97462881360E+03  0.11446215582E+04  0.00000000000E+00 0.  1.
<mgrwt>
<rscale>  0 0.12645338E+04</rscale>
<asrwt>0</asrwt>
<pdfrwt beam="1">  1        1 0.25255582E+00 0.12645338E+04</pdfrwt>
<pdfrwt beam="2">  1       -1 0.37464230E-01 0.12645338E+04</pdfrwt>
<totfact> 0.35329313E+01</totfact>
</mgrwt>
</event>
<event>
 6    1  0.1528034E-005  0.2296119E+04  0.7818608E-02  0.8479453E-01
         -2   -1    0    0    0  501 -0.00000000000E+00  0.00000000000E+00  0.51139702037E+03  0.51139702037E+03  0.00000000000E+00 0.  1.
          2   -1    0    0  501    0  0.00000000000E+00 -0.00000000000E+00 -0.25773326160E+04  0.25773326160E+04  0.00000000000E+00 0. -1.
         23    2    1    2    0    0  0.10574545765E+04 -0.14984738597E+03 -0.47469524591E+03  0.11722979859E+04  0.91008630401E+02 0.  0.
         11    1    3    3    0    0  0.43552833342E+03 -0.78435219605E+02 -0.15127976490E+03  0.46767785938E+03  0.00000000000E+00 0.  1.
        -11    1    3    3    0    0  0.62192624306E+03 -0.71412166369E+02 -0.32341548101E+03  0.70462012650E+03  0.00000000000E+00 0. -1.
         22    1    1    2    0    0 -0.10574545765E+04  0.14984738597E+03 -0.15912403497E+04  0.19164316505E+04  0.00000000000E+00 0. -1.
<mgrwt>
<rscale>  0 0.22961187E+04</rscale>
<asrwt>0</asrwt>
<pdfrwt beam="1">  1        2 0.39651271E+00 0.22961187E+04</pdfrwt>
<pdfrwt beam="2">  1       -2 0.78676466E-01 0.22961187E+04</pdfrwt>
<totfact> 0.40841280E+00</totfact>
</mgrwt>
</event>
<event>
 6    1  0.1528034E-005  0.1383663E+04  0.7818608E-02  0.8965729E-01
          1   -1    0    0  501    0  0.00000000000E+00  0.00000000000E+00  0.63413166430E+03  0.63413166430E+03  0.00000000000E+00 0. -1.
         -1   -1    0    0    0  501 -0.00000000000E+00 -0.00000000000E+00 -0.75478193896E+03  0.75478193896E+03  0.00000000000E+00 0.  1.
         23    2    1    2    0    0  0.39859278365E+02  0.15339967620E+03  0.61222730990E+03  0.63909377377E+03  0.92186495515E+02 0.  0.
         13    1    3    3    0    0  0.41009849617E+02  0.12214360281E+03  0.58017525307E+03  0.59430984490E+03  0.00000000000E+00 0. -1.
        -13    1    3    3    0    0 -0.11505712522E+01  0.31256073390E+02  0.32052056834E+02  0.44783928873E+02  0.00000000000E+00 0.  1.
         22    1    1    2    0    0 -0.39859278365E+02 -0.15339967620E+03 -0.73287758456E+03  0.74981982948E+03  0.00000000000E+00 0.  1.
<mgrwt>
<rscale>  0 0.13836634E+04</rscale>
<asrwt>0</asrwt>
<pdfrwt beam="1">  1        1 0.97558718E-01 0.13836634E+04</pdfrwt>
<pdfrwt beam="2">  1       -1 0.11612030E+00 0.13836634E+04</pdfrwt>
<totfact> 0.20689506E+01</totfact>
</mgrwt>
</event>
<event>
 6    1  0.1528034E-005  0.1009914E+04  0.7818608E-02  0.9297738E-01
         -1   -1    0    0    0  501 -0.00000000000E+00  0.00000000000E+00  0.14146223609E+03  0.14146223609E+03  0.00000000000E+00 0.  1.
          1   -1    0    0  501    0  0.00000000000E+00 -0.00000000000E+00 -0.18024712671E+04  0.18024712671E+04  0.00000000000E+00 0. -1.
         23    2    1    2    0    0 -0.29323123710E+03  0.29104567850E+03 -0.29244410896E+03  0.51436640394E+03  0.91417149650E+02 0.  0.
         11    1    3    3    0    0 -0.24135851148E+03  0.18206758427E+03 -0.20344496826E+03  0.36440690364E+03  0.00000000000E+00 0.  1.
        -11    1    3    3    0    0 -0.51872725614E+02  0.10897809424E+03 -0.88999140702E+02  0.14995950031E+03  0.00000000000E+00 0. -1.
         22    1    1    2    0    0  0.29323123710E+03 -0.29104567850E+03 -0.13685649221E+04  0.14295670993E+04  0.00000000000E+00 0. -1.
<mgrwt>
<rscale>  0 0.10099141E+04</rscale>
<asrwt>0</asrwt>
<pdfrwt beam="1">  1        1 0.27730326E+00 0.10099141E+04</pdfrwt>
<pdfrwt beam="2">  1       -1 0.21763422E-01 0.10099141E+04</pdfrwt>
<totfact> 0.72315319E+01</totfact>
</mgrwt>
</event>
<event>
 6    1  0.1528034E-005  0.2378040E+04  0.7818608E-02  0.8447771E-01
         -1   -1    0    0    0  501 -0.00000000000E+00  0.00000000000E+00  0.17062109649E+04  0.17062109649E+04  0.00000000000E+00 0.  1.
          1   -1    0    0  501    0  0.00000000000E+00 -0.00000000000E+00 -0.82860098813E+03  0.82860098813E+03  0.00000000000E+00 0. -1.
         23    2    1    2    0    0 -0.89685916585E+03  0.75990722854E+03  0.26141725855E+03  0.12075934988E+04  0.90153845541E+02 0.  0.
         13    1    3    3    0    0 -0.58954658851E+03  0.46499005790E+03  0.20189782940E+03  0.77752406232E+03  0.00000000000E+00 0. -1.
        -13    1    3    3    0    0 -0.30731257734E+03  0.29491717064E+03  0.59519429155E+02  0.43006943646E+03  0.00000000000E+00 0.  1.
         22    1    1    2    0    0  0.89685916585E+03 -0.75990722854E+03  0.61619271823E+03  0.13272184543E+04  0.00000000000E+00 0. -1.
<mgrwt>
<rscale>  0 0.23780396E+04</rscale>
<asrwt>0</asrwt>
<pdfrwt beam="1">  1        1 0.12747708E+00 0.23780396E+04</pdfrwt>
<pdfrwt beam="2">  1       -1 0.26249399E+00 0.23780396E+04</pdfrwt>
<totfact> 0.10838753E+00</totfact>
</mgrwt>
</event>
<event>
 6    1  0.1528034E-005  0.2800020E+04  0.7818608E-02  0.8303262E-01
          2   -1    0    0  501    0  0.00000000000E+00  0.00000000000E+00  0.23407495202E+04  0.23407495202E+04  0.00000000000E+00 0.  1.
         -2   -1    0    0    0  501 -0.00000000000E+00 -0.00000000000E+00 -0.83735034580E+03  0.83735034580E+03  0.00000000000E+00 0. -1.
         23    2    1    2    0    0 -0.34288963052E+03  0.29981950255E+03 -0.74902301450E+03  0.88008534258E+03  0.77779824771E+02 0.  0.
         11    1    3    3    0    0 -0.14099671148E+03  0.15751174188E+03 -0.29069718373E+03  0.35943688473E+03  0.00000000000E+00 0. -1.
        -11    1    3    3    0    0 -0.20189291904E+03  0.14230776068E+03 -0.45832583077E+03  0.52064845785E+03  0.00000000000E+00 0.  1.
         22    1    1    2    0    0  0.34288963052E+03 -0.29981950255E+03  0.22524221888E+04  0.22980145234E+04  0.00000000000E+00 0.  1.
<mgrwt>
<rscale>  0 0.28000196E+04</rscale>
<asrwt>0</asrwt>
<pdfrwt beam="1">  1        2 0.36011531E+00 0.28000196E+04</pdfrwt>
<pdfrwt beam="2">  1       -2 0.12882313E+00 0.28000196E+04</pdfrwt>
<totfact> 0.16618489E+00</totfact>
</mgrwt>
</event>
<event>
 6    1  0.1528034E-005  0.2079925E+04  0.7818608E-02  0.8570139E-01
         -2   -1    0    0    0  501 -0.00000000000E+00  0.00000000000E+00  0.32115284171E+03  0.32115284171E+03  0.00000000000E+00 0.  1.
          2   -1    0    0  501    0  0.00000000000E+00 -0.00000000000E+00 -0.33676230648E+04  0.33676230648E+04  0.00000000000E+00 0. -1.
         23    2    1    2    0    0 -0.95269987662E+03  0.33227137903E+03 -0.19596202725E+04  0.22057775453E+04  0.85449650574E+02 0.  0.
         13    1    3    3    0    0 -0.68488237624E+03  0.19973682379E+03 -0.13539463575E+04  0.15304017143E+04  0.00000000000E+00 0. -1.
        -13    1    3    3    0    0 -0.26781750038E+03  0.13253455524E+03 -0.60567391499E+03  0.67537583103E+03  0.00000000000E+00 0.  1.
         22    1    1    2    0    0  0.95269987662E+03 -0.33227137903E+03 -0.10868499506E+04  0.14829983612E+04  0.00000000000E+00 0.  1.
<mgrwt>
<rscale>  0 0.20799247E+04</rscale>
<asrwt>0</asrwt>
<pdfrwt beam="1">  1        2 0.51809585E+00 0.20799247E+04</pdfrwt>
<pdfrwt beam="2">  1       -2 0.49408130E-01 0.20799247E+04</pdfrwt>
<totfact> 0.36038019E+00</totfact>
</mgrwt>
</event>
<event>
 6    1  0.1528034E-005  0.1623185E+04  0.7818608E-02  0.8806430E-01
         -1   -1    0    0    0  501 -0.00000000000E+00  0.00000000000E+00  0.31223255122E+03  0.31223255122E+03  0.00000000000E+00 0.  1.
          1   -1    0    0  501    0  0.00000000000E+00 -0.00000000000E+00 -0.21095891377E+04  0.21095891377E+04  0.00000000000E+00 0. -1.
         23    2    1    2    0    0 -0.67385475298E+03  0.29697213344E+03 -0.14016845779E+04  0.15858617530E+04  0.89247786882E+02 0.  0.
         11    1    3    3    0    0 -0.26683568248E+03  0.15943767357E+03 -0.54227891464E+03  0.62505045753E+03  0.00000000000E+00 0. -1.
        -11    1    3    3    0    0 -0.40701907050E+03  0.13753445987E+03 -0.85940566324E+03  0.96081129543E+03  0.00000000000E+00 0.  1.
         22    1    1    2    0    0  0.67385475298E+03 -0.29697213344E+03 -0.39567200860E+03  0.83595993596E+03  0.00000000000E+00 0.  1.
<mgrwt>
<rscale>  0 0.16231850E+04</rscale>
<asrwt>0</asrwt>
<pdfrwt beam="1">  1        1 0.32455217E+00 0.16231850E+04</pdfrwt>
<pdfrwt beam="2">  1       -1 0.48035778E-01 0.16231850E+04</pdfrwt>
<totfact> 0.10420430E+01</totfact>
</mgrwt>
</event>
<event>
 6    1  0.1528034E-005  0.2794735E+04  0.7818608E-02  0.8304905E-01
         -1   -1    0    0    0  501 -0.00000000000E+00  0.00000000000E+00  0.12159167476E+04  0.12159167476E+04  0.00000000000E+00 0.  1.
          1   -1    0    0  501    0  0.00000000000E+00 -0.00000000000E+00 -0.16058958631E+04  0.16058958631E+04  0.00000000000E+00 0. -1.
         23    2    1    2    0    0  0.58170839465E+03  0.90702164323E+03 -0.10909122044E+04  0.15363632290E+04  0.96174923520E+02 0.  0.
         11    1    3    3    0    0  0.43992742234E+03  0.71345707275E+03 -0.79323507568E+03  0.11540273034E+04  0.00000000000E+00 0. -1.
        -11    1    3    3    0    0  0.14178097232E+03  0.19356457048E+03 -0.29767712872E+03  0.38233592562E+03  0.00000000000E+00 0.  1.
         22    1    1    2    0    0 -0.58170839465E+03 -0.90702164323E+03  0.70093308890E+03  0.12854493817E+04  0.00000000000E+00 0.  1.
<mgrwt>
<rscale>  0 0.27947348E+04</rscale>
<asrwt>0</asrwt>
<pdfrwt beam="1">  1        1 0.24706090E+00 0.27947348E+04</pdfrwt>
<pdfrwt beam="2">  1       -1 0.18706412E+00 0.27947348E+04</pdfrwt>
<totfact> 0.88739707E-01</totfact>
</mgrwt>
</event>
<event>
 6    1  0.1528034E-005  0.5183550E+03  0.7818608E-02  0.1009096E+00
          2   -1    0    0  501    0  0.00000000000E+00  0.00000000000E+00  0.71603433891E+03  0.71603433891E+03  0.00000000000E+00 0. -1.
         -2   -1    0    0    0  501 -0.00000000000E+00 -0.00000000000E+00 -0.93812507160E+02  0.93812507160E+02  0.00000000000E+00 0.  1.
         23    2    1    2    0    0  0.37268972360E+02 -0.74127746260E+02  0.69106436080E+03  0.70203593348E+03  0.91654798361E+02 0.  0.
         13    1    3    3    0    0 -0.13610254674E+02 -0.31154839062E+02  0.46821933640E+03  0.46945203163E+03  0.00000000000E+00 0.  1.
        -13    1    3    3    0    0  0.50879227034E+02 -0.42972907199E+02  0.22284502441E+03  0.23258390185E+03  0.00000000000E+00 0. -1.
         22    1    1    2    0    0 -0.37268972360E+02  0.74127746260E+02 -0.68842529053E+02  0.10781091259E+03  0.00000000000E+00 0.  1.
<mgrwt>
<rscale>  0 0.51835500E+03</rscale>
<asrwt>0</asrwt>
<pdfrwt beam="1">  1        2 0.11015913E+00 0.51835500E+03</pdfrwt>
<pdfrwt beam="2">  1       -2 0.14432694E-01 0.51835500E+03</pdfrwt>
<totfact> 0.14916525E+03</totfact>
</mgrwt>
</event>
<event>
 6    1  0.1528034E-005  0.3340590E+04  0.7818608E-02  0.8152643E-01
         -2   -1    0    0    0  501 -0.00000000000E+00  0.00000000000E+00  0.70322702577E+03  0.70322702577E+03  0.00000000000E+00 0. -1.
          2   -1    0    0  501    0  0.00000000000E+00 -0.00000000000E+00 -0.39672618563E+04  0.39672618563E+04  0.00000000000E+00 0.  1.
         23    2    1    2    0    0  0.13294018088E+04  0.84878835009E+03 -0.86991381682E+03  0.18035102877E+04  0.90268912586E+02 0.  0.
         11    1    3    3    0    0  0.40647859587E+03  0.21102643924E+03 -0.25480198537E+03  0.52410023727E+03  0.00000000000E+00 0. -1.
        -11    1    3    3    0    0  0.92292321292E+03  0.63776191085E+03 -0.61511183144E+03  0.12794100504E+04  0.00000000000E+00 0.  1.
         22    1    1    2    0    0 -0.13294018088E+04 -0.84878835009E+03 -0.23941210137E+04  0.28669785944E+04  0.00000000000E+00 0. -1.
<mgrwt>
<rscale>  0 0.33405902E+04</rscale>
<asrwt>0</asrwt>
<pdfrwt beam="1">  1        2 0.61034799E+00 0.33405902E+04</pdfrwt>
<pdfrwt beam="2">  1       -2 0.10818877E+00 0.33405902E+04</pdfrwt>
<totfact> 0.20654544E-01</totfact>
</mgrwt>
</event>
<event>
 6    1  0.1528034E-005  0.1215523E+04  0.7818608E-02  0.9099376E-01
          2   -1    0    0  501    0  0.00000000000E+00  0.00000000000E+00  0.38203822407E+03  0.38203822407E+03  0.00000000000E+00 0. -1.
         -2   -1    0    0    0  501 -0.00000000000E+00 -0.00000000000E+00 -0.96685150582E+03  0.96685150582E+03  0.00000000000E+00 0.  1.
         23    2    1    2    0    0 -0.57799191255E+03 -0.16130331316E+03 -0.37420002673E+03  0.71292483070E+03  0.90237156572E+02 0.  0.
         13    1    3    3    0    0 -0.44864176082E+03 -0.97699201992E+02 -0.31645970611E+03  0.55764801552E+03  0.00000000000E+00 0.  1.
        -13    1    3    3    0    0 -0.12935015173E+03 -0.63604111167E+02 -0.57740320619E+02  0.15527681519E+03  0.00000000000E+00 0. -1.
         22    1    1    2    0    0  0.57799191255E+03  0.16130331316E+03 -0.21061325503E+03  0.63596489919E+03  0.00000000000E+00 0. -1.
<mgrwt>
<rscale>  0 0.12155233E+04</rscale>
<asrwt>0</asrwt>
<pdfrwt beam="1">  1        2 0.58775112E-01 0.12155233E+04</pdfrwt>
<pdfrwt beam="2">  1       -2 0.14874638E+00 0.12155233E+04</pdfrwt>
<totfact> 0.25265034E+01</totfact>
</mgrwt>
</event>
<event>
 6    1  0.1528034E-005  0.1738055E+04  0.7818608E-02  0.8739953E-01
         -2   -1    0    0    0  501 -0.00000000000E+00  0.00000000000E+00  0.32778064356E+03  0.32778064356E+03  0.00000000000E+00 0.  1.
          2   -1    0    0  501    0  0.00000000000E+00 -0.00000000000E+00 -0.23040071380E+04  0.23040071380E+04  0.00000000000E+00 0. -1.
         23    2    1    2    0    0 -0.37560325636E+03 -0.41162095783E+03 -0.19956641405E+04  0.20742149691E+04  0.95826704004E+02 0.  0.
         13    1    3    3    0    0 -0.63717610649E+02 -0.91727809346E+02 -0.54438463778E+03  0.55572345529E+03  0.00000000000E+00 0. -1.
        -13    1    3    3    0    0 -0.31188564571E+03 -0.31989314849E+03 -0.14512795027E+04  0.15184915138E+04  0.00000000000E+00 0.  1.
         22    1    1    2    0    0  0.37560325636E+03  0.41162095783E+03  0.19437646061E+02  0.55757281246E+03  0.00000000000E+00 0.  1.
<mgrwt>
<rscale>  0 0.17380552E+04</rscale>
<asrwt>0</asrwt>
<pdfrwt beam="1">  1        2 0.35446264E+00 0.17380552E+04</pdfrwt>
<pdfrwt beam="2">  1       -2 0.50427791E-01 0.17380552E+04</pdfrwt>
<totfact> 0.15923156E+01</totfact>
</mgrwt>
</event>
<event>
 6    1  0.2305636E-005  0.3202582E+04  0.7818608E-02  0.8188136E-01
         -1   -1    0    0    0  501 -0.00000000000E+00  0.00000000000E+00  0.12135813381E+04  0.12135813381E+04  0.00000000000E+00 0.  1.
          1   -1    0    0  501    0  0.00000000000E+00 -0.00000000000E+00 -0.21128643660E+04  0.21128643660E+04  0.00000000000E+00 0. -1.
         23    2    1    2    0    0 -0.64512436676E+03  0.42748348813E+02 -0.19701615198E+04  0.20755285947E+04  0.90937690514E+02 0.  0.
         13    1    3    3    0    0 -0.24408324035E+03 -0.13558165841E+02 -0.84774436977E+03  0.88228735033E+03  0.00000000000E+00 0. -1.
        -13    1    3    3    0    0 -0.40104112641E+03  0.56306514655E+02 -0.11224171500E+04  0.11932412444E+04  0.00000000000E+00 0.  1.
         22    1    1    2    0    0  0.64512436676E+03 -0.42748348813E+02  0.10708784919E+04  0.12509171093E+04  0.00000000000E+00 0.  1.
<mgrwt>
<rscale>  0 0.32025819E+04</rscale>
<asrwt>0</asrwt>
<pdfrwt beam="1">  1        1 0.32505605E+00 0.32025819E+04</pdfrwt>
<pdfrwt beam="2">  1       -1 0.18670482E+00 0.32025819E+04</pdfrwt>
<totfact> 0.38943958E-01</totfact>
</mgrwt>
</event>
<event>
 6    1  0.1539202E-005  0.4954450E+04  0.7818608E-02  0.7835572E-01
         -2   -1    0    0    0  501 -0.00000000000E+00  0.00000000000E+00  0.22007445811E+04  0.22007445811E+04  0.00000000000E+00 0.  1.
          2   -1    0    0  501    0  0.00000000000E+00 -0.00000000000E+00 -0.27884395953E+04  0.27884395953E+04  0.00000000000E+00 0. -1.
         23    2    1    2    0    0  0.73449262259E+03 -0.15260985879E+04  0.15251965358E+04  0.22812759403E+04  0.97668472125E+02 0.  0.
         13    1    3    3    0    0  0.44108645637E+03 -0.84101315472E+03  0.90248997398E+03  0.13100948598E+04  0.00000000000E+00 0. -1.
        -13    1    3    3    0    0  0.29340616621E+03 -0.68508543317E+03  0.62270656183E+03  0.97118108057E+03  0.00000000000E+00 0.  1.
         22    1    1    2    0    0 -0.73449262259E+03  0.15260985879E+04 -0.21128915500E+04  0.27079082360E+04  0.00000000000E+00 0. -1.
<mgrwt>
<rscale>  0 0.49544498E+04</rscale>
<asrwt>0</asrwt>
<pdfrwt beam="1">  1        2 0.42899070E+00 0.49544498E+04</pdfrwt>
<pdfrwt beam="2">  1       -2 0.33857609E+00 0.49544498E+04</pdfrwt>
<totfact> 0.31509367E-02</totfact>
</mgrwt>
</event>
<event>
 6    1  0.1528034E-005  0.8431996E+03  0.7818608E-02  0.9499510E-01
         -1   -1    0    0    0  501 -0.00000000000E+00  0.00000000000E+00  0.24140428388E+03  0.24140428388E+03  0.00000000000E+00 0.  1.
          1   -1    0    0  501    0  0.00000000000E+00 -0.00000000000E+00 -0.73630166231E+03  0.73630166231E+03  0.00000000000E+00 0. -1.
         23    2    1    2    0    0  0.35419353725E+03  0.20887715127E+03 -0.17415602605E+03  0.45621026904E+03  0.93352889699E+02 0.  0.
         13    1    3    3    0    0  0.25401671376E+03  0.18960805423E+03 -0.15323112463E+03  0.35207312117E+03  0.00000000000E+00 0. -1.
        -13    1    3    3    0    0  0.10017682350E+03  0.19269097035E+02 -0.20924901421E+02  0.10413714787E+03  0.00000000000E+00 0.  1.
         22    1    1    2    0    0 -0.35419353725E+03 -0.20887715127E+03 -0.32074135238E+03  0.52149567715E+03  0.00000000000E+00 0. -1.
<mgrwt>
<rscale>  0 0.84319956E+03</rscale>
<asrwt>0</asrwt>
<pdfrwt beam="1">  1        1 0.11327718E+00 0.84319956E+03</pdfrwt>
<pdfrwt beam="2">  1       -1 0.37139121E-01 0.84319956E+03</pdfrwt>
<totfact> 0.17731000E+02</totfact>
</mgrwt>
</event>
<event>
 6    1  0.1528034E-005  0.3260525E+04  0.7818608E-02  0.8173013E-01
          1   -1    0    0  501    0  0.00000000000E+00  0.00000000000E+00  0.23843761332E+04  0.23843761332E+04  0.00000000000E+00 0. -1.
         -1   -1    0    0    0  501 -0.00000000000E+00 -0.00000000000E+00 -0.11146546163E+04  0.11146546163E+04  0.00000000000E+00 0.  1.
         23    2    1    2    0    0  0.38203702283E+03  0.13289600517E+04 -0.28869999223E+03  0.14155805566E+04  0.91834203744E+02 0.  0.
         13    1    3    3    0    0  0.13343340265E+03  0.61420232571E+03 -0.15069797162E+03  0.64634267111E+03  0.00000000000E+00 0. -1.
        -13    1    3    3    0    0  0.24860362018E+03  0.71475772600E+03 -0.13800202061E+03  0.76923788553E+03  0.00000000000E+00 0.  1.
         22    1    1    2    0    0 -0.38203702283E+03 -0.13289600517E+04  0.15584215091E+04  0.20834501928E+04  0.00000000000E+00 0. -1.
<mgrwt>
<rscale>  0 0.32605250E+04</rscale>
<asrwt>0</asrwt>
<pdfrwt beam="1">  1        1 0.36682710E+00 0.32605250E+04</pdfrwt>
<pdfrwt beam="2">  1       -1 0.17148533E+00 0.32605250E+04</pdfrwt>
<totfact> 0.32522410E-01</totfact>
</mgrwt>
</event>
<event>
 6    1  0.1528034E-005  0.1794547E+04  0.7818608E-02  0.8709205E-01
          2   -1    0    0  501    0  0.00000000000E+00  0.00000000000E+00  0.95687780696E+03  0.95687780696E+03  0.00000000000E+00 0. -1.
         -2   -1    0    0    0  501 -0.00000000000E+00 -0.00000000000E+00 -0.84138190752E+03  0.84138190752E+03  0.00000000000E+00 0.  1.
         23    2    1    2    0    0  0.28297524589E+03  0.22566152564E+03  0.87833088240E+03  0.95391658211E+03  0.86565539942E+02 0.  0.
         11    1    3    3    0    0  0.10184370262E+03  0.13384784018E+03  0.36538941485E+03  0.40223974017E+03  0.00000000000E+00 0. -1.
        -11    1    3    3    0    0  0.18113154328E+03  0.91813685463E+02  0.51294146755E+03  0.55167684195E+03  0.00000000000E+00 0.  1.
         22    1    1    2    0    0 -0.28297524589E+03 -0.22566152564E+03 -0.76283498296E+03  0.84434313237E+03  0.00000000000E+00 0.  1.
<mgrwt>
<rscale>  0 0.17945469E+04</rscale>
<asrwt>0</asrwt>
<pdfrwt beam="1">  1        2 0.14721197E+00 0.17945469E+04</pdfrwt>
<pdfrwt beam="2">  1       -2 0.12944337E+00 0.17945469E+04</pdfrwt>
<totfact> 0.11141236E+01</totfact>
</mgrwt>
</event>
<event>
 6    1  0.1528034E-005  0.9365825E+03  0.7818608E-02  0.9380972E-01
          1   -1    0    0  501    0  0.00000000000E+00  0.00000000000E+00  0.41463936574E+03  0.41463936574E+03  0.00000000000E+00 0. -1.
         -1   -1    0    0    0  501 -0.00000000000E+00 -0.00000000000E+00 -0.52888540733E+03  0.52888540733E+03  0.00000000000E+00 0.  1.
         23    2    1    2    0    0  0.19670824481E+03 -0.10713346488E+03 -0.46683195933E+03  0.52580651604E+03  0.91480605503E+02 0.  0.
         13    1    3    3    0    0  0.16713058943E+03 -0.62069814861E+02 -0.28515310262E+03  0.33629984801E+03  0.00000000000E+00 0. -1.
        -13    1    3    3    0    0  0.29577655384E+02 -0.45063650018E+02 -0.18167885671E+03  0.18950666803E+03  0.00000000000E+00 0.  1.
         22    1    1    2    0    0 -0.19670824481E+03  0.10713346488E+03  0.35258591774E+03  0.41771825704E+03  0.00000000000E+00 0. -1.
<mgrwt>
<rscale>  0 0.93658253E+03</rscale>
<asrwt>0</asrwt>
<pdfrwt beam="1">  1        1 0.63790672E-01 0.93658253E+03</pdfrwt>
<pdfrwt beam="2">  1       -1 0.81366986E-01 0.93658253E+03</pdfrwt>
<totfact> 0.86598374E+01</totfact>
</mgrwt>
</event>
<event>
 6    1  0.1528034E-005  0.1851986E+04  0.7818608E-02  0.8679132E-01
         -2   -1    0    0    0  501 -0.00000000000E+00  0.00000000000E+00  0.20113566453E+04  0.20113566453E+04  0.00000000000E+00 0.  1.
          2   -1    0    0  501    0  0.00000000000E+00 -0.00000000000E+00 -0.42631082025E+03  0.42631082025E+03  0.00000000000E+00 0. -1.
         23    2    1    2    0    0 -0.31582220610E+03  0.85955799212E+03  0.95438896181E+03  0.13257719278E+04  0.90715525063E+02 0.  0.
         11    1    3    3    0    0 -0.12337320916E+03  0.45308824755E+03  0.45797278196E+03  0.65593366876E+03  0.00000000000E+00 0.  1.
        -11    1    3    3    0    0 -0.19244899694E+03  0.40646974458E+03  0.49641617985E+03  0.66983825906E+03  0.00000000000E+00 0. -1.
         22    1    1    2    0    0  0.31582220610E+03 -0.85955799212E+03  0.63065686325E+03  0.11118955377E+04  0.00000000000E+00 0.  1.
<mgrwt>
<rscale>  0 0.18519861E+04</rscale>
<asrwt>0</asrwt>
<pdfrwt beam="1">  1        2 0.65586281E-01 0.18519861E+04</pdfrwt>
<pdfrwt beam="2">  1       -2 0.30943948E+00 0.18519861E+04</pdfrwt>
<totfact> 0.19381372E+00</totfact>
</mgrwt>
</event>
<event>
 6    1  0.1528034E-005  0.1727132E+04  0.7818608E-02  0.8746039E-01
          2   -1    0    0  501    0  0.00000000000E+00  0.00000000000E+00  0.90923290251E+03  0.90923290251E+03  0.00000000000E+00 0. -1.
         -2   -1    0    0    0  501 -0.00000000000E+00 -0.00000000000E+00 -0.82019306882E+03  0.82019306882E+03  0.00000000000E+00 0.  1.
         23    2    1    2    0    0 -0.75367956954E+03  0.35300244525E+03 -0.17706653362E+03  0.85566615386E+03  0.90379143871E+02 0.  0.
         13    1    3    3    0    0 -0.20909390148E+03  0.54813173401E+02 -0.51734870657E+02  0.22226389823E+03  0.00000000000E+00 0. -1.
        -13    1    3    3    0    0 -0.54458566806E+03  0.29818927185E+03 -0.12533166296E+03  0.63340225564E+03  0.00000000000E+00 0.  1.
         22    1    1    2    0    0  0.75367956954E+03 -0.35300244525E+03  0.26610636732E+03  0.87375981747E+03  0.00000000000E+00 0. -1.
<mgrwt>
<rscale>  0 0.17271323E+04</rscale>
<asrwt>0</asrwt>
<pdfrwt beam="1">  1        2 0.13988198E+00 0.17271323E+04</pdfrwt>
<pdfrwt beam="2">  1       -2 0.12618355E+00 0.17271323E+04</pdfrwt>
<totfact> 0.12850323E+01</totfact>
</mgrwt>
</event>
<event>
 6    1  0.1528034E-005  0.4200416E+03  0.7818608E-02  0.1037053E+00
          3   -1    0    0  501    0  0.00000000000E+00  0.00000000000E+00  0.47760134822E+02  0.47760134822E+02  0.00000000000E+00 0. -1.
         -3   -1    0    0    0  501 -0.00000000000E+00 -0.00000000000E+00 -0.92354727113E+03  0.92354727113E+03  0.00000000000E+00 0.  1.
         23    2    1    2    0    0 -0.71672922723E+02 -0.16796704327E+03 -0.64828874159E+03  0.67957901331E+03  0.90550579080E+02 0.  0.
         13    1    3    3    0    0 -0.55714093986E+02 -0.37241829256E+02 -0.29568234551E+03  0.30318156863E+03  0.00000000000E+00 0. -1.
        -13    1    3    3    0    0 -0.15958828737E+02 -0.13072521402E+03 -0.35260639609E+03  0.37639744467E+03  0.00000000000E+00 0.  1.
         22    1    1    2    0    0  0.71672922723E+02  0.16796704327E+03 -0.22749839471E+03  0.29172839264E+03  0.00000000000E+00 0.  1.
<mgrwt>
<rscale>  0 0.42004163E+03</rscale>
<asrwt>0</asrwt>
<pdfrwt beam="1">  1        3 0.73477134E-02 0.42004163E+03</pdfrwt>
<pdfrwt beam="2">  1       -3 0.14208419E+00 0.42004163E+03</pdfrwt>
<totfact> 0.12424826E+02</totfact>
</mgrwt>
</event>
<event>
 6    1  0.1607798E-005  0.3893101E+04  0.7818608E-02  0.8026466E-01
          2   -1    0    0  501    0  0.00000000000E+00  0.00000000000E+00  0.28343043685E+04  0.28343043685E+04  0.00000000000E+00 0. -1.
         -2   -1    0    0    0  501 -0.00000000000E+00 -0.00000000000E+00 -0.13368564103E+04  0.13368564103E+04  0.00000000000E+00 0.  1.
         23    2    1    2    0    0  0.68990496684E+03 -0.82633338955E+03  0.24854189704E+04  0.27100370828E+04  0.90541689754E+02 0.  0.
         13    1    3    3    0    0  0.31021763982E+03 -0.35015058301E+03  0.97356929749E+03  0.10801285071E+04  0.00000000000E+00 0.  1.
        -13    1    3    3    0    0  0.37968732702E+03 -0.47618280654E+03  0.15118496729E+04  0.16299085757E+04  0.00000000000E+00 0. -1.
         22    1    1    2    0    0 -0.68990496684E+03  0.82633338955E+03 -0.98797101218E+03  0.14611236960E+04  0.00000000000E+00 0.  1.
<mgrwt>
<rscale>  0 0.38931005E+04</rscale>
<asrwt>0</asrwt>
<pdfrwt beam="1">  1        2 0.43604683E+00 0.38931005E+04</pdfrwt>
<pdfrwt beam="2">  1       -2 0.20567022E+00 0.38931005E+04</pdfrwt>
<totfact> 0.21412192E-01</totfact>
</mgrwt>
</event>
<event>
 6    1  0.1528034E-005  0.2603082E+04  0.7818608E-02  0.8367155E-01
          2   -1    0    0  501    0  0.00000000000E+00  0.00000000000E+00  0.14208846618E+04  0.14208846618E+04  0.00000000000E+00 0. -1.
         -2   -1    0    0    0  501 -0.00000000000E+00 -0.00000000000E+00 -0.11922213167E+04  0.11922213167E+04  0.00000000000E+00 0.  1.
         23    2    1    2    0    0 -0.60671137296E+03  0.90556730122E+03 -0.59653810109E+03  0.12459526389E+04  0.91593915116E+02 0.  0.
         13    1    3    3    0    0 -0.52814596967E+03  0.83638194310E+03 -0.53995215422E+03  0.11269521946E+04  0.00000000000E+00 0. -1.
        -13    1    3    3    0    0 -0.78565403288E+02  0.69185358120E+02 -0.56585946865E+02  0.11900044435E+03  0.00000000000E+00 0.  1.
         22    1    1    2    0    0  0.60671137296E+03 -0.90556730122E+03  0.82520144619E+03  0.13671533396E+04  0.00000000000E+00 0. -1.
<mgrwt>
<rscale>  0 0.26030820E+04</rscale>
<asrwt>0</asrwt>
<pdfrwt beam="1">  1        2 0.21859764E+00 0.26030820E+04</pdfrwt>
<pdfrwt beam="2">  1       -2 0.18341867E+00 0.26030820E+04</pdfrwt>
<totfact> 0.21387117E+00</totfact>
</mgrwt>
</event>
<event>
 6    1  0.1528034E-005  0.2039344E+04  0.7818608E-02  0.8588444E-01
         -1   -1    0    0    0  501 -0.00000000000E+00  0.00000000000E+00  0.53985694658E+03  0.53985694658E+03  0.00000000000E+00 0.  1.
          1   -1    0    0  501    0  0.00000000000E+00 -0.00000000000E+00 -0.19259381403E+04  0.19259381403E+04  0.00000000000E+00 0. -1.
         23    2    1    2    0    0 -0.20609715019E+03 -0.98417255802E+03 -0.88387203093E+03  0.13418352556E+04  0.90666568839E+02 0.  0.
         11    1    3    3    0    0 -0.17650526911E+03 -0.67136951552E+03 -0.57756264924E+03  0.90303363735E+03  0.00000000000E+00 0.  1.
        -11    1    3    3    0    0 -0.29591881082E+02 -0.31280304250E+03 -0.30630938169E+03  0.43880161820E+03  0.00000000000E+00 0. -1.
         22    1    1    2    0    0  0.20609715019E+03  0.98417255802E+03 -0.50220916282E+03  0.11239598314E+04  0.00000000000E+00 0.  1.
<mgrwt>
<rscale>  0 0.20393441E+04</rscale>
<asrwt>0</asrwt>
<pdfrwt beam="1">  1        1 0.29629818E+00 0.20393441E+04</pdfrwt>
<pdfrwt beam="2">  1       -1 0.83054913E-01 0.20393441E+04</pdfrwt>
<totfact> 0.44518479E+00</totfact>
</mgrwt>
</event>
<event>
 6    1  0.1528034E-005  0.2651733E+04  0.7818608E-02  0.8350838E-01
         -1   -1    0    0    0  501 -0.00000000000E+00  0.00000000000E+00  0.96951083863E+03  0.96951083863E+03  0.00000000000E+00 0.  1.
          1   -1    0    0  501    0  0.00000000000E+00 -0.00000000000E+00 -0.18132046609E+04  0.18132046609E+04  0.00000000000E+00 0. -1.
         23    2    1    2    0    0 -0.43456080087E+03  0.11756776493E+04  0.25174804986E+02  0.12575946138E+04  0.99244229311E+02 0.  0.
         13    1    3    3    0    0 -0.33550226394E+03  0.77723106375E+03  0.60371536502E+01  0.84657329440E+03  0.00000000000E+00 0. -1.
        -13    1    3    3    0    0 -0.99058536931E+02  0.39844658556E+03  0.19137651335E+02  0.41102131937E+03  0.00000000000E+00 0.  1.
         22    1    1    2    0    0  0.43456080087E+03 -0.11756776493E+04 -0.86886862725E+03  0.15251208858E+04  0.00000000000E+00 0.  1.
<mgrwt>
<rscale>  0 0.26517327E+04</rscale>
<asrwt>0</asrwt>
<pdfrwt beam="1">  1        1 0.27895456E+00 0.26517327E+04</pdfrwt>
<pdfrwt beam="2">  1       -1 0.14915552E+00 0.26517327E+04</pdfrwt>
<totfact> 0.12394839E+00</totfact>
</mgrwt>
</event>
<event>
 6    1  0.2096581E-005  0.2832508E+04  0.7818608E-02  0.8293246E-01
         -1   -1    0    0    0  501 -0.00000000000E+00  0.00000000000E+00  0.10215151401E+04  0.10215151401E+04  0.00000000000E+00 0.  1.
          1   -1    0    0  501    0  0.00000000000E+00 -0.00000000000E+00 -0.19635299301E+04  0.19635299301E+04  0.00000000000E+00 0. -1.
         23    2    1    2    0    0 -0.65580930443E+03  0.53309960115E+03 -0.16672128742E+04  0.18714054113E+04  0.90985806511E+02 0.  0.
         13    1    3    3    0    0 -0.31628565368E+03  0.20059087008E+03 -0.75872140376E+03  0.84612734291E+03  0.00000000000E+00 0. -1.
        -13    1    3    3    0    0 -0.33952365075E+03  0.33250873107E+03 -0.90849147044E+03  0.10252780684E+04  0.00000000000E+00 0.  1.
         22    1    1    2    0    0  0.65580930443E+03 -0.53309960115E+03  0.72519808427E+03  0.11136396589E+04  0.00000000000E+00 0.  1.
<mgrwt>
<rscale>  0 0.28325081E+04</rscale>
<asrwt>0</asrwt>
<pdfrwt beam="1">  1        1 0.30208153E+00 0.28325081E+04</pdfrwt>
<pdfrwt beam="2">  1       -1 0.15715618E+00 0.28325081E+04</pdfrwt>
<totfact> 0.83661279E-01</totfact>
</mgrwt>
</event>
<event>
 6    1  0.1699769E-005  0.4035685E+04  0.7818608E-02  0.7997386E-01
          1   -1    0    0  501    0  0.00000000000E+00  0.00000000000E+00  0.16389292026E+04  0.16389292026E+04  0.00000000000E+00 0. -1.
         -1   -1    0    0    0  501 -0.00000000000E+00 -0.00000000000E+00 -0.24843586627E+04  0.24843586627E+04  0.00000000000E+00 0.  1.
         23    2    1    2    0    0 -0.52658754939E+03  0.19125982494E+04 -0.79447500782E+03  0.21388678324E+04  0.90766489238E+02 0.  0.
         11    1    3    3    0    0 -0.36207209849E+03  0.11508762151E+04 -0.47403827595E+03  0.12962733331E+04  0.00000000000E+00 0. -1.
        -11    1    3    3    0    0 -0.16451545089E+03  0.76172203430E+03 -0.32043673188E+03  0.84259449930E+03  0.00000000000E+00 0.  1.
         22    1    1    2    0    0  0.52658754939E+03 -0.19125982494E+04 -0.50954452230E+02  0.19844200329E+04  0.00000000000E+00 0. -1.
<mgrwt>
<rscale>  0 0.40356848E+04</rscale>
<asrwt>0</asrwt>
<pdfrwt beam="1">  1        1 0.25214295E+00 0.40356848E+04</pdfrwt>
<pdfrwt beam="2">  1       -1 0.38220902E+00 0.40356848E+04</pdfrwt>
<totfact> 0.38685535E-02</totfact>
</mgrwt>
</event>
<event>
 6    1  0.1528034E-005  0.2287800E+04  0.7818608E-02  0.8482747E-01
          2   -1    0    0  501    0  0.00000000000E+00  0.00000000000E+00  0.38358663619E+03  0.38358663619E+03  0.00000000000E+00 0. -1.
         -2   -1    0    0    0  501 -0.00000000000E+00 -0.00000000000E+00 -0.34112424566E+04  0.34112424566E+04  0.00000000000E+00 0.  1.
         23    2    1    2    0    0 -0.85169287531E+03 -0.11514611712E+02 -0.25417668206E+03  0.89350183256E+03  0.90699498036E+02 0.  0.
         13    1    3    3    0    0 -0.42537328912E+03 -0.12417402464E+02 -0.80184978898E+02  0.43304302076E+03  0.00000000000E+00 0. -1.
        -13    1    3    3    0    0 -0.42631958619E+03  0.90279075161E+00 -0.17399170316E+03  0.46045881181E+03  0.00000000000E+00 0.  1.
         22    1    1    2    0    0  0.85169287531E+03  0.11514611712E+02 -0.27734791384E+04  0.29013272602E+04  0.00000000000E+00 0.  1.
<mgrwt>
<rscale>  0 0.22877998E+04</rscale>
<asrwt>0</asrwt>
<pdfrwt beam="1">  1        2 0.59013330E-01 0.22877998E+04</pdfrwt>
<pdfrwt beam="2">  1       -2 0.52480652E+00 0.22877998E+04</pdfrwt>
<totfact> 0.87967721E-02</totfact>
</mgrwt>
</event>
<event>
 6    1  0.1528034E-005  0.1025861E+04  0.7818608E-02  0.9280627E-01
         -2   -1    0    0    0  501 -0.00000000000E+00  0.00000000000E+00  0.30953462871E+03  0.30953462871E+03  0.00000000000E+00 0.  1.
          2   -1    0    0  501    0  0.00000000000E+00 -0.00000000000E+00 -0.84997768834E+03  0.84997768834E+03  0.00000000000E+00 0. -1.
         23    2    1    2    0    0 -0.34320826582E+00 -0.42447550715E+03 -0.58982416198E+03  0.73217396488E+03  0.89479600041E+02 0.  0.
         11    1    3    3    0    0  0.44516625448E+02 -0.20523725134E+03 -0.28262105720E+03  0.35210612215E+03  0.00000000000E+00 0.  1.
        -11    1    3    3    0    0 -0.44859833714E+02 -0.21923825581E+03 -0.30720310478E+03  0.38006784273E+03  0.00000000000E+00 0. -1.
         22    1    1    2    0    0  0.34320826582E+00  0.42447550715E+03  0.49381102345E+02  0.42733835217E+03  0.00000000000E+00 0.  1.
<mgrwt>
<rscale>  0 0.10258607E+04</rscale>
<asrwt>0</asrwt>
<pdfrwt beam="1">  1        2 0.13076580E+00 0.10258607E+04</pdfrwt>
<pdfrwt beam="2">  1       -2 0.47620712E-01 0.10258607E+04</pdfrwt>
<totfact> 0.13221026E+02</totfact>
</mgrwt>
</event>
<event>
 6    1  0.1528034E-005  0.4734821E+04  0.7818608E-02  0.7870768E-01
          1   -1    0    0  501    0  0.00000000000E+00  0.00000000000E+00  0.35664347378E+04  0.35664347378E+04  0.00000000000E+00 0. -1.
         -1   -1    0    0    0  501 -0.00000000000E+00 -0.00000000000E+00 -0.15714945349E+04  0.15714945349E+04  0.00000000000E+00 0.  1.
         23    2    1    2    0    0 -0.69339850656E+03  0.33927829636E+02  0.34529433726E+04  0.35230838221E+04  0.85726874371E+02 0.  0.
         13    1    3    3    0    0 -0.47708095167E+03  0.38353451485E+02  0.21842722745E+04  0.22360953895E+04  0.00000000000E+00 0. -1.
        -13    1    3    3    0    0 -0.21631755489E+03 -0.44256218496E+01  0.12686710981E+04  0.12869884326E+04  0.00000000000E+00 0.  1.
         22    1    1    2    0    0  0.69339850656E+03 -0.33927829636E+02 -0.14580031696E+04  0.16148454506E+04  0.00000000000E+00 0.  1.
<mgrwt>
<rscale>  0 0.47348211E+04</rscale>
<asrwt>0</asrwt>
<pdfrwt beam="1">  1        1 0.54868227E+00 0.47348211E+04</pdfrwt>
<pdfrwt beam="2">  1       -1 0.24176839E+00 0.47348211E+04</pdfrwt>
<totfact> 0.12860748E-02</totfact>
</mgrwt>
</event>
<event>
 6    1  0.1528034E-005  0.1937569E+04  0.7818608E-02  0.8636378E-01
         -1   -1    0    0    0  501 -0.00000000000E+00  0.00000000000E+00  0.29955172422E+03  0.29955172422E+03  0.00000000000E+00 0.  1.
          1   -1    0    0  501    0  0.00000000000E+00 -0.00000000000E+00 -0.31331607461E+04  0.31331607461E+04  0.00000000000E+00 0. -1.
         23    2    1    2    0    0  0.84988408313E+03 -0.37167057531E+03 -0.19015247925E+04  0.21177132377E+04  0.92037215328E+02 0.  0.
         13    1    3    3    0    0  0.52362576606E+03 -0.21662961212E+03 -0.10606744918E+04  0.12025567385E+04  0.00000000000E+00 0. -1.
        -13    1    3    3    0    0  0.32625831707E+03 -0.15504096320E+03 -0.84085030069E+03  0.91515649913E+03  0.00000000000E+00 0.  1.
         22    1    1    2    0    0 -0.84988408313E+03  0.37167057531E+03 -0.93208422937E+03  0.13149992327E+04  0.00000000000E+00 0.  1.
<mgrwt>
<rscale>  0 0.19375693E+04</rscale>
<asrwt>0</asrwt>
<pdfrwt beam="1">  1        1 0.48202472E+00 0.19375693E+04</pdfrwt>
<pdfrwt beam="2">  1       -1 0.46084882E-01 0.19375693E+04</pdfrwt>
<totfact> 0.20889469E+00</totfact>
</mgrwt>
</event>
<event>
 6    1  0.1528034E-005  0.2050497E+04  0.7818608E-02  0.8583369E-01
         -2   -1    0    0    0  501 -0.00000000000E+00  0.00000000000E+00  0.59306244857E+03  0.59306244857E+03  0.00000000000E+00 0.  1.
          2   -1    0    0  501    0  0.00000000000E+00 -0.00000000000E+00 -0.17723845395E+04  0.17723845395E+04  0.00000000000E+00 0. -1.
         23    2    1    2    0    0  0.86069009668E+03 -0.12582523508E+03  0.30868853520E+02  0.87508409456E+03  0.90553045935E+02 0.  0.
         13    1    3    3    0    0  0.41539943555E+03 -0.51392426273E+02 -0.29462343195E+02  0.41960207602E+03  0.00000000000E+00 0. -1.
        -13    1    3    3    0    0  0.44529066113E+03 -0.74432808808E+02  0.60331196715E+02  0.45548201854E+03  0.00000000000E+00 0.  1.
         22    1    1    2    0    0 -0.86069009668E+03  0.12582523508E+03 -0.12101909445E+04  0.14903628935E+04  0.00000000000E+00 0. -1.
<mgrwt>
<rscale>  0 0.20504972E+04</rscale>
<asrwt>0</asrwt>
<pdfrwt beam="1">  1        2 0.27267455E+00 0.20504972E+04</pdfrwt>
<pdfrwt beam="2">  1       -2 0.91240376E-01 0.20504972E+04</pdfrwt>
<totfact> 0.84681622E+00</totfact>
</mgrwt>
</event>
<event>
 6    1  0.1528034E-005  0.2008478E+04  0.7818608E-02  0.8602667E-01
         -1   -1    0    0    0  501 -0.00000000000E+00  0.00000000000E+00  0.41139395400E+03  0.41139395400E+03  0.00000000000E+00 0.  1.
          1   -1    0    0  501    0  0.00000000000E+00 -0.00000000000E+00 -0.24514106798E+04  0.24514106798E+04  0.00000000000E+00 0. -1.
         23    2    1    2    0    0 -0.21203543095E+03 -0.19604854116E+03 -0.23900914846E+04  0.24089914661E+04  0.85489908667E+02 0.  0.
         11    1    3    3    0    0 -0.12065639939E+03 -0.12272161368E+03 -0.10747263164E+04  0.10884186770E+04  0.00000000000E+00 0.  1.
        -11    1    3    3    0    0 -0.91379031563E+02 -0.73326927473E+02 -0.13153651682E+04  0.13205727892E+04  0.00000000000E+00 0. -1.
         22    1    1    2    0    0  0.21203543095E+03  0.19604854116E+03  0.35007475878E+03  0.45381316773E+03  0.00000000000E+00 0.  1.
<mgrwt>
<rscale>  0 0.20084776E+04</rscale>
<asrwt>0</asrwt>
<pdfrwt beam="1">  1        1 0.37714010E+00 0.20084776E+04</pdfrwt>
<pdfrwt beam="2">  1       -1 0.63291378E-01 0.20084776E+04</pdfrwt>
<totfact> 0.34372578E+00</totfact>
</mgrwt>
</event>
<event>
 6    1  0.1528034E-005  0.1805275E+04  0.7818608E-02  0.8703499E-01
         -1   -1    0    0    0  501 -0.00000000000E+00  0.00000000000E+00  0.39342005874E+03  0.39342005874E+03  0.00000000000E+00 0. -1.
          1   -1    0    0  501    0  0.00000000000E+00 -0.00000000000E+00 -0.20709526215E+04  0.20709526215E+04  0.00000000000E+00 0.  1.
         23    2    1    2    0    0  0.66805001140E+03  0.59180553020E+03 -0.67858312677E+03  0.11248113420E+04  0.90558775359E+02 0.  0.
         13    1    3    3    0    0  0.22329074074E+03  0.15800415552E+03 -0.17147637134E+03  0.32284394680E+03  0.00000000000E+00 0. -1.
        -13    1    3    3    0    0  0.44475927066E+03  0.43380137468E+03 -0.50710675544E+03  0.80196739517E+03  0.00000000000E+00 0.  1.
         22    1    1    2    0    0 -0.66805001140E+03 -0.59180553020E+03 -0.99894943597E+03  0.13395613382E+04  0.00000000000E+00 0.  1.
<mgrwt>
<rscale>  0 0.18052748E+04</rscale>
<asrwt>0</asrwt>
<pdfrwt beam="1">  1        1 0.31860809E+00 0.18052748E+04</pdfrwt>
<pdfrwt beam="2">  1       -1 0.60526164E-01 0.18052748E+04</pdfrwt>
<totfact> 0.69645389E+00</totfact>
</mgrwt>
</event>
<event>
 6    1  0.1528034E-005  0.6349906E+03  0.7818608E-02  0.9835358E-01
         -2   -1    0    0    0  501 -0.00000000000E+00  0.00000000000E+00  0.52949260927E+02  0.52949260927E+02  0.00000000000E+00 0.  1.
          2   -1    0    0  501    0  0.00000000000E+00 -0.00000000000E+00 -0.19037712610E+04  0.19037712610E+04  0.00000000000E+00 0. -1.
         23    2    1    2    0    0  0.23287913933E+03  0.16336177725E+03 -0.13278045473E+04  0.13613491926E+04  0.96368795517E+02 0.  0.
         11    1    3    3    0    0  0.78829568413E+02  0.99166220643E+02 -0.71947229991E+03  0.73053982130E+03  0.00000000000E+00 0. -1.
        -11    1    3    3    0    0  0.15404957092E+03  0.64195556609E+02 -0.60833224737E+03  0.63080937135E+03  0.00000000000E+00 0.  1.
         22    1    1    2    0    0 -0.23287913933E+03 -0.16336177725E+03 -0.52301745281E+03  0.59537132929E+03  0.00000000000E+00 0.  1.
<mgrwt>
<rscale>  0 0.63499065E+03</rscale>
<asrwt>0</asrwt>
<pdfrwt beam="1">  1        2 0.29288785E+00 0.63499065E+03</pdfrwt>
<pdfrwt beam="2">  1       -2 0.81460412E-02 0.63499065E+03</pdfrwt>
<totfact> 0.74287588E+02</totfact>
</mgrwt>
</event>
<event>
 6    1  0.2812257E-005  0.3922609E+04  0.7818608E-02  0.8020343E-01
         -1   -1    0    0    0  501 -0.00000000000E+00  0.00000000000E+00  0.25050803890E+04  0.25050803890E+04  0.00000000000E+00 0.  1.
          1   -1    0    0  501    0  0.00000000000E+00 -0.00000000000E+00 -0.15355652665E+04  0.15355652665E+04  0.00000000000E+00 0. -1.
         23    2    1    2    0    0  0.39180954676E+03 -0.11243522829E+04 -0.11190677853E+04  0.16365114372E+04  0.90411278473E+02 0.  0.
         13    1    3    3    0    0  0.97918846676E+02 -0.40105668718E+03 -0.36398148597E+03  0.55037904120E+03  0.00000000000E+00 0. -1.
        -13    1    3    3    0    0  0.29389070008E+03 -0.72329559568E+03 -0.75508629931E+03  0.10861323960E+04  0.00000000000E+00 0.  1.
         22    1    1    2    0    0 -0.39180954676E+03  0.11243522829E+04  0.20885829078E+04  0.24041342183E+04  0.00000000000E+00 0.  1.
<mgrwt>
<rscale>  0 0.39226085E+04</rscale>
<asrwt>0</asrwt>
<pdfrwt beam="1">  1        1 0.23624081E+00 0.39226085E+04</pdfrwt>
<pdfrwt beam="2">  1       -1 0.38539698E+00 0.39226085E+04</pdfrwt>
<totfact> 0.43757353E-02</totfact>
</mgrwt>
</event>
<event>
 6    1  0.1528034E-005  0.1721737E+04  0.7818608E-02  0.8749063E-01
         -1   -1    0    0    0  501 -0.00000000000E+00  0.00000000000E+00  0.16806251847E+04  0.16806251847E+04  0.00000000000E+00 0.  1.
          1   -1    0    0  501    0  0.00000000000E+00 -0.00000000000E+00 -0.44096385915E+03  0.44096385915E+03  0.00000000000E+00 0. -1.
         23    2    1    2    0    0 -0.44121471882E+02 -0.80448423729E+03  0.25654899947E+03  0.85050626211E+03  0.91661990074E+02 0.  0.
         11    1    3    3    0    0  0.91817742285E+01 -0.41085825106E+03  0.16518091283E+03  0.44291482410E+03  0.00000000000E+00 0. -1.
        -11    1    3    3    0    0 -0.53303246110E+02 -0.39362598624E+03  0.91368086635E+02  0.40759143801E+03  0.00000000000E+00 0.  1.
         22    1    1    2    0    0  0.44121471882E+02  0.80448423729E+03  0.98311232604E+03  0.12710827817E+04  0.00000000000E+00 0.  1.
<mgrwt>
<rscale>  0 0.17217375E+04</rscale>
<asrwt>0</asrwt>
<pdfrwt beam="1">  1        1 0.67840595E-01 0.17217375E+04</pdfrwt>
<pdfrwt beam="2">  1       -1 0.25855772E+00 0.17217375E+04</pdfrwt>
<totfact> 0.30662530E+00</totfact>
</mgrwt>
</event>
<event>
 6    1  0.1528034E-005  0.2256973E+04  0.7818608E-02  0.8495082E-01
         -1   -1    0    0    0  501 -0.00000000000E+00  0.00000000000E+00  0.47319909464E+03  0.47319909464E+03  0.00000000000E+00 0.  1.
          1   -1    0    0  501    0  0.00000000000E+00 -0.00000000000E+00 -0.26912183052E+04  0.26912183052E+04  0.00000000000E+00 0. -1.
         23    2    1    2    0    0  0.51528522869E+03 -0.63670596826E+02 -0.25127295960E+04  0.25674023053E+04  0.90397804696E+02 0.  0.
         11    1    3    3    0    0  0.23433916512E+03 -0.64058268871E+02 -0.10269202458E+04  0.10552646575E+04  0.00000000000E+00 0. -1.
        -11    1    3    3    0    0  0.28094606357E+03  0.38767204530E+00 -0.14858093501E+04  0.15121376478E+04  0.00000000000E+00 0.  1.
         22    1    1    2    0    0 -0.51528522869E+03  0.63670596826E+02  0.29471038541E+03  0.59701509451E+03  0.00000000000E+00 0.  1.
<mgrwt>
<rscale>  0 0.22569733E+04</rscale>
<asrwt>0</asrwt>
<pdfrwt beam="1">  1        1 0.41403359E+00 0.22569733E+04</pdfrwt>
<pdfrwt beam="2">  1       -1 0.72799860E-01 0.22569733E+04</pdfrwt>
<totfact> 0.17185071E+00</totfact>
</mgrwt>
</event>
<event>
 6    1  0.1528034E-005  0.2131138E+04  0.7818608E-02  0.8547650E-01
          1   -1    0    0  501    0  0.00000000000E+00  0.00000000000E+00  0.23522556836E+04  0.23522556836E+04  0.00000000000E+00 0. -1.
         -1   -1    0    0    0  501 -0.00000000000E+00 -0.00000000000E+00 -0.48270140555E+03  0.48270140555E+03  0.00000000000E+00 0.  1.
         23    2    1    2    0    0  0.14722373564E+03 -0.95438784178E+03  0.34356122874E+03  0.10290817426E+04  0.91890881662E+02 0.  0.
         11    1    3    3    0    0  0.71631204246E+02 -0.27723399047E+03  0.69373749901E+02  0.29462252471E+03  0.00000000000E+00 0. -1.
        -11    1    3    3    0    0  0.75592531390E+02 -0.67715385131E+03  0.27418747884E+03  0.73445921786E+03  0.00000000000E+00 0.  1.
         22    1    1    2    0    0 -0.14722373564E+03  0.95438784178E+03  0.15259930493E+04  0.18058753466E+04  0.00000000000E+00 0. -1.
<mgrwt>
<rscale>  0 0.21311378E+04</rscale>
<asrwt>0</asrwt>
<pdfrwt beam="1">  1        1 0.36188548E+00 0.21311378E+04</pdfrwt>
<pdfrwt beam="2">  1       -1 0.74261756E-01 0.21311378E+04</pdfrwt>
<totfact> 0.28688928E+00</totfact>
</mgrwt>
</event>
<event>
 6    1  0.1528034E-005  0.3548810E+04  0.7818608E-02  0.8102319E-01
          1   -1    0    0  501    0  0.00000000000E+00  0.00000000000E+00  0.24989224857E+04  0.24989224857E+04  0.00000000000E+00 0. -1.
         -1   -1    0    0    0  501 -0.00000000000E+00 -0.00000000000E+00 -0.12599479741E+04  0.12599479741E+04  0.00000000000E+00 0.  1.
         23    2    1    2    0    0  0.12916146948E+04  0.76747180839E+02  0.19042025321E+04  0.23039866264E+04  0.90600450156E+02 0.  0.
         11    1    3    3    0    0  0.49525390426E+03 -0.11434252284E+02  0.69828939210E+03  0.85616309599E+03  0.00000000000E+00 0.  1.
        -11    1    3    3    0    0  0.79636079052E+03  0.88181433123E+02  0.12059131400E+04  0.14478235304E+04  0.00000000000E+00 0. -1.
         22    1    1    2    0    0 -0.12916146948E+04 -0.76747180839E+02 -0.66522802052E+03  0.14548838334E+04  0.00000000000E+00 0.  1.
<mgrwt>
<rscale>  0 0.35488096E+04</rscale>
<asrwt>0</asrwt>
<pdfrwt beam="1">  1        1 0.38444961E+00 0.35488096E+04</pdfrwt>
<pdfrwt beam="2">  1       -1 0.19383815E+00 0.35488096E+04</pdfrwt>
<totfact> 0.18311381E-01</totfact>
</mgrwt>
</event>
<event>
 6    1  0.1528034E-005  0.1367977E+04  0.7818608E-02  0.8977330E-01
         -2   -1    0    0    0  501 -0.00000000000E+00  0.00000000000E+00  0.21280054582E+03  0.21280054582E+03  0.00000000000E+00 0.  1.
          2   -1    0    0  501    0  0.00000000000E+00 -0.00000000000E+00 -0.21984910540E+04  0.21984910540E+04  0.00000000000E+00 0. -1.
         23    2    1    2    0    0 -0.53606495176E+03  0.71459765542E+02 -0.17262846690E+04  0.18114886988E+04  0.94659479972E+02 0.  0.
         11    1    3    3    0    0 -0.48146239341E+03  0.83598995722E+02 -0.14673198717E+04  0.15465517884E+04  0.00000000000E+00 0.  1.
        -11    1    3    3    0    0 -0.54602558348E+02 -0.12139230179E+02 -0.25896479730E+03  0.26493691046E+03  0.00000000000E+00 0. -1.
         22    1    1    2    0    0  0.53606495176E+03 -0.71459765542E+02 -0.25940583922E+03  0.59980290097E+03  0.00000000000E+00 0.  1.
<mgrwt>
<rscale>  0 0.13679767E+04</rscale>
<asrwt>0</asrwt>
<pdfrwt beam="1">  1        2 0.33822935E+00 0.13679767E+04</pdfrwt>
<pdfrwt beam="2">  1       -2 0.32738549E-01 0.13679767E+04</pdfrwt>
<totfact> 0.43988752E+01</totfact>
</mgrwt>
</event>
<event>
 6    1  0.1528034E-005  0.1370397E+04  0.7818608E-02  0.8975530E-01
         -2   -1    0    0    0  501 -0.00000000000E+00  0.00000000000E+00  0.47840013521E+03  0.47840013521E+03  0.00000000000E+00 0.  1.
          2   -1    0    0  501    0  0.00000000000E+00 -0.00000000000E+00 -0.98138988862E+03  0.98138988862E+03  0.00000000000E+00 0. -1.
         23    2    1    2    0    0  0.49572485097E+03 -0.77789813932E+01  0.24660480650E+03  0.56107113303E+03  0.90461291793E+02 0.  0.
         11    1    3    3    0    0  0.11420125714E+03  0.28198611341E+02  0.85231298248E+02  0.14526342628E+03  0.00000000000E+00 0. -1.
        -11    1    3    3    0    0  0.38152359384E+03 -0.35977592734E+02  0.16137350825E+03  0.41580770676E+03  0.00000000000E+00 0.  1.
         22    1    1    2    0    0 -0.49572485097E+03  0.77789813932E+01 -0.74959455991E+03  0.89871889080E+03  0.00000000000E+00 0. -1.
<mgrwt>
<rscale>  0 0.13703971E+04</rscale>
<asrwt>0</asrwt>
<pdfrwt beam="1">  1        2 0.15098306E+00 0.13703971E+04</pdfrwt>
<pdfrwt beam="2">  1       -2 0.73600021E-01 0.13703971E+04</pdfrwt>
<totfact> 0.42062459E+01</totfact>
</mgrwt>
</event>
<event>
 6    1  0.1587798E-005  0.2827275E+04  0.7818608E-02  0.8294850E-01
         -2   -1    0    0    0  501 -0.00000000000E+00  0.00000000000E+00  0.13905364390E+04  0.13905364390E+04  0.00000000000E+00 0.  1.
          2   -1    0    0  501    0  0.00000000000E+00 -0.00000000000E+00 -0.14371220224E+04  0.14371220224E+04  0.00000000000E+00 0. -1.
         23    2    1    2    0    0 -0.60788670940E+03 -0.75316131306E+03  0.10048396052E+04  0.13985772384E+04  0.97659841987E+02 0.  0.
         11    1    3    3    0    0 -0.16216081671E+03 -0.22301057797E+03  0.34828784898E+03  0.44422322554E+03  0.00000000000E+00 0. -1.
        -11    1    3    3    0    0 -0.44572589270E+03 -0.53015073509E+03  0.65655175618E+03  0.95435401287E+03  0.00000000000E+00 0.  1.
         22    1    1    2    0    0  0.60788670940E+03  0.75316131306E+03 -0.10514251885E+04  0.14290812230E+04  0.00000000000E+00 0. -1.
<mgrwt>
<rscale>  0 0.28272747E+04</rscale>
<asrwt>0</asrwt>
<pdfrwt beam="1">  1        2 0.22109570E+00 0.28272747E+04</pdfrwt>
<pdfrwt beam="2">  1       -2 0.21392868E+00 0.28272747E+04</pdfrwt>
<totfact> 0.12927942E+00</totfact>
</mgrwt>
</event>
<event>
 6    1  0.1528034E-005  0.2330457E+04  0.7818608E-02  0.8466008E-01
          2   -1    0    0  501    0  0.00000000000E+00  0.00000000000E+00  0.25909249886E+04  0.25909249886E+04  0.00000000000E+00 0. -1.
         -2   -1    0    0    0  501 -0.00000000000E+00 -0.00000000000E+00 -0.52404359281E+03  0.52404359281E+03  0.00000000000E+00 0.  1.
         23    2    1    2    0    0  0.19265147623E+03 -0.10656623114E+04  0.46657356093E+03  0.11826808390E+04  0.91062209149E+02 0.  0.
         11    1    3    3    0    0  0.74453633567E+02 -0.60686026638E+03  0.23132013462E+03  0.65370615045E+03  0.00000000000E+00 0.  1.
        -11    1    3    3    0    0  0.11819784266E+03 -0.45880204501E+03  0.23525342631E+03  0.52897468853E+03  0.00000000000E+00 0. -1.
         22    1    1    2    0    0 -0.19265147623E+03  0.10656623114E+04  0.16003078348E+04  0.19322877424E+04  0.00000000000E+00 0. -1.
<mgrwt>
<rscale>  0 0.23304572E+04</rscale>
<asrwt>0</asrwt>
<pdfrwt beam="1">  1        2 0.39860384E+00 0.23304572E+04</pdfrwt>
<pdfrwt beam="2">  1       -2 0.80622093E-01 0.23304572E+04</pdfrwt>
<totfact> 0.37847602E+00</totfact>
</mgrwt>
</event>
<event>
 6    1  0.1528034E-005  0.1493885E+04  0.7818608E-02  0.8888530E-01
          1   -1    0    0  501    0  0.00000000000E+00  0.00000000000E+00  0.18969180063E+04  0.18969180063E+04  0.00000000000E+00 0. -1.
         -1   -1    0    0    0  501 -0.00000000000E+00 -0.00000000000E+00 -0.29412077156E+03  0.29412077156E+03  0.00000000000E+00 0.  1.
         23    2    1    2    0    0 -0.12548515803E+03 -0.68374198833E+03  0.41494492102E+03  0.81472386089E+03  0.91356721315E+02 0.  0.
         11    1    3    3    0    0 -0.49537383404E+02 -0.14999166413E+03  0.58629159017E+02  0.16848985118E+03  0.00000000000E+00 0.  1.
        -11    1    3    3    0    0 -0.75947774628E+02 -0.53375032420E+03  0.35631576201E+03  0.64623400971E+03  0.00000000000E+00 0. -1.
         22    1    1    2    0    0  0.12548515803E+03  0.68374198833E+03  0.11878523137E+04  0.13763149170E+04  0.00000000000E+00 0.  1.
<mgrwt>
<rscale>  0 0.14938849E+04</rscale>
<asrwt>0</asrwt>
<pdfrwt beam="1">  1        1 0.29183353E+00 0.14938849E+04</pdfrwt>
<pdfrwt beam="2">  1       -1 0.45249351E-01 0.14938849E+04</pdfrwt>
<totfact> 0.16429729E+01</totfact>
</mgrwt>
</event>
<event>
 6    1  0.1528034E-005  0.1706267E+04  0.7818608E-02  0.8757798E-01
          2   -1    0    0  501    0  0.00000000000E+00  0.00000000000E+00  0.27533032403E+04  0.27533032403E+04  0.00000000000E+00 0. -1.
         -2   -1    0    0    0  501 -0.00000000000E+00 -0.00000000000E+00 -0.26435032203E+03  0.26435032203E+03  0.00000000000E+00 0.  1.
         23    2    1    2    0    0  0.47409647535E+03  0.63837208878E+03  0.71370626450E+03  0.10724576664E+04  0.92208582194E+02 0.  0.
         11    1    3    3    0    0  0.12430304621E+03  0.12732147245E+03  0.12057874271E+03  0.21494473205E+03  0.00000000000E+00 0.  1.
        -11    1    3    3    0    0  0.34979342914E+03  0.51105061633E+03  0.59312752179E+03  0.85751293438E+03  0.00000000000E+00 0. -1.
         22    1    1    2    0    0 -0.47409647535E+03 -0.63837208878E+03  0.17752466538E+04  0.19451958959E+04  0.00000000000E+00 0.  1.
<mgrwt>
<rscale>  0 0.17062668E+04</rscale>
<asrwt>0</asrwt>
<pdfrwt beam="1">  1        2 0.42358509E+00 0.17062668E+04</pdfrwt>
<pdfrwt beam="2">  1       -2 0.40669282E-01 0.17062668E+04</pdfrwt>
<totfact> 0.13474444E+01</totfact>
</mgrwt>
</event>
<event>
 6    1  0.1528034E-005  0.8904576E+03  0.7818608E-02  0.9437589E-01
         -1   -1    0    0    0  501 -0.00000000000E+00  0.00000000000E+00  0.14407099152E+04  0.14407099152E+04  0.00000000000E+00 0. -1.
          1   -1    0    0  501    0  0.00000000000E+00 -0.00000000000E+00 -0.13759096752E+03  0.13759096752E+03  0.00000000000E+00 0.  1.
         23    2    1    2    0    0  0.13283835721E+03  0.25131048180E+03  0.64076991408E+02  0.30707000014E+03  0.96866592560E+02 0.  0.
         11    1    3    3    0    0  0.98361078388E+02  0.22153253821E+03  0.85105856541E+02  0.25689409111E+03  0.00000000000E+00 0.  1.
        -11    1    3    3    0    0  0.34477278817E+02  0.29777943584E+02 -0.21028865133E+02  0.50175909035E+02  0.00000000000E+00 0. -1.
         22    1    1    2    0    0 -0.13283835721E+03 -0.25131048180E+03  0.12390419562E+04  0.12712308825E+04  0.00000000000E+00 0. -1.
<mgrwt>
<rscale>  0 0.89045757E+03</rscale>
<asrwt>0</asrwt>
<pdfrwt beam="1">  1        1 0.21167842E-01 0.89045757E+03</pdfrwt>
<pdfrwt beam="2">  1       -1 0.22164767E+00 0.89045757E+03</pdfrwt>
<totfact> 0.26491080E+01</totfact>
</mgrwt>
</event>
<event>
 6    1  0.1528034E-005  0.6095623E+04  0.7818608E-02  0.7678658E-01
          2   -1    0    0  501    0  0.00000000000E+00  0.00000000000E+00  0.37244777389E+04  0.37244777389E+04  0.00000000000E+00 0. -1.
         -2   -1    0    0    0  501 -0.00000000000E+00 -0.00000000000E+00 -0.24940824703E+04  0.24940824703E+04  0.00000000000E+00 0.  1.
         23    2    1    2    0    0  0.16275228182E+04  0.14684044067E+04  0.27745868744E+04  0.35372229047E+04  0.92582551383E+02 0.  0.
         11    1    3    3    0    0  0.52430722018E+03  0.50722803797E+03  0.98085040046E+03  0.12223934930E+04  0.00000000000E+00 0.  1.
        -11    1    3    3    0    0  0.11032155980E+04  0.96117636871E+03  0.17937364739E+04  0.23148294117E+04  0.00000000000E+00 0. -1.
         22    1    1    2    0    0 -0.16275228182E+04 -0.14684044067E+04 -0.15441916058E+04  0.26813373045E+04  0.00000000000E+00 0.  1.
<mgrwt>
<rscale>  0 0.60956229E+04</rscale>
<asrwt>0</asrwt>
<pdfrwt beam="1">  1        2 0.57299657E+00 0.60956229E+04</pdfrwt>
<pdfrwt beam="2">  1       -2 0.38370500E+00 0.60956229E+04</pdfrwt>
<totfact> 0.35347014E-03</totfact>
</mgrwt>
</event>
<event>
 6    1  0.1528034E-005  0.2592934E+04  0.7818608E-02  0.8370605E-01
         -1   -1    0    0    0  501 -0.00000000000E+00  0.00000000000E+00  0.66691574441E+03  0.66691574441E+03  0.00000000000E+00 0. -1.
          1   -1    0    0  501    0  0.00000000000E+00 -0.00000000000E+00 -0.25202987201E+04  0.25202987201E+04  0.00000000000E+00 0.  1.
         23    2    1    2    0    0  0.74476172486E+03  0.10165532785E+04 -0.56265745560E+03  0.13833234027E+04  0.94602479689E+02 0.  0.
         11    1    3    3    0    0  0.32084535950E+03  0.36979191294E+03 -0.24274106427E+03  0.54645313420E+03  0.00000000000E+00 0. -1.
        -11    1    3    3    0    0  0.42391636536E+03  0.64676136556E+03 -0.31991639132E+03  0.83687026846E+03  0.00000000000E+00 0.  1.
         22    1    1    2    0    0 -0.74476172486E+03 -0.10165532785E+04 -0.12907255201E+04  0.18038910619E+04  0.00000000000E+00 0.  1.
<mgrwt>
<rscale>  0 0.25929342E+04</rscale>
<asrwt>0</asrwt>
<pdfrwt beam="1">  1        1 0.38773826E+00 0.25929342E+04</pdfrwt>
<pdfrwt beam="2">  1       -1 0.10260242E+00 0.25929342E+04</pdfrwt>
<totfact> 0.10378249E+00</totfact>
</mgrwt>
</event>
<event>
 6    1  0.1528034E-005  0.2760566E+04  0.7818608E-02  0.8315617E-01
          3   -1    0    0  501    0  0.00000000000E+00  0.00000000000E+00  0.15717499078E+04  0.15717499078E+04  0.00000000000E+00 0. -1.
         -3   -1    0    0    0  501 -0.00000000000E+00 -0.00000000000E+00 -0.12121403360E+04  0.12121403360E+04  0.00000000000E+00 0.  1.
         23    2    1    2    0    0  0.12305953215E+04 -0.42928458203E+02 -0.44575973980E+03  0.13125549911E+04  0.88832208721E+02 0.  0.
         13    1    3    3    0    0  0.12382669099E+03  0.17718441848E+02 -0.29317001610E+02  0.12847754343E+03  0.00000000000E+00 0.  1.
        -13    1    3    3    0    0  0.11067686305E+04 -0.60646900051E+02 -0.41644273819E+03  0.11840774477E+04  0.00000000000E+00 0. -1.
         22    1    1    2    0    0 -0.12305953215E+04  0.42928458203E+02  0.80536931161E+03  0.14713352527E+04  0.00000000000E+00 0. -1.
<mgrwt>
<rscale>  0 0.27605662E+04</rscale>
<asrwt>0</asrwt>
<pdfrwt beam="1">  1        3 0.24180768E+00 0.27605662E+04</pdfrwt>
<pdfrwt beam="2">  1       -3 0.18648313E+00 0.27605662E+04</pdfrwt>
<totfact> 0.33461893E-02</totfact>
</mgrwt>
</event>
<event>
 6    1  0.1528034E-005  0.6796721E+03  0.7818608E-02  0.9752641E-01
          1   -1    0    0  501    0  0.00000000000E+00  0.00000000000E+00  0.44897997560E+03  0.44897997560E+03  0.00000000000E+00 0. -1.
         -1   -1    0    0    0  501 -0.00000000000E+00 -0.00000000000E+00 -0.25722423838E+03  0.25722423838E+03  0.00000000000E+00 0.  1.
         23    2    1    2    0    0  0.29389178435E+02 -0.10640412188E+03  0.42497619714E+03  0.44817835502E+03  0.89852706218E+02 0.  0.
         11    1    3    3    0    0 -0.15023292079E+01 -0.50775251632E+02  0.32981173373E+03  0.33370070854E+03  0.00000000000E+00 0. -1.
        -11    1    3    3    0    0  0.30891507643E+02 -0.55628870245E+02  0.95164463408E+02  0.11447764649E+03  0.00000000000E+00 0.  1.
         22    1    1    2    0    0 -0.29389178435E+02  0.10640412188E+03 -0.23322045993E+03  0.25802585896E+03  0.00000000000E+00 0.  1.
<mgrwt>
<rscale>  0 0.67967207E+03</rscale>
<asrwt>0</asrwt>
<pdfrwt beam="1">  1        1 0.69073842E-01 0.67967207E+03</pdfrwt>
<pdfrwt beam="2">  1       -1 0.39572960E-01 0.67967207E+03</pdfrwt>
<totfact> 0.32310989E+02</totfact>
</mgrwt>
</event>
<event>
 6    1  0.1528034E-005  0.3200987E+04  0.7818608E-02  0.8188557E-01
          2   -1    0    0  501    0  0.00000000000E+00  0.00000000000E+00  0.20771664191E+04  0.20771664191E+04  0.00000000000E+00 0. -1.
         -2   -1    0    0    0  501 -0.00000000000E+00 -0.00000000000E+00 -0.12332084418E+04  0.12332084418E+04  0.00000000000E+00 0.  1.
         23    2    1    2    0    0  0.14544954559E+02 -0.15950209984E+04  0.30387720424E+03  0.16263348428E+04  0.91214717711E+02 0.  0.
         11    1    3    3    0    0  0.20545349743E+02 -0.80126374477E+03  0.19709990503E+03  0.82540539897E+03  0.00000000000E+00 0. -1.
        -11    1    3    3    0    0 -0.60003951836E+01 -0.79375725364E+03  0.10677729921E+03  0.80092944388E+03  0.00000000000E+00 0.  1.
         22    1    1    2    0    0 -0.14544954559E+02  0.15950209984E+04  0.54008077305E+03  0.16840400181E+04  0.00000000000E+00 0. -1.
<mgrwt>
<rscale>  0 0.32009868E+04</rscale>
<asrwt>0</asrwt>
<pdfrwt beam="1">  1        2 0.31956406E+00 0.32009868E+04</pdfrwt>
<pdfrwt beam="2">  1       -2 0.18972438E+00 0.32009868E+04</pdfrwt>
<totfact> 0.79314260E-01</totfact>
</mgrwt>
</event>
<event>
 6    1  0.1528034E-005  0.2435016E+04  0.7818608E-02  0.8426509E-01
         -1   -1    0    0    0  501 -0.00000000000E+00  0.00000000000E+00  0.15445970715E+04  0.15445970715E+04  0.00000000000E+00 0.  1.
          1   -1    0    0  501    0  0.00000000000E+00 -0.00000000000E+00 -0.95968425964E+03  0.95968425964E+03  0.00000000000E+00 0. -1.
         23    2    1    2    0    0  0.68028984063E+03  0.97740430932E+03  0.54489312735E+03  0.13127633807E+04  0.91245396247E+02 0.  0.
         13    1    3    3    0    0  0.69598671779E+02  0.76898996690E+02  0.24023949127E+02  0.10646398892E+03  0.00000000000E+00 0.  1.
        -13    1    3    3    0    0  0.61069116886E+03  0.90050531263E+03  0.52086917822E+03  0.12062993918E+04  0.00000000000E+00 0. -1.
         22    1    1    2    0    0 -0.68028984063E+03 -0.97740430932E+03  0.40019684548E+02  0.11915179505E+04  0.00000000000E+00 0. -1.
<mgrwt>
<rscale>  0 0.24350158E+04</rscale>
<asrwt>0</asrwt>
<pdfrwt beam="1">  1        1 0.14764373E+00 0.24350158E+04</pdfrwt>
<pdfrwt beam="2">  1       -1 0.23763032E+00 0.24350158E+04</pdfrwt>
<totfact> 0.12224124E+00</totfact>
</mgrwt>
</event>
<event>
 6    1  0.1528034E-005  0.2364338E+04  0.7818608E-02  0.8452977E-01
         -1   -1    0    0    0  501 -0.00000000000E+00  0.00000000000E+00  0.11233478345E+04  0.11233478345E+04  0.00000000000E+00 0.  1.
          1   -1    0    0  501    0  0.00000000000E+00 -0.00000000000E+00 -0.12440701033E+04  0.12440701033E+04  0.00000000000E+00 0. -1.
         23    2    1    2    0    0  0.27560921455E+02  0.10493536482E+04 -0.60093534345E+03  0.12130751462E+04  0.92332767425E+02 0.  0.
         11    1    3    3    0    0  0.34159920450E+02  0.83665105985E+03 -0.43750320479E+03  0.94475443916E+03  0.00000000000E+00 0. -1.
        -11    1    3    3    0    0 -0.65989989946E+01  0.21270258835E+03 -0.16343213867E+03  0.26832070704E+03  0.00000000000E+00 0.  1.
         22    1    1    2    0    0 -0.27560921455E+02 -0.10493536482E+04  0.48021307474E+03  0.11543427916E+04  0.00000000000E+00 0.  1.
<mgrwt>
<rscale>  0 0.23643379E+04</rscale>
<asrwt>0</asrwt>
<pdfrwt beam="1">  1        1 0.19139540E+00 0.23643379E+04</pdfrwt>
<pdfrwt beam="2">  1       -1 0.17282274E+00 0.23643379E+04</pdfrwt>
<totfact> 0.20931049E+00</totfact>
</mgrwt>
</event>
<event>
 6    1  0.1528034E-005  0.2422790E+04  0.7818608E-02  0.8431020E-01
         -2   -1    0    0    0  501 -0.00000000000E+00  0.00000000000E+00  0.90483190922E+03  0.90483190922E+03  0.00000000000E+00 0. -1.
          2   -1    0    0  501    0  0.00000000000E+00 -0.00000000000E+00 -0.16218240793E+04  0.16218240793E+04  0.00000000000E+00 0.  1.
         23    2    1    2    0    0  0.53565067599E+03 -0.10845480310E+04 -0.34081645716E+03  0.12598986142E+04  0.89568868966E+02 0.  0.
         11    1    3    3    0    0  0.46171605314E+03 -0.87091291264E+03 -0.25589196368E+03  0.10184064573E+04  0.00000000000E+00 0.  1.
        -11    1    3    3    0    0  0.73934622850E+02 -0.21363511840E+03 -0.84924493484E+02  0.24149215694E+03  0.00000000000E+00 0. -1.
         22    1    1    2    0    0 -0.53565067599E+03  0.10845480310E+04 -0.37617571288E+03  0.12667573743E+04  0.00000000000E+00 0.  1.
<mgrwt>
<rscale>  0 0.24227903E+04</rscale>
<asrwt>0</asrwt>
<pdfrwt beam="1">  1        2 0.24951139E+00 0.24227903E+04</pdfrwt>
<pdfrwt beam="2">  1       -2 0.13920491E+00 0.24227903E+04</pdfrwt>
<totfact> 0.35480274E+00</totfact>
</mgrwt>
</event>
<event>
 6    1  0.1528034E-005  0.1494408E+04  0.7818608E-02  0.8888180E-01
          2   -1    0    0  501    0  0.00000000000E+00  0.00000000000E+00  0.12198238909E+04  0.12198238909E+04  0.00000000000E+00 0. -1.
         -2   -1    0    0    0  501 -0.00000000000E+00 -0.00000000000E+00 -0.45770040409E+03  0.45770040409E+03  0.00000000000E+00 0.  1.
         23    2    1    2    0    0 -0.19966638216E+03  0.65679444930E+03  0.70706762062E+03  0.98884674980E+03  0.81410451819E+02 0.  0.
         13    1    3    3    0    0 -0.99643705852E+02  0.21336722061E+03  0.26962949098E+03  0.35798673349E+03  0.00000000000E+00 0. -1.
        -13    1    3    3    0    0 -0.10002267631E+03  0.44342722869E+03  0.43743812964E+03  0.63086001631E+03  0.00000000000E+00 0.  1.
         22    1    1    2    0    0  0.19966638216E+03 -0.65679444930E+03  0.55055866151E+02  0.68867754515E+03  0.00000000000E+00 0.  1.
<mgrwt>
<rscale>  0 0.14944081E+04</rscale>
<asrwt>0</asrwt>
<pdfrwt beam="1">  1        2 0.18766521E+00 0.14944081E+04</pdfrwt>
<pdfrwt beam="2">  1       -2 0.70415447E-01 0.14944081E+04</pdfrwt>
<totfact> 0.32695017E+01</totfact>
</mgrwt>
</event>
<event>
 6    1  0.2056399E-005  0.3608410E+04  0.7818608E-02  0.8088568E-01
         -2   -1    0    0    0  501 -0.00000000000E+00  0.00000000000E+00  0.17679959403E+04  0.17679959403E+04  0.00000000000E+00 0.  1.
          2   -1    0    0  501    0  0.00000000000E+00 -0.00000000000E+00 -0.18411551236E+04  0.18411551236E+04  0.00000000000E+00 0. -1.
         23    2    1    2    0    0 -0.47658475884E+03 -0.13040745636E+04  0.11141595193E+04  0.17822769026E+04  0.86116336145E+02 0.  0.
         11    1    3    3    0    0 -0.33983460043E+03 -0.82739802283E+03  0.74419720460E+03  0.11635740299E+04  0.00000000000E+00 0. -1.
        -11    1    3    3    0    0 -0.13675015841E+03 -0.47667654078E+03  0.36996231469E+03  0.61870287267E+03  0.00000000000E+00 0.  1.
         22    1    1    2    0    0  0.47658475884E+03  0.13040745636E+04 -0.11873187026E+04  0.18268741613E+04  0.00000000000E+00 0. -1.
<mgrwt>
<rscale>  0 0.36084095E+04</rscale>
<asrwt>0</asrwt>
<pdfrwt beam="1">  1        2 0.28325463E+00 0.36084095E+04</pdfrwt>
<pdfrwt beam="2">  1       -2 0.27199938E+00 0.36084095E+04</pdfrwt>
<totfact> 0.31421624E-01</totfact>
</mgrwt>
</event>
<event>
 6    1  0.1528034E-005  0.1871129E+04  0.7818608E-02  0.8669362E-01
          1   -1    0    0  501    0  0.00000000000E+00  0.00000000000E+00  0.41447490532E+03  0.41447490532E+03  0.00000000000E+00 0. -1.
         -1   -1    0    0    0  501 -0.00000000000E+00 -0.00000000000E+00 -0.21117821560E+04  0.21117821560E+04  0.00000000000E+00 0.  1.
         23    2    1    2    0    0 -0.18633822210E+03 -0.63203212202E+03  0.42142382237E+02  0.66618406229E+03  0.88536366444E+02 0.  0.
         11    1    3    3    0    0 -0.85717747078E+02 -0.20319473684E+03 -0.19555836727E+02  0.22140023486E+03  0.00000000000E+00 0.  1.
        -11    1    3    3    0    0 -0.10062047503E+03 -0.42883738518E+03  0.61698218964E+02  0.44478382743E+03  0.00000000000E+00 0. -1.
         22    1    1    2    0    0  0.18633822210E+03  0.63203212202E+03 -0.17394496329E+04  0.18600729990E+04  0.00000000000E+00 0.  1.
<mgrwt>
<rscale>  0 0.18711288E+04</rscale>
<asrwt>0</asrwt>
<pdfrwt beam="1">  1        1 0.63765370E-01 0.18711288E+04</pdfrwt>
<pdfrwt beam="2">  1       -1 0.32488956E+00 0.18711288E+04</pdfrwt>
<totfact> 0.12219901E+00</totfact>
</mgrwt>
</event>
<event>
 6    1  0.1528034E-005  0.2111510E+04  0.7818608E-02  0.8556190E-01
          2   -1    0    0  501    0  0.00000000000E+00  0.00000000000E+00  0.37013645420E+04  0.37013645420E+04  0.00000000000E+00 0. -1.
         -2   -1    0    0    0  501 -0.00000000000E+00 -0.00000000000E+00 -0.30113723519E+03  0.30113723519E+03  0.00000000000E+00 0.  1.
         23    2    1    2    0    0  0.64434999235E+03 -0.65208625578E+03  0.71829114464E+03  0.11682143931E+04  0.91538528496E+02 0.  0.
         13    1    3    3    0    0  0.55903607199E+03 -0.59375845406E+03  0.66292532295E+03  0.10509711772E+04  0.00000000000E+00 0. -1.
        -13    1    3    3    0    0  0.85313920361E+02 -0.58327801715E+02  0.55365821689E+02  0.11724321589E+03  0.00000000000E+00 0.  1.
         22    1    1    2    0    0 -0.64434999235E+03  0.65208625578E+03  0.26819361621E+04  0.28342873841E+04  0.00000000000E+00 0. -1.
<mgrwt>
<rscale>  0 0.21115101E+04</rscale>
<asrwt>0</asrwt>
<pdfrwt beam="1">  1        2 0.56944067E+00 0.21115101E+04</pdfrwt>
<pdfrwt beam="2">  1       -2 0.46328808E-01 0.21115101E+04</pdfrwt>
<totfact> 0.23824271E+00</totfact>
</mgrwt>
</event>
<event>
 6    1  0.1528034E-005  0.6133711E+04  0.7818608E-02  0.7674041E-01
          2   -1    0    0  501    0  0.00000000000E+00  0.00000000000E+00  0.35556029643E+04  0.35556029643E+04  0.00000000000E+00 0. -1.
         -2   -1    0    0    0  501 -0.00000000000E+00 -0.00000000000E+00 -0.26452906001E+04  0.26452906001E+04  0.00000000000E+00 0.  1.
         23    2    1    2    0    0  0.21270079826E+04 -0.18205274774E+04 -0.80875591556E+03  0.29155200689E+04  0.87680597641E+02 0.  0.
         13    1    3    3    0    0  0.15560317913E+04 -0.13391134797E+04 -0.55288390741E+03  0.21260621962E+04  0.00000000000E+00 0. -1.
        -13    1    3    3    0    0  0.57097619130E+03 -0.48141399775E+03 -0.25587200815E+03  0.78945787273E+03  0.00000000000E+00 0.  1.
         22    1    1    2    0    0 -0.21270079826E+04  0.18205274774E+04  0.17190682798E+04  0.32853734955E+04  0.00000000000E+00 0. -1.
<mgrwt>
<rscale>  0 0.61337111E+04</rscale>
<asrwt>0</asrwt>
<pdfrwt beam="1">  1        2 0.54701584E+00 0.61337111E+04</pdfrwt>
<pdfrwt beam="2">  1       -2 0.40696778E+00 0.61337111E+04</pdfrwt>
<totfact> 0.33036858E-03</totfact>
</mgrwt>
</event>
<event>
 6    1  0.1528034E-005  0.3167137E+04  0.7818608E-02  0.8197551E-01
          2   -1    0    0  501    0  0.00000000000E+00  0.00000000000E+00  0.27162367886E+04  0.27162367886E+04  0.00000000000E+00 0. -1.
         -2   -1    0    0    0  501 -0.00000000000E+00 -0.00000000000E+00 -0.92322178059E+03  0.92322178059E+03  0.00000000000E+00 0.  1.
         23    2    1    2    0    0 -0.36134486703E+03 -0.15024772132E+04  0.12878841215E+04  0.20136771873E+04  0.90787747373E+02 0.  0.
         11    1    3    3    0    0 -0.27683032592E+03 -0.10918413228E+04  0.88831956511E+03  0.14345257591E+04  0.00000000000E+00 0.  1.
        -11    1    3    3    0    0 -0.84514541108E+02 -0.41063589037E+03  0.39956455638E+03  0.57915142824E+03  0.00000000000E+00 0. -1.
         22    1    1    2    0    0  0.36134486703E+03  0.15024772132E+04  0.50513088650E+03  0.16257813819E+04  0.00000000000E+00 0.  1.
<mgrwt>
<rscale>  0 0.31671369E+04</rscale>
<asrwt>0</asrwt>
<pdfrwt beam="1">  1        2 0.41788258E+00 0.31671369E+04</pdfrwt>
<pdfrwt beam="2">  1       -2 0.14203412E+00 0.31671369E+04</pdfrwt>
<totfact> 0.75816321E-01</totfact>
</mgrwt>
</event>
<event>
 6    1  0.1528034E-005  0.2344372E+04  0.7818608E-02  0.8460629E-01
          2   -1    0    0  501    0  0.00000000000E+00  0.00000000000E+00  0.20506635530E+04  0.20506635530E+04  0.00000000000E+00 0. -1.
         -2   -1    0    0    0  501 -0.00000000000E+00 -0.00000000000E+00 -0.67003661429E+03  0.67003661429E+03  0.00000000000E+00 0.  1.
         23    2    1    2    0    0  0.66519907400E+03  0.85781380174E+03  0.18460689724E+03  0.11055226953E+04  0.98825081673E+02 0.  0.
         13    1    3    3    0    0  0.62610386023E+03  0.79916427275E+03  0.14753626807E+03  0.10258832921E+04  0.00000000000E+00 0.  1.
        -13    1    3    3    0    0  0.39095213762E+02  0.58649528984E+02  0.37070629165E+02  0.79639403161E+02  0.00000000000E+00 0. -1.
         22    1    1    2    0    0 -0.66519907400E+03 -0.85781380174E+03  0.11960200415E+04  0.16151774720E+04  0.00000000000E+00 0.  1.
<mgrwt>
<rscale>  0 0.23443717E+04</rscale>
<asrwt>0</asrwt>
<pdfrwt beam="1">  1        2 0.31548670E+00 0.23443717E+04</pdfrwt>
<pdfrwt beam="2">  1       -2 0.10308256E+00 0.23443717E+04</pdfrwt>
<totfact> 0.43448485E+00</totfact>
</mgrwt>
</event>
<event>
 6    1  0.1528034E-005  0.1502149E+04  0.7818608E-02  0.8883025E-01
         -2   -1    0    0    0  501 -0.00000000000E+00  0.00000000000E+00  0.32966355923E+03  0.32966355923E+03  0.00000000000E+00 0.  1.
          2   -1    0    0  501    0  0.00000000000E+00 -0.00000000000E+00 -0.17111778474E+04  0.17111778474E+04  0.00000000000E+00 0. -1.
         23    2    1    2    0    0  0.13437067298E+03 -0.47077979283E+03 -0.14623161330E+04  0.15446377900E+04  0.88590847609E+02 0.  0.
         11    1    3    3    0    0  0.11356166537E+03 -0.31540815050E+03 -0.88319504307E+03  0.94467562546E+03  0.00000000000E+00 0.  1.
        -11    1    3    3    0    0  0.20809007619E+02 -0.15537164232E+03 -0.57912108991E+03  0.59996216449E+03  0.00000000000E+00 0. -1.
         22    1    1    2    0    0 -0.13437067298E+03  0.47077979283E+03  0.80801844792E+02  0.49620361669E+03  0.00000000000E+00 0.  1.
<mgrwt>
<rscale>  0 0.15021491E+04</rscale>
<asrwt>0</asrwt>
<pdfrwt beam="1">  1        2 0.26325813E+00 0.15021491E+04</pdfrwt>
<pdfrwt beam="2">  1       -2 0.50717471E-01 0.15021491E+04</pdfrwt>
<totfact> 0.34322092E+01</totfact>
</mgrwt>
</event>
<event>
 6    1  0.1528034E-005  0.2816899E+04  0.7818608E-02  0.8298041E-01
          1   -1    0    0  501    0  0.00000000000E+00  0.00000000000E+00  0.21660071756E+04  0.21660071756E+04  0.00000000000E+00 0. -1.
         -1   -1    0    0    0  501 -0.00000000000E+00 -0.00000000000E+00 -0.91584632507E+03  0.91584632507E+03  0.00000000000E+00 0.  1.
         23    2    1    2    0    0 -0.11871178466E+04 -0.66222514245E+03  0.10230096667E+04  0.17036704282E+04  0.90295232399E+02 0.  0.
         11    1    3    3    0    0 -0.90462656189E+03 -0.50739892433E+03  0.73143784639E+03  0.12691746168E+04  0.00000000000E+00 0.  1.
        -11    1    3    3    0    0 -0.28249128466E+03 -0.15482621812E+03  0.29157182030E+03  0.43449581140E+03  0.00000000000E+00 0. -1.
         22    1    1    2    0    0  0.11871178466E+04  0.66222514245E+03  0.22715118385E+03  0.13781830725E+04  0.00000000000E+00 0.  1.
<mgrwt>
<rscale>  0 0.28168988E+04</rscale>
<asrwt>0</asrwt>
<pdfrwt beam="1">  1        1 0.33323187E+00 0.28168988E+04</pdfrwt>
<pdfrwt beam="2">  1       -1 0.14089944E+00 0.28168988E+04</pdfrwt>
<totfact> 0.81864504E-01</totfact>
</mgrwt>
</event>
<event>
 6    1  0.1528034E-005  0.8006589E+03  0.7818608E-02  0.9559064E-01
          2   -1    0    0  501    0  0.00000000000E+00  0.00000000000E+00  0.14928035481E+03  0.14928035481E+03  0.00000000000E+00 0. -1.
         -2   -1    0    0    0  501 -0.00000000000E+00 -0.00000000000E+00 -0.10735750066E+04  0.10735750066E+04  0.00000000000E+00 0.  1.
         23    2    1    2    0    0 -0.29782319341E+03 -0.18562637237E+03 -0.18966996256E+03  0.40871210701E+03  0.88966775090E+02 0.  0.
         13    1    3    3    0    0 -0.16429265783E+03 -0.12571411175E+03 -0.66124973683E+02  0.21718339590E+03  0.00000000000E+00 0.  1.
        -13    1    3    3    0    0 -0.13353053558E+03 -0.59912260623E+02 -0.12354498887E+03  0.19152871111E+03  0.00000000000E+00 0. -1.
         22    1    1    2    0    0  0.29782319341E+03  0.18562637237E+03 -0.73462468925E+03  0.81414325442E+03  0.00000000000E+00 0. -1.
<mgrwt>
<rscale>  0 0.80065887E+03</rscale>
<asrwt>0</asrwt>
<pdfrwt beam="1">  1        2 0.22966209E-01 0.80065887E+03</pdfrwt>
<pdfrwt beam="2">  1       -2 0.16516538E+00 0.80065887E+03</pdfrwt>
<totfact> 0.56346147E+01</totfact>
</mgrwt>
</event>
<event>
 6    1  0.1528034E-005  0.3837758E+04  0.7818608E-02  0.8038100E-01
          2   -1    0    0  501    0  0.00000000000E+00  0.00000000000E+00  0.27971861909E+04  0.27971861909E+04  0.00000000000E+00 0.  1.
         -2   -1    0    0    0  501 -0.00000000000E+00 -0.00000000000E+00 -0.13163576202E+04  0.13163576202E+04  0.00000000000E+00 0. -1.
         23    2    1    2    0    0  0.35195813453E+02  0.52742146410E+03  0.27168179633E+04  0.27692663379E+04  0.91236279088E+02 0.  0.
         11    1    3    3    0    0  0.48080349017E+02  0.29278923616E+03  0.16952955495E+04  0.17210648613E+04  0.00000000000E+00 0.  1.
        -11    1    3    3    0    0 -0.12884535564E+02  0.23463222794E+03  0.10215224138E+04  0.10482014766E+04  0.00000000000E+00 0. -1.
         22    1    1    2    0    0 -0.35195813453E+02 -0.52742146410E+03 -0.12359893927E+04  0.13442774732E+04  0.00000000000E+00 0. -1.
<mgrwt>
<rscale>  0 0.38377584E+04</rscale>
<asrwt>0</asrwt>
<pdfrwt beam="1">  1        2 0.43033633E+00 0.38377584E+04</pdfrwt>
<pdfrwt beam="2">  1       -2 0.20251656E+00 0.38377584E+04</pdfrwt>
<totfact> 0.23753081E-01</totfact>
</mgrwt>
</event>
<event>
 6    1  0.1528034E-005  0.4382856E+04  0.7818608E-02  0.7931472E-01
          2   -1    0    0  501    0  0.00000000000E+00  0.00000000000E+00  0.16241877900E+04  0.16241877900E+04  0.00000000000E+00 0. -1.
         -2   -1    0    0    0  501 -0.00000000000E+00 -0.00000000000E+00 -0.29567749417E+04  0.29567749417E+04  0.00000000000E+00 0.  1.
         23    2    1    2    0    0  0.60891876911E+03  0.20248448072E+04 -0.68451538208E+02  0.21174657437E+04  0.90537295724E+02 0.  0.
         11    1    3    3    0    0  0.20537964819E+03  0.71093384430E+03  0.18475918136E+02  0.74023583432E+03  0.00000000000E+00 0. -1.
        -11    1    3    3    0    0  0.40353912092E+03  0.13139109629E+04 -0.86927456344E+02  0.13772299094E+04  0.00000000000E+00 0.  1.
         22    1    1    2    0    0 -0.60891876911E+03 -0.20248448072E+04 -0.12641356134E+04  0.24634969880E+04  0.00000000000E+00 0.  1.
<mgrwt>
<rscale>  0 0.43828565E+04</rscale>
<asrwt>0</asrwt>
<pdfrwt beam="1">  1        2 0.24987505E+00 0.43828565E+04</pdfrwt>
<pdfrwt beam="2">  1       -2 0.45488844E+00 0.43828565E+04</pdfrwt>
<totfact> 0.26673025E-02</totfact>
</mgrwt>
</event>
<event>
 6    1  0.1528034E-005  0.3683772E+04  0.7818608E-02  0.8071568E-01
          1   -1    0    0  501    0  0.00000000000E+00  0.00000000000E+00  0.43231480590E+04  0.43231480590E+04  0.00000000000E+00 0. -1.
         -1   -1    0    0    0  501 -0.00000000000E+00 -0.00000000000E+00 -0.78473928567E+03  0.78473928567E+03  0.00000000000E+00 0.  1.
         23    2    1    2    0    0 -0.11513739255E+04 -0.14208142620E+04  0.20614435072E+04  0.27571850069E+04  0.90248244447E+02 0.  0.
         11    1    3    3    0    0 -0.63526434562E+03 -0.78863566846E+03  0.10738357448E+04  0.14760183648E+04  0.00000000000E+00 0. -1.
        -11    1    3    3    0    0 -0.51610957990E+03 -0.63217859350E+03  0.98760776240E+03  0.12811666421E+04  0.00000000000E+00 0.  1.
         22    1    1    2    0    0  0.11513739255E+04  0.14208142620E+04  0.14769652662E+04  0.23507023378E+04  0.00000000000E+00 0. -1.
<mgrwt>
<rscale>  0 0.36837720E+04</rscale>
<asrwt>0</asrwt>
<pdfrwt beam="1">  1        1 0.66509969E+00 0.36837720E+04</pdfrwt>
<pdfrwt beam="2">  1       -1 0.12072912E+00 0.36837720E+04</pdfrwt>
<totfact> 0.23590177E-02</totfact>
</mgrwt>
</event>
<event>
 6    1  0.1528034E-005  0.7107902E+03  0.7818608E-02  0.9698955E-01
          2   -1    0    0  501    0  0.00000000000E+00  0.00000000000E+00  0.13387347325E+04  0.13387347325E+04  0.00000000000E+00 0. -1.
         -2   -1    0    0    0  501 -0.00000000000E+00 -0.00000000000E+00 -0.94347057609E+02  0.94347057609E+02  0.00000000000E+00 0.  1.
         23    2    1    2    0    0 -0.32282561048E+03 -0.13268960178E+03  0.59778285110E+03  0.69828882379E+03  0.91869685770E+02 0.  0.
         11    1    3    3    0    0 -0.84471387301E+01  0.11865169206E+02  0.18706987199E+02  0.23708390141E+02  0.00000000000E+00 0.  1.
        -11    1    3    3    0    0 -0.31437847175E+03 -0.14455477098E+03  0.57907586390E+03  0.67458043365E+03  0.00000000000E+00 0. -1.
         22    1    1    2    0    0  0.32282561048E+03  0.13268960178E+03  0.64660482383E+03  0.73479296635E+03  0.00000000000E+00 0. -1.
<mgrwt>
<rscale>  0 0.71079022E+03</rscale>
<asrwt>0</asrwt>
<pdfrwt beam="1">  1        2 0.20595918E+00 0.71079022E+03</pdfrwt>
<pdfrwt beam="2">  1       -2 0.14514933E-01 0.71079022E+03</pdfrwt>
<totfact> 0.58791865E+02</totfact>
</mgrwt>
</event>
<event>
 6    1  0.1528034E-005  0.2901958E+04  0.7818608E-02  0.8272295E-01
          1   -1    0    0  501    0  0.00000000000E+00  0.00000000000E+00  0.21128753810E+04  0.21128753810E+04  0.00000000000E+00 0. -1.
         -1   -1    0    0    0  501 -0.00000000000E+00 -0.00000000000E+00 -0.99643329452E+03  0.99643329452E+03  0.00000000000E+00 0.  1.
         23    2    1    2    0    0  0.48454680554E+03 -0.11109279485E+04 -0.29298322762E+03  0.12504309954E+04  0.93765606788E+02 0.  0.
         11    1    3    3    0    0  0.19873780405E+03 -0.34929351900E+03 -0.84875093881E+02  0.41073891797E+03  0.00000000000E+00 0.  1.
        -11    1    3    3    0    0  0.28580900150E+03 -0.76163442953E+03 -0.20810813374E+03  0.83969207744E+03  0.00000000000E+00 0. -1.
         22    1    1    2    0    0 -0.48454680554E+03  0.11109279485E+04  0.14094253141E+04  0.18588776801E+04  0.00000000000E+00 0. -1.
<mgrwt>
<rscale>  0 0.29019575E+04</rscale>
<asrwt>0</asrwt>
<pdfrwt beam="1">  1        1 0.32505775E+00 0.29019575E+04</pdfrwt>
<pdfrwt beam="2">  1       -1 0.15329743E+00 0.29019575E+04</pdfrwt>
<totfact> 0.70491739E-01</totfact>
</mgrwt>
</event>
<event>
 6    1  0.1528034E-005  0.2043429E+04  0.7818608E-02  0.8586581E-01
          1   -1    0    0  501    0  0.00000000000E+00  0.00000000000E+00  0.14996360337E+04  0.14996360337E+04  0.00000000000E+00 0. -1.
         -1   -1    0    0    0  501 -0.00000000000E+00 -0.00000000000E+00 -0.69610262419E+03  0.69610262419E+03  0.00000000000E+00 0.  1.
         23    2    1    2    0    0 -0.65515571257E+03 -0.34962572528E+03 -0.34815141792E+03  0.82539377531E+03  0.92727121282E+02 0.  0.
         11    1    3    3    0    0 -0.53196199951E+03 -0.24164323641E+03 -0.26245999482E+03  0.64051562940E+03  0.00000000000E+00 0.  1.
        -11    1    3    3    0    0 -0.12319371306E+03 -0.10798248887E+03 -0.85691423103E+02  0.18487814590E+03  0.00000000000E+00 0. -1.
         22    1    1    2    0    0  0.65515571257E+03  0.34962572528E+03  0.11516848275E+04  0.13703448826E+04  0.00000000000E+00 0. -1.
<mgrwt>
<rscale>  0 0.20434291E+04</rscale>
<asrwt>0</asrwt>
<pdfrwt beam="1">  1        1 0.23071324E+00 0.20434291E+04</pdfrwt>
<pdfrwt beam="2">  1       -1 0.10709271E+00 0.20434291E+04</pdfrwt>
<totfact> 0.49174960E+00</totfact>
</mgrwt>
</event>
<event>
 6    1  0.1528034E-005  0.3212100E+04  0.7818608E-02  0.8185629E-01
         -2   -1    0    0    0  501 -0.00000000000E+00  0.00000000000E+00  0.17566192999E+04  0.17566192999E+04  0.00000000000E+00 0. -1.
          2   -1    0    0  501    0  0.00000000000E+00 -0.00000000000E+00 -0.14683867281E+04  0.14683867281E+04  0.00000000000E+00 0.  1.
         23    2    1    2    0    0 -0.14815990419E+04 -0.15495732501E+03 -0.45498912344E+03  0.15602159566E+04  0.90062397663E+02 0.  0.
         11    1    3    3    0    0 -0.72237651983E+03 -0.11597178437E+03 -0.24433061581E+03  0.77134605787E+03  0.00000000000E+00 0.  1.
        -11    1    3    3    0    0 -0.75922252204E+03 -0.38985540639E+02 -0.21065850762E+03  0.78886989877E+03  0.00000000000E+00 0. -1.
         22    1    1    2    0    0  0.14815990419E+04  0.15495732501E+03  0.74322169518E+03  0.16647900713E+04  0.00000000000E+00 0. -1.
<mgrwt>
<rscale>  0 0.32120999E+04</rscale>
<asrwt>0</asrwt>
<pdfrwt beam="1">  1        2 0.22590565E+00 0.32120999E+04</pdfrwt>
<pdfrwt beam="2">  1       -2 0.27024912E+00 0.32120999E+04</pdfrwt>
<totfact> 0.53743180E-01</totfact>
</mgrwt>
</event>
<event>
 6    1  0.1528034E-005  0.4752761E+04  0.7818608E-02  0.7867821E-01
          2   -1    0    0  501    0  0.00000000000E+00  0.00000000000E+00  0.26784778702E+04  0.26784778702E+04  0.00000000000E+00 0. -1.
         -2   -1    0    0    0  501 -0.00000000000E+00 -0.00000000000E+00 -0.21083558810E+04  0.21083558810E+04  0.00000000000E+00 0.  1.
         23    2    1    2    0    0 -0.16248716681E+04 -0.78132984233E+03 -0.12726875005E+04  0.22087276487E+04  0.89778013180E+02 0.  0.
         11    1    3    3    0    0 -0.45400293756E+03 -0.24706202227E+03 -0.40330171984E+03  0.65559941075E+03  0.00000000000E+00 0.  1.
        -11    1    3    3    0    0 -0.11708687305E+04 -0.53426782006E+03 -0.86938578070E+03  0.15531282379E+04  0.00000000000E+00 0. -1.
         22    1    1    2    0    0  0.16248716681E+04  0.78132984233E+03  0.18428094898E+04  0.25781061025E+04  0.00000000000E+00 0. -1.
<mgrwt>
<rscale>  0 0.47527611E+04</rscale>
<asrwt>0</asrwt>
<pdfrwt beam="1">  1        2 0.41207352E+00 0.47527611E+04</pdfrwt>
<pdfrwt beam="2">  1       -2 0.32436244E+00 0.47527611E+04</pdfrwt>
<totfact> 0.45686335E-02</totfact>
</mgrwt>
</event>
<event>
 6    1  0.1528034E-005  0.3578016E+04  0.7818608E-02  0.8095546E-01
         -2   -1    0    0    0  501 -0.00000000000E+00  0.00000000000E+00  0.12233855427E+04  0.12233855427E+04  0.00000000000E+00 0. -1.
          2   -1    0    0  501    0  0.00000000000E+00 -0.00000000000E+00 -0.26161412516E+04  0.26161412516E+04  0.00000000000E+00 0.  1.
         23    2    1    2    0    0 -0.34390814912E+03  0.14321091437E+04 -0.17844389233E+04  0.23155106674E+04  0.90321454518E+02 0.  0.
         13    1    3    3    0    0 -0.27520805374E+03  0.12015338927E+04 -0.15394578373E+04  0.19721444168E+04  0.00000000000E+00 0. -1.
        -13    1    3    3    0    0 -0.68700095386E+02  0.23057525101E+03 -0.24498108605E+03  0.34336625054E+03  0.00000000000E+00 0.  1.
         22    1    1    2    0    0  0.34390814912E+03 -0.14321091437E+04  0.39168321442E+03  0.15240161269E+04  0.00000000000E+00 0. -1.
<mgrwt>
<rscale>  0 0.35780159E+04</rscale>
<asrwt>0</asrwt>
<pdfrwt beam="1">  1        2 0.40248327E+00 0.35780159E+04</pdfrwt>
<pdfrwt beam="2">  1       -2 0.18821316E+00 0.35780159E+04</pdfrwt>
<totfact> 0.38732310E-01</totfact>
</mgrwt>
</event>
<event>
 6    1  0.1528034E-005  0.7906588E+03  0.7818608E-02  0.9573637E-01
          1   -1    0    0  501    0  0.00000000000E+00  0.00000000000E+00  0.85403654984E+03  0.85403654984E+03  0.00000000000E+00 0. -1.
         -1   -1    0    0    0  501 -0.00000000000E+00 -0.00000000000E+00 -0.18299606239E+03  0.18299606239E+03  0.00000000000E+00 0.  1.
         23    2    1    2    0    0 -0.35461340863E+03 -0.26193542681E+02  0.55025246198E+03  0.66149763603E+03  0.91458074017E+02 0.  0.
         13    1    3    3    0    0 -0.14217883159E+03  0.18141221430E+02  0.28305542032E+03  0.31727637013E+03  0.00000000000E+00 0. -1.
        -13    1    3    3    0    0 -0.21243457704E+03 -0.44334764110E+02  0.26719704166E+03  0.34422126590E+03  0.00000000000E+00 0.  1.
         22    1    1    2    0    0  0.35461340863E+03  0.26193542681E+02  0.12078802547E+03  0.37553497620E+03  0.00000000000E+00 0.  1.
<mgrwt>
<rscale>  0 0.79065878E+03</rscale>
<asrwt>0</asrwt>
<pdfrwt beam="1">  1        1 0.13139024E+00 0.79065878E+03</pdfrwt>
<pdfrwt beam="2">  1       -1 0.28153241E-01 0.79065878E+03</pdfrwt>
<totfact> 0.22885030E+02</totfact>
</mgrwt>
</event>
<event>
 6    1  0.1528034E-005  0.1321890E+04  0.7818608E-02  0.9012384E-01
          1   -1    0    0  501    0  0.00000000000E+00  0.00000000000E+00  0.19669554682E+04  0.19669554682E+04  0.00000000000E+00 0. -1.
         -1   -1    0    0    0  501 -0.00000000000E+00 -0.00000000000E+00 -0.22209369233E+03  0.22209369233E+03  0.00000000000E+00 0.  1.
         23    2    1    2    0    0 -0.16478288753E+03 -0.56961204039E+03  0.13496530557E+04  0.14764474422E+04  0.81990255481E+02 0.  0.
         11    1    3    3    0    0 -0.11160794893E+03 -0.26307135119E+03  0.59039205035E+03  0.65591588119E+03  0.00000000000E+00 0. -1.
        -11    1    3    3    0    0 -0.53174938599E+02 -0.30654068920E+03  0.75926100540E+03  0.82053156097E+03  0.00000000000E+00 0.  1.
         22    1    1    2    0    0  0.16478288753E+03  0.56961204039E+03  0.39520872017E+03  0.71260171841E+03  0.00000000000E+00 0.  1.
<mgrwt>
<rscale>  0 0.13218902E+04</rscale>
<asrwt>0</asrwt>
<pdfrwt beam="1">  1        1 0.30260852E+00 0.13218902E+04</pdfrwt>
<pdfrwt beam="2">  1       -1 0.34168262E-01 0.13218902E+04</pdfrwt>
<totfact> 0.24963568E+01</totfact>
</mgrwt>
</event>
<event>
 6    1  0.1528034E-005  0.2413326E+04  0.7818608E-02  0.8434531E-01
          2   -1    0    0  501    0  0.00000000000E+00  0.00000000000E+00  0.26358938900E+04  0.26358938900E+04  0.00000000000E+00 0. -1.
         -2   -1    0    0    0  501 -0.00000000000E+00 -0.00000000000E+00 -0.55238760132E+03  0.55238760132E+03  0.00000000000E+00 0.  1.
         23    2    1    2    0    0 -0.67691530787E+03  0.78989765436E+03  0.23996772721E+03  0.10714945238E+04  0.91451440476E+02 0.  0.
         13    1    3    3    0    0 -0.48357296178E+03  0.60474425745E+03  0.14721575084E+03  0.78818202440E+03  0.00000000000E+00 0. -1.
        -13    1    3    3    0    0 -0.19334234609E+03  0.18515339690E+03  0.92751976370E+02  0.28331249937E+03  0.00000000000E+00 0.  1.
         22    1    1    2    0    0  0.67691530787E+03 -0.78989765436E+03  0.18435385614E+04  0.21167869675E+04  0.00000000000E+00 0. -1.
<mgrwt>
<rscale>  0 0.24133256E+04</rscale>
<asrwt>0</asrwt>
<pdfrwt beam="1">  1        2 0.40552213E+00 0.24133256E+04</pdfrwt>
<pdfrwt beam="2">  1       -2 0.84982710E-01 0.24133256E+04</pdfrwt>
<totfact> 0.31384873E+00</totfact>
</mgrwt>
</event>
<event>
 6    1  0.1528034E-005  0.3822574E+04  0.7818608E-02  0.8041328E-01
         -1   -1    0    0    0  501 -0.00000000000E+00  0.00000000000E+00  0.20298119381E+04  0.20298119381E+04  0.00000000000E+00 0.  1.
          1   -1    0    0  501    0  0.00000000000E+00 -0.00000000000E+00 -0.17996828280E+04  0.17996828280E+04  0.00000000000E+00 0. -1.
         23    2    1    2    0    0 -0.46447538938E+03 -0.13566401982E+04 -0.11491211899E+04  0.18398864114E+04  0.92154668327E+02 0.  0.
         13    1    3    3    0    0 -0.28777724084E+03 -0.94501621462E+03 -0.82361066181E+03  0.12861593636E+04  0.00000000000E+00 0.  1.
        -13    1    3    3    0    0 -0.17669814854E+03 -0.41162398362E+03 -0.32551052813E+03  0.55372704785E+03  0.00000000000E+00 0. -1.
         22    1    1    2    0    0  0.46447538938E+03  0.13566401982E+04  0.13792503001E+04  0.19896083547E+04  0.00000000000E+00 0.  1.
<mgrwt>
<rscale>  0 0.38225738E+04</rscale>
<asrwt>0</asrwt>
<pdfrwt beam="1">  1        1 0.27687428E+00 0.38225738E+04</pdfrwt>
<pdfrwt beam="2">  1       -1 0.31227876E+00 0.38225738E+04</pdfrwt>
<totfact> 0.88950387E-02</totfact>
</mgrwt>
</event>
<event>
 6    1  0.1528034E-005  0.1481311E+04  0.7818608E-02  0.8896977E-01
          2   -1    0    0  501    0  0.00000000000E+00  0.00000000000E+00  0.14748115746E+04  0.14748115746E+04  0.00000000000E+00 0.  1.
         -2   -1    0    0    0  501 -0.00000000000E+00 -0.00000000000E+00 -0.37195969894E+03  0.37195969894E+03  0.00000000000E+00 0. -1.
         23    2    1    2    0    0  0.12106934219E+03 -0.21674927475E+03 -0.31426899115E+03  0.40806713965E+03  0.78203311556E+02 0.  0.
         13    1    3    3    0    0  0.85460897170E+02 -0.79780065667E+02 -0.16663198100E+03  0.20355500710E+03  0.00000000000E+00 0. -1.
        -13    1    3    3    0    0  0.35608445018E+02 -0.13696920908E+03 -0.14763701015E+03  0.20451213255E+03  0.00000000000E+00 0.  1.
         22    1    1    2    0    0 -0.12106934219E+03  0.21674927475E+03  0.14171208668E+04  0.14387041339E+04  0.00000000000E+00 0.  1.
<mgrwt>
<rscale>  0 0.14813109E+04</rscale>
<asrwt>0</asrwt>
<pdfrwt beam="1">  1        2 0.22689408E+00 0.14813109E+04</pdfrwt>
<pdfrwt beam="2">  1       -2 0.57224570E-01 0.14813109E+04</pdfrwt>
<totfact> 0.36314908E+01</totfact>
</mgrwt>
</event>
<event>
 6    1  0.1528034E-005  0.2312517E+04  0.7818608E-02  0.8473002E-01
          2   -1    0    0  501    0  0.00000000000E+00  0.00000000000E+00  0.19566243907E+04  0.19566243907E+04  0.00000000000E+00 0. -1.
         -2   -1    0    0    0  501 -0.00000000000E+00 -0.00000000000E+00 -0.68328574559E+03  0.68328574559E+03  0.00000000000E+00 0.  1.
         23    2    1    2    0    0 -0.40003027298E+03 -0.72502291878E+03 -0.28055221328E+03  0.87915482909E+03  0.92310438678E+02 0.  0.
         11    1    3    3    0    0 -0.21575650244E+03 -0.38352659711E+03 -0.19743393351E+03  0.48231076821E+03  0.00000000000E+00 0. -1.
        -11    1    3    3    0    0 -0.18427377054E+03 -0.34149632167E+03 -0.83118279767E+02  0.39684406088E+03  0.00000000000E+00 0.  1.
         22    1    1    2    0    0  0.40003027298E+03  0.72502291878E+03  0.15538908584E+04  0.17607553072E+04  0.00000000000E+00 0. -1.
<mgrwt>
<rscale>  0 0.23125169E+04</rscale>
<asrwt>0</asrwt>
<pdfrwt beam="1">  1        2 0.30101913E+00 0.23125169E+04</pdfrwt>
<pdfrwt beam="2">  1       -2 0.10512088E+00 0.23125169E+04</pdfrwt>
<totfact> 0.46890130E+00</totfact>
</mgrwt>
</event>
<event>
 6    1  0.1528034E-005  0.5717300E+03  0.7818608E-02  0.9965858E-01
          3   -1    0    0  501    0  0.00000000000E+00  0.00000000000E+00  0.48180239020E+03  0.48180239020E+03  0.00000000000E+00 0. -1.
         -3   -1    0    0    0  501 -0.00000000000E+00 -0.00000000000E+00 -0.16961064010E+03  0.16961064010E+03  0.00000000000E+00 0.  1.
         23    2    1    2    0    0  0.17207462526E+03 -0.10645024830E+03  0.37820053924E+03  0.43857860576E+03  0.91510729015E+02 0.  0.
         11    1    3    3    0    0  0.86738312161E+02 -0.29761925292E+02  0.90475255383E+02  0.12882188801E+03  0.00000000000E+00 0. -1.
        -11    1    3    3    0    0  0.85336313097E+02 -0.76688323008E+02  0.28772528386E+03  0.30975671775E+03  0.00000000000E+00 0.  1.
         22    1    1    2    0    0 -0.17207462526E+03  0.10645024830E+03 -0.66008789144E+02  0.21283442453E+03  0.00000000000E+00 0.  1.
<mgrwt>
<rscale>  0 0.57173005E+03</rscale>
<asrwt>0</asrwt>
<pdfrwt beam="1">  1        3 0.74123444E-01 0.57173005E+03</pdfrwt>
<pdfrwt beam="2">  1       -3 0.26093945E-01 0.57173005E+03</pdfrwt>
<totfact> 0.63725225E+01</totfact>
</mgrwt>
</event>
<event>
 6    1  0.1528034E-005  0.2733916E+04  0.7818608E-02  0.8324083E-01
          2   -1    0    0  501    0  0.00000000000E+00  0.00000000000E+00  0.10573958236E+04  0.10573958236E+04  0.00000000000E+00 0.  1.
         -2   -1    0    0    0  501 -0.00000000000E+00 -0.00000000000E+00 -0.17671477991E+04  0.17671477991E+04  0.00000000000E+00 0. -1.
         23    2    1    2    0    0 -0.73978457537E+03 -0.12371364866E+03 -0.15340733941E+04  0.17100517717E+04  0.91156998110E+02 0.  0.
         13    1    3    3    0    0 -0.59829904103E+03 -0.13367339036E+03 -0.12163853823E+04  0.13621393894E+04  0.00000000000E+00 0. -1.
        -13    1    3    3    0    0 -0.14148553434E+03  0.99597416947E+01 -0.31768801186E+03  0.34791238230E+03  0.00000000000E+00 0.  1.
         22    1    1    2    0    0  0.73978457537E+03  0.12371364866E+03  0.82432141868E+03  0.11144918511E+04  0.00000000000E+00 0.  1.
<mgrwt>
<rscale>  0 0.27339164E+04</rscale>
<asrwt>0</asrwt>
<pdfrwt beam="1">  1        2 0.16267628E+00 0.27339164E+04</pdfrwt>
<pdfrwt beam="2">  1       -2 0.27186889E+00 0.27339164E+04</pdfrwt>
<totfact> 0.95648707E-01</totfact>
</mgrwt>
</event>
<event>
 6    1  0.1528034E-005  0.4482572E+04  0.7818608E-02  0.7913695E-01
          2   -1    0    0  501    0  0.00000000000E+00  0.00000000000E+00  0.14441376308E+04  0.14441376308E+04  0.00000000000E+00 0. -1.
         -2   -1    0    0    0  501 -0.00000000000E+00 -0.00000000000E+00 -0.34784509098E+04  0.34784509098E+04  0.00000000000E+00 0.  1.
         23    2    1    2    0    0  0.65481942224E+03 -0.61112914809E+03 -0.32726811022E+04  0.33942488609E+04  0.90644478216E+02 0.  0.
         11    1    3    3    0    0  0.65350509897E+03 -0.59490598703E+03 -0.32016620096E+04  0.33213885156E+04  0.00000000000E+00 0. -1.
        -11    1    3    3    0    0  0.13143232707E+01 -0.16223161060E+02 -0.71019092601E+02  0.72860345280E+02  0.00000000000E+00 0.  1.
         22    1    1    2    0    0 -0.65481942224E+03  0.61112914809E+03  0.12383678232E+04  0.15283396798E+04  0.00000000000E+00 0. -1.
<mgrwt>
<rscale>  0 0.44825715E+04</rscale>
<asrwt>0</asrwt>
<pdfrwt beam="1">  1        2 0.22217502E+00 0.44825715E+04</pdfrwt>
<pdfrwt beam="2">  1       -2 0.53514629E+00 0.44825715E+04</pdfrwt>
<totfact> 0.10670124E-02</totfact>
</mgrwt>
</event>
<event>
 6    1  0.1528034E-005  0.3916857E+04  0.7818608E-02  0.8021532E-01
         -2   -1    0    0    0  501 -0.00000000000E+00  0.00000000000E+00  0.19658382835E+04  0.19658382835E+04  0.00000000000E+00 0.  1.
          2   -1    0    0  501    0  0.00000000000E+00 -0.00000000000E+00 -0.19510467168E+04  0.19510467168E+04  0.00000000000E+00 0. -1.
         23    2    1    2    0    0  0.49204197524E+03  0.15191887260E+04  0.11394317610E+04  0.19637195549E+04  0.88600572781E+02 0.  0.
         13    1    3    3    0    0  0.32580168521E+03  0.93324777273E+03  0.65959667591E+03  0.11883458748E+04  0.00000000000E+00 0. -1.
        -13    1    3    3    0    0  0.16624029003E+03  0.58594095326E+03  0.47983508512E+03  0.77537368001E+03  0.00000000000E+00 0.  1.
         22    1    1    2    0    0 -0.49204197524E+03 -0.15191887260E+04 -0.11246401944E+04  0.19531654455E+04  0.00000000000E+00 0. -1.
<mgrwt>
<rscale>  0 0.39168571E+04</rscale>
<asrwt>0</asrwt>
<pdfrwt beam="1">  1        2 0.30016103E+00 0.39168571E+04</pdfrwt>
<pdfrwt beam="2">  1       -2 0.30243666E+00 0.39168571E+04</pdfrwt>
<totfact> 0.17349415E-01</totfact>
</mgrwt>
</event>
<event>
 6    1  0.1528034E-005  0.2969106E+04  0.7818608E-02  0.8252608E-01
          2   -1    0    0  501    0  0.00000000000E+00  0.00000000000E+00  0.30933683590E+04  0.30933683590E+04  0.00000000000E+00 0. -1.
         -2   -1    0    0    0  501 -0.00000000000E+00 -0.00000000000E+00 -0.71245879356E+03  0.71245879356E+03  0.00000000000E+00 0.  1.
         23    2    1    2    0    0 -0.97976055766E+03 -0.69231029334E+03  0.23093532379E+04  0.26040182657E+04  0.92598368618E+02 0.  0.
         11    1    3    3    0    0 -0.60769978328E+03 -0.37491762599E+03  0.13502814657E+04  0.15274561497E+04  0.00000000000E+00 0.  1.
        -11    1    3    3    0    0 -0.37206077437E+03 -0.31739266735E+03  0.95907177224E+03  0.10765621159E+04  0.00000000000E+00 0. -1.
         22    1    1    2    0    0  0.97976055766E+03  0.69231029334E+03  0.71556327530E+02  0.12018088869E+04  0.00000000000E+00 0.  1.
<mgrwt>
<rscale>  0 0.29691059E+04</rscale>
<asrwt>0</asrwt>
<pdfrwt beam="1">  1        2 0.47590282E+00 0.29691059E+04</pdfrwt>
<pdfrwt beam="2">  1       -2 0.10960905E+00 0.29691059E+04</pdfrwt>
<totfact> 0.86370484E-01</totfact>
</mgrwt>
</event>
<event>
 6    1  0.1528034E-005  0.1399249E+04  0.7818608E-02  0.8954362E-01
          2   -1    0    0  501    0  0.00000000000E+00  0.00000000000E+00  0.14686268288E+04  0.14686268288E+04  0.00000000000E+00 0. -1.
         -2   -1    0    0    0  501 -0.00000000000E+00 -0.00000000000E+00 -0.33328736090E+03  0.33328736090E+03  0.00000000000E+00 0.  1.
         23    2    1    2    0    0 -0.42880751555E+03 -0.54841318762E+03  0.61976017611E+03  0.93562617993E+03  0.81613497231E+02 0.  0.
         11    1    3    3    0    0 -0.29802799719E+03 -0.38913884522E+03  0.48398854670E+03  0.68883571431E+03  0.00000000000E+00 0. -1.
        -11    1    3    3    0    0 -0.13077951836E+03 -0.15927434240E+03  0.13577162941E+03  0.24679046562E+03  0.00000000000E+00 0.  1.
         22    1    1    2    0    0  0.42880751555E+03  0.54841318762E+03  0.51557929181E+03  0.86628800978E+03  0.00000000000E+00 0.  1.
<mgrwt>
<rscale>  0 0.13992495E+04</rscale>
<asrwt>0</asrwt>
<pdfrwt beam="1">  1        2 0.22594259E+00 0.13992495E+04</pdfrwt>
<pdfrwt beam="2">  1       -2 0.51274979E-01 0.13992495E+04</pdfrwt>
<totfact> 0.46250917E+01</totfact>
</mgrwt>
</event>
<event>
 6    1  0.1528034E-005  0.1037641E+04  0.7818608E-02  0.9268197E-01
         -2   -1    0    0    0  501 -0.00000000000E+00  0.00000000000E+00  0.11717567186E+03  0.11717567186E+03  0.00000000000E+00 0.  1.
          2   -1    0    0  501    0  0.00000000000E+00 -0.00000000000E+00 -0.22971907349E+04  0.22971907349E+04  0.00000000000E+00 0. -1.
         23    2    1    2    0    0  0.22240791139E+03  0.45879979498E+03 -0.93582034933E+03  0.10697538170E+04  0.93010600713E+02 0.  0.
         11    1    3    3    0    0  0.88949944667E+02  0.22085615082E+03 -0.52668045237E+03  0.57799812362E+03  0.00000000000E+00 0. -1.
        -11    1    3    3    0    0  0.13345796672E+03  0.23794364416E+03 -0.40913989696E+03  0.49175569337E+03  0.00000000000E+00 0.  1.
         22    1    1    2    0    0 -0.22240791139E+03 -0.45879979498E+03 -0.12441947137E+04  0.13446125898E+04  0.00000000000E+00 0. -1.
<mgrwt>
<rscale>  0 0.10376413E+04</rscale>
<asrwt>0</asrwt>
<pdfrwt beam="1">  1        2 0.35341398E+00 0.10376413E+04</pdfrwt>
<pdfrwt beam="2">  1       -2 0.18027025E-01 0.10376413E+04</pdfrwt>
<totfact> 0.11702368E+02</totfact>
</mgrwt>
</event>
<event>
 6    1  0.1528034E-005  0.2135374E+04  0.7818608E-02  0.8545819E-01
         -2   -1    0    0    0  501 -0.00000000000E+00  0.00000000000E+00  0.16795659802E+04  0.16795659802E+04  0.00000000000E+00 0.  1.
          2   -1    0    0  501    0  0.00000000000E+00 -0.00000000000E+00 -0.67872016233E+03  0.67872016233E+03  0.00000000000E+00 0. -1.
         23    2    1    2    0    0 -0.11702943029E+03  0.98608346321E+03  0.73127449517E+02  0.99934616777E+03  0.85373621107E+02 0.  0.
         13    1    3    3    0    0 -0.12290924731E+03  0.80905531217E+03  0.78849581057E+02  0.82212799348E+03  0.00000000000E+00 0.  1.
        -13    1    3    3    0    0  0.58798170118E+01  0.17702815104E+03 -0.57221315405E+01  0.17721817429E+03  0.00000000000E+00 0. -1.
         22    1    1    2    0    0  0.11702943029E+03 -0.98608346321E+03  0.92771836831E+03  0.13589399747E+04  0.00000000000E+00 0.  1.
<mgrwt>
<rscale>  0 0.21353738E+04</rscale>
<asrwt>0</asrwt>
<pdfrwt beam="1">  1        2 0.10441849E+00 0.21353738E+04</pdfrwt>
<pdfrwt beam="2">  1       -2 0.25839476E+00 0.21353738E+04</pdfrwt>
<totfact> 0.22338527E+00</totfact>
</mgrwt>
</event>
<event>
 6    1  0.1528034E-005  0.1988813E+04  0.7818608E-02  0.8611869E-01
          1   -1    0    0  501    0  0.00000000000E+00  0.00000000000E+00  0.86931107412E+03  0.86931107412E+03  0.00000000000E+00 0. -1.
         -1   -1    0    0    0  501 -0.00000000000E+00 -0.00000000000E+00 -0.11375034982E+04  0.11375034982E+04  0.00000000000E+00 0.  1.
         23    2    1    2    0    0 -0.41227478353E+03  0.62470934179E+03 -0.79208267618E+03  0.10931990870E+04  0.86354033003E+02 0.  0.
         11    1    3    3    0    0 -0.31267053896E+03  0.48107792890E+03 -0.55156913325E+03  0.79588149141E+03  0.00000000000E+00 0. -1.
        -11    1    3    3    0    0 -0.99604244573E+02  0.14363141289E+03 -0.24051354294E+03  0.29731759558E+03  0.00000000000E+00 0.  1.
         22    1    1    2    0    0  0.41227478353E+03 -0.62470934179E+03  0.52389025207E+03  0.91361548535E+03  0.00000000000E+00 0. -1.
<mgrwt>
<rscale>  0 0.19888131E+04</rscale>
<asrwt>0</asrwt>
<pdfrwt beam="1">  1        1 0.13374016E+00 0.19888131E+04</pdfrwt>
<pdfrwt beam="2">  1       -1 0.17500054E+00 0.19888131E+04</pdfrwt>
<totfact> 0.40519690E+00</totfact>
</mgrwt>
</event>
<event>
 6    1  0.1528034E-005  0.2132056E+04  0.7818608E-02  0.8547252E-01
         -1   -1    0    0    0  501 -0.00000000000E+00  0.00000000000E+00  0.10559167661E+04  0.10559167661E+04  0.00000000000E+00 0.  1.
          1   -1    0    0  501    0  0.00000000000E+00 -0.00000000000E+00 -0.10762364910E+04  0.10762364910E+04  0.00000000000E+00 0. -1.
         23    2    1    2    0    0 -0.16161923166E+03  0.12049000609E+03 -0.10550787204E+04  0.10779403772E+04  0.90142846946E+02 0.  0.
         13    1    3    3    0    0 -0.33729692297E+02  0.69729203055E+02 -0.50543650094E+03  0.51133737433E+03  0.00000000000E+00 0. -1.
        -13    1    3    3    0    0 -0.12788953937E+03  0.50760803036E+02 -0.54964221947E+03  0.56660300284E+03  0.00000000000E+00 0.  1.
         22    1    1    2    0    0  0.16161923166E+03 -0.12049000609E+03  0.10347589954E+04  0.10542128799E+04  0.00000000000E+00 0.  1.
<mgrwt>
<rscale>  0 0.21320564E+04</rscale>
<asrwt>0</asrwt>
<pdfrwt beam="1">  1        1 0.16557484E+00 0.21320564E+04</pdfrwt>
<pdfrwt beam="2">  1       -1 0.16244873E+00 0.21320564E+04</pdfrwt>
<totfact> 0.33944079E+00</totfact>
</mgrwt>
</event>
<event>
 6    1  0.1528034E-005  0.2797785E+04  0.7818608E-02  0.8303956E-01
          1   -1    0    0  501    0  0.00000000000E+00  0.00000000000E+00  0.19032989570E+04  0.19032989570E+04  0.00000000000E+00 0. -1.
         -1   -1    0    0    0  501 -0.00000000000E+00 -0.00000000000E+00 -0.10281621093E+04  0.10281621093E+04  0.00000000000E+00 0.  1.
         23    2    1    2    0    0 -0.10049701864E+04  0.96550663332E+03  0.54567959454E+03  0.14994309632E+04  0.91426795161E+02 0.  0.
         11    1    3    3    0    0 -0.18394674651E+03  0.13283496324E+03  0.10113813671E+03  0.24841589262E+03  0.00000000000E+00 0. -1.
        -11    1    3    3    0    0 -0.82102343991E+03  0.83267167008E+03  0.44454145783E+03  0.12510150706E+04  0.00000000000E+00 0.  1.
         22    1    1    2    0    0  0.10049701864E+04 -0.96550663332E+03  0.32945725318E+03  0.14320301031E+04  0.00000000000E+00 0.  1.
<mgrwt>
<rscale>  0 0.27977847E+04</rscale>
<asrwt>0</asrwt>
<pdfrwt beam="1">  1        1 0.29281522E+00 0.27977847E+04</pdfrwt>
<pdfrwt beam="2">  1       -1 0.15817879E+00 0.27977847E+04</pdfrwt>
<totfact> 0.90550071E-01</totfact>
</mgrwt>
</event>
<event>
 6    1  0.1528034E-005  0.3729376E+04  0.7818608E-02  0.8061483E-01
          2   -1    0    0  501    0  0.00000000000E+00  0.00000000000E+00  0.22695687523E+04  0.22695687523E+04  0.00000000000E+00 0. -1.
         -2   -1    0    0    0  501 -0.00000000000E+00 -0.00000000000E+00 -0.15320358212E+04  0.15320358212E+04  0.00000000000E+00 0.  1.
         23    2    1    2    0    0 -0.52969439436E+03  0.45088259314E+03 -0.13934620150E+04  0.15599510044E+04  0.88540864494E+02 0.  0.
         13    1    3    3    0    0 -0.40411846539E+03  0.33439287832E+03 -0.11285046997E+04  0.12444489497E+04  0.00000000000E+00 0. -1.
        -13    1    3    3    0    0 -0.12557592897E+03  0.11648971482E+03 -0.26495731521E+03  0.31550205464E+03  0.00000000000E+00 0.  1.
         22    1    1    2    0    0  0.52969439436E+03 -0.45088259314E+03  0.21309949461E+04  0.22416535692E+04  0.00000000000E+00 0. -1.
<mgrwt>
<rscale>  0 0.37293756E+04</rscale>
<asrwt>0</asrwt>
<pdfrwt beam="1">  1        2 0.34916442E+00 0.37293756E+04</pdfrwt>
<pdfrwt beam="2">  1       -2 0.23569782E+00 0.37293756E+04</pdfrwt>
<totfact> 0.29970106E-01</totfact>
</mgrwt>
</event>
<event>
 6    1  0.1528034E-005  0.2461341E+04  0.7818608E-02  0.8416889E-01
         -1   -1    0    0    0  501 -0.00000000000E+00  0.00000000000E+00  0.82553353278E+03  0.82553353278E+03  0.00000000000E+00 0.  1.
          1   -1    0    0  501    0  0.00000000000E+00 -0.00000000000E+00 -0.18346310555E+04  0.18346310555E+04  0.00000000000E+00 0. -1.
         23    2    1    2    0    0 -0.81344891234E+02 -0.48519458972E+03 -0.17224746030E+04  0.17935980070E+04  0.89689862465E+02 0.  0.
         13    1    3    3    0    0 -0.32896379843E+02 -0.41000469957E+02 -0.15438951635E+03  0.16309301979E+03  0.00000000000E+00 0. -1.
        -13    1    3    3    0    0 -0.48448511391E+02 -0.44419411977E+03 -0.15680850866E+04  0.16305049872E+04  0.00000000000E+00 0.  1.
         22    1    1    2    0    0  0.81344891234E+02  0.48519458972E+03  0.71337708026E+03  0.86656658132E+03  0.00000000000E+00 0.  1.
<mgrwt>
<rscale>  0 0.24613407E+04</rscale>
<asrwt>0</asrwt>
<pdfrwt beam="1">  1        1 0.28225093E+00 0.24613407E+04</pdfrwt>
<pdfrwt beam="2">  1       -1 0.12700516E+00 0.24613407E+04</pdfrwt>
<totfact> 0.18498023E+00</totfact>
</mgrwt>
</event>
<event>
 6    1  0.1528034E-005  0.3008381E+04  0.7818608E-02  0.8241342E-01
          2   -1    0    0  501    0  0.00000000000E+00  0.00000000000E+00  0.23396109884E+04  0.23396109884E+04  0.00000000000E+00 0. -1.
         -2   -1    0    0    0  501 -0.00000000000E+00 -0.00000000000E+00 -0.96707909179E+03  0.96707909179E+03  0.00000000000E+00 0.  1.
         23    2    1    2    0    0  0.13380780027E+04 -0.66283135515E+03  0.50105227021E+03  0.15777381185E+04  0.91684493213E+02 0.  0.
         11    1    3    3    0    0  0.90269494508E+03 -0.42501410305E+03  0.29395462527E+03  0.10401463711E+04  0.00000000000E+00 0.  1.
        -11    1    3    3    0    0  0.43538305761E+03 -0.23781725210E+03  0.20709764494E+03  0.53759174732E+03  0.00000000000E+00 0. -1.
         22    1    1    2    0    0 -0.13380780027E+04  0.66283135515E+03  0.87147962638E+03  0.17289519617E+04  0.00000000000E+00 0.  1.
<mgrwt>
<rscale>  0 0.30083809E+04</rscale>
<asrwt>0</asrwt>
<pdfrwt beam="1">  1        2 0.35994015E+00 0.30083809E+04</pdfrwt>
<pdfrwt beam="2">  1       -2 0.14878140E+00 0.30083809E+04</pdfrwt>
<totfact> 0.11272225E+00</totfact>
</mgrwt>
</event>
<event>
 6    1  0.1528034E-005  0.2007915E+04  0.7818608E-02  0.8602929E-01
          1   -1    0    0  501    0  0.00000000000E+00  0.00000000000E+00  0.10383909305E+04  0.10383909305E+04  0.00000000000E+00 0. -1.
         -1   -1    0    0    0  501 -0.00000000000E+00 -0.00000000000E+00 -0.97066545294E+03  0.97066545294E+03  0.00000000000E+00 0.  1.
         23    2    1    2    0    0 -0.19244547254E+03 -0.66595268185E+03  0.75795825761E+03  0.10308184139E+04  0.86934732309E+02 0.  0.
         11    1    3    3    0    0 -0.18124192307E+03 -0.51200676410E+03  0.56508447164E+03  0.78378569855E+03  0.00000000000E+00 0.  1.
        -11    1    3    3    0    0 -0.11203549470E+02 -0.15394591776E+03  0.19287378597E+03  0.24703271530E+03  0.00000000000E+00 0. -1.
         22    1    1    2    0    0  0.19244547254E+03  0.66595268185E+03 -0.69023278008E+03  0.97823796955E+03  0.00000000000E+00 0.  1.
<mgrwt>
<rscale>  0 0.20079145E+04</rscale>
<asrwt>0</asrwt>
<pdfrwt beam="1">  1        1 0.15975245E+00 0.20079145E+04</pdfrwt>
<pdfrwt beam="2">  1       -1 0.14933315E+00 0.20079145E+04</pdfrwt>
<totfact> 0.46247496E+00</totfact>
</mgrwt>
</event>
<event>
 6    1  0.1528034E-005  0.3604372E+04  0.7818608E-02  0.8089491E-01
         -2   -1    0    0    0  501 -0.00000000000E+00  0.00000000000E+00  0.99872719317E+03  0.99872719317E+03  0.00000000000E+00 0.  1.
          2   -1    0    0  501    0  0.00000000000E+00 -0.00000000000E+00 -0.32520136978E+04  0.32520136978E+04  0.00000000000E+00 0. -1.
         23    2    1    2    0    0 -0.15243945033E+04 -0.54772920560E+03 -0.20558650478E+04  0.26189439931E+04  0.92199022132E+02 0.  0.
         11    1    3    3    0    0 -0.61557412566E+03 -0.23153048067E+03 -0.90663608939E+03  0.11200566353E+04  0.00000000000E+00 0.  1.
        -11    1    3    3    0    0 -0.90882037765E+03 -0.31619872493E+03 -0.11492289584E+04  0.14988873578E+04  0.00000000000E+00 0. -1.
         22    1    1    2    0    0  0.15243945033E+04  0.54772920560E+03 -0.19742145686E+03  0.16317968979E+04  0.00000000000E+00 0.  1.
<mgrwt>
<rscale>  0 0.36043721E+04</rscale>
<asrwt>0</asrwt>
<pdfrwt beam="1">  1        2 0.50030981E+00 0.36043721E+04</pdfrwt>
<pdfrwt beam="2">  1       -2 0.15365033E+00 0.36043721E+04</pdfrwt>
<totfact> 0.27413836E-01</totfact>
</mgrwt>
</event>
<event>
 6    1  0.1528034E-005  0.1345879E+04  0.7818608E-02  0.8993954E-01
          1   -1    0    0  501    0  0.00000000000E+00  0.00000000000E+00  0.14470108161E+04  0.14470108161E+04  0.00000000000E+00 0. -1.
         -1   -1    0    0    0  501 -0.00000000000E+00 -0.00000000000E+00 -0.31295365099E+03  0.31295365099E+03  0.00000000000E+00 0.  1.
         23    2    1    2    0    0 -0.50573263462E+03 -0.32168425243E+03  0.96067522110E+03  0.11360193136E+04  0.91633752344E+02 0.  0.
         11    1    3    3    0    0 -0.29549015183E+03 -0.20308873834E+03  0.65292789940E+03  0.74489885709E+03  0.00000000000E+00 0. -1.
        -11    1    3    3    0    0 -0.21024248279E+03 -0.11859551408E+03  0.30774732170E+03  0.39112045656E+03  0.00000000000E+00 0.  1.
         22    1    1    2    0    0  0.50573263462E+03  0.32168425243E+03  0.17338194399E+03  0.62394515342E+03  0.00000000000E+00 0.  1.
<mgrwt>
<rscale>  0 0.13458786E+04</rscale>
<asrwt>0</asrwt>
<pdfrwt beam="1">  1        1 0.22261704E+00 0.13458786E+04</pdfrwt>
<pdfrwt beam="2">  1       -1 0.48146716E-01 0.13458786E+04</pdfrwt>
<totfact> 0.30067103E+01</totfact>
</mgrwt>
</event>
<event>
 6    1  0.1528034E-005  0.7740249E+03  0.7818608E-02  0.9598395E-01
          2   -1    0    0  501    0  0.00000000000E+00  0.00000000000E+00  0.39198245420E+03  0.39198245420E+03  0.00000000000E+00 0. -1.
         -2   -1    0    0    0  501 -0.00000000000E+00 -0.00000000000E+00 -0.38210550824E+03  0.38210550824E+03  0.00000000000E+00 0.  1.
         23    2    1    2    0    0 -0.17687659312E+03  0.20579717579E+03  0.27353203714E+03  0.39573387715E+03  0.90264718578E+02 0.  0.
         13    1    3    3    0    0 -0.90029094625E+01  0.40748841287E+02  0.82893810889E+02  0.92805734352E+02  0.00000000000E+00 0.  1.
        -13    1    3    3    0    0 -0.16787368365E+03  0.16504833450E+03  0.19063822626E+03  0.30292814279E+03  0.00000000000E+00 0. -1.
         22    1    1    2    0    0  0.17687659312E+03 -0.20579717579E+03 -0.26365509118E+03  0.37835408530E+03  0.00000000000E+00 0.  1.
<mgrwt>
<rscale>  0 0.77402495E+03</rscale>
<asrwt>0</asrwt>
<pdfrwt beam="1">  1        2 0.60304993E-01 0.77402495E+03</pdfrwt>
<pdfrwt beam="2">  1       -2 0.58785463E-01 0.77402495E+03</pdfrwt>
<totfact> 0.22184669E+02</totfact>
</mgrwt>
</event>
<event>
 6    1  0.1528034E-005  0.2784799E+04  0.7818608E-02  0.8308003E-01
         -1   -1    0    0    0  501 -0.00000000000E+00  0.00000000000E+00  0.11882346074E+04  0.11882346074E+04  0.00000000000E+00 0.  1.
          1   -1    0    0  501    0  0.00000000000E+00 -0.00000000000E+00 -0.16316448623E+04  0.16316448623E+04  0.00000000000E+00 0. -1.
         23    2    1    2    0    0 -0.11685828170E+04  0.75419838092E+03 -0.20828108426E+03  0.14093169135E+04  0.91608703516E+02 0.  0.
         11    1    3    3    0    0 -0.88630806332E+03  0.55242805239E+03 -0.11967736305E+03  0.10512094974E+04  0.00000000000E+00 0. -1.
        -11    1    3    3    0    0 -0.28227475372E+03  0.20177032853E+03 -0.88603721217E+02  0.35810741612E+03  0.00000000000E+00 0.  1.
         22    1    1    2    0    0  0.11685828170E+04 -0.75419838092E+03 -0.23512917062E+03  0.14105625562E+04  0.00000000000E+00 0. -1.
<mgrwt>
<rscale>  0 0.27847994E+04</rscale>
<asrwt>0</asrwt>
<pdfrwt beam="1">  1        1 0.25102229E+00 0.27847994E+04</pdfrwt>
<pdfrwt beam="2">  1       -1 0.18280533E+00 0.27847994E+04</pdfrwt>
<totfact> 0.91427458E-01</totfact>
</mgrwt>
</event>
<event>
 6    1  0.2070275E-005  0.4121082E+04  0.7818608E-02  0.7980556E-01
         -2   -1    0    0    0  501 -0.00000000000E+00  0.00000000000E+00  0.26129813227E+04  0.26129813227E+04  0.00000000000E+00 0.  1.
          2   -1    0    0  501    0  0.00000000000E+00 -0.00000000000E+00 -0.16248981713E+04  0.16248981713E+04  0.00000000000E+00 0. -1.
         23    2    1    2    0    0 -0.83582882683E+03  0.25612404019E+03  0.24119186524E+04  0.25670961790E+04  0.91770664192E+02 0.  0.
         13    1    3    3    0    0 -0.63678247388E+03  0.22412721966E+03  0.17753411182E+04  0.18993580535E+04  0.00000000000E+00 0. -1.
        -13    1    3    3    0    0 -0.19904635296E+03  0.31996820529E+02  0.63657753424E+03  0.66773812551E+03  0.00000000000E+00 0.  1.
         22    1    1    2    0    0  0.83582882683E+03 -0.25612404019E+03 -0.14238355009E+04  0.16707833149E+04  0.00000000000E+00 0. -1.
<mgrwt>
<rscale>  0 0.41210817E+04</rscale>
<asrwt>0</asrwt>
<pdfrwt beam="1">  1        2 0.24998433E+00 0.41210817E+04</pdfrwt>
<pdfrwt beam="2">  1       -2 0.40199713E+00 0.41210817E+04</pdfrwt>
<totfact> 0.60745768E-02</totfact>
</mgrwt>
</event>
<event>
 6    1  0.1528034E-005  0.1944674E+04  0.7818608E-02  0.8632933E-01
          1   -1    0    0  501    0  0.00000000000E+00  0.00000000000E+00  0.23063150264E+04  0.23063150264E+04  0.00000000000E+00 0. -1.
         -1   -1    0    0    0  501 -0.00000000000E+00 -0.00000000000E+00 -0.40993519248E+03  0.40993519248E+03  0.00000000000E+00 0.  1.
         23    2    1    2    0    0 -0.66165649888E+03 -0.14672169912E+03  0.19199787601E+04  0.20381104923E+04  0.90881021487E+02 0.  0.
         13    1    3    3    0    0 -0.46789207627E+03 -0.61525235821E+02  0.13020090250E+04  0.13848956101E+04  0.00000000000E+00 0.  1.
        -13    1    3    3    0    0 -0.19376442261E+03 -0.85196463303E+02  0.61796973507E+03  0.65321488217E+03  0.00000000000E+00 0. -1.
         22    1    1    2    0    0  0.66165649888E+03  0.14672169912E+03 -0.23598926153E+02  0.67813972662E+03  0.00000000000E+00 0.  1.
<mgrwt>
<rscale>  0 0.19446745E+04</rscale>
<asrwt>0</asrwt>
<pdfrwt beam="1">  1        1 0.35481769E+00 0.19446745E+04</pdfrwt>
<pdfrwt beam="2">  1       -1 0.63066954E-01 0.19446745E+04</pdfrwt>
<totfact> 0.43808866E+00</totfact>
</mgrwt>
</event>
<event>
 6    1  0.1528034E-005  0.2783634E+04  0.7818608E-02  0.8308367E-01
         -1   -1    0    0    0  501 -0.00000000000E+00  0.00000000000E+00  0.12564129407E+04  0.12564129407E+04  0.00000000000E+00 0. -1.
          1   -1    0    0  501    0  0.00000000000E+00 -0.00000000000E+00 -0.15418133288E+04  0.15418133288E+04  0.00000000000E+00 0.  1.
         23    2    1    2    0    0 -0.12461464785E+04 -0.61649869141E+03 -0.13706469413E+03  0.14000291587E+04  0.91341296005E+02 0.  0.
         13    1    3    3    0    0 -0.13186764432E+03 -0.97881472964E+02 -0.18668886544E+02  0.16528274469E+03  0.00000000000E+00 0. -1.
        -13    1    3    3    0    0 -0.11142788342E+04 -0.51861721844E+03 -0.11839580759E+03  0.12347464140E+04  0.00000000000E+00 0.  1.
         22    1    1    2    0    0  0.12461464785E+04  0.61649869141E+03 -0.14833569394E+03  0.13981971108E+04  0.00000000000E+00 0. -1.
<mgrwt>
<rscale>  0 0.27836338E+04</rscale>
<asrwt>0</asrwt>
<pdfrwt beam="1">  1        1 0.23720205E+00 0.27836338E+04</pdfrwt>
<pdfrwt beam="2">  1       -1 0.19329430E+00 0.27836338E+04</pdfrwt>
<totfact> 0.88898223E-01</totfact>
</mgrwt>
</event>
<event>
 6    1  0.1528034E-005  0.2481626E+04  0.7818608E-02  0.8409561E-01
         -1   -1    0    0    0  501 -0.00000000000E+00  0.00000000000E+00  0.39827344901E+03  0.39827344901E+03  0.00000000000E+00 0.  1.
          1   -1    0    0  501    0  0.00000000000E+00 -0.00000000000E+00 -0.38657292220E+04  0.38657292220E+04  0.00000000000E+00 0. -1.
         23    2    1    2    0    0 -0.20147697005E+03  0.67598240482E+03 -0.34865730838E+04  0.35583748281E+04  0.91073416564E+02 0.  0.
         11    1    3    3    0    0 -0.60985899520E+02  0.36223423004E+03 -0.18343682693E+04  0.18707858950E+04  0.00000000000E+00 0. -1.
        -11    1    3    3    0    0 -0.14049107053E+03  0.31374817478E+03 -0.16522048145E+04  0.16875889331E+04  0.00000000000E+00 0.  1.
         22    1    1    2    0    0  0.20147697005E+03 -0.67598240482E+03  0.19117310870E+02  0.70562784289E+03  0.00000000000E+00 0.  1.
<mgrwt>
<rscale>  0 0.24816263E+04</rscale>
<asrwt>0</asrwt>
<pdfrwt beam="1">  1        1 0.59472754E+00 0.24816263E+04</pdfrwt>
<pdfrwt beam="2">  1       -1 0.61272842E-01 0.24816263E+04</pdfrwt>
<totfact> 0.30212784E-01</totfact>
</mgrwt>
</event>
<event>
 6    1  0.1528034E-005  0.1733540E+04  0.7818608E-02  0.8742463E-01
         -2   -1    0    0    0  501 -0.00000000000E+00  0.00000000000E+00  0.87096424622E+03  0.87096424622E+03  0.00000000000E+00 0.  1.
          2   -1    0    0  501    0  0.00000000000E+00 -0.00000000000E+00 -0.86259600259E+03  0.86259600259E+03  0.00000000000E+00 0. -1.
         23    2    1    2    0    0 -0.59607230924E+03  0.26573004123E+03  0.57064913141E+03  0.87212281672E+03  0.95095339544E+02 0.  0.
         11    1    3    3    0    0 -0.25252373704E+03  0.16199018012E+03  0.24093237886E+03  0.38478236369E+03  0.00000000000E+00 0.  1.
        -11    1    3    3    0    0 -0.34354857220E+03  0.10373986111E+03  0.32971675255E+03  0.48734045303E+03  0.00000000000E+00 0. -1.
         22    1    1    2    0    0  0.59607230924E+03 -0.26573004123E+03 -0.56228088777E+03  0.86143743209E+03  0.00000000000E+00 0. -1.
<mgrwt>
<rscale>  0 0.17335401E+04</rscale>
<asrwt>0</asrwt>
<pdfrwt beam="1">  1        2 0.13270708E+00 0.17335401E+04</pdfrwt>
<pdfrwt beam="2">  1       -2 0.13399450E+00 0.17335401E+04</pdfrwt>
<totfact> 0.11868576E+01</totfact>
</mgrwt>
</event>
<event>
 6    1  0.1528034E-005  0.1614875E+04  0.7818608E-02  0.8811462E-01
          2   -1    0    0  501    0  0.00000000000E+00  0.00000000000E+00  0.34702065006E+04  0.34702065006E+04  0.00000000000E+00 0. -1.
         -2   -1    0    0    0  501 -0.00000000000E+00 -0.00000000000E+00 -0.18787215757E+03  0.18787215757E+03  0.00000000000E+00 0.  1.
         23    2    1    2    0    0  0.41972056554E+03 -0.37759375413E+03  0.34774851165E+03  0.66967835064E+03  0.93795893641E+02 0.  0.
         13    1    3    3    0    0  0.10394927308E+02 -0.40710920452E+02  0.21433279916E+02  0.47167987510E+02  0.00000000000E+00 0.  1.
        -13    1    3    3    0    0  0.40932563823E+03 -0.33688283368E+03  0.32631523173E+03  0.62251036313E+03  0.00000000000E+00 0. -1.
         22    1    1    2    0    0 -0.41972056554E+03  0.37759375413E+03  0.29345858314E+04  0.29884003075E+04  0.00000000000E+00 0. -1.
<mgrwt>
<rscale>  0 0.16148748E+04</rscale>
<asrwt>0</asrwt>
<pdfrwt beam="1">  1        2 0.53387788E+00 0.16148748E+04</pdfrwt>
<pdfrwt beam="2">  1       -2 0.28903411E-01 0.16148748E+04</pdfrwt>
<totfact> 0.90794440E+00</totfact>
</mgrwt>
</event>
<event>
 6    1  0.1528034E-005  0.2405176E+04  0.7818608E-02  0.8437568E-01
          1   -1    0    0  501    0  0.00000000000E+00  0.00000000000E+00  0.14009744622E+04  0.14009744622E+04  0.00000000000E+00 0. -1.
         -1   -1    0    0    0  501 -0.00000000000E+00 -0.00000000000E+00 -0.10322944616E+04  0.10322944616E+04  0.00000000000E+00 0.  1.
         23    2    1    2    0    0 -0.13673472565E+03  0.11902474540E+04  0.10229623757E+03  0.12059361669E+04  0.91826638572E+02 0.  0.
         11    1    3    3    0    0  0.45055702739E+01  0.31321094501E+03  0.28791328785E+02  0.31456372462E+03  0.00000000000E+00 0.  1.
        -11    1    3    3    0    0 -0.14124029592E+03  0.87703650900E+03  0.73504908784E+02  0.89137244232E+03  0.00000000000E+00 0. -1.
         22    1    1    2    0    0  0.13673472565E+03 -0.11902474540E+04  0.26638376301E+03  0.12273327569E+04  0.00000000000E+00 0.  1.
<mgrwt>
<rscale>  0 0.24051762E+04</rscale>
<asrwt>0</asrwt>
<pdfrwt beam="1">  1        1 0.21553453E+00 0.24051762E+04</pdfrwt>
<pdfrwt beam="2">  1       -1 0.15881453E+00 0.24051762E+04</pdfrwt>
<totfact> 0.20501425E+00</totfact>
</mgrwt>
</event>
<event>
 6    1  0.1528034E-005  0.1828792E+04  0.7818608E-02  0.8691136E-01
          2   -1    0    0  501    0  0.00000000000E+00  0.00000000000E+00  0.20095701567E+04  0.20095701567E+04  0.00000000000E+00 0. -1.
         -2   -1    0    0    0  501 -0.00000000000E+00 -0.00000000000E+00 -0.41606903786E+03  0.41606903786E+03  0.00000000000E+00 0.  1.
         23    2    1    2    0    0 -0.37804673943E+03  0.45965983984E+03  0.17155064339E+04  0.18181099340E+04  0.91405151825E+02 0.  0.
         11    1    3    3    0    0 -0.15010490614E+03  0.12829409920E+03  0.48987323747E+03  0.52817293335E+03  0.00000000000E+00 0. -1.
        -11    1    3    3    0    0 -0.22794183329E+03  0.33136574064E+03  0.12256331964E+04  0.12899370006E+04  0.00000000000E+00 0.  1.
         22    1    1    2    0    0  0.37804673943E+03 -0.45965983984E+03 -0.12200531505E+03  0.60752926057E+03  0.00000000000E+00 0.  1.
<mgrwt>
<rscale>  0 0.18287919E+04</rscale>
<asrwt>0</asrwt>
<pdfrwt beam="1">  1        2 0.30916463E+00 0.18287919E+04</pdfrwt>
<pdfrwt beam="2">  1       -2 0.64010622E-01 0.18287919E+04</pdfrwt>
<totfact> 0.14025635E+01</totfact>
</mgrwt>
</event>
<event>
 6    1  0.1528034E-005  0.1663361E+04  0.7818608E-02  0.8782541E-01
          2   -1    0    0  501    0  0.00000000000E+00  0.00000000000E+00  0.79169708137E+03  0.79169708137E+03  0.00000000000E+00 0.  1.
         -2   -1    0    0    0  501 -0.00000000000E+00 -0.00000000000E+00 -0.87368372049E+03  0.87368372049E+03  0.00000000000E+00 0. -1.
         23    2    1    2    0    0  0.77972081964E+03 -0.22549047004E+03 -0.21100793475E+03  0.84351888926E+03  0.90494526601E+02 0.  0.
         11    1    3    3    0    0  0.25821674975E+03 -0.11947701825E+03 -0.75677221395E+02  0.29441074977E+03  0.00000000000E+00 0. -1.
        -11    1    3    3    0    0  0.52150406989E+03 -0.10601345178E+03 -0.13533071335E+03  0.54910813949E+03  0.00000000000E+00 0.  1.
         22    1    1    2    0    0 -0.77972081964E+03  0.22549047004E+03  0.12902129562E+03  0.82186191260E+03  0.00000000000E+00 0.  1.
<mgrwt>
<rscale>  0 0.16633615E+04</rscale>
<asrwt>0</asrwt>
<pdfrwt beam="1">  1        2 0.12179955E+00 0.16633615E+04</pdfrwt>
<pdfrwt beam="2">  1       -2 0.13441288E+00 0.16633615E+04</pdfrwt>
<totfact> 0.13293240E+01</totfact>
</mgrwt>
</event>
<event>
 6    1  0.1528034E-005  0.2197874E+04  0.7818608E-02  0.8519314E-01
         -2   -1    0    0    0  501 -0.00000000000E+00  0.00000000000E+00  0.79876676909E+03  0.79876676909E+03  0.00000000000E+00 0.  1.
          2   -1    0    0  501    0  0.00000000000E+00 -0.00000000000E+00 -0.15119087737E+04  0.15119087737E+04  0.00000000000E+00 0. -1.
         23    2    1    2    0    0 -0.89398689792E+03 -0.14775734712E+03 -0.10073997081E+04  0.13579781075E+04  0.90584553148E+02 0.  0.
         13    1    3    3    0    0 -0.71466597798E+03 -0.15123479435E+03 -0.78585639056E+03  0.10729350818E+04  0.00000000000E+00 0.  1.
        -13    1    3    3    0    0 -0.17932091994E+03  0.34774472346E+01 -0.22154331754E+03  0.28504302572E+03  0.00000000000E+00 0. -1.
         22    1    1    2    0    0  0.89398689792E+03  0.14775734712E+03  0.29425770344E+03  0.95269743535E+03  0.00000000000E+00 0.  1.
<mgrwt>
<rscale>  0 0.21978740E+04</rscale>
<asrwt>0</asrwt>
<pdfrwt beam="1">  1        2 0.23260135E+00 0.21978740E+04</pdfrwt>
<pdfrwt beam="2">  1       -2 0.12288720E+00 0.21978740E+04</pdfrwt>
<totfact> 0.57189059E+00</totfact>
</mgrwt>
</event>
<event>
 6    1  0.1528034E-005  0.4812430E+04  0.7818608E-02  0.7858112E-01
         -2   -1    0    0    0  501 -0.00000000000E+00  0.00000000000E+00  0.19947610403E+04  0.19947610403E+04  0.00000000000E+00 0.  1.
          2   -1    0    0  501    0  0.00000000000E+00 -0.00000000000E+00 -0.29025380988E+04  0.29025380988E+04  0.00000000000E+00 0. -1.
         23    2    1    2    0    0  0.39218120400E+02  0.96772085721E+03 -0.26945501731E+04  0.28649163304E+04  0.95515580840E+02 0.  0.
         13    1    3    3    0    0 -0.10830308695E+02  0.18249562165E+03 -0.41796470887E+03  0.45619781386E+03  0.00000000000E+00 0. -1.
        -13    1    3    3    0    0  0.50048429095E+02  0.78522523556E+03 -0.22765854642E+04  0.24087185165E+04  0.00000000000E+00 0.  1.
         22    1    1    2    0    0 -0.39218120400E+02 -0.96772085721E+03  0.17867731146E+04  0.20323828088E+04  0.00000000000E+00 0.  1.
<mgrwt>
<rscale>  0 0.48124297E+04</rscale>
<asrwt>0</asrwt>
<pdfrwt beam="1">  1        2 0.44654432E+00 0.48124297E+04</pdfrwt>
<pdfrwt beam="2">  1       -2 0.30688631E+00 0.48124297E+04</pdfrwt>
<totfact> 0.42644225E-02</totfact>
</mgrwt>
</event>
<event>
 6    1  0.1528034E-005  0.4441183E+04  0.7818608E-02  0.7921016E-01
         -2   -1    0    0    0  501 -0.00000000000E+00  0.00000000000E+00  0.15365051525E+04  0.15365051525E+04  0.00000000000E+00 0.  1.
          2   -1    0    0  501    0  0.00000000000E+00 -0.00000000000E+00 -0.32092481376E+04  0.32092481376E+04  0.00000000000E+00 0. -1.
         23    2    1    2    0    0 -0.14128843145E+03 -0.11949938423E+04  0.11563725255E+04  0.16713643628E+04  0.91042361322E+02 0.  0.
         13    1    3    3    0    0 -0.12864694441E+03 -0.73955095526E+03  0.69660241678E+03  0.10240803576E+04  0.00000000000E+00 0. -1.
        -13    1    3    3    0    0 -0.12641487040E+02 -0.45544288703E+03  0.45977010869E+03  0.64728400520E+03  0.00000000000E+00 0.  1.
         22    1    1    2    0    0  0.14128843145E+03  0.11949938423E+04 -0.28291155106E+04  0.30743889273E+04  0.00000000000E+00 0. -1.
<mgrwt>
<rscale>  0 0.44411829E+04</rscale>
<asrwt>0</asrwt>
<pdfrwt beam="1">  1        2 0.49373048E+00 0.44411829E+04</pdfrwt>
<pdfrwt beam="2">  1       -2 0.23638541E+00 0.44411829E+04</pdfrwt>
<totfact> 0.75866692E-02</totfact>
</mgrwt>
</event>
<event>
 6    1  0.1528034E-005  0.3058881E+04  0.7818608E-02  0.8227114E-01
          2   -1    0    0  501    0  0.00000000000E+00  0.00000000000E+00  0.10419867620E+04  0.10419867620E+04  0.00000000000E+00 0.  1.
         -2   -1    0    0    0  501 -0.00000000000E+00 -0.00000000000E+00 -0.22449309872E+04  0.22449309872E+04  0.00000000000E+00 0. -1.
         23    2    1    2    0    0  0.40969214003E+03 -0.10909609577E+04  0.46014042538E+03  0.12561804407E+04  0.90645616835E+02 0.  0.
         13    1    3    3    0    0  0.12458769043E+03 -0.30928542330E+03  0.17543962218E+03  0.37677397296E+03  0.00000000000E+00 0. -1.
        -13    1    3    3    0    0  0.28510444961E+03 -0.78167553435E+03  0.28470080321E+03  0.87940646776E+03  0.00000000000E+00 0.  1.
         22    1    1    2    0    0 -0.40969214003E+03  0.10909609577E+04 -0.16630846506E+04  0.20307373084E+04  0.00000000000E+00 0. -1.
<mgrwt>
<rscale>  0 0.30588811E+04</rscale>
<asrwt>0</asrwt>
<pdfrwt beam="1">  1        2 0.16030566E+00 0.30588811E+04</pdfrwt>
<pdfrwt beam="2">  1       -2 0.34537400E+00 0.30588811E+04</pdfrwt>
<totfact> 0.33556637E-01</totfact>
</mgrwt>
</event>
<event>
 6    1  0.1528034E-005  0.2109051E+04  0.7818608E-02  0.8557267E-01
         -1   -1    0    0    0  501 -0.00000000000E+00  0.00000000000E+00  0.10882525218E+04  0.10882525218E+04  0.00000000000E+00 0.  1.
          1   -1    0    0  501    0  0.00000000000E+00 -0.00000000000E+00 -0.10218439117E+04  0.10218439117E+04  0.00000000000E+00 0. -1.
         23    2    1    2    0    0  0.10346184149E+04  0.17775131455E+03 -0.42977712666E+02  0.10546362675E+04  0.91541131469E+02 0.  0.
         11    1    3    3    0    0  0.88299427567E+03  0.15794151972E+03 -0.68449845934E+02  0.89961647157E+03  0.00000000000E+00 0. -1.
        -11    1    3    3    0    0  0.15162413921E+03  0.19809794835E+02  0.25472133268E+02  0.15501979595E+03  0.00000000000E+00 0.  1.
         22    1    1    2    0    0 -0.10346184149E+04 -0.17775131455E+03  0.10938632279E+03  0.10554601659E+04  0.00000000000E+00 0.  1.
<mgrwt>
<rscale>  0 0.21090512E+04</rscale>
<asrwt>0</asrwt>
<pdfrwt beam="1">  1        1 0.15720676E+00 0.21090512E+04</pdfrwt>
<pdfrwt beam="2">  1       -1 0.16742347E+00 0.21090512E+04</pdfrwt>
<totfact> 0.34374372E+00</totfact>
</mgrwt>
</event>
<event>
 6    1  0.1528034E-005  0.1523781E+04  0.7818608E-02  0.8868791E-01
          2   -1    0    0  501    0  0.00000000000E+00  0.00000000000E+00  0.41007498732E+04  0.41007498732E+04  0.00000000000E+00 0. -1.
         -2   -1    0    0    0  501 -0.00000000000E+00 -0.00000000000E+00 -0.14155396672E+03  0.14155396672E+03  0.00000000000E+00 0.  1.
         23    2    1    2    0    0  0.68455062340E+03 -0.37406201814E+02  0.28940975665E+04  0.29756376433E+04  0.92789436682E+02 0.  0.
         13    1    3    3    0    0  0.13964112689E+03 -0.40896638107E+02  0.69041914232E+03  0.70558541043E+03  0.00000000000E+00 0.  1.
        -13    1    3    3    0    0  0.54490949650E+03  0.34904362935E+01  0.22036784242E+04  0.22700522329E+04  0.00000000000E+00 0. -1.
         22    1    1    2    0    0 -0.68455062340E+03  0.37406201814E+02  0.10650983399E+04  0.12666661966E+04  0.00000000000E+00 0.  1.
<mgrwt>
<rscale>  0 0.15237814E+04</rscale>
<asrwt>0</asrwt>
<pdfrwt beam="1">  1        2 0.63088450E+00 0.15237814E+04</pdfrwt>
<pdfrwt beam="2">  1       -2 0.21777536E-01 0.15237814E+04</pdfrwt>
<totfact> 0.51374728E+00</totfact>
</mgrwt>
</event>
<event>
 6    1  0.1528034E-005  0.1462172E+04  0.7818608E-02  0.8910005E-01
         -1   -1    0    0    0  501 -0.00000000000E+00  0.00000000000E+00  0.41129150243E+03  0.41129150243E+03  0.00000000000E+00 0.  1.
          1   -1    0    0  501    0  0.00000000000E+00 -0.00000000000E+00 -0.12995331904E+04  0.12995331904E+04  0.00000000000E+00 0. -1.
         23    2    1    2    0    0  0.48840117524E+03 -0.52973867178E+03 -0.56952708616E+03  0.92295556296E+03  0.91252950520E+02 0.  0.
         11    1    3    3    0    0  0.11102800786E+03 -0.18157480625E+03 -0.16836493959E+03  0.27137314104E+03  0.00000000000E+00 0. -1.
        -11    1    3    3    0    0  0.37737316738E+03 -0.34816386553E+03 -0.40116214656E+03  0.65158242192E+03  0.00000000000E+00 0.  1.
         22    1    1    2    0    0 -0.48840117524E+03  0.52973867178E+03 -0.31871460180E+03  0.78786912984E+03  0.00000000000E+00 0.  1.
<mgrwt>
<rscale>  0 0.14621723E+04</rscale>
<asrwt>0</asrwt>
<pdfrwt beam="1">  1        1 0.19992818E+00 0.14621723E+04</pdfrwt>
<pdfrwt beam="2">  1       -1 0.63275616E-01 0.14621723E+04</pdfrwt>
<totfact> 0.22249900E+01</totfact>
</mgrwt>
</event>
<event>
 6    1  0.1528034E-005  0.2817927E+04  0.7818608E-02  0.8297724E-01
          1   -1    0    0  501    0  0.00000000000E+00  0.00000000000E+00  0.87844408939E+03  0.87844408939E+03  0.00000000000E+00 0. -1.
         -1   -1    0    0    0  501 -0.00000000000E+00 -0.00000000000E+00 -0.22598801861E+04  0.22598801861E+04  0.00000000000E+00 0.  1.
         23    2    1    2    0    0 -0.63729112144E+03  0.82755250188E+03 -0.17418045152E+04  0.20334041364E+04  0.99329229884E+02 0.  0.
         11    1    3    3    0    0 -0.33783286762E+03  0.50495880672E+03 -0.10633738950E+04  0.12246952615E+04  0.00000000000E+00 0. -1.
        -11    1    3    3    0    0 -0.29945825383E+03  0.32259369517E+03 -0.67843062013E+03  0.80870887486E+03  0.00000000000E+00 0.  1.
         22    1    1    2    0    0  0.63729112144E+03 -0.82755250188E+03  0.36036841844E+03  0.11049201391E+04  0.00000000000E+00 0. -1.
<mgrwt>
<rscale>  0 0.28179272E+04</rscale>
<asrwt>0</asrwt>
<pdfrwt beam="1">  1        1 0.13514525E+00 0.28179272E+04</pdfrwt>
<pdfrwt beam="2">  1       -1 0.34767387E+00 0.28179272E+04</pdfrwt>
<totfact> 0.26379167E-01</totfact>
</mgrwt>
</event>
<event>
 6    1  0.1528034E-005  0.4182337E+04  0.7818608E-02  0.7968741E-01
         -2   -1    0    0    0  501 -0.00000000000E+00  0.00000000000E+00  0.24839997296E+04  0.24839997296E+04  0.00000000000E+00 0.  1.
          2   -1    0    0  501    0  0.00000000000E+00 -0.00000000000E+00 -0.17604611151E+04  0.17604611151E+04  0.00000000000E+00 0. -1.
         23    2    1    2    0    0 -0.15747309969E+04 -0.13504810721E+04  0.10192449346E+03  0.20788244592E+04  0.86865936680E+02 0.  0.
         11    1    3    3    0    0 -0.61271619569E+03 -0.58115393782E+03  0.47251235412E+02  0.84580950287E+03  0.00000000000E+00 0. -1.
        -11    1    3    3    0    0 -0.96201480125E+03 -0.76932713427E+03  0.54673258052E+02  0.12330149563E+04  0.00000000000E+00 0.  1.
         22    1    1    2    0    0  0.15747309969E+04  0.13504810721E+04  0.62161412104E+03  0.21656363855E+04  0.00000000000E+00 0.  1.
<mgrwt>
<rscale>  0 0.41823366E+04</rscale>
<asrwt>0</asrwt>
<pdfrwt beam="1">  1        2 0.27084017E+00 0.41823366E+04</pdfrwt>
<pdfrwt beam="2">  1       -2 0.38215380E+00 0.41823366E+04</pdfrwt>
<totfact> 0.68396307E-02</totfact>
</mgrwt>
</event>
<event>
 6    1  0.1528034E-005  0.2741422E+04  0.7818608E-02  0.8321689E-01
          2   -1    0    0  501    0  0.00000000000E+00  0.00000000000E+00  0.39533944893E+04  0.39533944893E+04  0.00000000000E+00 0. -1.
         -2   -1    0    0    0  501 -0.00000000000E+00 -0.00000000000E+00 -0.47524961717E+03  0.47524961717E+03  0.00000000000E+00 0.  1.
         23    2    1    2    0    0  0.82718708294E+03  0.77055295828E+03  0.49303447046E+03  0.12366424708E+04  0.90616112895E+02 0.  0.
         11    1    3    3    0    0  0.33954197273E+03  0.34212788883E+03  0.25459673002E+03  0.54512359928E+03  0.00000000000E+00 0. -1.
        -11    1    3    3    0    0  0.48764511021E+03  0.42842506945E+03  0.23843774044E+03  0.69151887155E+03  0.00000000000E+00 0.  1.
         22    1    1    2    0    0 -0.82718708294E+03 -0.77055295828E+03  0.29851104017E+04  0.31920016357E+04  0.00000000000E+00 0. -1.
<mgrwt>
<rscale>  0 0.27414224E+04</rscale>
<asrwt>0</asrwt>
<pdfrwt beam="1">  1        2 0.60821452E+00 0.27414224E+04</pdfrwt>
<pdfrwt beam="2">  1       -2 0.73115328E-01 0.27414224E+04</pdfrwt>
<totfact> 0.55143752E-01</totfact>
</mgrwt>
</event>
<event>
 6    1  0.1528034E-005  0.7549853E+03  0.7818608E-02  0.9627562E-01
         -2   -1    0    0    0  501 -0.00000000000E+00  0.00000000000E+00  0.37628970359E+03  0.37628970359E+03  0.00000000000E+00 0.  1.
          2   -1    0    0  501    0  0.00000000000E+00 -0.00000000000E+00 -0.37869943509E+03  0.37869943509E+03  0.00000000000E+00 0. -1.
         23    2    1    2    0    0  0.14612345928E+03 -0.26411725132E+03  0.21620651145E+03  0.38229214449E+03  0.91060641091E+02 0.  0.
         11    1    3    3    0    0  0.13112854364E+03 -0.20125429179E+03  0.12577290243E+03  0.27113983091E+03  0.00000000000E+00 0. -1.
        -11    1    3    3    0    0  0.14994915639E+02 -0.62862959526E+02  0.90433609013E+02  0.11115231358E+03  0.00000000000E+00 0.  1.
         22    1    1    2    0    0 -0.14612345928E+03  0.26411725132E+03 -0.21861624295E+03  0.37269699418E+03  0.00000000000E+00 0. -1.
<mgrwt>
<rscale>  0 0.75498529E+03</rscale>
<asrwt>0</asrwt>
<pdfrwt beam="1">  1        2 0.58261452E-01 0.75498529E+03</pdfrwt>
<pdfrwt beam="2">  1       -2 0.57890723E-01 0.75498529E+03</pdfrwt>
<totfact> 0.23830117E+02</totfact>
</mgrwt>
</event>
<event>
 6    1  0.1528034E-005  0.1563871E+04  0.7818608E-02  0.8843056E-01
          1   -1    0    0  501    0  0.00000000000E+00  0.00000000000E+00  0.14378863111E+04  0.14378863111E+04  0.00000000000E+00 0. -1.
         -1   -1    0    0    0  501 -0.00000000000E+00 -0.00000000000E+00 -0.42522334982E+03  0.42522334982E+03  0.00000000000E+00 0.  1.
         23    2    1    2    0    0  0.57708745230E+03 -0.52324350508E+03  0.51522658414E+03  0.93884960957E+03  0.95741648056E+02 0.  0.
         11    1    3    3    0    0  0.33717468446E+03 -0.26915230440E+03  0.23754954100E+03  0.49250331495E+03  0.00000000000E+00 0. -1.
        -11    1    3    3    0    0  0.23991276784E+03 -0.25409120068E+03  0.27767704314E+03  0.44634629462E+03  0.00000000000E+00 0.  1.
         22    1    1    2    0    0 -0.57708745230E+03  0.52324350508E+03  0.49743637710E+03  0.92426005132E+03  0.00000000000E+00 0.  1.
<mgrwt>
<rscale>  0 0.15638706E+04</rscale>
<asrwt>0</asrwt>
<pdfrwt beam="1">  1        1 0.22121328E+00 0.15638706E+04</pdfrwt>
<pdfrwt beam="2">  1       -1 0.65418978E-01 0.15638706E+04</pdfrwt>
<totfact> 0.16473600E+01</totfact>
</mgrwt>
</event>
<event>
 6    1  0.1528034E-005  0.2768652E+04  0.7818608E-02  0.8313067E-01
         -1   -1    0    0    0  501 -0.00000000000E+00  0.00000000000E+00  0.65646507749E+03  0.65646507749E+03  0.00000000000E+00 0.  1.
          1   -1    0    0  501    0  0.00000000000E+00 -0.00000000000E+00 -0.29192095475E+04  0.29192095475E+04  0.00000000000E+00 0. -1.
         23    2    1    2    0    0  0.12877978784E+04  0.12588987226E+03 -0.17627807898E+04  0.21885065324E+04  0.88843085805E+02 0.  0.
         13    1    3    3    0    0  0.11237420779E+04  0.10829758607E+03 -0.15850088529E+04  0.19459644623E+04  0.00000000000E+00 0. -1.
        -13    1    3    3    0    0  0.16405580054E+03  0.17592286191E+02 -0.17777193690E+03  0.24254207011E+03  0.00000000000E+00 0.  1.
         22    1    1    2    0    0 -0.12877978784E+04 -0.12588987226E+03 -0.49996368020E+03  0.13871680926E+04  0.00000000000E+00 0.  1.
<mgrwt>
<rscale>  0 0.27686525E+04</rscale>
<asrwt>0</asrwt>
<pdfrwt beam="1">  1        1 0.44910916E+00 0.27686525E+04</pdfrwt>
<pdfrwt beam="2">  1       -1 0.10099463E+00 0.27686525E+04</pdfrwt>
<totfact> 0.55309243E-01</totfact>
</mgrwt>
</event>
<event>
 6    1  0.1528034E-005  0.2063764E+04  0.7818608E-02  0.8577376E-01
         -1   -1    0    0    0  501 -0.00000000000E+00  0.00000000000E+00  0.69171995114E+03  0.69171995114E+03  0.00000000000E+00 0.  1.
          1   -1    0    0  501    0  0.00000000000E+00 -0.00000000000E+00 -0.15393230443E+04  0.15393230443E+04  0.00000000000E+00 0. -1.
         23    2    1    2    0    0 -0.46145043225E+03  0.50327076892E+03  0.40865291136E+03  0.80121883941E+03  0.93469023686E+02 0.  0.
         11    1    3    3    0    0 -0.31609282436E+03  0.28845165621E+03  0.22557437868E+03  0.48373839200E+03  0.00000000000E+00 0.  1.
        -11    1    3    3    0    0 -0.14535760790E+03  0.21481911271E+03  0.18307853268E+03  0.31748044741E+03  0.00000000000E+00 0. -1.
         22    1    1    2    0    0  0.46145043225E+03 -0.50327076892E+03 -0.12562560045E+04  0.14298241560E+04  0.00000000000E+00 0. -1.
<mgrwt>
<rscale>  0 0.20637640E+04</rscale>
<asrwt>0</asrwt>
<pdfrwt beam="1">  1        1 0.23681893E+00 0.20637640E+04</pdfrwt>
<pdfrwt beam="2">  1       -1 0.10641845E+00 0.20637640E+04</pdfrwt>
<totfact> 0.46765475E+00</totfact>
</mgrwt>
</event>
<event>
 6    1  0.1528034E-005  0.2212295E+04  0.7818608E-02  0.8513328E-01
         -1   -1    0    0    0  501 -0.00000000000E+00  0.00000000000E+00  0.12476987556E+04  0.12476987556E+04  0.00000000000E+00 0.  1.
          1   -1    0    0  501    0  0.00000000000E+00 -0.00000000000E+00 -0.98065547447E+03  0.98065547447E+03  0.00000000000E+00 0. -1.
         23    2    1    2    0    0 -0.79213380653E+03  0.26209579741E+03 -0.59479991741E+03  0.10287943636E+04  0.91982206385E+02 0.  0.
         13    1    3    3    0    0 -0.53390630021E+03  0.13266877666E+03 -0.37422858101E+03  0.66536003228E+03  0.00000000000E+00 0.  1.
        -13    1    3    3    0    0 -0.25822750632E+03  0.12942702076E+03 -0.22057133639E+03  0.36343433129E+03  0.00000000000E+00 0. -1.
         22    1    1    2    0    0  0.79213380653E+03 -0.26209579741E+03  0.86184319854E+03  0.11995598665E+04  0.00000000000E+00 0.  1.
<mgrwt>
<rscale>  0 0.22122953E+04</rscale>
<asrwt>0</asrwt>
<pdfrwt beam="1">  1        1 0.15087007E+00 0.22122953E+04</pdfrwt>
<pdfrwt beam="2">  1       -1 0.19195365E+00 0.22122953E+04</pdfrwt>
<totfact> 0.24434218E+00</totfact>
</mgrwt>
</event>
<event>
 6    1  0.1528034E-005  0.2157817E+04  0.7818608E-02  0.8536193E-01
          1   -1    0    0  501    0  0.00000000000E+00  0.00000000000E+00  0.19029655617E+04  0.19029655617E+04  0.00000000000E+00 0. -1.
         -1   -1    0    0    0  501 -0.00000000000E+00 -0.00000000000E+00 -0.61169991877E+03  0.61169991877E+03  0.00000000000E+00 0.  1.
         23    2    1    2    0    0 -0.91698070070E+03  0.38523644861E+03  0.16624990682E+03  0.10130259987E+04  0.96550067987E+02 0.  0.
         11    1    3    3    0    0 -0.15711586426E+03  0.99212050224E+02  0.53165785042E+02  0.19327448463E+03  0.00000000000E+00 0.  1.
        -11    1    3    3    0    0 -0.75986483645E+03  0.28602439839E+03  0.11308412178E+03  0.81975151402E+03  0.00000000000E+00 0. -1.
         22    1    1    2    0    0  0.91698070070E+03 -0.38523644861E+03  0.11250157361E+04  0.15016394818E+04  0.00000000000E+00 0.  1.
<mgrwt>
<rscale>  0 0.21578173E+04</rscale>
<asrwt>0</asrwt>
<pdfrwt beam="1">  1        1 0.29276393E+00 0.21578173E+04</pdfrwt>
<pdfrwt beam="2">  1       -1 0.94107681E-01 0.21578173E+04</pdfrwt>
<totfact> 0.34702934E+00</totfact>
</mgrwt>
</event>
<event>
 6    1  0.1528034E-005  0.2238387E+04  0.7818608E-02  0.8502618E-01
         -1   -1    0    0    0  501 -0.00000000000E+00  0.00000000000E+00  0.91839867063E+03  0.91839867063E+03  0.00000000000E+00 0.  1.
          1   -1    0    0  501    0  0.00000000000E+00 -0.00000000000E+00 -0.13638896665E+04  0.13638896665E+04  0.00000000000E+00 0. -1.
         23    2    1    2    0    0 -0.33919227421E+03  0.10643255627E+04 -0.19787346205E+03  0.11381053337E+04  0.91046917380E+02 0.  0.
         11    1    3    3    0    0 -0.32482939357E+03  0.95718749907E+03 -0.19797982460E+03  0.10300087642E+04  0.00000000000E+00 0.  1.
        -11    1    3    3    0    0 -0.14362880642E+02  0.10713806366E+03  0.10636254487E+00  0.10809656950E+03  0.00000000000E+00 0. -1.
         22    1    1    2    0    0  0.33919227421E+03 -0.10643255627E+04 -0.24761753381E+03  0.11441830035E+04  0.00000000000E+00 0. -1.
<mgrwt>
<rscale>  0 0.22383873E+04</rscale>
<asrwt>0</asrwt>
<pdfrwt beam="1">  1        1 0.20982918E+00 0.22383873E+04</pdfrwt>
<pdfrwt beam="2">  1       -1 0.14129210E+00 0.22383873E+04</pdfrwt>
<totfact> 0.30292903E+00</totfact>
</mgrwt>
</event>
<event>
 6    1  0.1528034E-005  0.1264825E+04  0.7818608E-02  0.9057934E-01
         -3   -1    0    0    0  501 -0.00000000000E+00  0.00000000000E+00  0.10410107586E+03  0.10410107586E+03  0.00000000000E+00 0.  1.
          3   -1    0    0  501    0  0.00000000000E+00 -0.00000000000E+00 -0.38418983224E+04  0.38418983224E+04  0.00000000000E+00 0. -1.
         23    2    1    2    0    0  0.48111908384E+03  0.39385976239E+03 -0.15839804456E+04  0.17042304768E+04  0.93842318438E+02 0.  0.
         11    1    3    3    0    0  0.41031941282E+03  0.32758986998E+03 -0.12338555424E+04  0.13409238020E+04  0.00000000000E+00 0. -1.
        -11    1    3    3    0    0  0.70799671022E+02  0.66269892405E+02 -0.35012490325E+03  0.36330667477E+03  0.00000000000E+00 0.  1.
         22    1    1    2    0    0 -0.48111908384E+03 -0.39385976239E+03 -0.21538168009E+04  0.22417689215E+04  0.00000000000E+00 0. -1.
<mgrwt>
<rscale>  0 0.12648253E+04</rscale>
<asrwt>0</asrwt>
<pdfrwt beam="1">  1        3 0.59106118E+00 0.12648253E+04</pdfrwt>
<pdfrwt beam="2">  1       -3 0.16015553E-01 0.12648253E+04</pdfrwt>
<totfact> 0.11316785E-01</totfact>
</mgrwt>
</event>
<event>
 6    1  0.1528034E-005  0.1292388E+04  0.7818608E-02  0.9035623E-01
          2   -1    0    0  501    0  0.00000000000E+00  0.00000000000E+00  0.78901224416E+03  0.78901224416E+03  0.00000000000E+00 0.  1.
         -2   -1    0    0    0  501 -0.00000000000E+00 -0.00000000000E+00 -0.52922724621E+03  0.52922724621E+03  0.00000000000E+00 0. -1.
         23    2    1    2    0    0 -0.24884810202E+03  0.57092033840E+03  0.29339940972E+03  0.69453656481E+03  0.91773719321E+02 0.  0.
         11    1    3    3    0    0 -0.18534893252E+03  0.34274934293E+03  0.14915638082E+03  0.41722771337E+03  0.00000000000E+00 0. -1.
        -11    1    3    3    0    0 -0.63499169501E+02  0.22817099546E+03  0.14424302890E+03  0.27730885144E+03  0.00000000000E+00 0.  1.
         22    1    1    2    0    0  0.24884810202E+03 -0.57092033840E+03 -0.33614411771E+02  0.62370292556E+03  0.00000000000E+00 0. -1.
<mgrwt>
<rscale>  0 0.12923881E+04</rscale>
<asrwt>0</asrwt>
<pdfrwt beam="1">  1        2 0.12138650E+00 0.12923881E+04</pdfrwt>
<pdfrwt beam="2">  1       -2 0.81419576E-01 0.12923881E+04</pdfrwt>
<totfact> 0.45731033E+01</totfact>
</mgrwt>
</event>
<event>
 6    1  0.1725788E-005  0.2710695E+04  0.7818608E-02  0.8331543E-01
         -2   -1    0    0    0  501 -0.00000000000E+00  0.00000000000E+00  0.99322903125E+03  0.99322903125E+03  0.00000000000E+00 0.  1.
          2   -1    0    0  501    0  0.00000000000E+00 -0.00000000000E+00 -0.18494892139E+04  0.18494892139E+04  0.00000000000E+00 0. -1.
         23    2    1    2    0    0 -0.53172079210E+03 -0.80231702134E+02 -0.17315808455E+04  0.18154157632E+04  0.90543040038E+02 0.  0.
         11    1    3    3    0    0 -0.25149120537E+03  0.76949148898E+01 -0.79992125990E+03  0.83855891870E+03  0.00000000000E+00 0. -1.
        -11    1    3    3    0    0 -0.28022958672E+03 -0.87926617024E+02 -0.93165958556E+03  0.97685684449E+03  0.00000000000E+00 0.  1.
         22    1    1    2    0    0  0.53172079210E+03  0.80231702134E+02  0.87532066278E+03  0.10273024820E+04  0.00000000000E+00 0.  1.
<mgrwt>
<rscale>  0 0.27106947E+04</rscale>
<asrwt>0</asrwt>
<pdfrwt beam="1">  1        2 0.28453680E+00 0.27106947E+04</pdfrwt>
<pdfrwt beam="2">  1       -2 0.15280447E+00 0.27106947E+04</pdfrwt>
<totfact> 0.20251567E+00</totfact>
</mgrwt>
</event>
<event>
 6    1  0.1528034E-005  0.3106001E+04  0.7818608E-02  0.8214093E-01
         -2   -1    0    0    0  501 -0.00000000000E+00  0.00000000000E+00  0.20604971946E+04  0.20604971946E+04  0.00000000000E+00 0.  1.
          2   -1    0    0  501    0  0.00000000000E+00 -0.00000000000E+00 -0.11704994210E+04  0.11704994210E+04  0.00000000000E+00 0. -1.
         23    2    1    2    0    0 -0.43429638314E+03  0.10603018407E+04  0.15338519312E+04  0.19166901377E+04  0.90255167018E+02 0.  0.
         13    1    3    3    0    0 -0.19352587735E+03  0.53988115264E+03  0.70495789469E+03  0.90878465957E+03  0.00000000000E+00 0. -1.
        -13    1    3    3    0    0 -0.24077050579E+03  0.52042068810E+03  0.82889403649E+03  0.10079054781E+04  0.00000000000E+00 0.  1.
         22    1    1    2    0    0  0.43429638314E+03 -0.10603018407E+04 -0.64385415757E+03  0.13143064780E+04  0.00000000000E+00 0. -1.
<mgrwt>
<rscale>  0 0.31060011E+04</rscale>
<asrwt>0</asrwt>
<pdfrwt beam="1">  1        2 0.18007683E+00 0.31060011E+04</pdfrwt>
<pdfrwt beam="2">  1       -2 0.31699957E+00 0.31060011E+04</pdfrwt>
<totfact> 0.41830179E-01</totfact>
</mgrwt>
</event>
<event>
 6    1  0.1528034E-005  0.2590245E+04  0.7818608E-02  0.8371522E-01
          1   -1    0    0  501    0  0.00000000000E+00  0.00000000000E+00  0.29142624785E+04  0.29142624785E+04  0.00000000000E+00 0. -1.
         -1   -1    0    0    0  501 -0.00000000000E+00 -0.00000000000E+00 -0.57556328106E+03  0.57556328106E+03  0.00000000000E+00 0.  1.
         23    2    1    2    0    0 -0.60137809417E+03 -0.10581331212E+04  0.58044946575E+03  0.13514283612E+04  0.90198220435E+02 0.  0.
         11    1    3    3    0    0 -0.45286505039E+03 -0.76943351822E+03  0.38343206681E+03  0.97166601396E+03  0.00000000000E+00 0. -1.
        -11    1    3    3    0    0 -0.14851304378E+03 -0.28869960294E+03  0.19701739893E+03  0.37976234726E+03  0.00000000000E+00 0.  1.
         22    1    1    2    0    0  0.60137809417E+03  0.10581331212E+04  0.17582497317E+04  0.21383973984E+04  0.00000000000E+00 0.  1.
<mgrwt>
<rscale>  0 0.25902451E+04</rscale>
<asrwt>0</asrwt>
<pdfrwt beam="1">  1        1 0.44834807E+00 0.25902451E+04</pdfrwt>
<pdfrwt beam="2">  1       -1 0.88548199E-01 0.25902451E+04</pdfrwt>
<totfact> 0.76121461E-01</totfact>
</mgrwt>
</event>
<event>
 6    1  0.1528034E-005  0.1734782E+04  0.7818608E-02  0.8741772E-01
         -1   -1    0    0    0  501 -0.00000000000E+00  0.00000000000E+00  0.14003134123E+04  0.14003134123E+04  0.00000000000E+00 0.  1.
          1   -1    0    0  501    0  0.00000000000E+00 -0.00000000000E+00 -0.53728483152E+03  0.53728483152E+03  0.00000000000E+00 0. -1.
         23    2    1    2    0    0 -0.85036277868E+03 -0.13923483612E+03  0.51876870710E+03  0.10096876578E+04  0.88572004627E+02 0.  0.
         11    1    3    3    0    0 -0.75642019376E+03 -0.15099442182E+03  0.45506600662E+03  0.89557573399E+03  0.00000000000E+00 0.  1.
        -11    1    3    3    0    0 -0.93942584920E+02  0.11759585701E+02  0.63702700481E+02  0.11411192385E+03  0.00000000000E+00 0. -1.
         22    1    1    2    0    0  0.85036277868E+03  0.13923483612E+03  0.34425987368E+03  0.92791058598E+03  0.00000000000E+00 0. -1.
<mgrwt>
<rscale>  0 0.17347820E+04</rscale>
<asrwt>0</asrwt>
<pdfrwt beam="1">  1        1 0.82659205E-01 0.17347820E+04</pdfrwt>
<pdfrwt beam="2">  1       -1 0.21543283E+00 0.17347820E+04</pdfrwt>
<totfact> 0.44925728E+00</totfact>
</mgrwt>
</event>
<event>
 6    1  0.1528034E-005  0.1358393E+04  0.7818608E-02  0.8984499E-01
         -2   -1    0    0    0  501 -0.00000000000E+00  0.00000000000E+00  0.40107777232E+03  0.40107777232E+03  0.00000000000E+00 0.  1.
          2   -1    0    0  501    0  0.00000000000E+00 -0.00000000000E+00 -0.11501700070E+04  0.11501700070E+04  0.00000000000E+00 0. -1.
         23    2    1    2    0    0 -0.12181717565E+03 -0.64151194078E+03 -0.17584255007E+03  0.68234491054E+03  0.91087760333E+02 0.  0.
         13    1    3    3    0    0 -0.11039200434E+03 -0.59456206051E+03 -0.18656737642E+03  0.63284897438E+03  0.00000000000E+00 0. -1.
        -13    1    3    3    0    0 -0.11425171303E+02 -0.46949880269E+02  0.10724826358E+02  0.49495936167E+02  0.00000000000E+00 0.  1.
         22    1    1    2    0    0  0.12181717565E+03  0.64151194078E+03 -0.57324968460E+03  0.86890286876E+03  0.00000000000E+00 0. -1.
<mgrwt>
<rscale>  0 0.13583926E+04</rscale>
<asrwt>0</asrwt>
<pdfrwt beam="1">  1        2 0.17694923E+00 0.13583926E+04</pdfrwt>
<pdfrwt beam="2">  1       -2 0.61704273E-01 0.13583926E+04</pdfrwt>
<totfact> 0.48357416E+01</totfact>
</mgrwt>
</event>
<event>
 6    1  0.1528034E-005  0.3037501E+04  0.7818608E-02  0.8233103E-01
         -2   -1    0    0    0  501 -0.00000000000E+00  0.00000000000E+00  0.90258250287E+03  0.90258250287E+03  0.00000000000E+00 0.  1.
          2   -1    0    0  501    0  0.00000000000E+00 -0.00000000000E+00 -0.25555595999E+04  0.25555595999E+04  0.00000000000E+00 0. -1.
         23    2    1    2    0    0 -0.32743560074E+03 -0.12433751519E+04 -0.17446377583E+04  0.21691124220E+04  0.89955268897E+02 0.  0.
         13    1    3    3    0    0 -0.31176692384E+03 -0.10645823310E+04 -0.15124921407E+04  0.18756776455E+04  0.00000000000E+00 0.  1.
        -13    1    3    3    0    0 -0.15668676894E+02 -0.17879282097E+03 -0.23214561767E+03  0.29343477652E+03  0.00000000000E+00 0. -1.
         22    1    1    2    0    0  0.32743560074E+03  0.12433751519E+04  0.91660661285E+02  0.12890296808E+04  0.00000000000E+00 0.  1.
<mgrwt>
<rscale>  0 0.30375012E+04</rscale>
<asrwt>0</asrwt>
<pdfrwt beam="1">  1        2 0.39316302E+00 0.30375012E+04</pdfrwt>
<pdfrwt beam="2">  1       -2 0.13885885E+00 0.30375012E+04</pdfrwt>
<totfact> 0.10114267E+00</totfact>
</mgrwt>
</event>
<event>
 6    1  0.1528034E-005  0.2902801E+04  0.7818608E-02  0.8272045E-01
         -2   -1    0    0    0  501 -0.00000000000E+00  0.00000000000E+00  0.51440852573E+03  0.51440852573E+03  0.00000000000E+00 0.  1.
          2   -1    0    0  501    0  0.00000000000E+00 -0.00000000000E+00 -0.40951176845E+04  0.40951176845E+04  0.00000000000E+00 0. -1.
         23    2    1    2    0    0  0.59005054815E+03  0.27712253229E+03  0.26455737107E+03  0.70939400313E+03  0.91064273003E+02 0.  0.
         13    1    3    3    0    0  0.17230093980E+03  0.88193326855E+02  0.35180668508E+02  0.19673168579E+03  0.00000000000E+00 0.  1.
        -13    1    3    3    0    0  0.41774960835E+03  0.18892920543E+03  0.22937670256E+03  0.51266231734E+03  0.00000000000E+00 0. -1.
         22    1    1    2    0    0 -0.59005054815E+03 -0.27712253229E+03 -0.38452665299E+04  0.39001322071E+04  0.00000000000E+00 0. -1.
<mgrwt>
<rscale>  0 0.29028010E+04</rscale>
<asrwt>0</asrwt>
<pdfrwt beam="1">  1        2 0.63001814E+00 0.29028010E+04</pdfrwt>
<pdfrwt beam="2">  1       -2 0.79139769E-01 0.29028010E+04</pdfrwt>
<totfact> 0.34915471E-01</totfact>
</mgrwt>
</event>
<event>
 6    1  0.1528034E-005  0.1182760E+04  0.7818608E-02  0.9128082E-01
         -2   -1    0    0    0  501 -0.00000000000E+00  0.00000000000E+00  0.27438005859E+03  0.27438005859E+03  0.00000000000E+00 0.  1.
          2   -1    0    0  501    0  0.00000000000E+00 -0.00000000000E+00 -0.12746199399E+04  0.12746199399E+04  0.00000000000E+00 0. -1.
         23    2    1    2    0    0  0.12182090710E+03  0.49356631561E+03 -0.88984030031E+03  0.10287730204E+04  0.90056238379E+02 0.  0.
         11    1    3    3    0    0  0.14180240469E+02  0.24201801655E+03 -0.43399308133E+03  0.49711547370E+03  0.00000000000E+00 0. -1.
        -11    1    3    3    0    0  0.10764066663E+03  0.25154829906E+03 -0.45584721898E+03  0.53165754666E+03  0.00000000000E+00 0.  1.
         22    1    1    2    0    0 -0.12182090710E+03 -0.49356631561E+03 -0.11039958104E+03  0.52022697816E+03  0.00000000000E+00 0.  1.
<mgrwt>
<rscale>  0 0.11827600E+04</rscale>
<asrwt>0</asrwt>
<pdfrwt beam="1">  1        2 0.19609538E+00 0.11827600E+04</pdfrwt>
<pdfrwt beam="2">  1       -2 0.42212315E-01 0.11827600E+04</pdfrwt>
<totfact> 0.89834353E+01</totfact>
</mgrwt>
</event>
<event>
 6    1  0.1528034E-005  0.3843746E+04  0.7818608E-02  0.8036832E-01
         -2   -1    0    0    0  501 -0.00000000000E+00  0.00000000000E+00  0.19445596463E+04  0.19445596463E+04  0.00000000000E+00 0.  1.
          2   -1    0    0  501    0  0.00000000000E+00 -0.00000000000E+00 -0.18994515215E+04  0.18994515215E+04  0.00000000000E+00 0. -1.
         23    2    1    2    0    0 -0.18502132318E+04 -0.46492484843E+03 -0.20187822714E+03  0.19203567352E+04  0.87011806003E+02 0.  0.
         13    1    3    3    0    0 -0.15710754434E+04 -0.42143266578E+03 -0.18895848588E+03  0.16375557548E+04  0.00000000000E+00 0. -1.
        -13    1    3    3    0    0 -0.27913778834E+03 -0.43492182646E+02 -0.12919741267E+02  0.28280098045E+03  0.00000000000E+00 0.  1.
         22    1    1    2    0    0  0.18502132318E+04  0.46492484843E+03  0.24698635199E+03  0.19236544325E+04  0.00000000000E+00 0. -1.
<mgrwt>
<rscale>  0 0.38437465E+04</rscale>
<asrwt>0</asrwt>
<pdfrwt beam="1">  1        2 0.29222331E+00 0.38437465E+04</pdfrwt>
<pdfrwt beam="2">  1       -2 0.29916302E+00 0.38437465E+04</pdfrwt>
<totfact> 0.19524867E-01</totfact>
</mgrwt>
</event>
<event>
 6    1  0.1687854E-005  0.2849701E+04  0.7818608E-02  0.8288002E-01
         -2   -1    0    0    0  501 -0.00000000000E+00  0.00000000000E+00  0.20375555503E+04  0.20375555503E+04  0.00000000000E+00 0.  1.
          2   -1    0    0  501    0  0.00000000000E+00 -0.00000000000E+00 -0.99638920905E+03  0.99638920905E+03  0.00000000000E+00 0. -1.
         23    2    1    2    0    0 -0.59755663318E+03 -0.67426241369E+03 -0.65206754845E+03  0.11159393533E+04  0.91786818911E+02 0.  0.
         11    1    3    3    0    0 -0.37358261646E+03 -0.46014686017E+03 -0.38405495815E+03  0.70625584255E+03  0.00000000000E+00 0. -1.
        -11    1    3    3    0    0 -0.22397401672E+03 -0.21411555351E+03 -0.26801259031E+03  0.40968351076E+03  0.00000000000E+00 0.  1.
         22    1    1    2    0    0  0.59755663318E+03  0.67426241369E+03  0.16932338897E+04  0.19180054060E+04  0.00000000000E+00 0.  1.
<mgrwt>
<rscale>  0 0.28497006E+04</rscale>
<asrwt>0</asrwt>
<pdfrwt beam="1">  1        2 0.15329065E+00 0.28497006E+04</pdfrwt>
<pdfrwt beam="2">  1       -2 0.31347008E+00 0.28497006E+04</pdfrwt>
<totfact> 0.57652988E-01</totfact>
</mgrwt>
</event>
<event>
 6    1  0.1528034E-005  0.2642514E+04  0.7818608E-02  0.8353902E-01
          1   -1    0    0  501    0  0.00000000000E+00  0.00000000000E+00  0.16285437821E+04  0.16285437821E+04  0.00000000000E+00 0. -1.
         -1   -1    0    0    0  501 -0.00000000000E+00 -0.00000000000E+00 -0.10719514362E+04  0.10719514362E+04  0.00000000000E+00 0.  1.
         23    2    1    2    0    0  0.42418994286E+03 -0.49965626578E+03 -0.89206964657E+03  0.11104590364E+04  0.87963205583E+02 0.  0.
         11    1    3    3    0    0  0.62875919006E+02 -0.79112764888E+02 -0.19640648384E+03  0.22087941880E+03  0.00000000000E+00 0. -1.
        -11    1    3    3    0    0  0.36131402386E+03 -0.42054350090E+03 -0.69566316274E+03  0.88957961756E+03  0.00000000000E+00 0.  1.
         22    1    1    2    0    0 -0.42418994286E+03  0.49965626578E+03  0.14486619924E+04  0.15900361819E+04  0.00000000000E+00 0. -1.
<mgrwt>
<rscale>  0 0.26425138E+04</rscale>
<asrwt>0</asrwt>
<pdfrwt beam="1">  1        1 0.25054520E+00 0.26425138E+04</pdfrwt>
<pdfrwt beam="2">  1       -1 0.16491560E+00 0.26425138E+04</pdfrwt>
<totfact> 0.12561757E+00</totfact>
</mgrwt>
</event>
<event>
 6    1  0.1528034E-005  0.3522788E+04  0.7818608E-02  0.8108411E-01
         -3   -1    0    0    0  501 -0.00000000000E+00  0.00000000000E+00  0.15002789389E+04  0.15002789389E+04  0.00000000000E+00 0. -1.
          3   -1    0    0  501    0  0.00000000000E+00 -0.00000000000E+00 -0.20679548833E+04  0.20679548833E+04  0.00000000000E+00 0.  1.
         23    2    1    2    0    0 -0.17459717809E+04  0.24284823340E+02 -0.50910868360E+03  0.18211112346E+04  0.90814451717E+02 0.  0.
         13    1    3    3    0    0 -0.11039155313E+04  0.38386745523E+02 -0.36059376302E+03  0.11619513348E+04  0.00000000000E+00 0. -1.
        -13    1    3    3    0    0 -0.64205624961E+03 -0.14101922183E+02 -0.14851492058E+03  0.65915989980E+03  0.00000000000E+00 0.  1.
         22    1    1    2    0    0  0.17459717809E+04 -0.24284823340E+02 -0.58567260786E+02  0.17471225877E+04  0.00000000000E+00 0. -1.
<mgrwt>
<rscale>  0 0.35227882E+04</rscale>
<asrwt>0</asrwt>
<pdfrwt beam="1">  1        3 0.31814690E+00 0.35227882E+04</pdfrwt>
<pdfrwt beam="2">  1       -3 0.23081214E+00 0.35227882E+04</pdfrwt>
<totfact> 0.61740141E-03</totfact>
</mgrwt>
</event>
<event>
 6    1  0.1528034E-005  0.1444567E+04  0.7818608E-02  0.8922176E-01
          2   -1    0    0  501    0  0.00000000000E+00  0.00000000000E+00  0.19844824578E+04  0.19844824578E+04  0.00000000000E+00 0. -1.
         -2   -1    0    0    0  501 -0.00000000000E+00 -0.00000000000E+00 -0.26288636043E+03  0.26288636043E+03  0.00000000000E+00 0.  1.
         23    2    1    2    0    0 -0.57100438226E+03  0.58425714058E+02  0.19042824952E+03  0.61215184580E+03  0.94907299372E+02 0.  0.
         13    1    3    3    0    0 -0.47037722296E+03  0.69596645912E+02  0.18670014716E+03  0.51083790966E+03  0.00000000000E+00 0.  1.
        -13    1    3    3    0    0 -0.10062715931E+03 -0.11170931855E+02  0.37281023616E+01  0.10131393614E+03  0.00000000000E+00 0. -1.
         22    1    1    2    0    0  0.57100438226E+03 -0.58425714058E+02  0.15311678479E+04  0.16352169724E+04  0.00000000000E+00 0. -1.
<mgrwt>
<rscale>  0 0.14445669E+04</rscale>
<asrwt>0</asrwt>
<pdfrwt beam="1">  1        2 0.30530498E+00 0.14445669E+04</pdfrwt>
<pdfrwt beam="2">  1       -2 0.40444057E-01 0.14445669E+04</pdfrwt>
<totfact> 0.38284533E+01</totfact>
</mgrwt>
</event>
<event>
 6    1  0.1528034E-005  0.1971074E+04  0.7818608E-02  0.8620265E-01
         -2   -1    0    0    0  501 -0.00000000000E+00  0.00000000000E+00  0.70159817033E+03  0.70159817033E+03  0.00000000000E+00 0. -1.
          2   -1    0    0  501    0  0.00000000000E+00 -0.00000000000E+00 -0.13843869091E+04  0.13843869091E+04  0.00000000000E+00 0.  1.
         23    2    1    2    0    0  0.35574666833E+03  0.10363015151E+01 -0.13123953917E+04  0.13628244448E+04  0.91389481984E+02 0.  0.
         13    1    3    3    0    0  0.17462484603E+03  0.33973974739E+02 -0.76070210754E+03  0.78122708877E+03  0.00000000000E+00 0. -1.
        -13    1    3    3    0    0  0.18112182230E+03 -0.32937673224E+02 -0.55169328414E+03  0.58159735608E+03  0.00000000000E+00 0.  1.
         22    1    1    2    0    0 -0.35574666833E+03 -0.10363015151E+01  0.62960665294E+03  0.72316063456E+03  0.00000000000E+00 0. -1.
<mgrwt>
<rscale>  0 0.19710741E+04</rscale>
<asrwt>0</asrwt>
<pdfrwt beam="1">  1        2 0.21298260E+00 0.19710741E+04</pdfrwt>
<pdfrwt beam="2">  1       -2 0.10793818E+00 0.19710741E+04</pdfrwt>
<totfact> 0.94631731E+00</totfact>
</mgrwt>
</event>
<event>
 6    1  0.1528034E-005  0.4593641E+04  0.7818608E-02  0.7894445E-01
         -2   -1    0    0    0  501 -0.00000000000E+00  0.00000000000E+00  0.13164043148E+04  0.13164043148E+04  0.00000000000E+00 0. -1.
          2   -1    0    0  501    0  0.00000000000E+00 -0.00000000000E+00 -0.40074196406E+04  0.40074196406E+04  0.00000000000E+00 0.  1.
         23    2    1    2    0    0  0.37280455237E+03 -0.10745916955E+04 -0.36574268997E+04  0.38312818701E+04  0.90657023121E+02 0.  0.
         11    1    3    3    0    0  0.26881526247E+03 -0.72096951062E+03 -0.25990504052E+04  0.27105574499E+04  0.00000000000E+00 0.  1.
        -11    1    3    3    0    0  0.10398928990E+03 -0.35362218483E+03 -0.10583764945E+04  0.11207244202E+04  0.00000000000E+00 0. -1.
         22    1    1    2    0    0 -0.37280455237E+03  0.10745916955E+04  0.96641157391E+03  0.14925420853E+04  0.00000000000E+00 0. -1.
<mgrwt>
<rscale>  0 0.45936410E+04</rscale>
<asrwt>0</asrwt>
<pdfrwt beam="1">  1        2 0.61652608E+00 0.45936410E+04</pdfrwt>
<pdfrwt beam="2">  1       -2 0.20252375E+00 0.45936410E+04</pdfrwt>
<totfact> 0.32344218E-02</totfact>
</mgrwt>
</event>
<event>
 6    1  0.1528034E-005  0.2343273E+04  0.7818608E-02  0.8461052E-01
         -1   -1    0    0    0  501 -0.00000000000E+00  0.00000000000E+00  0.10014772691E+04  0.10014772691E+04  0.00000000000E+00 0.  1.
          1   -1    0    0  501    0  0.00000000000E+00 -0.00000000000E+00 -0.13707075888E+04  0.13707075888E+04  0.00000000000E+00 0. -1.
         23    2    1    2    0    0  0.73425723070E+03  0.24824300045E+03 -0.10720393440E+04  0.13259063134E+04  0.89447910228E+02 0.  0.
         13    1    3    3    0    0  0.18325304140E+03  0.24878839011E+02 -0.27944076582E+03  0.33509368155E+03  0.00000000000E+00 0.  1.
        -13    1    3    3    0    0  0.55100418931E+03  0.22336416144E+03 -0.79259857820E+03  0.99081263184E+03  0.00000000000E+00 0. -1.
         22    1    1    2    0    0 -0.73425723070E+03 -0.24824300045E+03  0.70280902427E+03  0.10462785445E+04  0.00000000000E+00 0.  1.
<mgrwt>
<rscale>  0 0.23432733E+04</rscale>
<asrwt>0</asrwt>
<pdfrwt beam="1">  1        1 0.21087809E+00 0.23432733E+04</pdfrwt>
<pdfrwt beam="2">  1       -1 0.15407343E+00 0.23432733E+04</pdfrwt>
<totfact> 0.23538633E+00</totfact>
</mgrwt>
</event>
<event>
 6    1  0.1528034E-005  0.2270939E+04  0.7818608E-02  0.8489469E-01
          1   -1    0    0  501    0  0.00000000000E+00  0.00000000000E+00  0.11270637419E+04  0.11270637419E+04  0.00000000000E+00 0. -1.
         -1   -1    0    0    0  501 -0.00000000000E+00 -0.00000000000E+00 -0.11439375924E+04  0.11439375924E+04  0.00000000000E+00 0.  1.
         23    2    1    2    0    0  0.32623170276E+03 -0.10601175984E+04  0.22574341347E+03  0.11355985058E+04  0.91364278097E+02 0.  0.
         11    1    3    3    0    0  0.28505685929E+03 -0.84080562226E+03  0.15301897272E+03  0.90090305442E+03  0.00000000000E+00 0. -1.
        -11    1    3    3    0    0  0.41174843475E+02 -0.21931197614E+03  0.72724440744E+02  0.23469545137E+03  0.00000000000E+00 0.  1.
         22    1    1    2    0    0 -0.32623170276E+03  0.10601175984E+04 -0.24261726399E+03  0.11354028286E+04  0.00000000000E+00 0.  1.
<mgrwt>
<rscale>  0 0.22709386E+04</rscale>
<asrwt>0</asrwt>
<pdfrwt beam="1">  1        1 0.17339442E+00 0.22709386E+04</pdfrwt>
<pdfrwt beam="2">  1       -1 0.17599040E+00 0.22709386E+04</pdfrwt>
<totfact> 0.24391857E+00</totfact>
</mgrwt>
</event>
<event>
 6    1  0.1528034E-005  0.2336505E+04  0.7818608E-02  0.8463665E-01
         -2   -1    0    0    0  501 -0.00000000000E+00  0.00000000000E+00  0.63654445380E+03  0.63654445380E+03  0.00000000000E+00 0.  1.
          2   -1    0    0  501    0  0.00000000000E+00 -0.00000000000E+00 -0.21440981859E+04  0.21440981859E+04  0.00000000000E+00 0. -1.
         23    2    1    2    0    0  0.13997988383E+03 -0.41682524793E+02 -0.21321577516E+04  0.21391896158E+04  0.93293805086E+02 0.  0.
         13    1    3    3    0    0  0.11289652988E+03 -0.70398424819E+02 -0.17247999294E+04  0.17299238022E+04  0.00000000000E+00 0. -1.
        -13    1    3    3    0    0  0.27083353944E+02  0.28715900026E+02 -0.40735782214E+03  0.40926581367E+03  0.00000000000E+00 0.  1.
         22    1    1    2    0    0 -0.13997988383E+03  0.41682524793E+02  0.62460401945E+03  0.64145302390E+03  0.00000000000E+00 0.  1.
<mgrwt>
<rscale>  0 0.23365049E+04</rscale>
<asrwt>0</asrwt>
<pdfrwt beam="1">  1        2 0.32986126E+00 0.23365049E+04</pdfrwt>
<pdfrwt beam="2">  1       -2 0.97929917E-01 0.23365049E+04</pdfrwt>
<totfact> 0.43541800E+00</totfact>
</mgrwt>
</event>
<event>
 6    1  0.1528034E-005  0.4869479E+04  0.7818608E-02  0.7848963E-01
          2   -1    0    0  501    0  0.00000000000E+00  0.00000000000E+00  0.39902083691E+04  0.39902083691E+04  0.00000000000E+00 0. -1.
         -2   -1    0    0    0  501 -0.00000000000E+00 -0.00000000000E+00 -0.14856259159E+04  0.14856259159E+04  0.00000000000E+00 0.  1.
         23    2    1    2    0    0  0.10915547061E+04 -0.14692707302E+04 -0.55120503682E+03  0.19138004082E+04  0.92503268538E+02 0.  0.
         11    1    3    3    0    0  0.50215965647E+03 -0.73622373926E+03 -0.23782535720E+03  0.92236143423E+03  0.00000000000E+00 0. -1.
        -11    1    3    3    0    0  0.58939504965E+03 -0.73304699099E+03 -0.31337967963E+03  0.99143897399E+03  0.00000000000E+00 0.  1.
         22    1    1    2    0    0 -0.10915547061E+04  0.14692707302E+04  0.30557874900E+04  0.35620338768E+04  0.00000000000E+00 0. -1.
<mgrwt>
<rscale>  0 0.48694792E+04</rscale>
<asrwt>0</asrwt>
<pdfrwt beam="1">  1        2 0.61387821E+00 0.48694792E+04</pdfrwt>
<pdfrwt beam="2">  1       -2 0.22855783E+00 0.48694792E+04</pdfrwt>
<totfact> 0.22273890E-02</totfact>
</mgrwt>
</event>
<event>
 6    1  0.1528034E-005  0.1471113E+04  0.7818608E-02  0.8903893E-01
         -2   -1    0    0    0  501 -0.00000000000E+00  0.00000000000E+00  0.78912206541E+03  0.78912206541E+03  0.00000000000E+00 0.  1.
          2   -1    0    0  501    0  0.00000000000E+00 -0.00000000000E+00 -0.68562719586E+03  0.68562719586E+03  0.00000000000E+00 0. -1.
         23    2    1    2    0    0  0.36636778363E+02 -0.65142852616E+03  0.38599125991E+03  0.76376009905E+03  0.92945456852E+02 0.  0.
         13    1    3    3    0    0 -0.12099001866E+02 -0.20159336556E+03  0.16190589778E+03  0.25884317766E+03  0.00000000000E+00 0. -1.
        -13    1    3    3    0    0  0.48735780229E+02 -0.44983516060E+03  0.22408536213E+03  0.50491692139E+03  0.00000000000E+00 0.  1.
         22    1    1    2    0    0 -0.36636778363E+02  0.65142852616E+03 -0.28249639036E+03  0.71098916222E+03  0.00000000000E+00 0. -1.
<mgrwt>
<rscale>  0 0.14711133E+04</rscale>
<asrwt>0</asrwt>
<pdfrwt beam="1">  1        2 0.10548111E+00 0.14711133E+04</pdfrwt>
<pdfrwt beam="2">  1       -2 0.12140339E+00 0.14711133E+04</pdfrwt>
<totfact> 0.21005332E+01</totfact>
</mgrwt>
</event>
<event>
 6    1  0.1528034E-005  0.5572072E+04  0.7818608E-02  0.7745849E-01
          1   -1    0    0  501    0  0.00000000000E+00  0.00000000000E+00  0.30803977581E+04  0.30803977581E+04  0.00000000000E+00 0. -1.
         -1   -1    0    0    0  501 -0.00000000000E+00 -0.00000000000E+00 -0.25198036658E+04  0.25198036658E+04  0.00000000000E+00 0.  1.
         23    2    1    2    0    0  0.10828803073E+04  0.20391836387E+04  0.18459973581E+04  0.29576342577E+04  0.94839252842E+02 0.  0.
         11    1    3    3    0    0  0.36073082709E+03  0.77031121630E+03  0.70064631280E+03  0.11020033372E+04  0.00000000000E+00 0.  1.
        -11    1    3    3    0    0  0.72214948024E+03  0.12688724224E+04  0.11453510453E+04  0.18556309205E+04  0.00000000000E+00 0. -1.
         22    1    1    2    0    0 -0.10828803073E+04 -0.20391836387E+04 -0.12854032658E+04  0.26425671662E+04  0.00000000000E+00 0.  1.
<mgrwt>
<rscale>  0 0.55720723E+04</rscale>
<asrwt>0</asrwt>
<pdfrwt beam="1">  1        1 0.47390735E+00 0.55720723E+04</pdfrwt>
<pdfrwt beam="2">  1       -1 0.38766210E+00 0.55720723E+04</pdfrwt>
<totfact> 0.31278306E-03</totfact>
</mgrwt>
</event>
<event>
 6    1  0.1528034E-005  0.1460152E+04  0.7818608E-02  0.8911393E-01
         -1   -1    0    0    0  501 -0.00000000000E+00  0.00000000000E+00  0.42961497710E+03  0.42961497710E+03  0.00000000000E+00 0.  1.
          1   -1    0    0  501    0  0.00000000000E+00 -0.00000000000E+00 -0.12406704648E+04  0.12406704648E+04  0.00000000000E+00 0. -1.
         23    2    1    2    0    0 -0.32498263470E+03 -0.41454621942E+02 -0.11498440649E+04  0.11990000733E+04  0.90153223771E+02 0.  0.
         13    1    3    3    0    0 -0.18912438471E+03  0.20632609887E+02 -0.62498548462E+03  0.65329977305E+03  0.00000000000E+00 0.  1.
        -13    1    3    3    0    0 -0.13585824999E+03 -0.62087231829E+02 -0.52485858028E+03  0.54570030029E+03  0.00000000000E+00 0. -1.
         22    1    1    2    0    0  0.32498263470E+03  0.41454621942E+02  0.33878857722E+03  0.47128536853E+03  0.00000000000E+00 0.  1.
<mgrwt>
<rscale>  0 0.14601515E+04</rscale>
<asrwt>0</asrwt>
<pdfrwt beam="1">  1        1 0.19087238E+00 0.14601515E+04</pdfrwt>
<pdfrwt beam="2">  1       -1 0.66094612E-01 0.14601515E+04</pdfrwt>
<totfact> 0.22470885E+01</totfact>
</mgrwt>
</event>
<event>
 6    1  0.1528034E-005  0.1127017E+04  0.7818608E-02  0.9179252E-01
         -2   -1    0    0    0  501 -0.00000000000E+00  0.00000000000E+00  0.11399476696E+04  0.11399476696E+04  0.00000000000E+00 0.  1.
          2   -1    0    0  501    0  0.00000000000E+00 -0.00000000000E+00 -0.27855807993E+03  0.27855807993E+03  0.00000000000E+00 0. -1.
         23    2    1    2    0    0 -0.43346037238E+03 -0.16603234435E+03  0.82740577528E+03  0.95309245643E+03  0.91270366207E+02 0.  0.
         13    1    3    3    0    0 -0.16213685998E+03 -0.95267848519E+02  0.39878688275E+03  0.44090282623E+03  0.00000000000E+00 0. -1.
        -13    1    3    3    0    0 -0.27132351240E+03 -0.70764495831E+02  0.42861889252E+03  0.51218963019E+03  0.00000000000E+00 0.  1.
         22    1    1    2    0    0  0.43346037238E+03  0.16603234435E+03  0.33983814434E+02  0.46541329314E+03  0.00000000000E+00 0. -1.
<mgrwt>
<rscale>  0 0.11270167E+04</rscale>
<asrwt>0</asrwt>
<pdfrwt beam="1">  1        2 0.42855090E-01 0.11270167E+04</pdfrwt>
<pdfrwt beam="2">  1       -2 0.17537656E+00 0.11270167E+04</pdfrwt>
<totfact> 0.23063412E+01</totfact>
</mgrwt>
</event>
<event>
 6    1  0.1528034E-005  0.1199501E+04  0.7818608E-02  0.9113294E-01
         -2   -1    0    0    0  501 -0.00000000000E+00  0.00000000000E+00  0.16532853049E+03  0.16532853049E+03  0.00000000000E+00 0.  1.
          2   -1    0    0  501    0  0.00000000000E+00 -0.00000000000E+00 -0.21756709383E+04  0.21756709383E+04  0.00000000000E+00 0. -1.
         23    2    1    2    0    0 -0.50662235677E+02  0.55505170590E+03 -0.60747378540E+03  0.83146661718E+03  0.10799665357E+03 0.  0.
         11    1    3    3    0    0  0.11625045395E+02  0.16825691717E+03 -0.12483518795E+03  0.20983173260E+03  0.00000000000E+00 0. -1.
        -11    1    3    3    0    0 -0.62287281072E+02  0.38679478874E+03 -0.48263859745E+03  0.62163488458E+03  0.00000000000E+00 0.  1.
         22    1    1    2    0    0  0.50662235677E+02 -0.55505170590E+03 -0.14028686224E+04  0.15095328516E+04  0.00000000000E+00 0. -1.
<mgrwt>
<rscale>  0 0.11995007E+04</rscale>
<asrwt>0</asrwt>
<pdfrwt beam="1">  1        2 0.33471858E+00 0.11995007E+04</pdfrwt>
<pdfrwt beam="2">  1       -2 0.25435160E-01 0.11995007E+04</pdfrwt>
<totfact> 0.73313722E+01</totfact>
</mgrwt>
</event>
<event>
 6    1  0.1528034E-005  0.1465976E+04  0.7818608E-02  0.8907399E-01
         -1   -1    0    0    0  501 -0.00000000000E+00  0.00000000000E+00  0.10302555037E+04  0.10302555037E+04  0.00000000000E+00 0.  1.
          1   -1    0    0  501    0  0.00000000000E+00 -0.00000000000E+00 -0.52149343084E+03  0.52149343084E+03  0.00000000000E+00 0. -1.
         23    2    1    2    0    0  0.65527902011E+03 -0.30058973556E+03  0.36964328630E+03  0.81751544302E+03  0.10931860386E+03 0.  0.
         11    1    3    3    0    0  0.12013444005E+03 -0.14462703935E+02  0.80360640723E+02  0.14525593299E+03  0.00000000000E+00 0.  1.
        -11    1    3    3    0    0  0.53514458005E+03 -0.28612703163E+03  0.28928264557E+03  0.67225951003E+03  0.00000000000E+00 0. -1.
         22    1    1    2    0    0 -0.65527902011E+03  0.30058973556E+03  0.13911878658E+03  0.73423349154E+03  0.00000000000E+00 0.  1.
<mgrwt>
<rscale>  0 0.14659761E+04</rscale>
<asrwt>0</asrwt>
<pdfrwt beam="1">  1        1 0.80229758E-01 0.14659761E+04</pdfrwt>
<pdfrwt beam="2">  1       -1 0.15850085E+00 0.14659761E+04</pdfrwt>
<totfact> 0.12165260E+01</totfact>
</mgrwt>
</event>
<event>
 6    1  0.1528034E-005  0.2649139E+04  0.7818608E-02  0.8351699E-01
         -2   -1    0    0    0  501 -0.00000000000E+00  0.00000000000E+00  0.56826640609E+03  0.56826640609E+03  0.00000000000E+00 0. -1.
          2   -1    0    0  501    0  0.00000000000E+00 -0.00000000000E+00 -0.30874338861E+04  0.30874338861E+04  0.00000000000E+00 0.  1.
         23    2    1    2    0    0 -0.73572063925E+03  0.79022908373E+03 -0.23161512966E+04  0.25570818714E+04  0.91454930806E+02 0.  0.
         13    1    3    3    0    0 -0.26658848360E+03  0.27392781327E+03 -0.72088964125E+03  0.81595817377E+03  0.00000000000E+00 0. -1.
        -13    1    3    3    0    0 -0.46913215565E+03  0.51630127046E+03 -0.15952616553E+04  0.17411236976E+04  0.00000000000E+00 0.  1.
         22    1    1    2    0    0  0.73572063925E+03 -0.79022908373E+03 -0.20301618340E+03  0.10986184208E+04  0.00000000000E+00 0. -1.
<mgrwt>
<rscale>  0 0.26491395E+04</rscale>
<asrwt>0</asrwt>
<pdfrwt beam="1">  1        2 0.47498983E+00 0.26491395E+04</pdfrwt>
<pdfrwt beam="2">  1       -2 0.87425601E-01 0.26491395E+04</pdfrwt>
<totfact> 0.15255997E+00</totfact>
</mgrwt>
</event>
<event>
 6    1  0.1528034E-005  0.2918131E+04  0.7818608E-02  0.8267503E-01
          1   -1    0    0  501    0  0.00000000000E+00  0.00000000000E+00  0.15409934469E+04  0.15409934469E+04  0.00000000000E+00 0. -1.
         -1   -1    0    0    0  501 -0.00000000000E+00 -0.00000000000E+00 -0.13814931034E+04  0.13814931034E+04  0.00000000000E+00 0.  1.
         23    2    1    2    0    0  0.30911209795E+03  0.12854996326E+04  0.69357650783E+03  0.14965493344E+04  0.10272265258E+03 0.  0.
         13    1    3    3    0    0  0.11914319350E+03  0.51272063805E+03  0.33311856134E+03  0.62293300534E+03  0.00000000000E+00 0.  1.
        -13    1    3    3    0    0  0.18996890445E+03  0.77277899460E+03  0.36045794649E+03  0.87361632902E+03  0.00000000000E+00 0. -1.
         22    1    1    2    0    0 -0.30911209795E+03 -0.12854996326E+04 -0.53407616430E+03  0.14259372160E+04  0.00000000000E+00 0.  1.
<mgrwt>
<rscale>  0 0.29181308E+04</rscale>
<asrwt>0</asrwt>
<pdfrwt beam="1">  1        1 0.23707591E+00 0.29181308E+04</pdfrwt>
<pdfrwt beam="2">  1       -1 0.21253740E+00 0.29181308E+04</pdfrwt>
<totfact> 0.64894231E-01</totfact>
</mgrwt>
</event>
<event>
 6    1  0.1528034E-005  0.1676333E+04  0.7818608E-02  0.8774979E-01
         -2   -1    0    0    0  501 -0.00000000000E+00  0.00000000000E+00  0.29368261481E+03  0.29368261481E+03  0.00000000000E+00 0. -1.
          2   -1    0    0  501    0  0.00000000000E+00 -0.00000000000E+00 -0.23921158279E+04  0.23921158279E+04  0.00000000000E+00 0.  1.
         23    2    1    2    0    0  0.76173523912E+03 -0.33799567538E+03 -0.11520813461E+04  0.14248212394E+04  0.91337205671E+02 0.  0.
         11    1    3    3    0    0  0.72627021549E+03 -0.31392871909E+03 -0.11200018246E+04  0.13712854384E+04  0.00000000000E+00 0. -1.
        -11    1    3    3    0    0  0.35465023633E+02 -0.24066956289E+02 -0.32079521543E+02  0.53535801000E+02  0.00000000000E+00 0.  1.
         22    1    1    2    0    0 -0.76173523912E+03  0.33799567538E+03 -0.94635186698E+03  0.12609772033E+04  0.00000000000E+00 0.  1.
<mgrwt>
<rscale>  0 0.16763327E+04</rscale>
<asrwt>0</asrwt>
<pdfrwt beam="1">  1        2 0.36801783E+00 0.16763327E+04</pdfrwt>
<pdfrwt beam="2">  1       -2 0.45181939E-01 0.16763327E+04</pdfrwt>
<totfact> 0.17812250E+01</totfact>
</mgrwt>
</event>
<event>
 6    1  0.1529667E-005  0.3295070E+04  0.7818608E-02  0.8164151E-01
          2   -1    0    0  501    0  0.00000000000E+00  0.00000000000E+00  0.21945847771E+04  0.21945847771E+04  0.00000000000E+00 0. -1.
         -2   -1    0    0    0  501 -0.00000000000E+00 -0.00000000000E+00 -0.12368494019E+04  0.12368494019E+04  0.00000000000E+00 0.  1.
         23    2    1    2    0    0 -0.88288025711E+03 -0.63412356881E+01 -0.96773923743E+03  0.13131872049E+04  0.91780410727E+02 0.  0.
         11    1    3    3    0    0 -0.60290830321E+03 -0.12365740999E+02 -0.72113380176E+03  0.94004536788E+03  0.00000000000E+00 0.  1.
        -11    1    3    3    0    0 -0.27997195390E+03  0.60245053112E+01 -0.24660543567E+03  0.37314183702E+03  0.00000000000E+00 0. -1.
         22    1    1    2    0    0  0.88288025711E+03  0.63412356881E+01  0.19254746126E+04  0.21182469741E+04  0.00000000000E+00 0. -1.
<mgrwt>
<rscale>  0 0.32950696E+04</rscale>
<asrwt>0</asrwt>
<pdfrwt beam="1">  1        2 0.33762843E+00 0.32950696E+04</pdfrwt>
<pdfrwt beam="2">  1       -2 0.19028452E+00 0.32950696E+04</pdfrwt>
<totfact> 0.67052900E-01</totfact>
</mgrwt>
</event>
<event>
 6    1  0.1528034E-005  0.3946387E+04  0.7818608E-02  0.8015450E-01
          2   -1    0    0  501    0  0.00000000000E+00  0.00000000000E+00  0.28325239601E+04  0.28325239601E+04  0.00000000000E+00 0. -1.
         -2   -1    0    0    0  501 -0.00000000000E+00 -0.00000000000E+00 -0.13745664918E+04  0.13745664918E+04  0.00000000000E+00 0.  1.
         23    2    1    2    0    0  0.11460851880E+04  0.14181815507E+04  0.15305305731E+04  0.23822570282E+04  0.88738626634E+02 0.  0.
         13    1    3    3    0    0  0.63190941978E+03  0.84249346113E+03  0.91151374908E+03  0.13928252086E+04  0.00000000000E+00 0.  1.
        -13    1    3    3    0    0  0.51417576822E+03  0.57568808961E+03  0.61901682406E+03  0.98943181959E+03  0.00000000000E+00 0. -1.
         22    1    1    2    0    0 -0.11460851880E+04 -0.14181815507E+04 -0.72573104857E+02  0.18248334238E+04  0.00000000000E+00 0. -1.
<mgrwt>
<rscale>  0 0.39463870E+04</rscale>
<asrwt>0</asrwt>
<pdfrwt beam="1">  1        2 0.43577292E+00 0.39463870E+04</pdfrwt>
<pdfrwt beam="2">  1       -2 0.21147177E+00 0.39463870E+04</pdfrwt>
<totfact> 0.19607555E-01</totfact>
</mgrwt>
</event>
<event>
 6    1  0.1528034E-005  0.1930666E+04  0.7818608E-02  0.8639741E-01
         -2   -1    0    0    0  501 -0.00000000000E+00  0.00000000000E+00  0.92716462443E+03  0.92716462443E+03  0.00000000000E+00 0.  1.
          2   -1    0    0  501    0  0.00000000000E+00 -0.00000000000E+00 -0.10050727525E+04  0.10050727525E+04  0.00000000000E+00 0. -1.
         23    2    1    2    0    0  0.65477005453E+03 -0.70302387703E+03 -0.10780787052E+03  0.97106081119E+03  0.91488611784E+02 0.  0.
         13    1    3    3    0    0  0.13494851873E+03 -0.14946425946E+03 -0.60299005494E+02  0.21020617885E+03  0.00000000000E+00 0.  1.
        -13    1    3    3    0    0  0.51982153580E+03 -0.55355961757E+03 -0.47508865026E+02  0.76085463234E+03  0.00000000000E+00 0. -1.
         22    1    1    2    0    0 -0.65477005453E+03  0.70302387703E+03  0.29899742421E+02  0.96117656577E+03  0.00000000000E+00 0. -1.
<mgrwt>
<rscale>  0 0.19306661E+04</rscale>
<asrwt>0</asrwt>
<pdfrwt beam="1">  1        2 0.15462658E+00 0.19306661E+04</pdfrwt>
<pdfrwt beam="2">  1       -2 0.14264071E+00 0.19306661E+04</pdfrwt>
<totfact> 0.79892342E+00</totfact>
</mgrwt>
</event>
<event>
 6    1  0.1528034E-005  0.2692124E+04  0.7818608E-02  0.8337565E-01
         -2   -1    0    0    0  501 -0.00000000000E+00  0.00000000000E+00  0.13428602997E+04  0.13428602997E+04  0.00000000000E+00 0.  1.
          2   -1    0    0  501    0  0.00000000000E+00 -0.00000000000E+00 -0.13492712299E+04  0.13492712299E+04  0.00000000000E+00 0. -1.
         23    2    1    2    0    0 -0.11915980825E+04  0.51445735864E+03 -0.35440472308E+03  0.13483785598E+04  0.89160914873E+02 0.  0.
         11    1    3    3    0    0 -0.42450279040E+03  0.15427083417E+03 -0.89087433001E+02  0.46036798331E+03  0.00000000000E+00 0.  1.
        -11    1    3    3    0    0 -0.76709529208E+03  0.36018652448E+03 -0.26531729008E+03  0.88801057650E+03  0.00000000000E+00 0. -1.
         22    1    1    2    0    0  0.11915980825E+04 -0.51445735864E+03  0.34799379283E+03  0.13437529698E+04  0.00000000000E+00 0.  1.
<mgrwt>
<rscale>  0 0.26921239E+04</rscale>
<asrwt>0</asrwt>
<pdfrwt beam="1">  1        2 0.20758019E+00 0.26921239E+04</pdfrwt>
<pdfrwt beam="2">  1       -2 0.20659389E+00 0.26921239E+04</pdfrwt>
<totfact> 0.16366929E+00</totfact>
</mgrwt>
</event>
<event>
 6    1  0.1528034E-005  0.3131940E+04  0.7818608E-02  0.8207027E-01
          1   -1    0    0  501    0  0.00000000000E+00  0.00000000000E+00  0.17175077420E+04  0.17175077420E+04  0.00000000000E+00 0. -1.
         -1   -1    0    0    0  501 -0.00000000000E+00 -0.00000000000E+00 -0.14278022251E+04  0.14278022251E+04  0.00000000000E+00 0.  1.
         23    2    1    2    0    0 -0.70505534595E+02 -0.71337201366E+03 -0.12516969895E+04  0.14453710426E+04  0.92094718158E+02 0.  0.
         11    1    3    3    0    0 -0.83466168605E+02 -0.40086981910E+03 -0.73619810495E+03  0.84240777709E+03  0.00000000000E+00 0. -1.
        -11    1    3    3    0    0  0.12960634010E+02 -0.31250219456E+03 -0.51549888454E+03  0.60296326555E+03  0.00000000000E+00 0.  1.
         22    1    1    2    0    0  0.70505534595E+02  0.71337201366E+03  0.15414025064E+04  0.16999389245E+04  0.00000000000E+00 0. -1.
<mgrwt>
<rscale>  0 0.31319396E+04</rscale>
<asrwt>0</asrwt>
<pdfrwt beam="1">  1        1 0.26423196E+00 0.31319396E+04</pdfrwt>
<pdfrwt beam="2">  1       -1 0.21966188E+00 0.31319396E+04</pdfrwt>
<totfact> 0.43167510E-01</totfact>
</mgrwt>
</event>
<event>
 6    1  0.1528034E-005  0.2450367E+04  0.7818608E-02  0.8420884E-01
         -2   -1    0    0    0  501 -0.00000000000E+00  0.00000000000E+00  0.71760809072E+03  0.71760809072E+03  0.00000000000E+00 0.  1.
          2   -1    0    0  501    0  0.00000000000E+00 -0.00000000000E+00 -0.20917741131E+04  0.20917741131E+04  0.00000000000E+00 0. -1.
         23    2    1    2    0    0 -0.10481314401E+04  0.59744304566E+03 -0.92133587674E+03  0.15207500416E+04  0.91121801141E+02 0.  0.
         13    1    3    3    0    0 -0.12035627155E+03  0.86787509235E+02 -0.14665337516E+03  0.20862625987E+03  0.00000000000E+00 0. -1.
        -13    1    3    3    0    0 -0.92777516860E+03  0.51065553642E+03 -0.77468250158E+03  0.13121237817E+04  0.00000000000E+00 0.  1.
         22    1    1    2    0    0  0.10481314401E+04 -0.59744304566E+03 -0.45283014559E+03  0.12886321622E+04  0.00000000000E+00 0.  1.
<mgrwt>
<rscale>  0 0.24503665E+04</rscale>
<asrwt>0</asrwt>
<pdfrwt beam="1">  1        2 0.32181140E+00 0.24503665E+04</pdfrwt>
<pdfrwt beam="2">  1       -2 0.11040125E+00 0.24503665E+04</pdfrwt>
<totfact> 0.34630618E+00</totfact>
</mgrwt>
</event>
<event>
 6    1  0.1528034E-005  0.2245638E+04  0.7818608E-02  0.8499669E-01
          2   -1    0    0  501    0  0.00000000000E+00  0.00000000000E+00  0.10703834490E+04  0.10703834490E+04  0.00000000000E+00 0.  1.
         -2   -1    0    0    0  501 -0.00000000000E+00 -0.00000000000E+00 -0.11778232662E+04  0.11778232662E+04  0.00000000000E+00 0. -1.
         23    2    1    2    0    0  0.27620414911E+03 -0.55906579252E+03  0.87872910074E+03  0.10814280613E+04  0.92078917135E+02 0.  0.
         13    1    3    3    0    0  0.82736725231E+02 -0.27018979162E+03  0.38518860107E+03  0.47772183077E+03  0.00000000000E+00 0.  1.
        -13    1    3    3    0    0  0.19346742388E+03 -0.28887600090E+03  0.49354049967E+03  0.60370623055E+03  0.00000000000E+00 0. -1.
         22    1    1    2    0    0 -0.27620414911E+03  0.55906579252E+03 -0.98616891797E+03  0.11667786539E+04  0.00000000000E+00 0. -1.
<mgrwt>
<rscale>  0 0.22456380E+04</rscale>
<asrwt>0</asrwt>
<pdfrwt beam="1">  1        2 0.16467438E+00 0.22456380E+04</pdfrwt>
<pdfrwt beam="2">  1       -2 0.18120358E+00 0.22456380E+04</pdfrwt>
<totfact> 0.36815635E+00</totfact>
</mgrwt>
</event>
<event>
 6    1  0.1528034E-005  0.8055102E+03  0.7818608E-02  0.9552075E-01
         -1   -1    0    0    0  501 -0.00000000000E+00  0.00000000000E+00  0.55718669635E+03  0.55718669635E+03  0.00000000000E+00 0.  1.
          1   -1    0    0  501    0  0.00000000000E+00 -0.00000000000E+00 -0.29112627614E+03  0.29112627614E+03  0.00000000000E+00 0. -1.
         23    2    1    2    0    0 -0.38657242707E+03 -0.73237239657E+01  0.22796126320E+03  0.45979859171E+03  0.99782408820E+02 0.  0.
         11    1    3    3    0    0 -0.12108500509E+03  0.33706652100E+02  0.10748755547E+03  0.16538225853E+03  0.00000000000E+00 0.  1.
        -11    1    3    3    0    0 -0.26548742198E+03 -0.41030376065E+02  0.12047370773E+03  0.29441633318E+03  0.00000000000E+00 0. -1.
         22    1    1    2    0    0  0.38657242707E+03  0.73237239657E+01  0.38099157001E+02  0.38851438078E+03  0.00000000000E+00 0. -1.
<mgrwt>
<rscale>  0 0.80551024E+03</rscale>
<asrwt>0</asrwt>
<pdfrwt beam="1">  1        1 0.44788658E-01 0.80551024E+03</pdfrwt>
<pdfrwt beam="2">  1       -1 0.85721030E-01 0.80551024E+03</pdfrwt>
<totfact> 0.12408420E+02</totfact>
</mgrwt>
</event>
<event>
 6    1  0.1528034E-005  0.1420031E+04  0.7818608E-02  0.8939445E-01
         -1   -1    0    0    0  501 -0.00000000000E+00  0.00000000000E+00  0.65830723169E+03  0.65830723169E+03  0.00000000000E+00 0.  1.
          1   -1    0    0  501    0  0.00000000000E+00 -0.00000000000E+00 -0.76578546473E+03  0.76578546473E+03  0.00000000000E+00 0. -1.
         23    2    1    2    0    0  0.49161917056E+03  0.44795627347E+03  0.18679587419E+03  0.69680218914E+03  0.91029447841E+02 0.  0.
         13    1    3    3    0    0  0.27649593055E+03  0.19251710155E+03  0.81426046701E+02  0.34661655339E+03  0.00000000000E+00 0. -1.
        -13    1    3    3    0    0  0.21512324000E+03  0.25543917192E+03  0.10536982749E+03  0.35018563575E+03  0.00000000000E+00 0.  1.
         22    1    1    2    0    0 -0.49161917056E+03 -0.44795627347E+03 -0.29427410723E+03  0.72729050729E+03  0.00000000000E+00 0. -1.
<mgrwt>
<rscale>  0 0.14200311E+04</rscale>
<asrwt>0</asrwt>
<pdfrwt beam="1">  1        1 0.11781315E+00 0.14200311E+04</pdfrwt>
<pdfrwt beam="2">  1       -1 0.10127804E+00 0.14200311E+04</pdfrwt>
<totfact> 0.21370923E+01</totfact>
</mgrwt>
</event>
<event>
 6    1  0.1528034E-005  0.4386641E+04  0.7818608E-02  0.7930789E-01
         -2   -1    0    0    0  501 -0.00000000000E+00  0.00000000000E+00  0.19997806188E+04  0.19997806188E+04  0.00000000000E+00 0.  1.
          2   -1    0    0  501    0  0.00000000000E+00 -0.00000000000E+00 -0.24055911721E+04  0.24055911721E+04  0.00000000000E+00 0. -1.
         23    2    1    2    0    0 -0.21766863919E+04  0.23171723507E+03 -0.80219017386E+02  0.21923046041E+04  0.90043660064E+02 0.  0.
         13    1    3    3    0    0 -0.13497567079E+04  0.99785942977E+02 -0.52490302928E+02  0.13544576910E+04  0.00000000000E+00 0.  1.
        -13    1    3    3    0    0 -0.82692968400E+03  0.13193129210E+03 -0.27728714457E+02  0.83784691305E+03  0.00000000000E+00 0. -1.
         22    1    1    2    0    0  0.21766863919E+04 -0.23171723507E+03 -0.32559153591E+03  0.22130671869E+04  0.00000000000E+00 0. -1.
<mgrwt>
<rscale>  0 0.43866409E+04</rscale>
<asrwt>0</asrwt>
<pdfrwt beam="1">  1        2 0.37009095E+00 0.43866409E+04</pdfrwt>
<pdfrwt beam="2">  1       -2 0.30765855E+00 0.43866409E+04</pdfrwt>
<totfact> 0.86078113E-02</totfact>
</mgrwt>
</event>
<event>
 6    1  0.1528034E-005  0.1638030E+04  0.7818608E-02  0.8797519E-01
          2   -1    0    0  501    0  0.00000000000E+00  0.00000000000E+00  0.10415441806E+04  0.10415441806E+04  0.00000000000E+00 0. -1.
         -2   -1    0    0    0  501 -0.00000000000E+00 -0.00000000000E+00 -0.64403009529E+03  0.64403009529E+03  0.00000000000E+00 0.  1.
         23    2    1    2    0    0 -0.20257571028E+03 -0.20865173344E+03 -0.58560053885E+03  0.66034901845E+03  0.92522271972E+02 0.  0.
         11    1    3    3    0    0 -0.71003023835E+02 -0.13541078350E+03 -0.26025267845E+03  0.30184261846E+03  0.00000000000E+00 0.  1.
        -11    1    3    3    0    0 -0.13157268645E+03 -0.73240949939E+02 -0.32534786040E+03  0.35850639999E+03  0.00000000000E+00 0. -1.
         22    1    1    2    0    0  0.20257571028E+03  0.20865173344E+03  0.98311462418E+03  0.10252252575E+04  0.00000000000E+00 0. -1.
<mgrwt>
<rscale>  0 0.16380303E+04</rscale>
<asrwt>0</asrwt>
<pdfrwt beam="1">  1        2 0.16023757E+00 0.16380303E+04</pdfrwt>
<pdfrwt beam="2">  1       -2 0.99081553E-01 0.16380303E+04</pdfrwt>
<totfact> 0.19132828E+01</totfact>
</mgrwt>
</event>
<event>
 6    1  0.1528034E-005  0.3995278E+04  0.7818608E-02  0.8005500E-01
         -1   -1    0    0    0  501 -0.00000000000E+00  0.00000000000E+00  0.11837921979E+04  0.11837921979E+04  0.00000000000E+00 0.  1.
          1   -1    0    0  501    0  0.00000000000E+00 -0.00000000000E+00 -0.33709990896E+04  0.33709990896E+04  0.00000000000E+00 0. -1.
         23    2    1    2    0    0  0.27546238469E+03 -0.16633547488E+04 -0.23134242879E+04  0.28640638178E+04  0.91110214470E+02 0.  0.
         13    1    3    3    0    0  0.24179585050E+03 -0.14304854576E+04 -0.20412186144E+04  0.25042618292E+04  0.00000000000E+00 0. -1.
        -13    1    3    3    0    0  0.33666534189E+02 -0.23286929123E+03 -0.27220567345E+03  0.35980198857E+03  0.00000000000E+00 0.  1.
         22    1    1    2    0    0 -0.27546238469E+03  0.16633547488E+04  0.12621739618E+03  0.16907274697E+04  0.00000000000E+00 0.  1.
<mgrwt>
<rscale>  0 0.39952784E+04</rscale>
<asrwt>0</asrwt>
<pdfrwt beam="1">  1        1 0.51861524E+00 0.39952784E+04</pdfrwt>
<pdfrwt beam="2">  1       -1 0.18212188E+00 0.39952784E+04</pdfrwt>
<totfact> 0.49504259E-02</totfact>
</mgrwt>
</event>
<event>
 6    1  0.1528034E-005  0.2054331E+04  0.7818608E-02  0.8581632E-01
          2   -1    0    0  501    0  0.00000000000E+00  0.00000000000E+00  0.81585072098E+03  0.81585072098E+03  0.00000000000E+00 0. -1.
         -2   -1    0    0    0  501 -0.00000000000E+00 -0.00000000000E+00 -0.12932129580E+04  0.12932129580E+04  0.00000000000E+00 0.  1.
         23    2    1    2    0    0 -0.89771214995E+03  0.92501212036E+02  0.25966929970E+03  0.94387740009E+03  0.95041163668E+02 0.  0.
         11    1    3    3    0    0 -0.41529990485E+03 -0.14684734401E+01  0.13706863145E+03  0.43733737219E+03  0.00000000000E+00 0. -1.
        -11    1    3    3    0    0 -0.48241224510E+03  0.93969685476E+02  0.12260066826E+03  0.50654002790E+03  0.00000000000E+00 0.  1.
         22    1    1    2    0    0  0.89771214995E+03 -0.92501212036E+02 -0.73703153677E+03  0.11651862789E+04  0.00000000000E+00 0.  1.
<mgrwt>
<rscale>  0 0.20543308E+04</rscale>
<asrwt>0</asrwt>
<pdfrwt beam="1">  1        2 0.12551550E+00 0.20543308E+04</pdfrwt>
<pdfrwt beam="2">  1       -2 0.19895584E+00 0.20543308E+04</pdfrwt>
<totfact> 0.41915938E+00</totfact>
</mgrwt>
</event>
<event>
 6    1  0.1528034E-005  0.3195667E+04  0.7818608E-02  0.8189963E-01
         -2   -1    0    0    0  501 -0.00000000000E+00  0.00000000000E+00  0.18211318970E+04  0.18211318970E+04  0.00000000000E+00 0.  1.
          2   -1    0    0  501    0  0.00000000000E+00 -0.00000000000E+00 -0.14019144856E+04  0.14019144856E+04  0.00000000000E+00 0. -1.
         23    2    1    2    0    0  0.35703311518E+03 -0.15200585517E+04 -0.12616711734E+03  0.15691132127E+04  0.90263429583E+02 0.  0.
         13    1    3    3    0    0  0.15335015155E+03 -0.67602351406E+03 -0.10071364444E+03  0.70047647978E+03  0.00000000000E+00 0.  1.
        -13    1    3    3    0    0  0.20368296364E+03 -0.84403503768E+03 -0.25453472907E+02  0.86863673293E+03  0.00000000000E+00 0. -1.
         22    1    1    2    0    0 -0.35703311518E+03  0.15200585517E+04  0.54538452875E+03  0.16539331698E+04  0.00000000000E+00 0.  1.
<mgrwt>
<rscale>  0 0.31956666E+04</rscale>
<asrwt>0</asrwt>
<pdfrwt beam="1">  1        2 0.21567915E+00 0.31956666E+04</pdfrwt>
<pdfrwt beam="2">  1       -2 0.28017414E+00 0.31956666E+04</pdfrwt>
<totfact> 0.51076173E-01</totfact>
</mgrwt>
</event>
<event>
 6    1  0.1528034E-005  0.4397710E+04  0.7818608E-02  0.7928794E-01
          2   -1    0    0  501    0  0.00000000000E+00  0.00000000000E+00  0.19067340787E+04  0.19067340787E+04  0.00000000000E+00 0. -1.
         -2   -1    0    0    0  501 -0.00000000000E+00 -0.00000000000E+00 -0.25357305471E+04  0.25357305471E+04  0.00000000000E+00 0.  1.
         23    2    1    2    0    0 -0.85979035953E+03 -0.18786602679E+04 -0.10719992017E+04  0.23294442079E+04  0.92326403729E+02 0.  0.
         11    1    3    3    0    0 -0.19783321887E+03 -0.34819555926E+03 -0.19607576390E+03  0.44589666422E+03  0.00000000000E+00 0. -1.
        -11    1    3    3    0    0 -0.66195714066E+03 -0.15304647086E+04 -0.87592343781E+03  0.18835475437E+04  0.00000000000E+00 0.  1.
         22    1    1    2    0    0  0.85979035953E+03  0.18786602679E+04  0.44300273328E+03  0.21130204178E+04  0.00000000000E+00 0. -1.
<mgrwt>
<rscale>  0 0.43977102E+04</rscale>
<asrwt>0</asrwt>
<pdfrwt beam="1">  1        2 0.29334370E+00 0.43977102E+04</pdfrwt>
<pdfrwt beam="2">  1       -2 0.39011239E+00 0.43977102E+04</pdfrwt>
<totfact> 0.49520653E-02</totfact>
</mgrwt>
</event>
<event>
 6    1  0.1528034E-005  0.3570171E+04  0.7818608E-02  0.8097359E-01
         -1   -1    0    0    0  501 -0.00000000000E+00  0.00000000000E+00  0.18034290958E+04  0.18034290958E+04  0.00000000000E+00 0.  1.
          1   -1    0    0  501    0  0.00000000000E+00 -0.00000000000E+00 -0.17669284818E+04  0.17669284818E+04  0.00000000000E+00 0. -1.
         23    2    1    2    0    0  0.14517349182E+04  0.67537716056E+03  0.80479473719E+03  0.17944227699E+04  0.92681855356E+02 0.  0.
         11    1    3    3    0    0  0.65526912391E+03  0.30070967742E+03  0.41393794741E+03  0.83135345019E+03  0.00000000000E+00 0. -1.
        -11    1    3    3    0    0  0.79646579425E+03  0.37466748314E+03  0.39085678979E+03  0.96306931966E+03  0.00000000000E+00 0.  1.
         22    1    1    2    0    0 -0.14517349182E+04 -0.67537716056E+03 -0.76829412317E+03  0.17759348077E+04  0.00000000000E+00 0. -1.
<mgrwt>
<rscale>  0 0.35701710E+04</rscale>
<asrwt>0</asrwt>
<pdfrwt beam="1">  1        1 0.27183515E+00 0.35701710E+04</pdfrwt>
<pdfrwt beam="2">  1       -1 0.27745063E+00 0.35701710E+04</pdfrwt>
<totfact> 0.16088482E-01</totfact>
</mgrwt>
</event>
<event>
 6    1  0.1528034E-005  0.1732047E+04  0.7818608E-02  0.8743295E-01
          1   -1    0    0  501    0  0.00000000000E+00  0.00000000000E+00  0.19919857008E+04  0.19919857008E+04  0.00000000000E+00 0. -1.
         -1   -1    0    0    0  501 -0.00000000000E+00 -0.00000000000E+00 -0.37650691847E+03  0.37650691847E+03  0.00000000000E+00 0.  1.
         23    2    1    2    0    0 -0.73846096590E+03 -0.39222696234E+03  0.51815722224E+03  0.98889804318E+03  0.10132050483E+03 0.  0.
         11    1    3    3    0    0 -0.32140051943E+03 -0.13357341775E+03  0.17117356244E+03  0.38786665273E+03  0.00000000000E+00 0. -1.
        -11    1    3    3    0    0 -0.41706044646E+03 -0.25865354460E+03  0.34698365980E+03  0.60103139045E+03  0.00000000000E+00 0.  1.
         22    1    1    2    0    0  0.73846096590E+03  0.39222696234E+03  0.10973215601E+04  0.13795945761E+04  0.00000000000E+00 0.  1.
<mgrwt>
<rscale>  0 0.17320466E+04</rscale>
<asrwt>0</asrwt>
<pdfrwt beam="1">  1        1 0.30645933E+00 0.17320466E+04</pdfrwt>
<pdfrwt beam="2">  1       -1 0.57924143E-01 0.17320466E+04</pdfrwt>
<totfact> 0.86486593E+00</totfact>
</mgrwt>
</event>
<event>
 6    1  0.1528034E-005  0.9737088E+03  0.7818608E-02  0.9337860E-01
         -1   -1    0    0    0  501 -0.00000000000E+00  0.00000000000E+00  0.72584672867E+03  0.72584672867E+03  0.00000000000E+00 0.  1.
          1   -1    0    0  501    0  0.00000000000E+00 -0.00000000000E+00 -0.32655268731E+03  0.32655268731E+03  0.00000000000E+00 0. -1.
         23    2    1    2    0    0  0.28656483780E+03 -0.10599613639E+03  0.60515104300E+03  0.68398159296E+03  0.90931003913E+02 0.  0.
         13    1    3    3    0    0  0.13213964398E+03 -0.47870435998E+02  0.37756641678E+03  0.40287574168E+03  0.00000000000E+00 0.  1.
        -13    1    3    3    0    0  0.15442519383E+03 -0.58125700393E+02  0.22758462622E+03  0.28110585128E+03  0.00000000000E+00 0. -1.
         22    1    1    2    0    0 -0.28656483780E+03  0.10599613639E+03 -0.20585700164E+03  0.36841782302E+03  0.00000000000E+00 0. -1.
<mgrwt>
<rscale>  0 0.97370879E+03</rscale>
<asrwt>0</asrwt>
<pdfrwt beam="1">  1        1 0.50238875E-01 0.97370879E+03</pdfrwt>
<pdfrwt beam="2">  1       -1 0.11166873E+00 0.97370879E+03</pdfrwt>
<totfact> 0.58041810E+01</totfact>
</mgrwt>
</event>
<event>
 6    1  0.1528034E-005  0.2519514E+04  0.7818608E-02  0.8396066E-01
         -2   -1    0    0    0  501 -0.00000000000E+00  0.00000000000E+00  0.54098207704E+03  0.54098207704E+03  0.00000000000E+00 0.  1.
          2   -1    0    0  501    0  0.00000000000E+00 -0.00000000000E+00 -0.29335310235E+04  0.29335310235E+04  0.00000000000E+00 0. -1.
         23    2    1    2    0    0  0.89879995101E+03 -0.79080740001E+03 -0.66400532594E+03  0.13718764834E+04  0.89018631991E+02 0.  0.
         13    1    3    3    0    0  0.12750955173E+03 -0.15245798103E+03 -0.12541867067E+03  0.23501481807E+03  0.00000000000E+00 0.  1.
        -13    1    3    3    0    0  0.77129039928E+03 -0.63834941899E+03 -0.53858665527E+03  0.11368616653E+04  0.00000000000E+00 0. -1.
         22    1    1    2    0    0 -0.89879995101E+03  0.79080740001E+03 -0.17285436205E+04  0.21026366171E+04  0.00000000000E+00 0. -1.
<mgrwt>
<rscale>  0 0.25195140E+04</rscale>
<asrwt>0</asrwt>
<pdfrwt beam="1">  1        2 0.45131247E+00 0.25195140E+04</pdfrwt>
<pdfrwt beam="2">  1       -2 0.83228011E-01 0.25195140E+04</pdfrwt>
<totfact> 0.21560768E+00</totfact>
</mgrwt>
</event>
<event>
 6    1  0.1588665E-005  0.2829824E+04  0.7818608E-02  0.8294069E-01
          2   -1    0    0  501    0  0.00000000000E+00  0.00000000000E+00  0.25543799592E+04  0.25543799592E+04  0.00000000000E+00 0. -1.
         -2   -1    0    0    0  501 -0.00000000000E+00 -0.00000000000E+00 -0.78374219797E+03  0.78374219797E+03  0.00000000000E+00 0.  1.
         23    2    1    2    0    0  0.12027303588E+04 -0.83060582320E+01  0.17623675998E+04  0.21353346855E+04  0.84174553577E+02 0.  0.
         11    1    3    3    0    0  0.55697983530E+03 -0.16231526355E+02  0.74556059977E+03  0.93077956967E+03  0.00000000000E+00 0. -1.
        -11    1    3    3    0    0  0.64575052350E+03  0.79254681230E+01  0.10168070001E+04  0.12045551158E+04  0.00000000000E+00 0.  1.
         22    1    1    2    0    0 -0.12027303588E+04  0.83060582320E+01  0.82701614378E+01  0.12027874717E+04  0.00000000000E+00 0.  1.
<mgrwt>
<rscale>  0 0.28298236E+04</rscale>
<asrwt>0</asrwt>
<pdfrwt beam="1">  1        2 0.39298153E+00 0.28298236E+04</pdfrwt>
<pdfrwt beam="2">  1       -2 0.12057572E+00 0.28298236E+04</pdfrwt>
<totfact> 0.14737065E+00</totfact>
</mgrwt>
</event>
<event>
 6    1  0.1528034E-005  0.1454056E+04  0.7818608E-02  0.8915593E-01
          2   -1    0    0  501    0  0.00000000000E+00  0.00000000000E+00  0.15776444609E+04  0.15776444609E+04  0.00000000000E+00 0. -1.
         -2   -1    0    0    0  501 -0.00000000000E+00 -0.00000000000E+00 -0.33503731701E+03  0.33503731701E+03  0.00000000000E+00 0.  1.
         23    2    1    2    0    0 -0.48815231012E+03 -0.53252237353E+03  0.69148392512E+03  0.10040511828E+04  0.89977790170E+02 0.  0.
         11    1    3    3    0    0 -0.27301423611E+03 -0.33037412370E+03  0.46163900677E+03  0.62991619070E+03  0.00000000000E+00 0. -1.
        -11    1    3    3    0    0 -0.21513807401E+03 -0.20214824983E+03  0.22984491835E+03  0.37413499207E+03  0.00000000000E+00 0.  1.
         22    1    1    2    0    0  0.48815231012E+03  0.53252237353E+03  0.55112321879E+03  0.90863059517E+03  0.00000000000E+00 0.  1.
<mgrwt>
<rscale>  0 0.14540561E+04</rscale>
<asrwt>0</asrwt>
<pdfrwt beam="1">  1        2 0.24271453E+00 0.14540561E+04</pdfrwt>
<pdfrwt beam="2">  1       -2 0.51544203E-01 0.14540561E+04</pdfrwt>
<totfact> 0.39559570E+01</totfact>
</mgrwt>
</event>
<event>
 6    1  0.1528034E-005  0.6998886E+03  0.7818608E-02  0.9717423E-01
          2   -1    0    0  501    0  0.00000000000E+00  0.00000000000E+00  0.54969579126E+03  0.54969579126E+03  0.00000000000E+00 0. -1.
         -2   -1    0    0    0  501 -0.00000000000E+00 -0.00000000000E+00 -0.22277958456E+03  0.22277958456E+03  0.00000000000E+00 0.  1.
         23    2    1    2    0    0 -0.20623132809E+03  0.25320703528E+03  0.28603636556E+03  0.44336092033E+03  0.90038546507E+02 0.  0.
         13    1    3    3    0    0 -0.15060047528E+03  0.21548739293E+03  0.18292013084E+03  0.32027346742E+03  0.00000000000E+00 0. -1.
        -13    1    3    3    0    0 -0.55630852811E+02  0.37719642355E+02  0.10311623471E+03  0.12308745292E+03  0.00000000000E+00 0.  1.
         22    1    1    2    0    0  0.20623132809E+03 -0.25320703528E+03  0.40879841144E+02  0.32911445549E+03  0.00000000000E+00 0.  1.
<mgrwt>
<rscale>  0 0.69988856E+03</rscale>
<asrwt>0</asrwt>
<pdfrwt beam="1">  1        2 0.84568583E-01 0.69988856E+03</pdfrwt>
<pdfrwt beam="2">  1       -2 0.34273782E-01 0.69988856E+03</pdfrwt>
<totfact> 0.44231289E+02</totfact>
</mgrwt>
</event>
<event>
 6    1  0.1528034E-005  0.4853517E+04  0.7818608E-02  0.7851509E-01
         -1   -1    0    0    0  501 -0.00000000000E+00  0.00000000000E+00  0.20455471456E+04  0.20455471456E+04  0.00000000000E+00 0.  1.
          1   -1    0    0  501    0  0.00000000000E+00 -0.00000000000E+00 -0.28790133277E+04  0.28790133277E+04  0.00000000000E+00 0. -1.
         23    2    1    2    0    0  0.83973096850E+02 -0.16294346335E+04 -0.22384331453E+04  0.27714137356E+04  0.89679663574E+02 0.  0.
         11    1    3    3    0    0  0.51109601949E+02 -0.13519971509E+04 -0.18058581857E+04  0.22564645520E+04  0.00000000000E+00 0. -1.
        -11    1    3    3    0    0  0.32863494901E+02 -0.27743748263E+03 -0.43257495958E+03  0.51494918362E+03  0.00000000000E+00 0.  1.
         22    1    1    2    0    0 -0.83973096850E+02  0.16294346335E+04  0.14049669633E+04  0.21531467376E+04  0.00000000000E+00 0.  1.
<mgrwt>
<rscale>  0 0.48535173E+04</rscale>
<asrwt>0</asrwt>
<pdfrwt beam="1">  1        1 0.44292513E+00 0.48535173E+04</pdfrwt>
<pdfrwt beam="2">  1       -1 0.31469956E+00 0.48535173E+04</pdfrwt>
<totfact> 0.14159679E-02</totfact>
</mgrwt>
</event>
<event>
 6    1  0.1528034E-005  0.2754706E+04  0.7818608E-02  0.8317470E-01
         -1   -1    0    0    0  501 -0.00000000000E+00  0.00000000000E+00  0.77463630694E+03  0.77463630694E+03  0.00000000000E+00 0.  1.
          1   -1    0    0  501    0  0.00000000000E+00 -0.00000000000E+00 -0.24490211184E+04  0.24490211184E+04  0.00000000000E+00 0. -1.
         23    2    1    2    0    0  0.10976928522E+04  0.13763892361E+03  0.11869464262E+03  0.11167620792E+04  0.95890835389E+02 0.  0.
         11    1    3    3    0    0  0.56713573591E+03  0.46514572223E+02  0.19502570879E+02  0.56937412888E+03  0.00000000000E+00 0.  1.
        -11    1    3    3    0    0  0.53055711627E+03  0.91124351390E+02  0.99192071745E+02  0.54738795030E+03  0.00000000000E+00 0. -1.
         22    1    1    2    0    0 -0.10976928522E+04 -0.13763892361E+03 -0.17930794541E+04  0.21068953462E+04  0.00000000000E+00 0. -1.
<mgrwt>
<rscale>  0 0.27547056E+04</rscale>
<asrwt>0</asrwt>
<pdfrwt beam="1">  1        1 0.37677248E+00 0.27547056E+04</pdfrwt>
<pdfrwt beam="2">  1       -1 0.11917482E+00 0.27547056E+04</pdfrwt>
<totfact> 0.80383366E-01</totfact>
</mgrwt>
</event>
<event>
 6    1  0.1528034E-005  0.4040852E+04  0.7818608E-02  0.7996356E-01
          1   -1    0    0  501    0  0.00000000000E+00  0.00000000000E+00  0.25046469785E+04  0.25046469785E+04  0.00000000000E+00 0. -1.
         -1   -1    0    0    0  501 -0.00000000000E+00 -0.00000000000E+00 -0.16298192432E+04  0.16298192432E+04  0.00000000000E+00 0.  1.
         23    2    1    2    0    0 -0.99253213106E+03 -0.12947719319E+04  0.16553119123E+04  0.23259558022E+04  0.91969994787E+02 0.  0.
         11    1    3    3    0    0 -0.68436668453E+03 -0.85418516629E+03  0.11610759888E+04  0.15956464235E+04  0.00000000000E+00 0. -1.
        -11    1    3    3    0    0 -0.30816544653E+03 -0.44058676563E+03  0.49423592350E+03  0.73030937866E+03  0.00000000000E+00 0.  1.
         22    1    1    2    0    0  0.99253213106E+03  0.12947719319E+04 -0.78048417705E+03  0.18085104195E+04  0.00000000000E+00 0. -1.
<mgrwt>
<rscale>  0 0.40408523E+04</rscale>
<asrwt>0</asrwt>
<pdfrwt beam="1">  1        1 0.38533030E+00 0.40408523E+04</pdfrwt>
<pdfrwt beam="2">  1       -1 0.25074142E+00 0.40408523E+04</pdfrwt>
<totfact> 0.72320063E-02</totfact>
</mgrwt>
</event>
<event>
 6    1  0.1528034E-005  0.3103719E+03  0.7818608E-02  0.1080168E+00
         -2   -1    0    0    0  501 -0.00000000000E+00  0.00000000000E+00  0.10971746048E+03  0.10971746048E+03  0.00000000000E+00 0.  1.
          2   -1    0    0  501    0  0.00000000000E+00 -0.00000000000E+00 -0.21949718027E+03  0.21949718027E+03  0.00000000000E+00 0. -1.
         23    2    1    2    0    0 -0.77194974760E+02  0.80871625618E+00  0.66049094242E+02  0.13718472122E+03  0.92181596512E+02 0.  0.
         13    1    3    3    0    0 -0.58104274405E+02 -0.26463052802E+02  0.70623182171E+00  0.63850596169E+02  0.00000000000E+00 0. -1.
        -13    1    3    3    0    0 -0.19090700355E+02  0.27271769058E+02  0.65342862420E+02  0.73334125050E+02  0.00000000000E+00 0.  1.
         22    1    1    2    0    0  0.77194974760E+02 -0.80871625618E+00 -0.17582881404E+03  0.19202991953E+03  0.00000000000E+00 0. -1.
<mgrwt>
<rscale>  0 0.31037186E+03</rscale>
<asrwt>0</asrwt>
<pdfrwt beam="1">  1        2 0.33768797E-01 0.31037186E+03</pdfrwt>
<pdfrwt beam="2">  1       -2 0.16879609E-01 0.31037186E+03</pdfrwt>
<totfact> 0.43163745E+03</totfact>
</mgrwt>
</event>
<event>
 6    1  0.1528034E-005  0.1835831E+04  0.7818608E-02  0.8687474E-01
          2   -1    0    0  501    0  0.00000000000E+00  0.00000000000E+00  0.12646350733E+04  0.12646350733E+04  0.00000000000E+00 0.  1.
         -2   -1    0    0    0  501 -0.00000000000E+00 -0.00000000000E+00 -0.66625434992E+03  0.66625434992E+03  0.00000000000E+00 0. -1.
         23    2    1    2    0    0  0.23079026464E+03 -0.67790068908E+03  0.89997827514E+03  0.11538600970E+04  0.92837154869E+02 0.  0.
         11    1    3    3    0    0  0.12826571575E+03 -0.39471940579E+03  0.59302613834E+03  0.72383389248E+03  0.00000000000E+00 0.  1.
        -11    1    3    3    0    0  0.10252454889E+03 -0.28318128328E+03  0.30695213680E+03  0.43002620457E+03  0.00000000000E+00 0. -1.
         22    1    1    2    0    0 -0.23079026464E+03  0.67790068908E+03 -0.30159755176E+03  0.77702932617E+03  0.00000000000E+00 0. -1.
<mgrwt>
<rscale>  0 0.18358307E+04</rscale>
<asrwt>0</asrwt>
<pdfrwt beam="1">  1        2 0.19455924E+00 0.18358307E+04</pdfrwt>
<pdfrwt beam="2">  1       -2 0.10250067E+00 0.18358307E+04</pdfrwt>
<totfact> 0.12714218E+01</totfact>
</mgrwt>
</event>
<event>
 6    1  0.1528034E-005  0.1160142E+04  0.7818608E-02  0.9148478E-01
          2   -1    0    0  501    0  0.00000000000E+00  0.00000000000E+00  0.35564618603E+03  0.35564618603E+03  0.00000000000E+00 0. -1.
         -2   -1    0    0    0  501 -0.00000000000E+00 -0.00000000000E+00 -0.94611486163E+03  0.94611486163E+03  0.00000000000E+00 0.  1.
         23    2    1    2    0    0 -0.43274237279E+02 -0.57163548429E+03 -0.36064864629E+03  0.68413896872E+03  0.96637963229E+02 0.  0.
         11    1    3    3    0    0 -0.11349703699E+02 -0.38108673611E+03 -0.18824358299E+03  0.42519591102E+03  0.00000000000E+00 0. -1.
        -11    1    3    3    0    0 -0.31924533579E+02 -0.19054874818E+03 -0.17240506330E+03  0.25894305770E+03  0.00000000000E+00 0.  1.
         22    1    1    2    0    0  0.43274237279E+02  0.57163548429E+03 -0.22982002932E+03  0.61762207894E+03  0.00000000000E+00 0.  1.
<mgrwt>
<rscale>  0 0.11601416E+04</rscale>
<asrwt>0</asrwt>
<pdfrwt beam="1">  1        2 0.54714799E-01 0.11601416E+04</pdfrwt>
<pdfrwt beam="2">  1       -2 0.14555613E+00 0.11601416E+04</pdfrwt>
<totfact> 0.29097760E+01</totfact>
</mgrwt>
</event>
<event>
 6    1  0.1528034E-005  0.2497442E+04  0.7818608E-02  0.8403898E-01
          2   -1    0    0  501    0  0.00000000000E+00  0.00000000000E+00  0.29605944659E+04  0.29605944659E+04  0.00000000000E+00 0. -1.
         -2   -1    0    0    0  501 -0.00000000000E+00 -0.00000000000E+00 -0.52668603017E+03  0.52668603017E+03  0.00000000000E+00 0.  1.
         23    2    1    2    0    0  0.46331104924E+03  0.11154779005E+04  0.16508932164E+04  0.20478150020E+04  0.95654563965E+02 0.  0.
         11    1    3    3    0    0  0.23415210223E+03  0.52015728854E+03  0.70400810268E+03  0.90610055758E+03  0.00000000000E+00 0. -1.
        -11    1    3    3    0    0  0.22915894701E+03  0.59532061195E+03  0.94688511374E+03  0.11417144444E+04  0.00000000000E+00 0.  1.
         22    1    1    2    0    0 -0.46331104924E+03 -0.11154779005E+04  0.78301521927E+03  0.14394654940E+04  0.00000000000E+00 0.  1.
<mgrwt>
<rscale>  0 0.24974417E+04</rscale>
<asrwt>0</asrwt>
<pdfrwt beam="1">  1        2 0.45547606E+00 0.24974417E+04</pdfrwt>
<pdfrwt beam="2">  1       -2 0.81028622E-01 0.24974417E+04</pdfrwt>
<totfact> 0.22080569E+00</totfact>
</mgrwt>
</event>
<event>
 6    1  0.1528034E-005  0.8249054E+03  0.7818608E-02  0.9524651E-01
          2   -1    0    0  501    0  0.00000000000E+00  0.00000000000E+00  0.29715939939E+03  0.29715939939E+03  0.00000000000E+00 0. -1.
         -2   -1    0    0    0  501 -0.00000000000E+00 -0.00000000000E+00 -0.57247810538E+03  0.57247810538E+03  0.00000000000E+00 0.  1.
         23    2    1    2    0    0 -0.63870203660E+02  0.30821298374E+03 -0.41232938370E+03  0.52634961965E+03  0.89183828008E+02 0.  0.
         11    1    3    3    0    0 -0.57263323834E+02  0.13583115913E+03 -0.13581657470E+03  0.20043785573E+03  0.00000000000E+00 0.  1.
        -11    1    3    3    0    0 -0.66068798260E+01  0.17238182461E+03 -0.27651280900E+03  0.32591176392E+03  0.00000000000E+00 0. -1.
         22    1    1    2    0    0  0.63870203660E+02 -0.30821298374E+03  0.13701067771E+03  0.34328788512E+03  0.00000000000E+00 0. -1.
<mgrwt>
<rscale>  0 0.82490545E+03</rscale>
<asrwt>0</asrwt>
<pdfrwt beam="1">  1        2 0.45716831E-01 0.82490545E+03</pdfrwt>
<pdfrwt beam="2">  1       -2 0.88073554E-01 0.82490545E+03</pdfrwt>
<totfact> 0.12407602E+02</totfact>
</mgrwt>
</event>
<event>
 6    1  0.1528034E-005  0.2015681E+04  0.7818608E-02  0.8599324E-01
         -1   -1    0    0    0  501 -0.00000000000E+00  0.00000000000E+00  0.41738550883E+03  0.41738550883E+03  0.00000000000E+00 0.  1.
          1   -1    0    0  501    0  0.00000000000E+00 -0.00000000000E+00 -0.24335831076E+04  0.24335831076E+04  0.00000000000E+00 0. -1.
         23    2    1    2    0    0  0.39593792342E+03 -0.32673331025E+02 -0.23170487220E+04  0.23526255778E+04  0.91093047780E+02 0.  0.
         11    1    3    3    0    0  0.11270377898E+03  0.27840149178E+02 -0.76953548807E+03  0.77824294607E+03  0.00000000000E+00 0. -1.
        -11    1    3    3    0    0  0.28323414444E+03 -0.60513480204E+02 -0.15475132339E+04  0.15743826317E+04  0.00000000000E+00 0.  1.
         22    1    1    2    0    0 -0.39593792342E+03  0.32673331025E+02  0.30085112326E+03  0.49834303861E+03  0.00000000000E+00 0.  1.
<mgrwt>
<rscale>  0 0.20156809E+04</rscale>
<asrwt>0</asrwt>
<pdfrwt beam="1">  1        1 0.37439739E+00 0.20156809E+04</pdfrwt>
<pdfrwt beam="2">  1       -1 0.64213157E-01 0.20156809E+04</pdfrwt>
<totfact> 0.34326120E+00</totfact>
</mgrwt>
</event>
<event>
 6    1  0.1528034E-005  0.2486336E+04  0.7818608E-02  0.8407870E-01
         -2   -1    0    0    0  501 -0.00000000000E+00  0.00000000000E+00  0.39876173133E+03  0.39876173133E+03  0.00000000000E+00 0.  1.
          2   -1    0    0  501    0  0.00000000000E+00 -0.00000000000E+00 -0.38756638811E+04  0.38756638811E+04  0.00000000000E+00 0. -1.
         23    2    1    2    0    0  0.42487409571E+03 -0.10341058670E+04 -0.26689620603E+04  0.28950561443E+04  0.89992544705E+02 0.  0.
         13    1    3    3    0    0  0.29797802197E+03 -0.79888577839E+03 -0.19622078739E+04  0.21394553347E+04  0.00000000000E+00 0. -1.
        -13    1    3    3    0    0  0.12689607374E+03 -0.23522008862E+03 -0.70675418634E+03  0.75560080965E+03  0.00000000000E+00 0.  1.
         22    1    1    2    0    0 -0.42487409571E+03  0.10341058670E+04 -0.80794008952E+03  0.13793694681E+04  0.00000000000E+00 0.  1.
<mgrwt>
<rscale>  0 0.24863358E+04</rscale>
<asrwt>0</asrwt>
<pdfrwt beam="1">  1        2 0.59625600E+00 0.24863358E+04</pdfrwt>
<pdfrwt beam="2">  1       -2 0.61347957E-01 0.24863358E+04</pdfrwt>
<totfact> 0.95024829E-01</totfact>
</mgrwt>
</event>
<event>
 6    1  0.1528034E-005  0.2576978E+04  0.7818608E-02  0.8376063E-01
         -2   -1    0    0    0  501 -0.00000000000E+00  0.00000000000E+00  0.78537130201E+03  0.78537130201E+03  0.00000000000E+00 0.  1.
          2   -1    0    0  501    0  0.00000000000E+00 -0.00000000000E+00 -0.21139099531E+04  0.21139099531E+04  0.00000000000E+00 0. -1.
         23    2    1    2    0    0 -0.96401083257E+03 -0.68826945886E+03 -0.12309728009E+04  0.17107734392E+04  0.91760505549E+02 0.  0.
         13    1    3    3    0    0 -0.13385524662E+03 -0.12301444774E+03 -0.15494738591E+03  0.23886915623E+03  0.00000000000E+00 0.  1.
        -13    1    3    3    0    0 -0.83015558595E+03 -0.56525501112E+03 -0.10760254150E+04  0.14719042829E+04  0.00000000000E+00 0. -1.
         22    1    1    2    0    0  0.96401083257E+03  0.68826945886E+03 -0.97565850161E+02  0.11885078159E+04  0.00000000000E+00 0.  1.
<mgrwt>
<rscale>  0 0.25769782E+04</rscale>
<asrwt>0</asrwt>
<pdfrwt beam="1">  1        2 0.32521692E+00 0.25769782E+04</pdfrwt>
<pdfrwt beam="2">  1       -2 0.12082635E+00 0.25769782E+04</pdfrwt>
<totfact> 0.26699123E+00</totfact>
</mgrwt>
</event>
<event>
 6    1  0.1528034E-005  0.5830755E+04  0.7818608E-02  0.7711748E-01
          2   -1    0    0  501    0  0.00000000000E+00  0.00000000000E+00  0.30493246413E+04  0.30493246413E+04  0.00000000000E+00 0. -1.
         -2   -1    0    0    0  501 -0.00000000000E+00 -0.00000000000E+00 -0.27873139016E+04  0.27873139016E+04  0.00000000000E+00 0.  1.
         23    2    1    2    0    0 -0.27738436796E+04 -0.46265012367E+02 -0.76371597120E+03  0.28788582104E+04  0.90627263321E+02 0.  0.
         13    1    3    3    0    0 -0.15018870755E+04 -0.61153853908E+02 -0.38550623521E+03  0.15517795071E+04  0.00000000000E+00 0. -1.
        -13    1    3    3    0    0 -0.12719566041E+04  0.14888841541E+02 -0.37820973599E+03  0.13270787033E+04  0.00000000000E+00 0.  1.
         22    1    1    2    0    0  0.27738436796E+04  0.46265012367E+02  0.10257267109E+04  0.29577803325E+04  0.00000000000E+00 0. -1.
<mgrwt>
<rscale>  0 0.58307547E+04</rscale>
<asrwt>0</asrwt>
<pdfrwt beam="1">  1        2 0.46912687E+00 0.58307547E+04</pdfrwt>
<pdfrwt beam="2">  1       -2 0.42881752E+00 0.58307547E+04</pdfrwt>
<totfact> 0.53108491E-03</totfact>
</mgrwt>
</event>
<event>
 6    1  0.1528034E-005  0.2327117E+04  0.7818608E-02  0.8467306E-01
          2   -1    0    0  501    0  0.00000000000E+00  0.00000000000E+00  0.11001139813E+04  0.11001139813E+04  0.00000000000E+00 0.  1.
         -2   -1    0    0    0  501 -0.00000000000E+00 -0.00000000000E+00 -0.12306613903E+04  0.12306613903E+04  0.00000000000E+00 0. -1.
         23    2    1    2    0    0 -0.96814950845E+03  0.63842665123E+03 -0.13304403658E+03  0.11710735596E+04  0.93864298613E+02 0.  0.
         13    1    3    3    0    0 -0.79631318756E+02  0.83986537235E+02 -0.22930661635E+02  0.11798601869E+03  0.00000000000E+00 0. -1.
        -13    1    3    3    0    0 -0.88851818969E+03  0.55444011399E+03 -0.11011337495E+03  0.10530875409E+04  0.00000000000E+00 0.  1.
         22    1    1    2    0    0  0.96814950845E+03 -0.63842665123E+03  0.24966275103E+01  0.11597018120E+04  0.00000000000E+00 0.  1.
<mgrwt>
<rscale>  0 0.23271165E+04</rscale>
<asrwt>0</asrwt>
<pdfrwt beam="1">  1        2 0.16924830E+00 0.23271165E+04</pdfrwt>
<pdfrwt beam="2">  1       -2 0.18933252E+00 0.23271165E+04</pdfrwt>
<totfact> 0.30856398E+00</totfact>
</mgrwt>
</event>
<event>
 6    1  0.1528034E-005  0.1190067E+04  0.7818608E-02  0.9121596E-01
          1   -1    0    0  501    0  0.00000000000E+00  0.00000000000E+00  0.35654717930E+03  0.35654717930E+03  0.00000000000E+00 0. -1.
         -1   -1    0    0    0  501 -0.00000000000E+00 -0.00000000000E+00 -0.99303779404E+03  0.99303779404E+03  0.00000000000E+00 0.  1.
         23    2    1    2    0    0  0.10978830453E+03 -0.23795983908E+03 -0.92107471459E+03  0.96271746796E+03  0.98832871215E+02 0.  0.
         13    1    3    3    0    0  0.23669435327E+01 -0.11567998486E+03 -0.33271054672E+03  0.35225526145E+03  0.00000000000E+00 0. -1.
        -13    1    3    3    0    0  0.10742136100E+03 -0.12227985422E+03 -0.58836416787E+03  0.61046220651E+03  0.00000000000E+00 0.  1.
         22    1    1    2    0    0 -0.10978830453E+03  0.23795983908E+03  0.28458409985E+03  0.38686750538E+03  0.00000000000E+00 0. -1.
<mgrwt>
<rscale>  0 0.11900669E+04</rscale>
<asrwt>0</asrwt>
<pdfrwt beam="1">  1        1 0.54853413E-01 0.11900669E+04</pdfrwt>
<pdfrwt beam="2">  1       -1 0.15277504E+00 0.11900669E+04</pdfrwt>
<totfact> 0.22980882E+01</totfact>
</mgrwt>
</event>
<event>
 6    1  0.1528034E-005  0.1487344E+04  0.7818608E-02  0.8892913E-01
         -1   -1    0    0    0  501 -0.00000000000E+00  0.00000000000E+00  0.44468455767E+03  0.44468455767E+03  0.00000000000E+00 0.  1.
          1   -1    0    0  501    0  0.00000000000E+00 -0.00000000000E+00 -0.12436868432E+04  0.12436868432E+04  0.00000000000E+00 0. -1.
         23    2    1    2    0    0  0.96592033809E+02  0.74335035420E+02 -0.12305774412E+04  0.12399153458E+04  0.90628403271E+02 0.  0.
         11    1    3    3    0    0  0.61045826551E+01  0.59582844118E+02 -0.52541289513E+03  0.52881574448E+03  0.00000000000E+00 0. -1.
        -11    1    3    3    0    0  0.90487451154E+02  0.14752191302E+02 -0.70516454603E+03  0.71109960128E+03  0.00000000000E+00 0.  1.
         22    1    1    2    0    0 -0.96592033809E+02 -0.74335035420E+02  0.43157515559E+03  0.44845605516E+03  0.00000000000E+00 0.  1.
<mgrwt>
<rscale>  0 0.14873444E+04</rscale>
<asrwt>0</asrwt>
<pdfrwt beam="1">  1        1 0.19133644E+00 0.14873444E+04</pdfrwt>
<pdfrwt beam="2">  1       -1 0.68413010E-01 0.14873444E+04</pdfrwt>
<totfact> 0.20796900E+01</totfact>
</mgrwt>
</event>
<event>
 6    1  0.1528034E-005  0.3701956E+04  0.7818608E-02  0.8067529E-01
          1   -1    0    0  501    0  0.00000000000E+00  0.00000000000E+00  0.24310741044E+04  0.24310741044E+04  0.00000000000E+00 0. -1.
         -1   -1    0    0    0  501 -0.00000000000E+00 -0.00000000000E+00 -0.14093027455E+04  0.14093027455E+04  0.00000000000E+00 0.  1.
         23    2    1    2    0    0  0.67750788734E+03 -0.82753831883E+03 -0.10546009589E+04  0.15047487528E+04  0.90824115594E+02 0.  0.
         11    1    3    3    0    0  0.22895955758E+03 -0.21817857449E+03 -0.33066888220E+03  0.45756560080E+03  0.00000000000E+00 0. -1.
        -11    1    3    3    0    0  0.44854832976E+03 -0.60935974434E+03 -0.72393207666E+03  0.10471831520E+04  0.00000000000E+00 0.  1.
         22    1    1    2    0    0 -0.67750788734E+03  0.82753831883E+03  0.20763723177E+04  0.23356280972E+04  0.00000000000E+00 0. -1.
<mgrwt>
<rscale>  0 0.37019559E+04</rscale>
<asrwt>0</asrwt>
<pdfrwt beam="1">  1        1 0.37401140E+00 0.37019559E+04</pdfrwt>
<pdfrwt beam="2">  1       -1 0.21681581E+00 0.37019559E+04</pdfrwt>
<totfact> 0.14023390E-01</totfact>
</mgrwt>
</event>
<event>
 6    1  0.1528034E-005  0.1399332E+04  0.7818608E-02  0.8954302E-01
          2   -1    0    0  501    0  0.00000000000E+00  0.00000000000E+00  0.93290842278E+03  0.93290842278E+03  0.00000000000E+00 0. -1.
         -2   -1    0    0    0  501 -0.00000000000E+00 -0.00000000000E+00 -0.52473792193E+03  0.52473792193E+03  0.00000000000E+00 0.  1.
         23    2    1    2    0    0  0.38277060379E+03 -0.51371212977E+03  0.48848572432E+03  0.81199626726E+03  0.10151919906E+03 0.  0.
         11    1    3    3    0    0  0.27521584942E+03 -0.30185450934E+03  0.34302348143E+03  0.53340886512E+03  0.00000000000E+00 0.  1.
        -11    1    3    3    0    0  0.10755475437E+03 -0.21185762042E+03  0.14546224289E+03  0.27858740213E+03  0.00000000000E+00 0. -1.
         22    1    1    2    0    0 -0.38277060379E+03  0.51371212977E+03 -0.80315223476E+02  0.64565007745E+03  0.00000000000E+00 0.  1.
<mgrwt>
<rscale>  0 0.13993319E+04</rscale>
<asrwt>0</asrwt>
<pdfrwt beam="1">  1        2 0.14352437E+00 0.13993319E+04</pdfrwt>
<pdfrwt beam="2">  1       -2 0.80728911E-01 0.13993319E+04</pdfrwt>
<totfact> 0.36746703E+01</totfact>
</mgrwt>
</event>
<event>
 6    1  0.1528034E-005  0.3083435E+04  0.7818608E-02  0.8220299E-01
         -2   -1    0    0    0  501 -0.00000000000E+00  0.00000000000E+00  0.84796471926E+03  0.84796471926E+03  0.00000000000E+00 0.  1.
          2   -1    0    0  501    0  0.00000000000E+00 -0.00000000000E+00 -0.28030567824E+04  0.28030567824E+04  0.00000000000E+00 0. -1.
         23    2    1    2    0    0 -0.22617754381E+03 -0.13413546300E+04 -0.12268371587E+03  0.13688933554E+04  0.91810673834E+02 0.  0.
         13    1    3    3    0    0 -0.13445626915E+03 -0.73283034328E+03 -0.22565596350E+02  0.74540459248E+03  0.00000000000E+00 0.  1.
        -13    1    3    3    0    0 -0.91721274663E+02 -0.60852428667E+03 -0.10011811952E+03  0.62348876297E+03  0.00000000000E+00 0. -1.
         22    1    1    2    0    0  0.22617754381E+03  0.13413546300E+04 -0.18324083473E+04  0.22821281462E+04  0.00000000000E+00 0. -1.
<mgrwt>
<rscale>  0 0.30834353E+04</rscale>
<asrwt>0</asrwt>
<pdfrwt beam="1">  1        2 0.43123950E+00 0.30834353E+04</pdfrwt>
<pdfrwt beam="2">  1       -2 0.13045611E+00 0.30834353E+04</pdfrwt>
<totfact> 0.84226753E-01</totfact>
</mgrwt>
</event>
<event>
 6    1  0.1528034E-005  0.3368577E+04  0.7818608E-02  0.8145662E-01
          1   -1    0    0  501    0  0.00000000000E+00  0.00000000000E+00  0.19720439318E+04  0.19720439318E+04  0.00000000000E+00 0. -1.
         -1   -1    0    0    0  501 -0.00000000000E+00 -0.00000000000E+00 -0.14385216054E+04  0.14385216054E+04  0.00000000000E+00 0.  1.
         23    2    1    2    0    0  0.72542906702E+03 -0.13224373649E+04  0.10230459087E+04  0.18247782713E+04  0.90027177847E+02 0.  0.
         13    1    3    3    0    0  0.16947536614E+03 -0.23539437497E+03  0.19429760882E+03  0.34911885124E+03  0.00000000000E+00 0. -1.
        -13    1    3    3    0    0  0.55595370089E+03 -0.10870429899E+04  0.82874829986E+03  0.14756594200E+04  0.00000000000E+00 0.  1.
         22    1    1    2    0    0 -0.72542906702E+03  0.13224373649E+04 -0.48952358227E+03  0.15857872660E+04  0.00000000000E+00 0.  1.
<mgrwt>
<rscale>  0 0.33685770E+04</rscale>
<asrwt>0</asrwt>
<pdfrwt beam="1">  1        1 0.30339137E+00 0.33685770E+04</pdfrwt>
<pdfrwt beam="2">  1       -1 0.22131102E+00 0.33685770E+04</pdfrwt>
<totfact> 0.27695906E-01</totfact>
</mgrwt>
</event>
<event>
 6    1  0.1528034E-005  0.2408639E+04  0.7818608E-02  0.8436276E-01
         -1   -1    0    0    0  501 -0.00000000000E+00  0.00000000000E+00  0.13056934874E+04  0.13056934874E+04  0.00000000000E+00 0.  1.
          1   -1    0    0  501    0  0.00000000000E+00 -0.00000000000E+00 -0.11108165614E+04  0.11108165614E+04  0.00000000000E+00 0. -1.
         23    2    1    2    0    0  0.23173936371E+02  0.11187352245E+04  0.53941522571E+03  0.12456931656E+04  0.93151184899E+02 0.  0.
         13    1    3    3    0    0  0.54418425538E+00  0.25017727961E+03  0.78795368418E+02  0.26229311362E+03  0.00000000000E+00 0. -1.
        -13    1    3    3    0    0  0.22629752115E+02  0.86855794493E+03  0.46061985729E+03  0.98340005202E+03  0.00000000000E+00 0.  1.
         22    1    1    2    0    0 -0.23173936371E+02 -0.11187352245E+04 -0.34453829977E+03  0.11708168832E+04  0.00000000000E+00 0. -1.
<mgrwt>
<rscale>  0 0.24086394E+04</rscale>
<asrwt>0</asrwt>
<pdfrwt beam="1">  1        1 0.17089486E+00 0.24086394E+04</pdfrwt>
<pdfrwt beam="2">  1       -1 0.20087592E+00 0.24086394E+04</pdfrwt>
<totfact> 0.16537970E+00</totfact>
</mgrwt>
</event>
<event>
 6    1  0.1528034E-005  0.1167528E+04  0.7818608E-02  0.9141763E-01
          1   -1    0    0  501    0  0.00000000000E+00  0.00000000000E+00  0.97367453991E+03  0.97367453991E+03  0.00000000000E+00 0. -1.
         -1   -1    0    0    0  501 -0.00000000000E+00 -0.00000000000E+00 -0.34999441016E+03  0.34999441016E+03  0.00000000000E+00 0.  1.
         23    2    1    2    0    0 -0.12875137374E+03 -0.56580751507E+03  0.31570896459E+03  0.66673569705E+03  0.90273357303E+02 0.  0.
         13    1    3    3    0    0 -0.22663813161E+02 -0.19904170497E+03  0.67712271879E+02  0.21146205454E+03  0.00000000000E+00 0. -1.
        -13    1    3    3    0    0 -0.10608756058E+03 -0.36676581010E+03  0.24799669271E+03  0.45527364251E+03  0.00000000000E+00 0.  1.
         22    1    1    2    0    0  0.12875137374E+03  0.56580751507E+03  0.30797116516E+03  0.65693325302E+03  0.00000000000E+00 0.  1.
<mgrwt>
<rscale>  0 0.11675284E+04</rscale>
<asrwt>0</asrwt>
<pdfrwt beam="1">  1        1 0.14979608E+00 0.11675284E+04</pdfrwt>
<pdfrwt beam="2">  1       -1 0.53845294E-01 0.11675284E+04</pdfrwt>
<totfact> 0.54799652E+01</totfact>
</mgrwt>
</event>
<event>
 6    1  0.1528034E-005  0.2691705E+04  0.7818608E-02  0.8337701E-01
         -1   -1    0    0    0  501 -0.00000000000E+00  0.00000000000E+00  0.10086677158E+04  0.10086677158E+04  0.00000000000E+00 0.  1.
          1   -1    0    0  501    0  0.00000000000E+00 -0.00000000000E+00 -0.17957538746E+04  0.17957538746E+04  0.00000000000E+00 0. -1.
         23    2    1    2    0    0  0.57423043845E+03  0.35580786881E+03  0.81694712369E+03  0.10639438952E+04  0.90742345586E+02 0.  0.
         11    1    3    3    0    0  0.36783546004E+03  0.22301122584E+03  0.45034651843E+03  0.62277517546E+03  0.00000000000E+00 0. -1.
        -11    1    3    3    0    0  0.20639497841E+03  0.13279664298E+03  0.36660060526E+03  0.44116871974E+03  0.00000000000E+00 0.  1.
         22    1    1    2    0    0 -0.57423043845E+03 -0.35580786881E+03 -0.16040332825E+04  0.17404776951E+04  0.00000000000E+00 0. -1.
<mgrwt>
<rscale>  0 0.26917050E+04</rscale>
<asrwt>0</asrwt>
<pdfrwt beam="1">  1        1 0.27626983E+00 0.26917050E+04</pdfrwt>
<pdfrwt beam="2">  1       -1 0.15517965E+00 0.26917050E+04</pdfrwt>
<totfact> 0.11399430E+00</totfact>
</mgrwt>
</event>
<event>
 6    1  0.1528034E-005  0.1094201E+04  0.7818608E-02  0.9210862E-01
          2   -1    0    0  501    0  0.00000000000E+00  0.00000000000E+00  0.90103479025E+03  0.90103479025E+03  0.00000000000E+00 0. -1.
         -2   -1    0    0    0  501 -0.00000000000E+00 -0.00000000000E+00 -0.33219486280E+03  0.33219486280E+03  0.00000000000E+00 0.  1.
         23    2    1    2    0    0 -0.15943368514E+03  0.50534986734E+03  0.15149639781E+03  0.55871263317E+03  0.91711828780E+02 0.  0.
         13    1    3    3    0    0 -0.15705765093E+02  0.13091257058E+03  0.70591437715E+02  0.14955909626E+03  0.00000000000E+00 0.  1.
        -13    1    3    3    0    0 -0.14372792004E+03  0.37443729676E+03  0.80904960092E+02  0.40915353691E+03  0.00000000000E+00 0. -1.
         22    1    1    2    0    0  0.15943368514E+03 -0.50534986734E+03  0.41734352964E+03  0.67451701988E+03  0.00000000000E+00 0.  1.
<mgrwt>
<rscale>  0 0.10942013E+04</rscale>
<asrwt>0</asrwt>
<pdfrwt beam="1">  1        2 0.13862074E+00 0.10942013E+04</pdfrwt>
<pdfrwt beam="2">  1       -2 0.51106902E-01 0.10942013E+04</pdfrwt>
<totfact> 0.10519735E+02</totfact>
</mgrwt>
</event>
<event>
 6    1  0.1528034E-005  0.2256833E+04  0.7818608E-02  0.8495138E-01
          1   -1    0    0  501    0  0.00000000000E+00  0.00000000000E+00  0.94325921147E+03  0.94325921147E+03  0.00000000000E+00 0. -1.
         -1   -1    0    0    0  501 -0.00000000000E+00 -0.00000000000E+00 -0.13499197708E+04  0.13499197708E+04  0.00000000000E+00 0.  1.
         23    2    1    2    0    0 -0.62469074696E+02 -0.94541060954E+03 -0.82288495098E+03  0.12583136045E+04  0.92249004469E+02 0.  0.
         13    1    3    3    0    0  0.52427066533E+01 -0.13428250825E+03 -0.80467532936E+02  0.15663429335E+03  0.00000000000E+00 0. -1.
        -13    1    3    3    0    0 -0.67711781350E+02 -0.81112810129E+03 -0.74241741804E+03  0.11016793112E+04  0.00000000000E+00 0.  1.
         22    1    1    2    0    0  0.62469074696E+02  0.94541060954E+03  0.41622439163E+03  0.10348653778E+04  0.00000000000E+00 0. -1.
<mgrwt>
<rscale>  0 0.22568334E+04</rscale>
<asrwt>0</asrwt>
<pdfrwt beam="1">  1        1 0.14511680E+00 0.22568334E+04</pdfrwt>
<pdfrwt beam="2">  1       -1 0.20767997E+00 0.22568334E+04</pdfrwt>
<totfact> 0.20297434E+00</totfact>
</mgrwt>
</event>
<event>
 6    1  0.1528034E-005  0.1671862E+04  0.7818608E-02  0.8777577E-01
         -1   -1    0    0    0  501 -0.00000000000E+00  0.00000000000E+00  0.25021148736E+03  0.25021148736E+03  0.00000000000E+00 0.  1.
          1   -1    0    0  501    0  0.00000000000E+00 -0.00000000000E+00 -0.27927597402E+04  0.27927597402E+04  0.00000000000E+00 0. -1.
         23    2    1    2    0    0 -0.30061238279E+03 -0.13526286601E+03 -0.26683085493E+04  0.26901547033E+04  0.91640415573E+02 0.  0.
         13    1    3    3    0    0 -0.10466847750E+03 -0.74211856048E+02 -0.74970672026E+03  0.76060703136E+03  0.00000000000E+00 0.  1.
        -13    1    3    3    0    0 -0.19594390529E+03 -0.61051009958E+02 -0.19186018291E+04  0.19295476720E+04  0.00000000000E+00 0. -1.
         22    1    1    2    0    0  0.30061238279E+03  0.13526286601E+03  0.12576029650E+03  0.35281652424E+03  0.00000000000E+00 0.  1.
<mgrwt>
<rscale>  0 0.16718619E+04</rscale>
<asrwt>0</asrwt>
<pdfrwt beam="1">  1        1 0.42965531E+00 0.16718619E+04</pdfrwt>
<pdfrwt beam="2">  1       -1 0.38494078E-01 0.16718619E+04</pdfrwt>
<totfact> 0.52715810E+00</totfact>
</mgrwt>
</event>
<event>
 6    1  0.1528034E-005  0.2840185E+04  0.7818608E-02  0.8290900E-01
          1   -1    0    0  501    0  0.00000000000E+00  0.00000000000E+00  0.13928435300E+04  0.13928435300E+04  0.00000000000E+00 0. -1.
         -1   -1    0    0    0  501 -0.00000000000E+00 -0.00000000000E+00 -0.14478748230E+04  0.14478748230E+04  0.00000000000E+00 0.  1.
         23    2    1    2    0    0  0.92846326232E+02  0.35957603851E+03  0.13417920279E+04  0.13953703820E+04  0.93473467370E+02 0.  0.
         13    1    3    3    0    0  0.10617676562E+03  0.24334279669E+03  0.96223488745E+03  0.99819096414E+03  0.00000000000E+00 0.  1.
        -13    1    3    3    0    0 -0.13330439393E+02  0.11623324182E+03  0.37955714042E+03  0.39717941785E+03  0.00000000000E+00 0. -1.
         22    1    1    2    0    0 -0.92846326232E+02 -0.35957603851E+03 -0.13968233208E+04  0.14453479710E+04  0.00000000000E+00 0.  1.
<mgrwt>
<rscale>  0 0.28401853E+04</rscale>
<asrwt>0</asrwt>
<pdfrwt beam="1">  1        1 0.21428362E+00 0.28401853E+04</pdfrwt>
<pdfrwt beam="2">  1       -1 0.22274997E+00 0.28401853E+04</pdfrwt>
<totfact> 0.70736364E-01</totfact>
</mgrwt>
</event>
<event>
 6    1  0.1528034E-005  0.4191070E+04  0.7818608E-02  0.7967073E-01
         -2   -1    0    0    0  501 -0.00000000000E+00  0.00000000000E+00  0.15275626113E+04  0.15275626113E+04  0.00000000000E+00 0.  1.
          2   -1    0    0  501    0  0.00000000000E+00 -0.00000000000E+00 -0.28746891751E+04  0.28746891751E+04  0.00000000000E+00 0. -1.
         23    2    1    2    0    0 -0.14517534480E+04  0.12265998635E+03  0.90668145886E+03  0.17185446211E+04  0.93224464445E+02 0.  0.
         13    1    3    3    0    0 -0.10397365591E+04  0.52048947984E+02  0.67310223448E+03  0.12396885994E+04  0.00000000000E+00 0.  1.
        -13    1    3    3    0    0 -0.41201688889E+03  0.70611038370E+02  0.23357922438E+03  0.47885602172E+03  0.00000000000E+00 0. -1.
         22    1    1    2    0    0  0.14517534480E+04 -0.12265998635E+03 -0.22538080226E+04  0.26837071653E+04  0.00000000000E+00 0. -1.
<mgrwt>
<rscale>  0 0.41910704E+04</rscale>
<asrwt>0</asrwt>
<pdfrwt beam="1">  1        2 0.44225987E+00 0.41910704E+04</pdfrwt>
<pdfrwt beam="2">  1       -2 0.23500963E+00 0.41910704E+04</pdfrwt>
<totfact> 0.12864432E-01</totfact>
</mgrwt>
</event>
<event>
 6    1  0.1528034E-005  0.1675528E+04  0.7818608E-02  0.8775446E-01
         -1   -1    0    0    0  501 -0.00000000000E+00  0.00000000000E+00  0.88162021851E+03  0.88162021851E+03  0.00000000000E+00 0.  1.
          1   -1    0    0  501    0  0.00000000000E+00 -0.00000000000E+00 -0.79608954923E+03  0.79608954923E+03  0.00000000000E+00 0. -1.
         23    2    1    2    0    0  0.55129110872E+03  0.57971841153E+03 -0.19824392173E+03  0.82887330426E+03  0.87948728107E+02 0.  0.
         11    1    3    3    0    0  0.25963475163E+03  0.26931097664E+03 -0.47656793048E+02  0.37710711518E+03  0.00000000000E+00 0.  1.
        -11    1    3    3    0    0  0.29165635709E+03  0.31040743489E+03 -0.15058712868E+03  0.45176618908E+03  0.00000000000E+00 0. -1.
         22    1    1    2    0    0 -0.55129110872E+03 -0.57971841153E+03  0.28377459101E+03  0.84883646348E+03  0.00000000000E+00 0.  1.
<mgrwt>
<rscale>  0 0.16755281E+04</rscale>
<asrwt>0</asrwt>
<pdfrwt beam="1">  1        1 0.12247532E+00 0.16755281E+04</pdfrwt>
<pdfrwt beam="2">  1       -1 0.13563388E+00 0.16755281E+04</pdfrwt>
<totfact> 0.96728273E+00</totfact>
</mgrwt>
</event>
<event>
 6    1  0.1528034E-005  0.3086970E+04  0.7818608E-02  0.8219323E-01
         -1   -1    0    0    0  501 -0.00000000000E+00  0.00000000000E+00  0.13327178031E+04  0.13327178031E+04  0.00000000000E+00 0.  1.
          1   -1    0    0  501    0  0.00000000000E+00 -0.00000000000E+00 -0.17875851049E+04  0.17875851049E+04  0.00000000000E+00 0. -1.
         23    2    1    2    0    0  0.97441196594E+02 -0.99171465878E+03  0.96200936536E+03  0.13880984624E+04  0.91447094163E+02 0.  0.
         13    1    3    3    0    0  0.97995369113E+02 -0.64444678169E+03  0.59035243400E+03  0.87944911344E+03  0.00000000000E+00 0. -1.
        -13    1    3    3    0    0 -0.55417251944E+00 -0.34726787709E+03  0.37165693136E+03  0.50864934896E+03  0.00000000000E+00 0.  1.
         22    1    1    2    0    0 -0.97441196594E+02  0.99171465878E+03 -0.14168766672E+04  0.17322044456E+04  0.00000000000E+00 0. -1.
<mgrwt>
<rscale>  0 0.30869704E+04</rscale>
<asrwt>0</asrwt>
<pdfrwt beam="1">  1        1 0.27501309E+00 0.30869704E+04</pdfrwt>
<pdfrwt beam="2">  1       -1 0.20503351E+00 0.30869704E+04</pdfrwt>
<totfact> 0.48773041E-01</totfact>
</mgrwt>
</event>
<event>
 6    1  0.1528034E-005  0.3196915E+04  0.7818608E-02  0.8189632E-01
         -2   -1    0    0    0  501 -0.00000000000E+00  0.00000000000E+00  0.11606672522E+04  0.11606672522E+04  0.00000000000E+00 0. -1.
          2   -1    0    0  501    0  0.00000000000E+00 -0.00000000000E+00 -0.22013769643E+04  0.22013769643E+04  0.00000000000E+00 0.  1.
         23    2    1    2    0    0  0.60270979316E+03  0.11042733419E+04  0.51426263343E+03  0.13618897966E+04  0.87172549908E+02 0.  0.
         11    1    3    3    0    0  0.50873346714E+03  0.98001534876E+03  0.46888794026E+03  0.11996231595E+04  0.00000000000E+00 0. -1.
        -11    1    3    3    0    0  0.93976326024E+02  0.12425799316E+03  0.45374693164E+02  0.16226663704E+03  0.00000000000E+00 0.  1.
         22    1    1    2    0    0 -0.60270979316E+03 -0.11042733419E+04 -0.15549723455E+04  0.20001544200E+04  0.00000000000E+00 0.  1.
<mgrwt>
<rscale>  0 0.31969149E+04</rscale>
<asrwt>0</asrwt>
<pdfrwt beam="1">  1        2 0.33867338E+00 0.31969149E+04</pdfrwt>
<pdfrwt beam="2">  1       -2 0.17856419E+00 0.31969149E+04</pdfrwt>
<totfact> 0.80550044E-01</totfact>
</mgrwt>
</event>
<event>
 6    1  0.1528034E-005  0.1240915E+04  0.7818608E-02  0.9077778E-01
          3   -1    0    0  501    0  0.00000000000E+00  0.00000000000E+00  0.47386362027E+03  0.47386362027E+03  0.00000000000E+00 0. -1.
         -3   -1    0    0    0  501 -0.00000000000E+00 -0.00000000000E+00 -0.81240192065E+03  0.81240192065E+03  0.00000000000E+00 0.  1.
         23    2    1    2    0    0  0.50497842280E+03 -0.30471828753E+03  0.17895433227E+02  0.59713460365E+03  0.91613569384E+02 0.  0.
         13    1    3    3    0    0  0.21544859465E+03 -0.12006656795E+03 -0.36897886494E+02  0.24939031999E+03  0.00000000000E+00 0.  1.
        -13    1    3    3    0    0  0.28952982815E+03 -0.18465171958E+03  0.54793319721E+02  0.34774428366E+03  0.00000000000E+00 0. -1.
         22    1    1    2    0    0 -0.50497842280E+03  0.30471828753E+03 -0.35643373361E+03  0.68913093727E+03  0.00000000000E+00 0.  1.
<mgrwt>
<rscale>  0 0.12409153E+04</rscale>
<asrwt>0</asrwt>
<pdfrwt beam="1">  1        3 0.72902097E-01 0.12409153E+04</pdfrwt>
<pdfrwt beam="2">  1       -3 0.12498491E+00 0.12409153E+04</pdfrwt>
<totfact> 0.23572140E+00</totfact>
</mgrwt>
</event>
<event>
 6    1  0.1528034E-005  0.1560151E+04  0.7818608E-02  0.8845410E-01
         -1   -1    0    0    0  501 -0.00000000000E+00  0.00000000000E+00  0.20321721715E+04  0.20321721715E+04  0.00000000000E+00 0.  1.
          1   -1    0    0  501    0  0.00000000000E+00 -0.00000000000E+00 -0.29944199733E+03  0.29944199733E+03  0.00000000000E+00 0. -1.
         23    2    1    2    0    0 -0.19053059042E+02 -0.73039058656E+03  0.12668200749E+04  0.14650660463E+04  0.88045386220E+02 0.  0.
         13    1    3    3    0    0 -0.41470747751E+02 -0.19054748690E+03  0.31015755620E+03  0.36636849940E+03  0.00000000000E+00 0. -1.
        -13    1    3    3    0    0  0.22417688709E+02 -0.53984309967E+03  0.95666251867E+03  0.10986975469E+04  0.00000000000E+00 0.  1.
         22    1    1    2    0    0  0.19053059042E+02  0.73039058656E+03  0.46591009934E+03  0.86654812254E+03  0.00000000000E+00 0. -1.
<mgrwt>
<rscale>  0 0.15601509E+04</rscale>
<asrwt>0</asrwt>
<pdfrwt beam="1">  1        1 0.46068001E-01 0.15601509E+04</pdfrwt>
<pdfrwt beam="2">  1       -1 0.31264186E+00 0.15601509E+04</pdfrwt>
<totfact> 0.23188854E+00</totfact>
</mgrwt>
</event>
<event>
 6    1  0.1528034E-005  0.3028343E+04  0.7818608E-02  0.8235683E-01
         -1   -1    0    0    0  501 -0.00000000000E+00  0.00000000000E+00  0.91403819790E+03  0.91403819790E+03  0.00000000000E+00 0.  1.
          1   -1    0    0  501    0  0.00000000000E+00 -0.00000000000E+00 -0.25083362983E+04  0.25083362983E+04  0.00000000000E+00 0. -1.
         23    2    1    2    0    0  0.12818615943E+04  0.55479612487E+03 -0.14545032393E+04  0.20186257685E+04  0.91117687351E+02 0.  0.
         13    1    3    3    0    0  0.51317126488E+03  0.24630536647E+03 -0.64892795081E+03  0.86320250579E+03  0.00000000000E+00 0. -1.
        -13    1    3    3    0    0  0.76869032946E+03  0.30849075841E+03 -0.80557528848E+03  0.11554232627E+04  0.00000000000E+00 0.  1.
         22    1    1    2    0    0 -0.12818615943E+04 -0.55479612487E+03 -0.13979486109E+03  0.14037487277E+04  0.00000000000E+00 0.  1.
<mgrwt>
<rscale>  0 0.30283429E+04</rscale>
<asrwt>0</asrwt>
<pdfrwt beam="1">  1        1 0.38589789E+00 0.30283429E+04</pdfrwt>
<pdfrwt beam="2">  1       -1 0.14062126E+00 0.30283429E+04</pdfrwt>
<totfact> 0.47004738E-01</totfact>
</mgrwt>
</event>
<event>
 6    1  0.1528034E-005  0.4860866E+04  0.7818608E-02  0.7850336E-01
         -1   -1    0    0    0  501 -0.00000000000E+00  0.00000000000E+00  0.22228756819E+04  0.22228756819E+04  0.00000000000E+00 0.  1.
          1   -1    0    0  501    0  0.00000000000E+00 -0.00000000000E+00 -0.26573709718E+04  0.26573709718E+04  0.00000000000E+00 0. -1.
         23    2    1    2    0    0 -0.96999830573E+03  0.22191571857E+04 -0.41052774889E+03  0.24582372046E+04  0.94030811580E+02 0.  0.
         11    1    3    3    0    0 -0.26174664858E+03  0.50017182130E+03 -0.91354667350E+02  0.57186434940E+03  0.00000000000E+00 0. -1.
        -11    1    3    3    0    0 -0.70825165715E+03  0.17189853644E+04 -0.31917308154E+03  0.18863728552E+04  0.00000000000E+00 0.  1.
         22    1    1    2    0    0  0.96999830573E+03 -0.22191571857E+04 -0.23967541041E+02  0.24220094490E+04  0.00000000000E+00 0. -1.
<mgrwt>
<rscale>  0 0.48608663E+04</rscale>
<asrwt>0</asrwt>
<pdfrwt beam="1">  1        1 0.40882630E+00 0.48608663E+04</pdfrwt>
<pdfrwt beam="2">  1       -1 0.34198087E+00 0.48608663E+04</pdfrwt>
<totfact> 0.13479674E-02</totfact>
</mgrwt>
</event>
<event>
 6    1  0.1528034E-005  0.1646871E+04  0.7818608E-02  0.8792260E-01
          2   -1    0    0  501    0  0.00000000000E+00  0.00000000000E+00  0.15950645701E+04  0.15950645701E+04  0.00000000000E+00 0. -1.
         -2   -1    0    0    0  501 -0.00000000000E+00 -0.00000000000E+00 -0.42508991680E+03  0.42508991680E+03  0.00000000000E+00 0.  1.
         23    2    1    2    0    0  0.48853284699E+03 -0.24975790622E+03  0.13357596296E+04  0.14469808547E+04  0.91958966457E+02 0.  0.
         13    1    3    3    0    0  0.30209688267E+03 -0.14557430998E+03  0.92698567192E+03  0.98577727818E+03  0.00000000000E+00 0.  1.
        -13    1    3    3    0    0  0.18643596433E+03 -0.10418359623E+03  0.40877395768E+03  0.46120357653E+03  0.00000000000E+00 0. -1.
         22    1    1    2    0    0 -0.48853284699E+03  0.24975790622E+03 -0.16578497627E+03  0.57317363221E+03  0.00000000000E+00 0.  1.
<mgrwt>
<rscale>  0 0.16468708E+04</rscale>
<asrwt>0</asrwt>
<pdfrwt beam="1">  1        2 0.24539455E+00 0.16468708E+04</pdfrwt>
<pdfrwt beam="2">  1       -2 0.65398449E-01 0.16468708E+04</pdfrwt>
<totfact> 0.23102429E+01</totfact>
</mgrwt>
</event>
<event>
 6    1  0.1528034E-005  0.3362553E+04  0.7818608E-02  0.8147159E-01
         -1   -1    0    0    0  501 -0.00000000000E+00  0.00000000000E+00  0.13700057404E+04  0.13700057404E+04  0.00000000000E+00 0.  1.
          1   -1    0    0  501    0  0.00000000000E+00 -0.00000000000E+00 -0.20632688791E+04  0.20632688791E+04  0.00000000000E+00 0. -1.
         23    2    1    2    0    0 -0.14712250871E+04 -0.14145669934E+03  0.46826556125E+03  0.15534708597E+04  0.97395181830E+02 0.  0.
         11    1    3    3    0    0 -0.10392582972E+04 -0.70703725359E+02  0.29421484719E+03  0.10824136000E+04  0.00000000000E+00 0.  1.
        -11    1    3    3    0    0 -0.43196678990E+03 -0.70752973982E+02  0.17405071406E+03  0.47105725975E+03  0.00000000000E+00 0. -1.
         22    1    1    2    0    0  0.14712250871E+04  0.14145669934E+03 -0.11615286999E+04  0.18798037599E+04  0.00000000000E+00 0. -1.
<mgrwt>
<rscale>  0 0.33625527E+04</rscale>
<asrwt>0</asrwt>
<pdfrwt beam="1">  1        1 0.31742598E+00 0.33625527E+04</pdfrwt>
<pdfrwt beam="2">  1       -1 0.21077011E+00 0.33625527E+04</pdfrwt>
<totfact> 0.28297411E-01</totfact>
</mgrwt>
</event>
<event>
 6    1  0.1528034E-005  0.2164098E+04  0.7818608E-02  0.8533522E-01
          1   -1    0    0  501    0  0.00000000000E+00  0.00000000000E+00  0.67511033725E+03  0.67511033725E+03  0.00000000000E+00 0. -1.
         -1   -1    0    0    0  501 -0.00000000000E+00 -0.00000000000E+00 -0.17342790722E+04  0.17342790722E+04  0.00000000000E+00 0.  1.
         23    2    1    2    0    0  0.10764350195E+04  0.70015577636E+02 -0.59906458592E+03  0.12366531389E+04  0.82571638730E+02 0.  0.
         13    1    3    3    0    0  0.60373698552E+03 -0.12077862746E+01 -0.34240514404E+03  0.69407570848E+03  0.00000000000E+00 0.  1.
        -13    1    3    3    0    0  0.47269803398E+03  0.71223363910E+02 -0.25665944188E+03  0.54257743042E+03  0.00000000000E+00 0. -1.
         22    1    1    2    0    0 -0.10764350195E+04 -0.70015577636E+02 -0.46010414901E+03  0.11727362705E+04  0.00000000000E+00 0.  1.
<mgrwt>
<rscale>  0 0.21640977E+04</rscale>
<asrwt>0</asrwt>
<pdfrwt beam="1">  1        1 0.10386313E+00 0.21640977E+04</pdfrwt>
<pdfrwt beam="2">  1       -1 0.26681216E+00 0.21640977E+04</pdfrwt>
<totfact> 0.14264025E+00</totfact>
</mgrwt>
</event>
<event>
 6    1  0.1528034E-005  0.4443258E+04  0.7818608E-02  0.7920647E-01
          2   -1    0    0  501    0  0.00000000000E+00  0.00000000000E+00  0.14494836795E+04  0.14494836795E+04  0.00000000000E+00 0.  1.
         -2   -1    0    0    0  501 -0.00000000000E+00 -0.00000000000E+00 -0.34050994261E+04  0.34050994261E+04  0.00000000000E+00 0. -1.
         23    2    1    2    0    0  0.81626027657E+03  0.18210303021E+04 -0.20431576473E+04  0.28570606940E+04  0.76618777431E+02 0.  0.
         11    1    3    3    0    0  0.74740067321E+03  0.16116252253E+04 -0.18280990087E+04  0.25490958434E+04  0.00000000000E+00 0.  1.
        -11    1    3    3    0    0  0.68859603366E+02  0.20940507678E+03 -0.21505863864E+03  0.30796485061E+03  0.00000000000E+00 0. -1.
         22    1    1    2    0    0 -0.81626027657E+03 -0.18210303021E+04  0.87541900763E+02  0.19975224116E+04  0.00000000000E+00 0.  1.
<mgrwt>
<rscale>  0 0.44432583E+04</rscale>
<asrwt>0</asrwt>
<pdfrwt beam="1">  1        2 0.22299749E+00 0.44432583E+04</pdfrwt>
<pdfrwt beam="2">  1       -2 0.52386144E+00 0.44432583E+04</pdfrwt>
<totfact> 0.12301613E-02</totfact>
</mgrwt>
</event>
<event>
 6    1  0.1528034E-005  0.4581866E+03  0.7818608E-02  0.1025308E+00
          1   -1    0    0  501    0  0.00000000000E+00  0.00000000000E+00  0.17209635569E+04  0.17209635569E+04  0.00000000000E+00 0. -1.
         -1   -1    0    0    0  501 -0.00000000000E+00 -0.00000000000E+00 -0.30496716830E+02  0.30496716830E+02  0.00000000000E+00 0.  1.
         23    2    1    2    0    0 -0.41790163362E+01  0.34503256411E+02  0.17092480378E+04  0.17119549289E+04  0.89737868606E+02 0.  0.
         13    1    3    3    0    0 -0.96749886762E+01 -0.29868010341E+02  0.61613640120E+03  0.61693578947E+03  0.00000000000E+00 0. -1.
        -13    1    3    3    0    0  0.54959723400E+01  0.64371266751E+02  0.10931116366E+04  0.10950191394E+04  0.00000000000E+00 0.  1.
         22    1    1    2    0    0  0.41790163362E+01 -0.34503256411E+02 -0.18781197726E+02  0.39505344809E+02  0.00000000000E+00 0.  1.
<mgrwt>
<rscale>  0 0.45818659E+03</rscale>
<asrwt>0</asrwt>
<pdfrwt beam="1">  1        1 0.26476355E+00 0.45818659E+03</pdfrwt>
<pdfrwt beam="2">  1       -1 0.46918039E-02 0.45818659E+03</pdfrwt>
<totfact> 0.97948973E+02</totfact>
</mgrwt>
</event>
<event>
 6    1  0.1528034E-005  0.1711780E+04  0.7818608E-02  0.8754674E-01
          2   -1    0    0  501    0  0.00000000000E+00  0.00000000000E+00  0.54843902938E+03  0.54843902938E+03  0.00000000000E+00 0. -1.
         -2   -1    0    0    0  501 -0.00000000000E+00 -0.00000000000E+00 -0.13356964633E+04  0.13356964633E+04  0.00000000000E+00 0.  1.
         23    2    1    2    0    0  0.11425577258E+03 -0.45328955332E+03 -0.11806335371E+04  0.12731767713E+04  0.92508060870E+02 0.  0.
         13    1    3    3    0    0  0.52323930165E+02 -0.92319893360E+02 -0.34132442407E+03  0.35743967162E+03  0.00000000000E+00 0. -1.
        -13    1    3    3    0    0  0.61931842414E+02 -0.36096965996E+03 -0.83930911305E+03  0.91573709970E+03  0.00000000000E+00 0.  1.
         22    1    1    2    0    0 -0.11425577258E+03  0.45328955332E+03  0.39337610316E+03  0.61095872140E+03  0.00000000000E+00 0. -1.
<mgrwt>
<rscale>  0 0.17117804E+04</rscale>
<asrwt>0</asrwt>
<pdfrwt beam="1">  1        2 0.84375236E-01 0.17117804E+04</pdfrwt>
<pdfrwt beam="2">  1       -2 0.20549176E+00 0.17117804E+04</pdfrwt>
<totfact> 0.64249097E+00</totfact>
</mgrwt>
</event>
<event>
 6    1  0.1528034E-005  0.4710464E+04  0.7818608E-02  0.7874792E-01
          2   -1    0    0  501    0  0.00000000000E+00  0.00000000000E+00  0.20735872787E+04  0.20735872787E+04  0.00000000000E+00 0. -1.
         -2   -1    0    0    0  501 -0.00000000000E+00 -0.00000000000E+00 -0.26751312371E+04  0.26751312371E+04  0.00000000000E+00 0.  1.
         23    2    1    2    0    0 -0.22948598494E+04 -0.49490550196E+03 -0.12202892780E+03  0.23526283988E+04  0.93038374432E+02 0.  0.
         11    1    3    3    0    0 -0.17611850730E+04 -0.41709199373E+03 -0.79761830531E+02  0.18116568501E+04  0.00000000000E+00 0. -1.
        -11    1    3    3    0    0 -0.53367477637E+03 -0.77813508228E+02 -0.42267097271E+02  0.54097154871E+03  0.00000000000E+00 0.  1.
         22    1    1    2    0    0  0.22948598494E+04  0.49490550196E+03 -0.47951503057E+03  0.23960901170E+04  0.00000000000E+00 0. -1.
<mgrwt>
<rscale>  0 0.47104641E+04</rscale>
<asrwt>0</asrwt>
<pdfrwt beam="1">  1        2 0.31901343E+00 0.47104641E+04</pdfrwt>
<pdfrwt beam="2">  1       -2 0.41155865E+00 0.47104641E+04</pdfrwt>
<totfact> 0.28242818E-02</totfact>
</mgrwt>
</event>
<event>
 6    1  0.1528034E-005  0.1080183E+04  0.7818608E-02  0.9224725E-01
          2   -1    0    0  501    0  0.00000000000E+00  0.00000000000E+00  0.12329622088E+04  0.12329622088E+04  0.00000000000E+00 0. -1.
         -2   -1    0    0    0  501 -0.00000000000E+00 -0.00000000000E+00 -0.23658384185E+03  0.23658384185E+03  0.00000000000E+00 0.  1.
         23    2    1    2    0    0  0.13618088753E+03 -0.34653573774E+03 -0.17474746724E+02  0.38948568762E+03  0.11296673153E+03 0.  0.
         11    1    3    3    0    0  0.40517108505E+02 -0.23059566310E+03 -0.39920574297E+02  0.23750715394E+03  0.00000000000E+00 0. -1.
        -11    1    3    3    0    0  0.95663779020E+02 -0.11594007464E+03  0.22445827573E+02  0.15197853368E+03  0.00000000000E+00 0.  1.
         22    1    1    2    0    0 -0.13618088753E+03  0.34653573774E+03  0.10138531136E+04  0.10800603630E+04  0.00000000000E+00 0. -1.
<mgrwt>
<rscale>  0 0.10801832E+04</rscale>
<asrwt>0</asrwt>
<pdfrwt beam="1">  1        2 0.18968649E+00 0.10801832E+04</pdfrwt>
<pdfrwt beam="2">  1       -2 0.36397515E-01 0.10801832E+04</pdfrwt>
<totfact> 0.12773477E+02</totfact>
</mgrwt>
</event>
<event>
 6    1  0.1528034E-005  0.2488588E+04  0.7818608E-02  0.8407062E-01
          1   -1    0    0  501    0  0.00000000000E+00  0.00000000000E+00  0.15733347782E+04  0.15733347782E+04  0.00000000000E+00 0. -1.
         -1   -1    0    0    0  501 -0.00000000000E+00 -0.00000000000E+00 -0.98406757705E+03  0.98406757705E+03  0.00000000000E+00 0.  1.
         23    2    1    2    0    0  0.11315933804E+03  0.12263497814E+04  0.46576037018E+03  0.13196654044E+04  0.88573330119E+02 0.  0.
         13    1    3    3    0    0  0.12179818776E+03  0.92143300521E+03  0.36215465452E+03  0.99751169188E+03  0.00000000000E+00 0. -1.
        -13    1    3    3    0    0 -0.86388497259E+01  0.30491677622E+03  0.10360571566E+03  0.32215371248E+03  0.00000000000E+00 0.  1.
         22    1    1    2    0    0 -0.11315933804E+03 -0.12263497814E+04  0.12350683092E+03  0.12377369508E+04  0.00000000000E+00 0. -1.
<mgrwt>
<rscale>  0 0.24885881E+04</rscale>
<asrwt>0</asrwt>
<pdfrwt beam="1">  1        1 0.24205150E+00 0.24885881E+04</pdfrwt>
<pdfrwt beam="2">  1       -1 0.15139501E+00 0.24885881E+04</pdfrwt>
<totfact> 0.17614350E+00</totfact>
</mgrwt>
</event>
<event>
 6    1  0.1528034E-005  0.2900059E+04  0.7818608E-02  0.8272860E-01
         -1   -1    0    0    0  501 -0.00000000000E+00  0.00000000000E+00  0.17154076170E+04  0.17154076170E+04  0.00000000000E+00 0.  1.
          1   -1    0    0  501    0  0.00000000000E+00 -0.00000000000E+00 -0.12257057836E+04  0.12257057836E+04  0.00000000000E+00 0. -1.
         23    2    1    2    0    0 -0.14004196113E+03  0.14323540584E+04  0.41214264838E+03  0.14998412796E+04  0.91719146002E+02 0.  0.
         11    1    3    3    0    0 -0.34477315146E+02  0.79526899900E+03  0.24313880038E+03  0.83232081692E+03  0.00000000000E+00 0.  1.
        -11    1    3    3    0    0 -0.10556464598E+03  0.63708505944E+03  0.16900384800E+03  0.66752046267E+03  0.00000000000E+00 0. -1.
         22    1    1    2    0    0  0.14004196113E+03 -0.14323540584E+04  0.77559185066E+02  0.14412721210E+04  0.00000000000E+00 0.  1.
<mgrwt>
<rscale>  0 0.29000586E+04</rscale>
<asrwt>0</asrwt>
<pdfrwt beam="1">  1        1 0.18857012E+00 0.29000586E+04</pdfrwt>
<pdfrwt beam="2">  1       -1 0.26390886E+00 0.29000586E+04</pdfrwt>
<totfact> 0.49710878E-01</totfact>
</mgrwt>
</event>
<event>
 6    1  0.1528034E-005  0.7491917E+03  0.7818608E-02  0.9636619E-01
          2   -1    0    0  501    0  0.00000000000E+00  0.00000000000E+00  0.69570678802E+03  0.69570678802E+03  0.00000000000E+00 0. -1.
         -2   -1    0    0    0  501 -0.00000000000E+00 -0.00000000000E+00 -0.20169711795E+03  0.20169711795E+03  0.00000000000E+00 0.  1.
         23    2    1    2    0    0  0.27731611096E+03 -0.24298463476E+03  0.26701888816E+03  0.46442518455E+03  0.91901617388E+02 0.  0.
         13    1    3    3    0    0  0.16405961242E+03 -0.10042688201E+03  0.17663999488E+03  0.26115666342E+03  0.00000000000E+00 0.  1.
        -13    1    3    3    0    0  0.11325649855E+03 -0.14255775275E+03  0.90378893281E+02  0.20326852113E+03  0.00000000000E+00 0. -1.
         22    1    1    2    0    0 -0.27731611096E+03  0.24298463476E+03  0.22699078192E+03  0.43297872142E+03  0.00000000000E+00 0.  1.
<mgrwt>
<rscale>  0 0.74919171E+03</rscale>
<asrwt>0</asrwt>
<pdfrwt beam="1">  1        2 0.10703181E+00 0.74919171E+03</pdfrwt>
<pdfrwt beam="2">  1       -2 0.31030326E-01 0.74919171E+03</pdfrwt>
<totfact> 0.39971085E+02</totfact>
</mgrwt>
</event>
<event>
 6    1  0.1528034E-005  0.4110885E+03  0.7818608E-02  0.1040006E+00
          2   -1    0    0  501    0  0.00000000000E+00  0.00000000000E+00  0.11068861082E+04  0.11068861082E+04  0.00000000000E+00 0. -1.
         -2   -1    0    0    0  501 -0.00000000000E+00 -0.00000000000E+00 -0.38168733003E+02  0.38168733003E+02  0.00000000000E+00 0.  1.
         23    2    1    2    0    0 -0.39070756355E+02 -0.92661815186E+02  0.10256518685E+04  0.10356593483E+04  0.10254654706E+03 0.  0.
         13    1    3    3    0    0 -0.27810513614E+02 -0.42937424875E+02  0.87731957560E+03  0.87880981153E+03  0.00000000000E+00 0. -1.
        -13    1    3    3    0    0 -0.11260242740E+02 -0.49724390311E+02  0.14833229295E+03  0.15684953679E+03  0.00000000000E+00 0.  1.
         22    1    1    2    0    0  0.39070756355E+02  0.92661815186E+02  0.43065506617E+02  0.10939549285E+03  0.00000000000E+00 0.  1.
<mgrwt>
<rscale>  0 0.41108851E+03</rscale>
<asrwt>0</asrwt>
<pdfrwt beam="1">  1        2 0.17029015E+00 0.41108851E+03</pdfrwt>
<pdfrwt beam="2">  1       -2 0.58721136E-02 0.41108851E+03</pdfrwt>
<totfact> 0.34745444E+03</totfact>
</mgrwt>
</event>
<event>
 6    1  0.1528034E-005  0.1328143E+04  0.7818608E-02  0.9007540E-01
          2   -1    0    0  501    0  0.00000000000E+00  0.00000000000E+00  0.26220341579E+04  0.26220341579E+04  0.00000000000E+00 0. -1.
         -2   -1    0    0    0  501 -0.00000000000E+00 -0.00000000000E+00 -0.16818659537E+03  0.16818659537E+03  0.00000000000E+00 0.  1.
         23    2    1    2    0    0  0.13710275823E+03  0.64560169945E+03  0.12335953974E+04  0.14029161483E+04  0.10400670090E+03 0.  0.
         11    1    3    3    0    0  0.71923095330E+02  0.43199134304E+03  0.90790698708E+03  0.10080101931E+04  0.00000000000E+00 0. -1.
        -11    1    3    3    0    0  0.65179662899E+02  0.21361035641E+03  0.32568841034E+03  0.39490595520E+03  0.00000000000E+00 0.  1.
         22    1    1    2    0    0 -0.13710275823E+03 -0.64560169945E+03  0.12202521651E+04  0.13873046050E+04  0.00000000000E+00 0.  1.
<mgrwt>
<rscale>  0 0.13281431E+04</rscale>
<asrwt>0</asrwt>
<pdfrwt beam="1">  1        2 0.40338984E+00 0.13281431E+04</pdfrwt>
<pdfrwt beam="2">  1       -2 0.25874863E-01 0.13281431E+04</pdfrwt>
<totfact> 0.39161048E+01</totfact>
</mgrwt>
</event>
<event>
 6    1  0.1528034E-005  0.2652823E+04  0.7818608E-02  0.8350477E-01
          2   -1    0    0  501    0  0.00000000000E+00  0.00000000000E+00  0.23555751969E+04  0.23555751969E+04  0.00000000000E+00 0. -1.
         -2   -1    0    0    0  501 -0.00000000000E+00 -0.00000000000E+00 -0.74689485406E+03  0.74689485406E+03  0.00000000000E+00 0.  1.
         23    2    1    2    0    0 -0.10758909995E+04 -0.70908287137E+03  0.44487602803E+03  0.13661577391E+04  0.90179413551E+02 0.  0.
         13    1    3    3    0    0 -0.58588582334E+03 -0.33347975688E+03  0.22184510706E+03  0.70970853014E+03  0.00000000000E+00 0.  1.
        -13    1    3    3    0    0 -0.49000517612E+03 -0.37560311449E+03  0.22303092098E+03  0.65644920897E+03  0.00000000000E+00 0. -1.
         22    1    1    2    0    0  0.10758909995E+04  0.70908287137E+03  0.11638043148E+04  0.17363123119E+04  0.00000000000E+00 0. -1.
<mgrwt>
<rscale>  0 0.26528226E+04</rscale>
<asrwt>0</asrwt>
<pdfrwt beam="1">  1        2 0.36239618E+00 0.26528226E+04</pdfrwt>
<pdfrwt beam="2">  1       -2 0.11490690E+00 0.26528226E+04</pdfrwt>
<totfact> 0.21928985E+00</totfact>
</mgrwt>
</event>
<event>
 6    1  0.1528034E-005  0.1545636E+04  0.7818608E-02  0.8854660E-01
         -1   -1    0    0    0  501 -0.00000000000E+00  0.00000000000E+00  0.12102207001E+04  0.12102207001E+04  0.00000000000E+00 0.  1.
          1   -1    0    0  501    0  0.00000000000E+00 -0.00000000000E+00 -0.49350336635E+03  0.49350336635E+03  0.00000000000E+00 0. -1.
         23    2    1    2    0    0 -0.47245462276E+03 -0.51180572160E+02 -0.30839870309E+03  0.57381446366E+03  0.91216539615E+02 0.  0.
         13    1    3    3    0    0 -0.13575233734E+03  0.79795587609E+01 -0.48495072269E+02  0.14437500644E+03  0.00000000000E+00 0.  1.
        -13    1    3    3    0    0 -0.33670228543E+03 -0.59160130921E+02 -0.25990363082E+03  0.42943945722E+03  0.00000000000E+00 0. -1.
         22    1    1    2    0    0  0.47245462276E+03  0.51180572160E+02  0.10251160369E+04  0.11299096028E+04  0.00000000000E+00 0.  1.
<mgrwt>
<rscale>  0 0.15456364E+04</rscale>
<asrwt>0</asrwt>
<pdfrwt beam="1">  1        1 0.75923595E-01 0.15456364E+04</pdfrwt>
<pdfrwt beam="2">  1       -1 0.18618780E+00 0.15456364E+04</pdfrwt>
<totfact> 0.81754192E+00</totfact>
</mgrwt>
</event>
<event>
 6    1  0.1528034E-005  0.1062971E+04  0.7818608E-02  0.9242054E-01
         -2   -1    0    0    0  501 -0.00000000000E+00  0.00000000000E+00  0.14274433181E+03  0.14274433181E+03  0.00000000000E+00 0.  1.
          2   -1    0    0  501    0  0.00000000000E+00 -0.00000000000E+00 -0.19788993231E+04  0.19788993231E+04  0.00000000000E+00 0. -1.
         23    2    1    2    0    0  0.26206664725E+03 -0.22178859900E+03 -0.17244306763E+04  0.17606015066E+04  0.90484239583E+02 0.  0.
         13    1    3    3    0    0  0.21657823130E+03 -0.15869035378E+03 -0.14778845325E+04  0.15020757138E+04  0.00000000000E+00 0. -1.
        -13    1    3    3    0    0  0.45488415953E+02 -0.63098245215E+02 -0.24654614383E+03  0.25852579285E+03  0.00000000000E+00 0.  1.
         22    1    1    2    0    0 -0.26206664725E+03  0.22178859900E+03 -0.11172431495E+03  0.36104214823E+03  0.00000000000E+00 0.  1.
<mgrwt>
<rscale>  0 0.10629707E+04</rscale>
<asrwt>0</asrwt>
<pdfrwt beam="1">  1        2 0.30444603E+00 0.10629707E+04</pdfrwt>
<pdfrwt beam="2">  1       -2 0.21960668E-01 0.10629707E+04</pdfrwt>
<totfact> 0.12400835E+02</totfact>
</mgrwt>
</event>
<event>
 6    1  0.1528034E-005  0.1378069E+04  0.7818608E-02  0.8969848E-01
          1   -1    0    0  501    0  0.00000000000E+00  0.00000000000E+00  0.28778689068E+04  0.28778689068E+04  0.00000000000E+00 0. -1.
         -1   -1    0    0    0  501 -0.00000000000E+00 -0.00000000000E+00 -0.16497229373E+03  0.16497229373E+03  0.00000000000E+00 0.  1.
         23    2    1    2    0    0 -0.17565744105E+03  0.52250322476E+03  0.46019786252E+03  0.72367824436E+03  0.89794054443E+02 0.  0.
         11    1    3    3    0    0 -0.36049106453E+01  0.11057949068E+03  0.11298538194E+03  0.15813448603E+03  0.00000000000E+00 0. -1.
        -11    1    3    3    0    0 -0.17205253040E+03  0.41192373409E+03  0.34721248058E+03  0.56554375833E+03  0.00000000000E+00 0.  1.
         22    1    1    2    0    0  0.17565744105E+03 -0.52250322476E+03  0.22526987505E+04  0.23191629562E+04  0.00000000000E+00 0. -1.
<mgrwt>
<rscale>  0 0.13780691E+04</rscale>
<asrwt>0</asrwt>
<pdfrwt beam="1">  1        1 0.44274903E+00 0.13780691E+04</pdfrwt>
<pdfrwt beam="2">  1       -1 0.25380355E-01 0.13780691E+04</pdfrwt>
<totfact> 0.98390818E+00</totfact>
</mgrwt>
</event>
<event>
 6    1  0.1528034E-005  0.1768380E+04  0.7818608E-02  0.8723298E-01
          1   -1    0    0  501    0  0.00000000000E+00  0.00000000000E+00  0.23941116442E+04  0.23941116442E+04  0.00000000000E+00 0. -1.
         -1   -1    0    0    0  501 -0.00000000000E+00 -0.00000000000E+00 -0.32654792527E+03  0.32654792527E+03  0.00000000000E+00 0.  1.
         23    2    1    2    0    0 -0.75838325638E+03  0.18149842144E+03  0.40308778435E+03  0.88257171049E+03  0.91467052687E+02 0.  0.
         11    1    3    3    0    0 -0.12165390850E+03  0.10196411847E+01  0.84084143751E+02  0.14788798582E+03  0.00000000000E+00 0. -1.
        -11    1    3    3    0    0 -0.63672934788E+03  0.18047878025E+03  0.31900364060E+03  0.73468372467E+03  0.00000000000E+00 0.  1.
         22    1    1    2    0    0  0.75838325638E+03 -0.18149842144E+03  0.16644759346E+04  0.18380878590E+04  0.00000000000E+00 0. -1.
<mgrwt>
<rscale>  0 0.17683803E+04</rscale>
<asrwt>0</asrwt>
<pdfrwt beam="1">  1        1 0.36832486E+00 0.17683803E+04</pdfrwt>
<pdfrwt beam="2">  1       -1 0.50238144E-01 0.17683803E+04</pdfrwt>
<totfact> 0.60406852E+00</totfact>
</mgrwt>
</event>
<event>
 6    1  0.1528034E-005  0.2027605E+04  0.7818608E-02  0.8593822E-01
         -2   -1    0    0    0  501 -0.00000000000E+00  0.00000000000E+00  0.72183101694E+03  0.72183101694E+03  0.00000000000E+00 0.  1.
          2   -1    0    0  501    0  0.00000000000E+00 -0.00000000000E+00 -0.14238730682E+04  0.14238730682E+04  0.00000000000E+00 0. -1.
         23    2    1    2    0    0  0.39115398773E+03 -0.63594247280E+03 -0.10743161331E+04  0.13114305910E+04  0.90943776015E+02 0.  0.
         13    1    3    3    0    0  0.32517521151E+03 -0.47667124408E+03 -0.87196264064E+03  0.10455970733E+04  0.00000000000E+00 0. -1.
        -13    1    3    3    0    0  0.65978776224E+02 -0.15927122873E+03 -0.20235349248E+03  0.26583351770E+03  0.00000000000E+00 0.  1.
         22    1    1    2    0    0 -0.39115398773E+03  0.63594247280E+03  0.37227408190E+03  0.83427349406E+03  0.00000000000E+00 0.  1.
<mgrwt>
<rscale>  0 0.20276052E+04</rscale>
<asrwt>0</asrwt>
<pdfrwt beam="1">  1        2 0.21905739E+00 0.20276052E+04</pdfrwt>
<pdfrwt beam="2">  1       -2 0.11105093E+00 0.20276052E+04</pdfrwt>
<totfact> 0.83471131E+00</totfact>
</mgrwt>
</event>
<event>
 6    1  0.1528034E-005  0.3084885E+04  0.7818608E-02  0.8219898E-01
         -1   -1    0    0    0  501 -0.00000000000E+00  0.00000000000E+00  0.16639997507E+04  0.16639997507E+04  0.00000000000E+00 0.  1.
          1   -1    0    0  501    0  0.00000000000E+00 -0.00000000000E+00 -0.14297654551E+04  0.14297654551E+04  0.00000000000E+00 0. -1.
         23    2    1    2    0    0 -0.54173757521E+03 -0.14370671290E+04 -0.10836432161E+02  0.15385477949E+04  0.91489646276E+02 0.  0.
         13    1    3    3    0    0 -0.20925029180E+03 -0.67557952209E+03 -0.21483822831E+02  0.70756973503E+03  0.00000000000E+00 0.  1.
        -13    1    3    3    0    0 -0.33248728342E+03 -0.76148760687E+03  0.10647390669E+02  0.83097805987E+03  0.00000000000E+00 0. -1.
         22    1    1    2    0    0  0.54173757521E+03  0.14370671290E+04  0.24507072778E+03  0.15552174109E+04  0.00000000000E+00 0. -1.
<mgrwt>
<rscale>  0 0.30848853E+04</rscale>
<asrwt>0</asrwt>
<pdfrwt beam="1">  1        1 0.21996392E+00 0.30848853E+04</pdfrwt>
<pdfrwt beam="2">  1       -1 0.25599996E+00 0.30848853E+04</pdfrwt>
<totfact> 0.39412700E-01</totfact>
</mgrwt>
</event>
<event>
 6    1  0.1528034E-005  0.2105829E+04  0.7818608E-02  0.8558680E-01
          1   -1    0    0  501    0  0.00000000000E+00  0.00000000000E+00  0.28926208739E+04  0.28926208739E+04  0.00000000000E+00 0. -1.
         -1   -1    0    0    0  501 -0.00000000000E+00 -0.00000000000E+00 -0.38326117955E+03  0.38326117955E+03  0.00000000000E+00 0.  1.
         23    2    1    2    0    0  0.48422214290E+03 -0.29937478275E+03  0.26311060735E+04  0.26937149597E+04  0.96357511398E+02 0.  0.
         13    1    3    3    0    0  0.13623985323E+03 -0.52229353636E+02  0.82999793000E+03  0.84272520242E+03  0.00000000000E+00 0. -1.
        -13    1    3    3    0    0  0.34798228968E+03 -0.24714542911E+03  0.18011081435E+04  0.18509897573E+04  0.00000000000E+00 0.  1.
         22    1    1    2    0    0 -0.48422214290E+03  0.29937478275E+03 -0.12174637911E+03  0.58216709376E+03  0.00000000000E+00 0.  1.
<mgrwt>
<rscale>  0 0.21058293E+04</rscale>
<asrwt>0</asrwt>
<pdfrwt beam="1">  1        1 0.44501858E+00 0.21058293E+04</pdfrwt>
<pdfrwt beam="2">  1       -1 0.58963260E-01 0.21058293E+04</pdfrwt>
<totfact> 0.19186013E+00</totfact>
</mgrwt>
</event>
<event>
 6    1  0.1528034E-005  0.1070010E+04  0.7818608E-02  0.9234926E-01
         -2   -1    0    0    0  501 -0.00000000000E+00  0.00000000000E+00  0.59975511747E+03  0.59975511747E+03  0.00000000000E+00 0.  1.
          2   -1    0    0  501    0  0.00000000000E+00 -0.00000000000E+00 -0.47724511064E+03  0.47724511064E+03  0.00000000000E+00 0. -1.
         23    2    1    2    0    0 -0.33669284972E+03 -0.99386583660E+02 -0.33961195932E+03  0.49665853595E+03  0.89964717274E+02 0.  0.
         11    1    3    3    0    0 -0.26326371101E+03 -0.42488470142E+02 -0.22338671390E+03  0.34787163664E+03  0.00000000000E+00 0. -1.
        -11    1    3    3    0    0 -0.73429138704E+02 -0.56898113518E+02 -0.11622524542E+03  0.14878689931E+03  0.00000000000E+00 0.  1.
         22    1    1    2    0    0  0.33669284972E+03  0.99386583660E+02  0.46212196615E+03  0.58034169216E+03  0.00000000000E+00 0.  1.
<mgrwt>
<rscale>  0 0.10700097E+04</rscale>
<asrwt>0</asrwt>
<pdfrwt beam="1">  1        2 0.73422325E-01 0.10700097E+04</pdfrwt>
<pdfrwt beam="2">  1       -2 0.92270018E-01 0.10700097E+04</pdfrwt>
<totfact> 0.64519740E+01</totfact>
</mgrwt>
</event>
<event>
 6    1  0.1528034E-005  0.4736407E+04  0.7818608E-02  0.7870507E-01
         -2   -1    0    0    0  501 -0.00000000000E+00  0.00000000000E+00  0.21146588029E+04  0.21146588029E+04  0.00000000000E+00 0.  1.
          2   -1    0    0  501    0  0.00000000000E+00 -0.00000000000E+00 -0.26521481661E+04  0.26521481661E+04  0.00000000000E+00 0. -1.
         23    2    1    2    0    0  0.19811640669E+04  0.12927621561E+04 -0.17873861823E+03  0.23741207903E+04  0.90867931103E+02 0.  0.
         13    1    3    3    0    0  0.43036821112E+03  0.27412116818E+03 -0.75693003256E+02  0.51583780661E+03  0.00000000000E+00 0. -1.
        -13    1    3    3    0    0  0.15507958558E+04  0.10186409879E+04 -0.10304561497E+03  0.18582829837E+04  0.00000000000E+00 0.  1.
         22    1    1    2    0    0 -0.19811640669E+04 -0.12927621561E+04 -0.35875074499E+03  0.23926861786E+04  0.00000000000E+00 0. -1.
<mgrwt>
<rscale>  0 0.47364073E+04</rscale>
<asrwt>0</asrwt>
<pdfrwt beam="1">  1        2 0.40802279E+00 0.47364073E+04</pdfrwt>
<pdfrwt beam="2">  1       -2 0.32533212E+00 0.47364073E+04</pdfrwt>
<totfact> 0.46769651E-02</totfact>
</mgrwt>
</event>
<event>
 6    1  0.1528034E-005  0.2151057E+04  0.7818608E-02  0.8539080E-01
          2   -1    0    0  501    0  0.00000000000E+00  0.00000000000E+00  0.22428075875E+04  0.22428075875E+04  0.00000000000E+00 0. -1.
         -2   -1    0    0    0  501 -0.00000000000E+00 -0.00000000000E+00 -0.51576502347E+03  0.51576502347E+03  0.00000000000E+00 0.  1.
         23    2    1    2    0    0  0.37410353388E+03 -0.20233422953E+03 -0.39911227957E+03  0.59029518097E+03  0.90913114959E+02 0.  0.
         11    1    3    3    0    0  0.31362109342E+03 -0.12811179255E+03 -0.32145196529E+03  0.46701411929E+03  0.00000000000E+00 0.  1.
        -11    1    3    3    0    0  0.60482440462E+02 -0.74222436971E+02 -0.77660314280E+02  0.12328106168E+03  0.00000000000E+00 0. -1.
         22    1    1    2    0    0 -0.37410353388E+03  0.20233422953E+03  0.21261548436E+04  0.21682774300E+04  0.00000000000E+00 0. -1.
<mgrwt>
<rscale>  0 0.21510571E+04</rscale>
<asrwt>0</asrwt>
<pdfrwt beam="1">  1        2 0.34504732E+00 0.21510571E+04</pdfrwt>
<pdfrwt beam="2">  1       -2 0.79348466E-01 0.21510571E+04</pdfrwt>
<totfact> 0.63109884E+00</totfact>
</mgrwt>
</event>
<event>
 6    1  0.1528034E-005  0.9675081E+03  0.7818608E-02  0.9344917E-01
         -2   -1    0    0    0  501 -0.00000000000E+00  0.00000000000E+00  0.20511113235E+03  0.20511113235E+03  0.00000000000E+00 0.  1.
          2   -1    0    0  501    0  0.00000000000E+00 -0.00000000000E+00 -0.11409325099E+04  0.11409325099E+04  0.00000000000E+00 0. -1.
         23    2    1    2    0    0 -0.45709771760E+03 -0.62855489013E+02 -0.65365326924E+03  0.80520357600E+03  0.90559739808E+02 0.  0.
         11    1    3    3    0    0 -0.17662809499E+03 -0.77763427034E+01 -0.18224527092E+03  0.25391198125E+03  0.00000000000E+00 0. -1.
        -11    1    3    3    0    0 -0.28046962261E+03 -0.55079146310E+02 -0.47140799832E+03  0.55129159475E+03  0.00000000000E+00 0.  1.
         22    1    1    2    0    0  0.45709771760E+03  0.62855489013E+02 -0.28216810834E+03  0.54084006628E+03  0.00000000000E+00 0.  1.
<mgrwt>
<rscale>  0 0.96750805E+03</rscale>
<asrwt>0</asrwt>
<pdfrwt beam="1">  1        2 0.17552807E+00 0.96750805E+03</pdfrwt>
<pdfrwt beam="2">  1       -2 0.31555559E-01 0.96750805E+03</pdfrwt>
<totfact> 0.19147775E+02</totfact>
</mgrwt>
</event>
<event>
 6    1  0.1528034E-005  0.1121878E+04  0.7818608E-02  0.9184126E-01
         -2   -1    0    0    0  501 -0.00000000000E+00  0.00000000000E+00  0.44523434336E+03  0.44523434336E+03  0.00000000000E+00 0.  1.
          2   -1    0    0  501    0  0.00000000000E+00 -0.00000000000E+00 -0.70671280676E+03  0.70671280676E+03  0.00000000000E+00 0. -1.
         23    2    1    2    0    0  0.49335085165E+03 -0.24984869638E+03 -0.20261932618E+03  0.59581422361E+03  0.90114170927E+02 0.  0.
         13    1    3    3    0    0  0.22460595853E+03 -0.10545406961E+03 -0.13815334707E+03  0.28399778998E+03  0.00000000000E+00 0. -1.
        -13    1    3    3    0    0  0.26874489312E+03 -0.14439462678E+03 -0.64465979106E+02  0.31181643363E+03  0.00000000000E+00 0.  1.
         22    1    1    2    0    0 -0.49335085165E+03  0.24984869638E+03 -0.58859137226E+02  0.55613292651E+03  0.00000000000E+00 0.  1.
<mgrwt>
<rscale>  0 0.11218784E+04</rscale>
<asrwt>0</asrwt>
<pdfrwt beam="1">  1        2 0.10872505E+00 0.11218784E+04</pdfrwt>
<pdfrwt beam="2">  1       -2 0.68497592E-01 0.11218784E+04</pdfrwt>
<totfact> 0.78273327E+01</totfact>
</mgrwt>
</event>
<event>
 6    1  0.1528034E-005  0.3332722E+04  0.7818608E-02  0.8154619E-01
          2   -1    0    0  501    0  0.00000000000E+00  0.00000000000E+00  0.22187550000E+04  0.22187550000E+04  0.00000000000E+00 0. -1.
         -2   -1    0    0    0  501 -0.00000000000E+00 -0.00000000000E+00 -0.12514942786E+04  0.12514942786E+04  0.00000000000E+00 0.  1.
         23    2    1    2    0    0  0.29077211343E+03  0.90207463835E+03 -0.94148404684E+03  0.13391477640E+04  0.92937872970E+02 0.  0.
         13    1    3    3    0    0  0.13650355506E+03  0.42931010123E+03 -0.51293092081E+03  0.68267013490E+03  0.00000000000E+00 0. -1.
        -13    1    3    3    0    0  0.15426855837E+03  0.47276453712E+03 -0.42855312603E+03  0.65647762909E+03  0.00000000000E+00 0.  1.
         22    1    1    2    0    0 -0.29077211343E+03 -0.90207463835E+03  0.19087447683E+04  0.21311015146E+04  0.00000000000E+00 0. -1.
<mgrwt>
<rscale>  0 0.33327221E+04</rscale>
<asrwt>0</asrwt>
<pdfrwt beam="1">  1        2 0.34134692E+00 0.33327221E+04</pdfrwt>
<pdfrwt beam="2">  1       -2 0.19253758E+00 0.33327221E+04</pdfrwt>
<totfact> 0.62572090E-01</totfact>
</mgrwt>
</event>
<event>
 6    1  0.1528034E-005  0.9896400E+03  0.7818608E-02  0.9319981E-01
          1   -1    0    0  501    0  0.00000000000E+00  0.00000000000E+00  0.52121648392E+03  0.52121648392E+03  0.00000000000E+00 0. -1.
         -1   -1    0    0    0  501 -0.00000000000E+00 -0.00000000000E+00 -0.46976032090E+03  0.46976032090E+03  0.00000000000E+00 0.  1.
         23    2    1    2    0    0 -0.17451139339E+03 -0.24289641774E+03 -0.36286499337E+03  0.47998275709E+03  0.96226542642E+02 0.  0.
         11    1    3    3    0    0 -0.16558423636E+03 -0.21951781005E+03 -0.27602973043E+03  0.38961342423E+03  0.00000000000E+00 0.  1.
        -11    1    3    3    0    0 -0.89271570384E+01 -0.23378607691E+02 -0.86835262947E+02  0.90369332860E+02  0.00000000000E+00 0. -1.
         22    1    1    2    0    0  0.17451139339E+03  0.24289641774E+03  0.41432115640E+03  0.51099404773E+03  0.00000000000E+00 0. -1.
<mgrwt>
<rscale>  0 0.98963998E+03</rscale>
<asrwt>0</asrwt>
<pdfrwt beam="1">  1        1 0.80187151E-01 0.98963998E+03</pdfrwt>
<pdfrwt beam="2">  1       -1 0.72270819E-01 0.98963998E+03</pdfrwt>
<totfact> 0.81106259E+01</totfact>
</mgrwt>
</event>
<event>
 6    1  0.1528034E-005  0.4150323E+04  0.7818608E-02  0.7974890E-01
          2   -1    0    0  501    0  0.00000000000E+00  0.00000000000E+00  0.24602307260E+04  0.24602307260E+04  0.00000000000E+00 0. -1.
         -2   -1    0    0    0  501 -0.00000000000E+00 -0.00000000000E+00 -0.17503619514E+04  0.17503619514E+04  0.00000000000E+00 0.  1.
         23    2    1    2    0    0 -0.84664286954E+03 -0.18073552505E+04 -0.21796887358E+03  0.20096338293E+04  0.88207413156E+02 0.  0.
         13    1    3    3    0    0 -0.32557840173E+03 -0.60446728860E+03 -0.91740178789E+02  0.69267471375E+03  0.00000000000E+00 0. -1.
        -13    1    3    3    0    0 -0.52106446781E+03 -0.12028879619E+04 -0.12622869479E+03  0.13169591155E+04  0.00000000000E+00 0.  1.
         22    1    1    2    0    0  0.84664286954E+03  0.18073552505E+04  0.92783764813E+03  0.22009588482E+04  0.00000000000E+00 0.  1.
<mgrwt>
<rscale>  0 0.41503225E+04</rscale>
<asrwt>0</asrwt>
<pdfrwt beam="1">  1        2 0.37849704E+00 0.41503225E+04</pdfrwt>
<pdfrwt beam="2">  1       -2 0.26928645E+00 0.41503225E+04</pdfrwt>
<totfact> 0.14005566E-01</totfact>
</mgrwt>
</event>
<event>
 6    1  0.1528034E-005  0.3416132E+04  0.7818608E-02  0.8133958E-01
          1   -1    0    0  501    0  0.00000000000E+00  0.00000000000E+00  0.26982544761E+04  0.26982544761E+04  0.00000000000E+00 0. -1.
         -1   -1    0    0    0  501 -0.00000000000E+00 -0.00000000000E+00 -0.10812507481E+04  0.10812507481E+04  0.00000000000E+00 0.  1.
         23    2    1    2    0    0 -0.97548291731E+02 -0.21072390697E+03  0.26799486859E+04  0.26914922565E+04  0.89918704499E+02 0.  0.
         11    1    3    3    0    0  0.59038132501E+00 -0.74179521516E+02  0.56124925785E+03  0.56613044381E+03  0.00000000000E+00 0. -1.
        -11    1    3    3    0    0 -0.98138673056E+02 -0.13654438546E+03  0.21186994281E+04  0.21253618127E+04  0.00000000000E+00 0.  1.
         22    1    1    2    0    0  0.97548291731E+02  0.21072390697E+03 -0.10629449580E+04  0.10880129677E+04  0.00000000000E+00 0.  1.
<mgrwt>
<rscale>  0 0.34161321E+04</rscale>
<asrwt>0</asrwt>
<pdfrwt beam="1">  1        1 0.41511607E+00 0.34161321E+04</pdfrwt>
<pdfrwt beam="2">  1       -1 0.16634627E+00 0.34161321E+04</pdfrwt>
<totfact> 0.21165160E-01</totfact>
</mgrwt>
</event>
<event>
 6    1  0.1636186E-005  0.3195914E+04  0.7818608E-02  0.8189897E-01
          2   -1    0    0  501    0  0.00000000000E+00  0.00000000000E+00  0.18333856259E+04  0.18333856259E+04  0.00000000000E+00 0. -1.
         -2   -1    0    0    0  501 -0.00000000000E+00 -0.00000000000E+00 -0.13927605689E+04  0.13927605689E+04  0.00000000000E+00 0.  1.
         23    2    1    2    0    0 -0.74447848845E+03  0.92373617626E+03  0.12991147078E+04  0.17617209753E+04  0.91787949756E+02 0.  0.
         13    1    3    3    0    0 -0.35392312446E+03  0.46666837038E+03  0.57817092108E+03  0.82299608743E+03  0.00000000000E+00 0. -1.
        -13    1    3    3    0    0 -0.39055536400E+03  0.45706780588E+03  0.72094378672E+03  0.93872488788E+03  0.00000000000E+00 0.  1.
         22    1    1    2    0    0  0.74447848845E+03 -0.92373617626E+03 -0.85848965072E+03  0.14644252195E+04  0.00000000000E+00 0.  1.
<mgrwt>
<rscale>  0 0.31959144E+04</rscale>
<asrwt>0</asrwt>
<pdfrwt beam="1">  1        2 0.28205933E+00 0.31959144E+04</pdfrwt>
<pdfrwt beam="2">  1       -2 0.21427086E+00 0.31959144E+04</pdfrwt>
<totfact> 0.74877313E-01</totfact>
</mgrwt>
</event>
<event>
 6    1  0.1528034E-005  0.2028104E+04  0.7818608E-02  0.8593593E-01
         -1   -1    0    0    0  501 -0.00000000000E+00  0.00000000000E+00  0.73165538596E+03  0.73165538596E+03  0.00000000000E+00 0.  1.
          1   -1    0    0  501    0  0.00000000000E+00 -0.00000000000E+00 -0.14054446057E+04  0.14054446057E+04  0.00000000000E+00 0. -1.
         23    2    1    2    0    0  0.87540096832E+03  0.58577129205E+02 -0.86900249644E+03  0.12382861295E+04  0.91809935633E+02 0.  0.
         13    1    3    3    0    0  0.54307436009E+03  0.60489223600E+02 -0.59211385169E+03  0.80572173865E+03  0.00000000000E+00 0. -1.
        -13    1    3    3    0    0  0.33232660822E+03 -0.19120943945E+01 -0.27688864475E+03  0.43256439084E+03  0.00000000000E+00 0.  1.
         22    1    1    2    0    0 -0.87540096832E+03 -0.58577129205E+02  0.19521327672E+03  0.89881386215E+03  0.00000000000E+00 0.  1.
<mgrwt>
<rscale>  0 0.20281037E+04</rscale>
<asrwt>0</asrwt>
<pdfrwt beam="1">  1        1 0.21622225E+00 0.20281037E+04</pdfrwt>
<pdfrwt beam="2">  1       -1 0.11256237E+00 0.20281037E+04</pdfrwt>
<totfact> 0.50920528E+00</totfact>
</mgrwt>
</event>
<event>
 6    1  0.1528034E-005  0.2001336E+04  0.7818608E-02  0.8605996E-01
          2   -1    0    0  501    0  0.00000000000E+00  0.00000000000E+00  0.92444510942E+03  0.92444510942E+03  0.00000000000E+00 0. -1.
         -2   -1    0    0    0  501 -0.00000000000E+00 -0.00000000000E+00 -0.10831760160E+04  0.10831760160E+04  0.00000000000E+00 0.  1.
         23    2    1    2    0    0 -0.65274725052E+03 -0.70942687533E+03 -0.34171507863E+03  0.10263725984E+04  0.85475442813E+02 0.  0.
         11    1    3    3    0    0 -0.22224293826E+03 -0.24852606584E+03 -0.16141728875E+03  0.37042228620E+03  0.00000000000E+00 0. -1.
        -11    1    3    3    0    0 -0.43050431226E+03 -0.46090080949E+03 -0.18029778988E+03  0.65595031222E+03  0.00000000000E+00 0.  1.
         22    1    1    2    0    0  0.65274725052E+03  0.70942687533E+03  0.18298417204E+03  0.98124852699E+03  0.00000000000E+00 0.  1.
<mgrwt>
<rscale>  0 0.20013363E+04</rscale>
<asrwt>0</asrwt>
<pdfrwt beam="1">  1        2 0.14222233E+00 0.20013363E+04</pdfrwt>
<pdfrwt beam="2">  1       -2 0.16664246E+00 0.20013363E+04</pdfrwt>
<totfact> 0.59063130E+00</totfact>
</mgrwt>
</event>
<event>
 6    1  0.1528034E-005  0.2372873E+04  0.7818608E-02  0.8449730E-01
          1   -1    0    0  501    0  0.00000000000E+00  0.00000000000E+00  0.18415999400E+04  0.18415999400E+04  0.00000000000E+00 0. -1.
         -1   -1    0    0    0  501 -0.00000000000E+00 -0.00000000000E+00 -0.76435230876E+03  0.76435230876E+03  0.00000000000E+00 0.  1.
         23    2    1    2    0    0 -0.78848436072E+03 -0.42273425322E+03  0.13922154072E+04  0.16574710756E+04  0.92383929812E+02 0.  0.
         11    1    3    3    0    0 -0.57214354911E+03 -0.28180654569E+03  0.10544248495E+04  0.12323047242E+04  0.00000000000E+00 0. -1.
        -11    1    3    3    0    0 -0.21634081161E+03 -0.14092770753E+03  0.33779055767E+03  0.42516635141E+03  0.00000000000E+00 0.  1.
         22    1    1    2    0    0  0.78848436072E+03  0.42273425322E+03 -0.31496777595E+03  0.94848117316E+03  0.00000000000E+00 0.  1.
<mgrwt>
<rscale>  0 0.23728727E+04</rscale>
<asrwt>0</asrwt>
<pdfrwt beam="1">  1        1 0.28332307E+00 0.23728727E+04</pdfrwt>
<pdfrwt beam="2">  1       -1 0.11759266E+00 0.23728727E+04</pdfrwt>
<totfact> 0.22299998E+00</totfact>
</mgrwt>
</event>
<event>
 6    1  0.1528034E-005  0.2485194E+04  0.7818608E-02  0.8408279E-01
          2   -1    0    0  501    0  0.00000000000E+00  0.00000000000E+00  0.11695527207E+04  0.11695527207E+04  0.00000000000E+00 0.  1.
         -2   -1    0    0    0  501 -0.00000000000E+00 -0.00000000000E+00 -0.13202037142E+04  0.13202037142E+04  0.00000000000E+00 0. -1.
         23    2    1    2    0    0 -0.19851574061E+03  0.11030243952E+04  0.45803977002E+03  0.12143836419E+04  0.94105701938E+02 0.  0.
         13    1    3    3    0    0 -0.91432215934E+02  0.60913204191E+03  0.20475628841E+03  0.64909693594E+03  0.00000000000E+00 0.  1.
        -13    1    3    3    0    0 -0.10708352468E+03  0.49389235324E+03  0.25328348161E+03  0.56528670593E+03  0.00000000000E+00 0. -1.
         22    1    1    2    0    0  0.19851574061E+03 -0.11030243952E+04 -0.60869076348E+03  0.12753727930E+04  0.00000000000E+00 0. -1.
<mgrwt>
<rscale>  0 0.24851944E+04</rscale>
<asrwt>0</asrwt>
<pdfrwt beam="1">  1        2 0.17993119E+00 0.24851944E+04</pdfrwt>
<pdfrwt beam="2">  1       -2 0.20310826E+00 0.24851944E+04</pdfrwt>
<totfact> 0.22387687E+00</totfact>
</mgrwt>
</event>
<event>
 6    1  0.1528034E-005  0.3824206E+04  0.7818608E-02  0.8040980E-01
         -1   -1    0    0    0  501 -0.00000000000E+00  0.00000000000E+00  0.11805535801E+04  0.11805535801E+04  0.00000000000E+00 0.  1.
          1   -1    0    0  501    0  0.00000000000E+00 -0.00000000000E+00 -0.30969684474E+04  0.30969684474E+04  0.00000000000E+00 0. -1.
         23    2    1    2    0    0 -0.14555938178E+04 -0.37122967387E+03 -0.22800026212E+04  0.27319603535E+04  0.92900953733E+02 0.  0.
         13    1    3    3    0    0 -0.12563557731E+04 -0.35279626495E+03 -0.19813339335E+04  0.23724626845E+04  0.00000000000E+00 0. -1.
        -13    1    3    3    0    0 -0.19923804476E+03 -0.18433408924E+02 -0.29866868768E+03  0.35949766905E+03  0.00000000000E+00 0.  1.
         22    1    1    2    0    0  0.14555938178E+04  0.37122967387E+03  0.36358775386E+03  0.15455616740E+04  0.00000000000E+00 0.  1.
<mgrwt>
<rscale>  0 0.38242056E+04</rscale>
<asrwt>0</asrwt>
<pdfrwt beam="1">  1        1 0.47645667E+00 0.38242056E+04</pdfrwt>
<pdfrwt beam="2">  1       -1 0.18162363E+00 0.38242056E+04</pdfrwt>
<totfact> 0.81546652E-02</totfact>
</mgrwt>
</event>
<event>
 6    1  0.1528034E-005  0.2352635E+04  0.7818608E-02  0.8457452E-01
         -1   -1    0    0    0  501 -0.00000000000E+00  0.00000000000E+00  0.11080399217E+04  0.11080399217E+04  0.00000000000E+00 0.  1.
          1   -1    0    0  501    0  0.00000000000E+00 -0.00000000000E+00 -0.12488024335E+04  0.12488024335E+04  0.00000000000E+00 0. -1.
         23    2    1    2    0    0 -0.51587382498E+03  0.48114416651E+03  0.87034077172E+03  0.11239776577E+04  0.90593619280E+02 0.  0.
         11    1    3    3    0    0 -0.31335129969E+03  0.25832850462E+03  0.44011027093E+03  0.59884864857E+03  0.00000000000E+00 0. -1.
        -11    1    3    3    0    0 -0.20252252529E+03  0.22281566190E+03  0.43023050079E+03  0.52512900914E+03  0.00000000000E+00 0.  1.
         22    1    1    2    0    0  0.51587382498E+03 -0.48114416651E+03 -0.10111032835E+04  0.12328646975E+04  0.00000000000E+00 0. -1.
<mgrwt>
<rscale>  0 0.23526351E+04</rscale>
<asrwt>0</asrwt>
<pdfrwt beam="1">  1        1 0.19212345E+00 0.23526351E+04</pdfrwt>
<pdfrwt beam="2">  1       -1 0.17046768E+00 0.23526351E+04</pdfrwt>
<totfact> 0.21630074E+00</totfact>
</mgrwt>
</event>
<event>
 6    1  0.1528034E-005  0.3589362E+04  0.7818608E-02  0.8092933E-01
         -2   -1    0    0    0  501 -0.00000000000E+00  0.00000000000E+00  0.36818847515E+04  0.36818847515E+04  0.00000000000E+00 0.  1.
          2   -1    0    0  501    0  0.00000000000E+00 -0.00000000000E+00 -0.87479111254E+03  0.87479111254E+03  0.00000000000E+00 0. -1.
         23    2    1    2    0    0  0.14614133257E+04 -0.19490322695E+03  0.27009330348E+04  0.30785059650E+04  0.91888747057E+02 0.  0.
         13    1    3    3    0    0  0.76655192669E+03 -0.70285558620E+02  0.14780011617E+04  0.16664421232E+04  0.00000000000E+00 0.  1.
        -13    1    3    3    0    0  0.69486139905E+03 -0.12461766833E+03  0.12229318731E+04  0.14120638418E+04  0.00000000000E+00 0. -1.
         22    1    1    2    0    0 -0.14614133257E+04  0.19490322695E+03  0.10616060421E+03  0.14781698990E+04  0.00000000000E+00 0. -1.
<mgrwt>
<rscale>  0 0.35893621E+04</rscale>
<asrwt>0</asrwt>
<pdfrwt beam="1">  1        2 0.13458325E+00 0.35893621E+04</pdfrwt>
<pdfrwt beam="2">  1       -2 0.56644380E+00 0.35893621E+04</pdfrwt>
<totfact> 0.17554625E-02</totfact>
</mgrwt>
</event>
<event>
 6    1  0.1528034E-005  0.2860488E+04  0.7818608E-02  0.8284731E-01
         -2   -1    0    0    0  501 -0.00000000000E+00  0.00000000000E+00  0.92323763332E+03  0.92323763332E+03  0.00000000000E+00 0.  1.
          2   -1    0    0  501    0  0.00000000000E+00 -0.00000000000E+00 -0.22156792325E+04  0.22156792325E+04  0.00000000000E+00 0. -1.
         23    2    1    2    0    0  0.10369993034E+04 -0.96472300249E+03 -0.44017827379E+03  0.14859163205E+04  0.90179665021E+02 0.  0.
         11    1    3    3    0    0  0.62936528534E+03 -0.61277977963E+03 -0.31349540413E+03  0.93267308802E+03  0.00000000000E+00 0.  1.
        -11    1    3    3    0    0  0.40763401811E+03 -0.35194322287E+03 -0.12668286966E+03  0.55324323250E+03  0.00000000000E+00 0. -1.
         22    1    1    2    0    0 -0.10369993034E+04  0.96472300249E+03 -0.85226332538E+03  0.16530005453E+04  0.00000000000E+00 0.  1.
<mgrwt>
<rscale>  0 0.28604884E+04</rscale>
<asrwt>0</asrwt>
<pdfrwt beam="1">  1        2 0.34087373E+00 0.28604884E+04</pdfrwt>
<pdfrwt beam="2">  1       -2 0.14203656E+00 0.28604884E+04</pdfrwt>
<totfact> 0.15153255E+00</totfact>
</mgrwt>
</event>
<event>
 6    1  0.1528034E-005  0.1101675E+04  0.7818608E-02  0.9203560E-01
         -1   -1    0    0    0  501 -0.00000000000E+00  0.00000000000E+00  0.68379177733E+03  0.68379177733E+03  0.00000000000E+00 0.  1.
          1   -1    0    0  501    0  0.00000000000E+00 -0.00000000000E+00 -0.44373473086E+03  0.44373473086E+03  0.00000000000E+00 0. -1.
         23    2    1    2    0    0  0.14059668844E+03  0.35329173209E+03  0.52336112770E+03  0.65334966438E+03  0.91522877953E+02 0.  0.
         11    1    3    3    0    0  0.76561444815E+02  0.23178666521E+03  0.26196946829E+03  0.35807082444E+03  0.00000000000E+00 0. -1.
        -11    1    3    3    0    0  0.64035243623E+02  0.12150506689E+03  0.26139165941E+03  0.29527883993E+03  0.00000000000E+00 0.  1.
         22    1    1    2    0    0 -0.14059668844E+03 -0.35329173209E+03 -0.28330408123E+03  0.47417684381E+03  0.00000000000E+00 0. -1.
<mgrwt>
<rscale>  0 0.11016754E+04</rscale>
<asrwt>0</asrwt>
<pdfrwt beam="1">  1        1 0.68266882E-01 0.11016754E+04</pdfrwt>
<pdfrwt beam="2">  1       -1 0.10519874E+00 0.11016754E+04</pdfrwt>
<totfact> 0.44097500E+01</totfact>
</mgrwt>
</event>
<event>
 6    1  0.3225219E-005  0.3227030E+04  0.7818608E-02  0.8181715E-01
          2   -1    0    0  501    0  0.00000000000E+00  0.00000000000E+00  0.20611266620E+04  0.20611266620E+04  0.00000000000E+00 0. -1.
         -2   -1    0    0    0  501 -0.00000000000E+00 -0.00000000000E+00 -0.12631108166E+04  0.12631108166E+04  0.00000000000E+00 0.  1.
         23    2    1    2    0    0 -0.88814080360E+02  0.27478633937E+03  0.20332679451E+04  0.20556779715E+04  0.90762946889E+02 0.  0.
         13    1    3    3    0    0 -0.24158364094E+01  0.70588428265E+02  0.75753024715E+03  0.76081577127E+03  0.00000000000E+00 0.  1.
        -13    1    3    3    0    0 -0.86398243951E+02  0.20419791111E+03  0.12757376980E+04  0.12948622002E+04  0.00000000000E+00 0. -1.
         22    1    1    2    0    0  0.88814080360E+02 -0.27478633937E+03 -0.12352520997E+04  0.12685595071E+04  0.00000000000E+00 0.  1.
<mgrwt>
<rscale>  0 0.32270304E+04</rscale>
<asrwt>0</asrwt>
<pdfrwt beam="1">  1        2 0.31709641E+00 0.32270304E+04</pdfrwt>
<pdfrwt beam="2">  1       -2 0.19432474E+00 0.32270304E+04</pdfrwt>
<totfact> 0.75265071E-01</totfact>
</mgrwt>
</event>
<event>
 6    1  0.1528034E-005  0.2289372E+04  0.7818608E-02  0.8482124E-01
         -2   -1    0    0    0  501 -0.00000000000E+00  0.00000000000E+00  0.39613899236E+03  0.39613899236E+03  0.00000000000E+00 0.  1.
          2   -1    0    0  501    0  0.00000000000E+00 -0.00000000000E+00 -0.33076916050E+04  0.33076916050E+04  0.00000000000E+00 0. -1.
         23    2    1    2    0    0  0.10676960557E+03  0.10662668091E+04 -0.21007851584E+04  0.23600789381E+04  0.91376448589E+02 0.  0.
         13    1    3    3    0    0  0.64559469369E+02  0.34432941789E+03 -0.75419768938E+03  0.83159174345E+03  0.00000000000E+00 0. -1.
        -13    1    3    3    0    0  0.42210136197E+02  0.72193739123E+03 -0.13465874691E+04  0.15284871947E+04  0.00000000000E+00 0.  1.
         22    1    1    2    0    0 -0.10676960557E+03 -0.10662668091E+04 -0.81076745419E+03  0.13437516592E+04  0.00000000000E+00 0.  1.
<mgrwt>
<rscale>  0 0.22893716E+04</rscale>
<asrwt>0</asrwt>
<pdfrwt beam="1">  1        2 0.50887561E+00 0.22893716E+04</pdfrwt>
<pdfrwt beam="2">  1       -2 0.60944462E-01 0.22893716E+04</pdfrwt>
<totfact> 0.25073576E+00</totfact>
</mgrwt>
</event>
<event>
 6    1  0.1528034E-005  0.1489433E+04  0.7818608E-02  0.8891511E-01
         -2   -1    0    0    0  501 -0.00000000000E+00  0.00000000000E+00  0.43850440470E+03  0.43850440470E+03  0.00000000000E+00 0.  1.
          2   -1    0    0  501    0  0.00000000000E+00 -0.00000000000E+00 -0.12647591460E+04  0.12647591460E+04  0.00000000000E+00 0. -1.
         23    2    1    2    0    0  0.36860319090E+03 -0.41167245355E+02 -0.11502290243E+04  0.12107979271E+04  0.73768269976E+02 0.  0.
         13    1    3    3    0    0  0.23112488789E+03 -0.46831261379E+02 -0.63032329418E+03  0.67299282020E+03  0.00000000000E+00 0. -1.
        -13    1    3    3    0    0  0.13747830301E+03  0.56640160243E+01 -0.51990573007E+03  0.53780510693E+03  0.00000000000E+00 0.  1.
         22    1    1    2    0    0 -0.36860319090E+03  0.41167245355E+02  0.32397428293E+03  0.49246562360E+03  0.00000000000E+00 0.  1.
<mgrwt>
<rscale>  0 0.14894327E+04</rscale>
<asrwt>0</asrwt>
<pdfrwt beam="1">  1        2 0.19457833E+00 0.14894327E+04</pdfrwt>
<pdfrwt beam="2">  1       -2 0.67462217E-01 0.14894327E+04</pdfrwt>
<totfact> 0.33773560E+01</totfact>
</mgrwt>
</event>
<event>
 6    1  0.1528034E-005  0.3819594E+04  0.7818608E-02  0.8041963E-01
         -2   -1    0    0    0  501 -0.00000000000E+00  0.00000000000E+00  0.22480900929E+04  0.22480900929E+04  0.00000000000E+00 0.  1.
          2   -1    0    0  501    0  0.00000000000E+00 -0.00000000000E+00 -0.16224105315E+04  0.16224105315E+04  0.00000000000E+00 0. -1.
         23    2    1    2    0    0  0.52877802947E+03  0.20272228749E+03 -0.15340083205E+04  0.16377995075E+04  0.92212629108E+02 0.  0.
         11    1    3    3    0    0  0.58258646010E+02  0.13807433006E+02 -0.25553496217E+03  0.26245539036E+03  0.00000000000E+00 0.  1.
        -11    1    3    3    0    0  0.47051938346E+03  0.18891485448E+03 -0.12784733584E+04  0.13753441171E+04  0.00000000000E+00 0. -1.
         22    1    1    2    0    0 -0.52877802947E+03 -0.20272228749E+03  0.21596878819E+04  0.22327011169E+04  0.00000000000E+00 0.  1.
<mgrwt>
<rscale>  0 0.38195942E+04</rscale>
<asrwt>0</asrwt>
<pdfrwt beam="1">  1        2 0.24960162E+00 0.38195942E+04</pdfrwt>
<pdfrwt beam="2">  1       -2 0.34586001E+00 0.38195942E+04</pdfrwt>
<totfact> 0.14324743E-01</totfact>
</mgrwt>
</event>
