<event>
 6    1  0.3075717E-002  0.1060733E+03  0.7546771E-02  0.1304245E+00
         -1   -1    0    0    0  501 -0.00000000000E+00  0.00000000000E+00  0.59259702198E+02  0.59259702198E+02  0.00000000000E+00 0.  1.
          1   -1    0    0  501    0  0.00000000000E+00 -0.00000000000E+00 -0.11312311079E+03  0.11312311079E+03  0.00000000000E+00 0. -1.
         23    2    1    2    0    0  0.51955976496E+02  0.13120980162E+02 -0.53484143090E+02  0.11879431183E+03  0.91542074187E+02 0.  0.
         11    1    3    3    0    0  0.67930823308E+02  0.36435304164E+02 -0.45124770874E+02  0.89321739186E+02  0.00000000000E+00 0. -1.
        -11    1    3    3    0    0 -0.15974846811E+02 -0.23314324002E+02 -0.83593722158E+01  0.29472572642E+02  0.00000000000E+00 0.  1.
         22    1    1    2    0    0 -0.51955976496E+02 -0.13120980162E+02 -0.37926550032E+00  0.53588501159E+02  0.00000000000E+00 0.  1.
<mgrwt>
<rscale>  0 0.89427193E+02</rscale>
<asrwt>0</asrwt>
<pdfrwt beam="1">  1        1 0.17403556E-01 0.10607325E+03</pdfrwt>
<pdfrwt beam="2">  1       -1 0.91168772E-02 0.10607325E+03</pdfrwt>
<totfact> 0.19469339E+04</totfact>
</mgrwt>
</event>
<event>
 6    1  0.3075717E-002  0.9538625E+02  0.7546771E-02  0.1387243E+00
          1   -1    0    0  501    0  0.00000000000E+00  0.00000000000E+00  0.74189028779E+03  0.74189028779E+03  0.00000000000E+00 0. -1.
         -1   -1    0    0    0  501 -0.00000000000E+00 -0.00000000000E+00 -0.84240459543E+01  0.84240459543E+01  0.00000000000E+00 0.  1.
         23    2    1    2    0    0  0.88615537317E+01  0.15312722310E+02  0.72398564574E+03  0.73024225609E+03  0.93731162036E+02 0.  0.
         11    1    3    3    0    0  0.16531574550E+02  0.48317946158E+02  0.58339493681E+03  0.58562579278E+03  0.00000000000E+00 0. -1.
        -11    1    3    3    0    0 -0.76700208182E+01 -0.33005223848E+02  0.14059070893E+03  0.14461646331E+03  0.00000000000E+00 0.  1.
         22    1    1    2    0    0 -0.88615537317E+01 -0.15312722310E+02  0.94805960904E+01  0.20072077653E+02  0.00000000000E+00 0.  1.
<mgrwt>
<rscale>  0 0.62597722E+02</rscale>
<asrwt>0</asrwt>
<pdfrwt beam="1">  1        1 0.11413692E+00 0.95386253E+02</pdfrwt>
<pdfrwt beam="2">  1       -1 0.12960077E-02 0.95386253E+02</pdfrwt>
<totfact> 0.30347446E+04</totfact>
</mgrwt>
</event>
<event>
 6    1  0.3075717E-002  0.1166105E+03  0.7546771E-02  0.1348507E+00
          2   -1    0    0  501    0  0.00000000000E+00  0.00000000000E+00  0.10417043095E+04  0.10417043095E+04  0.00000000000E+00 0. -1.
         -2   -1    0    0    0  501 -0.00000000000E+00 -0.00000000000E+00 -0.36973501460E+02  0.36973501460E+02  0.00000000000E+00 0.  1.
         23    2    1    2    0    0  0.89402518069E+01  0.16114055300E+02  0.10359139376E+04  0.10424565679E+04  0.11514520796E+03 0.  0.
         13    1    3    3    0    0  0.22172900469E+02 -0.30843694179E+02  0.82896339733E+03  0.82983328753E+03  0.00000000000E+00 0. -1.
        -13    1    3    3    0    0 -0.13232648662E+02  0.46957749479E+02  0.20695054032E+03  0.21262328040E+03  0.00000000000E+00 0.  1.
         22    1    1    2    0    0 -0.89402518069E+01 -0.16114055300E+02 -0.31183129565E+02  0.36221243077E+02  0.00000000000E+00 0.  1.
<mgrwt>
<rscale>  0 0.73522922E+02</rscale>
<asrwt>0</asrwt>
<pdfrwt beam="1">  1        2 0.16026218E+00 0.11661050E+03</pdfrwt>
<pdfrwt beam="2">  1       -2 0.56882318E-02 0.11661050E+03</pdfrwt>
<totfact> 0.38853699E+03</totfact>
</mgrwt>
</event>
<event>
 6    1  0.3075717E-002  0.1011618E+03  0.7546771E-02  0.1344540E+00
          2   -1    0    0  501    0  0.00000000000E+00  0.00000000000E+00  0.19595271090E+02  0.19595271090E+02  0.00000000000E+00 0. -1.
         -2   -1    0    0    0  501 -0.00000000000E+00 -0.00000000000E+00 -0.24049002219E+03  0.24049002219E+03  0.00000000000E+00 0.  1.
         23    2    1    2    0    0 -0.10120635189E+02  0.28467691337E+02 -0.13272169098E+03  0.16687947137E+03  0.96544673607E+02 0.  0.
         11    1    3    3    0    0 -0.36296948865E+02 -0.34898129468E+01 -0.11721412287E+03  0.12275503204E+03  0.00000000000E+00 0.  1.
        -11    1    3    3    0    0  0.26176313676E+02  0.31957504283E+02 -0.15507568114E+02  0.44124439333E+02  0.00000000000E+00 0. -1.
         22    1    1    2    0    0  0.10120635189E+02 -0.28467691337E+02 -0.88173060121E+02  0.93205821910E+02  0.00000000000E+00 0.  1.
<mgrwt>
<rscale>  0 0.74784495E+02</rscale>
<asrwt>0</asrwt>
<pdfrwt beam="1">  1        2 0.30146571E-02 0.10116180E+03</pdfrwt>
<pdfrwt beam="2">  1       -2 0.36998465E-01 0.10116180E+03</pdfrwt>
<totfact> 0.19247289E+04</totfact>
</mgrwt>
</event>
<event>
 6    1  0.3075717E-002  0.9631597E+02  0.7546771E-02  0.1343059E+00
          2   -1    0    0  501    0  0.00000000000E+00  0.00000000000E+00  0.20106239840E+04  0.20106239840E+04  0.00000000000E+00 0. -1.
         -2   -1    0    0    0  501 -0.00000000000E+00 -0.00000000000E+00 -0.81385119440E+01  0.81385119440E+01  0.00000000000E+00 0.  1.
         23    2    1    2    0    0 -0.26058858070E+02 -0.24709020826E+02  0.19631070525E+04  0.19654684088E+04  0.89370950182E+02 0.  0.
         11    1    3    3    0    0  0.11510576467E+00 -0.15672442969E+02  0.17970639127E+04  0.17971322559E+04  0.00000000000E+00 0. -1.
        -11    1    3    3    0    0 -0.26173963835E+02 -0.90365778569E+01  0.16604313976E+03  0.16833615293E+03  0.00000000000E+00 0.  1.
         22    1    1    2    0    0  0.26058858070E+02  0.24709020826E+02  0.39378419536E+02  0.53294087094E+02  0.00000000000E+00 0. -1.
<mgrwt>
<rscale>  0 0.75262840E+02</rscale>
<asrwt>0</asrwt>
<pdfrwt beam="1">  1        2 0.30932637E+00 0.96315972E+02</pdfrwt>
<pdfrwt beam="2">  1       -2 0.12520804E-02 0.96315972E+02</pdfrwt>
<totfact> 0.10918853E+04</totfact>
</mgrwt>
</event>
<event>
 6    1  0.3075717E-002  0.9490774E+02  0.7546771E-02  0.1371681E+00
          2   -1    0    0  501    0  0.00000000000E+00  0.00000000000E+00  0.38648186928E+03  0.38648186928E+03  0.00000000000E+00 0. -1.
         -2   -1    0    0    0  501 -0.00000000000E+00 -0.00000000000E+00 -0.90466358992E+01  0.90466358992E+01  0.00000000000E+00 0.  1.
         23    2    1    2    0    0 -0.10834161328E+02 -0.20464384574E+02  0.29395873345E+03  0.30890001028E+03  0.92039715842E+02 0.  0.
         13    1    3    3    0    0  0.48822460724E+01 -0.51117730796E+02  0.23561572961E+03  0.24114649234E+03  0.00000000000E+00 0. -1.
        -13    1    3    3    0    0 -0.15716407401E+02  0.30653346223E+02  0.58343003841E+02  0.67753517941E+02  0.00000000000E+00 0.  1.
         22    1    1    2    0    0  0.10834161328E+02  0.20464384574E+02  0.83476499927E+02  0.86628494895E+02  0.00000000000E+00 0. -1.
<mgrwt>
<rscale>  0 0.66702030E+02</rscale>
<asrwt>0</asrwt>
<pdfrwt beam="1">  1        2 0.59458736E-01 0.94907741E+02</pdfrwt>
<pdfrwt beam="2">  1       -2 0.13917904E-02 0.94907741E+02</pdfrwt>
<totfact> 0.94871737E+04</totfact>
</mgrwt>
</event>
<event>
 6    1  0.3075717E-002  0.1165409E+03  0.7546771E-02  0.1321757E+00
          2   -1    0    0  501    0  0.00000000000E+00  0.00000000000E+00  0.10228677025E+04  0.10228677025E+04  0.00000000000E+00 0. -1.
         -2   -1    0    0    0  501 -0.00000000000E+00 -0.00000000000E+00 -0.17874170195E+02  0.17874170195E+02  0.00000000000E+00 0.  1.
         23    2    1    2    0    0  0.22860582843E+02  0.18562601439E+02  0.10045532059E+04  0.10112907215E+04  0.11275905074E+03 0.  0.
         13    1    3    3    0    0  0.27734382010E+02  0.32386972582E+02  0.13413514449E+03  0.14074924129E+03  0.00000000000E+00 0.  1.
        -13    1    3    3    0    0 -0.48737991664E+01 -0.13824371144E+02  0.87041806137E+03  0.87054148018E+03  0.00000000000E+00 0. -1.
         22    1    1    2    0    0 -0.22860582843E+02 -0.18562601439E+02  0.44032643719E+00  0.29451151208E+02  0.00000000000E+00 0.  1.
<mgrwt>
<rscale>  0 0.82627039E+02</rscale>
<asrwt>0</asrwt>
<pdfrwt beam="1">  1        2 0.15736422E+00 0.11654089E+03</pdfrwt>
<pdfrwt beam="2">  1       -2 0.27498731E-02 0.11654089E+03</pdfrwt>
<totfact> 0.11689320E+04</totfact>
</mgrwt>
</event>
<event>
 6    1  0.3075717E-002  0.9346500E+02  0.7546771E-02  0.1418802E+00
         -2   -1    0    0    0  501 -0.00000000000E+00  0.00000000000E+00  0.43276629959E+01  0.43276629959E+01  0.00000000000E+00 0.  1.
          2   -1    0    0  501    0  0.00000000000E+00 -0.00000000000E+00 -0.15387821910E+04  0.15387821910E+04  0.00000000000E+00 0. -1.
         23    2    1    2    0    0 -0.82589644797E+01  0.79063740077E+01 -0.15260753287E+04  0.15289347975E+04  0.92763058562E+02 0.  0.
         11    1    3    3    0    0 -0.34698685397E+02 -0.48061075063E+01 -0.24178137773E+03  0.24430581666E+03  0.00000000000E+00 0. -1.
        -11    1    3    3    0    0  0.26439720917E+02  0.12712481514E+02 -0.12842939509E+04  0.12846289809E+04  0.00000000000E+00 0.  1.
         22    1    1    2    0    0  0.82589644797E+01 -0.79063740077E+01 -0.83791992890E+01  0.14175056436E+02  0.00000000000E+00 0.  1.
<mgrwt>
<rscale>  0 0.55275163E+02</rscale>
<asrwt>0</asrwt>
<pdfrwt beam="1">  1        2 0.23673595E+00 0.93465000E+02</pdfrwt>
<pdfrwt beam="2">  1       -2 0.66579367E-03 0.93465000E+02</pdfrwt>
<totfact> 0.46056307E+04</totfact>
</mgrwt>
</event>
<event>
 6    1  0.3075717E-002  0.9948036E+02  0.7546771E-02  0.1334000E+00
          2   -1    0    0  501    0  0.00000000000E+00  0.00000000000E+00  0.24970869975E+02  0.24970869975E+02  0.00000000000E+00 0. -1.
         -2   -1    0    0    0  501 -0.00000000000E+00 -0.00000000000E+00 -0.19720260883E+03  0.19720260883E+03  0.00000000000E+00 0.  1.
         23    2    1    2    0    0 -0.31011414626E+02  0.22208887304E+02 -0.14260768024E+03  0.17387723297E+03  0.91877087303E+02 0.  0.
         11    1    3    3    0    0 -0.46055733291E+01  0.10759271782E+02  0.11912350069E+02  0.16699620329E+02  0.00000000000E+00 0. -1.
        -11    1    3    3    0    0 -0.26405841296E+02  0.11449615522E+02 -0.15452003031E+03  0.15717761265E+03  0.00000000000E+00 0.  1.
         22    1    1    2    0    0  0.31011414626E+02 -0.22208887304E+02 -0.29624058610E+02  0.48296245826E+02  0.00000000000E+00 0. -1.
<mgrwt>
<rscale>  0 0.78281427E+02</rscale>
<asrwt>0</asrwt>
<pdfrwt beam="1">  1        2 0.38416725E-02 0.99480358E+02</pdfrwt>
<pdfrwt beam="2">  1       -2 0.30338862E-01 0.99480358E+02</pdfrwt>
<totfact> 0.19999630E+04</totfact>
</mgrwt>
</event>
<event>
 6    1  0.3075717E-002  0.9515505E+02  0.7546771E-02  0.1379839E+00
         -2   -1    0    0    0  501 -0.00000000000E+00  0.00000000000E+00  0.24444471795E+02  0.24444471795E+02  0.00000000000E+00 0.  1.
          2   -1    0    0  501    0  0.00000000000E+00 -0.00000000000E+00 -0.23625289472E+03  0.23625289472E+03  0.00000000000E+00 0. -1.
         23    2    1    2    0    0 -0.13546710758E+02 -0.14843430832E+02 -0.21945454371E+03  0.23919611133E+03  0.93008828117E+02 0.  0.
         13    1    3    3    0    0 -0.10751594441E+02  0.28620392698E+02 -0.17235505189E+03  0.17504567282E+03  0.00000000000E+00 0. -1.
        -13    1    3    3    0    0 -0.27951163170E+01 -0.43463823530E+02 -0.47099491827E+02  0.64150438513E+02  0.00000000000E+00 0.  1.
         22    1    1    2    0    0  0.13546710758E+02  0.14843430832E+02  0.76461207917E+01  0.21501255181E+02  0.00000000000E+00 0.  1.
<mgrwt>
<rscale>  0 0.64506005E+02</rscale>
<asrwt>0</asrwt>
<pdfrwt beam="1">  1        2 0.36346597E-01 0.95155047E+02</pdfrwt>
<pdfrwt beam="2">  1       -2 0.37606882E-02 0.95155047E+02</pdfrwt>
<totfact> 0.37835230E+04</totfact>
</mgrwt>
</event>
<event>
 6    1  0.3075717E-002  0.9883280E+02  0.7546771E-02  0.1335703E+00
          2   -1    0    0  501    0  0.00000000000E+00  0.00000000000E+00  0.83084217421E+03  0.83084217421E+03  0.00000000000E+00 0. -1.
         -2   -1    0    0    0  501 -0.00000000000E+00 -0.00000000000E+00 -0.69342563669E+01  0.69342563669E+01  0.00000000000E+00 0.  1.
         23    2    1    2    0    0  0.14125492403E+02  0.35017308147E+02  0.72841502531E+03  0.73508936260E+03  0.91335538015E+02 0.  0.
         11    1    3    3    0    0  0.42773172413E+02  0.25253640378E+02  0.21011726969E+03  0.21590867896E+03  0.00000000000E+00 0.  1.
        -11    1    3    3    0    0 -0.28647680011E+02  0.97636677695E+01  0.51829775562E+03  0.51918068363E+03  0.00000000000E+00 0. -1.
         22    1    1    2    0    0 -0.14125492403E+02 -0.35017308147E+02  0.95492892542E+02  0.10268706799E+03  0.00000000000E+00 0. -1.
<mgrwt>
<rscale>  0 0.77701770E+02</rscale>
<asrwt>0</asrwt>
<pdfrwt beam="1">  1        2 0.12782179E+00 0.98832798E+02</pdfrwt>
<pdfrwt beam="2">  1       -2 0.10668093E-02 0.98832798E+02</pdfrwt>
<totfact> 0.59026392E+04</totfact>
</mgrwt>
</event>
<event>
 6    1  0.3075717E-002  0.9319769E+02  0.7546771E-02  0.1367417E+00
         -2   -1    0    0    0  501 -0.00000000000E+00  0.00000000000E+00  0.46291895137E+01  0.46291895137E+01  0.00000000000E+00 0. -1.
          2   -1    0    0  501    0  0.00000000000E+00 -0.00000000000E+00 -0.93377987904E+03  0.93377987904E+03  0.00000000000E+00 0.  1.
         23    2    1    2    0    0 -0.18458662943E+02 -0.18654697449E+02 -0.84833792942E+03  0.85344188565E+03  0.89426448632E+02 0.  0.
         11    1    3    3    0    0  0.18673580411E+02  0.26272998791E+02 -0.40651468662E+03  0.40779058782E+03  0.00000000000E+00 0. -1.
        -11    1    3    3    0    0 -0.37132243354E+02 -0.44927696240E+02 -0.44182324280E+03  0.44565129784E+03  0.00000000000E+00 0.  1.
         22    1    1    2    0    0  0.18458662943E+02  0.18654697449E+02 -0.80812760107E+02  0.84967182904E+02  0.00000000000E+00 0. -1.
<mgrwt>
<rscale>  0 0.67890530E+02</rscale>
<asrwt>0</asrwt>
<pdfrwt beam="1">  1        2 0.14365850E+00 0.93197691E+02</pdfrwt>
<pdfrwt beam="2">  1       -2 0.71218272E-03 0.93197691E+02</pdfrwt>
<totfact> 0.89439911E+04</totfact>
</mgrwt>
</event>
<event>
 6    1  0.3075717E-002  0.8582505E+02  0.7546771E-02  0.1439817E+00
          1   -1    0    0  501    0  0.00000000000E+00  0.00000000000E+00  0.15088153659E+03  0.15088153659E+03  0.00000000000E+00 0. -1.
         -1   -1    0    0    0  501 -0.00000000000E+00 -0.00000000000E+00 -0.18316862538E+02  0.18316862538E+02  0.00000000000E+00 0.  1.
         23    2    1    2    0    0  0.87547993516E+01 -0.62107891961E+01  0.13318880124E+03  0.15844619243E+03  0.85151152108E+02 0.  0.
         13    1    3    3    0    0 -0.96058472917E+01 -0.79960465635E+01 -0.87862715556E+01  0.15277684075E+02  0.00000000000E+00 0.  1.
        -13    1    3    3    0    0  0.18360646643E+02  0.17852573674E+01  0.14197507279E+03  0.14316850835E+03  0.00000000000E+00 0. -1.
         22    1    1    2    0    0 -0.87547993516E+01  0.62107891961E+01 -0.62412718947E+00  0.10752206698E+02  0.00000000000E+00 0.  1.
<mgrwt>
<rscale>  0 0.51038949E+02</rscale>
<asrwt>0</asrwt>
<pdfrwt beam="1">  1        1 0.23212543E-01 0.85825049E+02</pdfrwt>
<pdfrwt beam="2">  1       -1 0.28179790E-02 0.85825049E+02</pdfrwt>
<totfact> 0.73930213E+04</totfact>
</mgrwt>
</event>
<event>
 6    1  0.3075717E-002  0.9141635E+02  0.7546771E-02  0.1408505E+00
          3   -1    0    0  501    0  0.00000000000E+00  0.00000000000E+00  0.89752461768E+02  0.89752461768E+02  0.00000000000E+00 0. -1.
         -3   -1    0    0    0  501 -0.00000000000E+00 -0.00000000000E+00 -0.35640321831E+02  0.35640321831E+02  0.00000000000E+00 0.  1.
         23    2    1    2    0    0  0.12643016581E+02  0.67612446515E+01  0.60576763790E+02  0.10966536617E+03  0.90285037119E+02 0.  0.
         11    1    3    3    0    0 -0.94675462721E+01  0.15280892024E+02  0.78133483910E+02  0.80174693024E+02  0.00000000000E+00 0. -1.
        -11    1    3    3    0    0  0.22110562853E+02 -0.85196473722E+01 -0.17556720120E+02  0.29490673143E+02  0.00000000000E+00 0.  1.
         22    1    1    2    0    0 -0.12643016581E+02 -0.67612446515E+01 -0.64646238529E+01  0.15727417432E+02  0.00000000000E+00 0.  1.
<mgrwt>
<rscale>  0 0.57528798E+02</rscale>
<asrwt>0</asrwt>
<pdfrwt beam="1">  1        3 0.13808071E-01 0.91416346E+02</pdfrwt>
<pdfrwt beam="2">  1       -3 0.54831265E-02 0.91416346E+02</pdfrwt>
<totfact> 0.17243235E+04</totfact>
</mgrwt>
</event>
<event>
 6    1  0.3075717E-002  0.8872365E+02  0.7546771E-02  0.1407688E+00
         -2   -1    0    0    0  501 -0.00000000000E+00  0.00000000000E+00  0.11521365955E+02  0.11521365955E+02  0.00000000000E+00 0.  1.
          2   -1    0    0  501    0  0.00000000000E+00 -0.00000000000E+00 -0.42504988790E+03  0.42504988790E+03  0.00000000000E+00 0. -1.
         23    2    1    2    0    0  0.15667049218E+02  0.26201631681E+01 -0.41102334745E+03  0.42049028419E+03  0.87290121234E+02 0.  0.
         11    1    3    3    0    0 -0.15399885458E+02  0.14832147828E+02 -0.35225475483E+03  0.35290304814E+03  0.00000000000E+00 0. -1.
        -11    1    3    3    0    0  0.31066934676E+02 -0.12211984659E+02 -0.58768592614E+02  0.67587236053E+02  0.00000000000E+00 0.  1.
         22    1    1    2    0    0 -0.15667049218E+02 -0.26201631681E+01 -0.25051745023E+01  0.16080969670E+02  0.00000000000E+00 0.  1.
<mgrwt>
<rscale>  0 0.57713032E+02</rscale>
<asrwt>0</asrwt>
<pdfrwt beam="1">  1        2 0.65392284E-01 0.88723655E+02</pdfrwt>
<pdfrwt beam="2">  1       -2 0.17725180E-02 0.88723655E+02</pdfrwt>
<totfact> 0.60188897E+04</totfact>
</mgrwt>
</event>
<event>
 6    1  0.3075717E-002  0.1000217E+03  0.7546771E-02  0.1332815E+00
         -2   -1    0    0    0  501 -0.00000000000E+00  0.00000000000E+00  0.15929113430E+02  0.15929113430E+02  0.00000000000E+00 0.  1.
          2   -1    0    0  501    0  0.00000000000E+00 -0.00000000000E+00 -0.32240187622E+03  0.32240187622E+03  0.00000000000E+00 0. -1.
         23    2    1    2    0    0 -0.39144123981E+01  0.38113661339E+02 -0.25685151514E+03  0.27563934727E+03  0.92392505822E+02 0.  0.
         13    1    3    3    0    0 -0.27951224991E+02 -0.65784746403E+01 -0.24304544287E+02  0.37619917332E+02  0.00000000000E+00 0.  1.
        -13    1    3    3    0    0  0.24036812593E+02  0.44692135980E+02 -0.23254697085E+03  0.23801942994E+03  0.00000000000E+00 0. -1.
         22    1    1    2    0    0  0.39144123981E+01 -0.38113661339E+02 -0.49621247651E+02  0.62691642374E+02  0.00000000000E+00 0. -1.
<mgrwt>
<rscale>  0 0.78688379E+02</rscale>
<asrwt>0</asrwt>
<pdfrwt beam="1">  1        2 0.49600286E-01 0.10002174E+03</pdfrwt>
<pdfrwt beam="2">  1       -2 0.24506329E-02 0.10002174E+03</pdfrwt>
<totfact> 0.51278681E+04</totfact>
</mgrwt>
</event>
<event>
 6    1  0.3075717E-002  0.9682377E+02  0.7546771E-02  0.1420476E+00
         -2   -1    0    0    0  501 -0.00000000000E+00  0.00000000000E+00  0.14306809084E+03  0.14306809084E+03  0.00000000000E+00 0.  1.
          2   -1    0    0  501    0  0.00000000000E+00 -0.00000000000E+00 -0.27717968423E+02  0.27717968423E+02  0.00000000000E+00 0. -1.
         23    2    1    2    0    0 -0.72384875736E+01 -0.69325715375E+01  0.58639252048E+02  0.11319631132E+03  0.96303617608E+02 0.  0.
         11    1    3    3    0    0 -0.25830329399E+02  0.60909407135E+01  0.78605859436E+02  0.82964972207E+02  0.00000000000E+00 0.  1.
        -11    1    3    3    0    0  0.18591841825E+02 -0.13023512251E+02 -0.19966607388E+02  0.30231339110E+02  0.00000000000E+00 0. -1.
         22    1    1    2    0    0  0.72384875736E+01  0.69325715375E+01  0.56710870367E+02  0.57589747944E+02  0.00000000000E+00 0. -1.
<mgrwt>
<rscale>  0 0.54920391E+02</rscale>
<asrwt>0</asrwt>
<pdfrwt beam="1">  1        2 0.42643029E-02 0.96823773E+02</pdfrwt>
<pdfrwt beam="2">  1       -2 0.22010475E-01 0.96823773E+02</pdfrwt>
<totfact> 0.30416444E+04</totfact>
</mgrwt>
</event>
<event>
 6    1  0.3075717E-002  0.9522440E+02  0.7546771E-02  0.1394865E+00
          2   -1    0    0  501    0  0.00000000000E+00  0.00000000000E+00  0.11015033479E+04  0.11015033479E+04  0.00000000000E+00 0.  1.
         -2   -1    0    0    0  501 -0.00000000000E+00 -0.00000000000E+00 -0.31818431945E+01  0.31818431945E+01  0.00000000000E+00 0. -1.
         23    2    1    2    0    0 -0.14926828893E+02  0.49790297449E+01  0.10375135521E+04  0.10418742999E+04  0.93915307334E+02 0.  0.
         13    1    3    3    0    0  0.33605090834E+02  0.25654667963E+02  0.42882462669E+03  0.43090373005E+03  0.00000000000E+00 0.  1.
        -13    1    3    3    0    0 -0.48531919727E+02 -0.20675638218E+02  0.60868892544E+03  0.61097056983E+03  0.00000000000E+00 0. -1.
         22    1    1    2    0    0  0.14926828893E+02 -0.49790297449E+01  0.60807952583E+02  0.62810891216E+02  0.00000000000E+00 0.  1.
<mgrwt>
<rscale>  0 0.60712793E+02</rscale>
<asrwt>0</asrwt>
<pdfrwt beam="1">  1        2 0.16946175E+00 0.95224398E+02</pdfrwt>
<pdfrwt beam="2">  1       -2 0.48951522E-03 0.95224398E+02</pdfrwt>
<totfact> 0.12127804E+05</totfact>
</mgrwt>
</event>
<event>
 6    1  0.3075717E-002  0.9517971E+02  0.7546771E-02  0.1362286E+00
          2   -1    0    0  501    0  0.00000000000E+00  0.00000000000E+00  0.12792593674E+04  0.12792593674E+04  0.00000000000E+00 0. -1.
         -2   -1    0    0    0  501 -0.00000000000E+00 -0.00000000000E+00 -0.32290039028E+01  0.32290039028E+01  0.00000000000E+00 0.  1.
         23    2    1    2    0    0  0.24537721818E+02  0.10875340549E+02  0.11308111071E+04  0.11348096482E+04  0.91317057117E+02 0.  0.
         11    1    3    3    0    0  0.34181963726E+02 -0.11121750825E+02  0.17287837439E+03  0.17657585429E+03  0.00000000000E+00 0.  1.
        -11    1    3    3    0    0 -0.96442419084E+01  0.21997091374E+02  0.95793273266E+03  0.95823379388E+03  0.00000000000E+00 0. -1.
         22    1    1    2    0    0 -0.24537721818E+02 -0.10875340549E+02  0.14521925645E+03  0.14767872314E+03  0.00000000000E+00 0.  1.
<mgrwt>
<rscale>  0 0.69359022E+02</rscale>
<asrwt>0</asrwt>
<pdfrwt beam="1">  1        2 0.19680873E+00 0.95179713E+02</pdfrwt>
<pdfrwt beam="2">  1       -2 0.49677085E-03 0.95179713E+02</pdfrwt>
<totfact> 0.94987001E+04</totfact>
</mgrwt>
</event>
<event>
 6    1  0.3075717E-002  0.1112818E+03  0.7546771E-02  0.1286281E+00
         -2   -1    0    0    0  501 -0.00000000000E+00  0.00000000000E+00  0.56286352323E+01  0.56286352323E+01  0.00000000000E+00 0.  1.
          2   -1    0    0  501    0  0.00000000000E+00 -0.00000000000E+00 -0.16672054623E+04  0.16672054623E+04  0.00000000000E+00 0. -1.
         23    2    1    2    0    0 -0.60349310391E+02 -0.23577963164E+02 -0.13507471960E+04  0.13553234376E+04  0.90474711566E+02 0.  0.
         11    1    3    3    0    0 -0.31746107405E+02 -0.40767171227E+02 -0.32910935081E+03  0.33314072459E+03  0.00000000000E+00 0.  1.
        -11    1    3    3    0    0 -0.28603202986E+02  0.17189208064E+02 -0.10216378452E+04  0.10221827131E+04  0.00000000000E+00 0. -1.
         22    1    1    2    0    0  0.60349310391E+02  0.23577963164E+02 -0.31082963105E+03  0.31751065990E+03  0.00000000000E+00 0.  1.
<mgrwt>
<rscale>  0 0.97207060E+02</rscale>
<asrwt>0</asrwt>
<pdfrwt beam="1">  1        2 0.25649363E+00 0.11128177E+03</pdfrwt>
<pdfrwt beam="2">  1       -2 0.86594226E-03 0.11128177E+03</pdfrwt>
<totfact> 0.27716458E+04</totfact>
</mgrwt>
</event>
<event>
 6    1  0.3075717E-002  0.9390968E+02  0.7546771E-02  0.1351850E+00
          2   -1    0    0  501    0  0.00000000000E+00  0.00000000000E+00  0.38965780154E+03  0.38965780154E+03  0.00000000000E+00 0. -1.
         -2   -1    0    0    0  501 -0.00000000000E+00 -0.00000000000E+00 -0.26831645921E+02  0.26831645921E+02  0.00000000000E+00 0.  1.
         23    2    1    2    0    0  0.27160119336E+01  0.33216135343E+02  0.37056203664E+03  0.38227640576E+03  0.87797147058E+02 0.  0.
         11    1    3    3    0    0  0.33217687002E+02  0.41560763344E+02  0.30355531774E+03  0.30818264504E+03  0.00000000000E+00 0. -1.
        -11    1    3    3    0    0 -0.30501675069E+02 -0.83446280009E+01  0.67006718901E+02  0.74093760712E+02  0.00000000000E+00 0.  1.
         22    1    1    2    0    0 -0.27160119336E+01 -0.33216135343E+02 -0.77358810150E+01  0.34213041710E+02  0.00000000000E+00 0.  1.
<mgrwt>
<rscale>  0 0.72482270E+02</rscale>
<asrwt>0</asrwt>
<pdfrwt beam="1">  1        2 0.59947350E-01 0.93909677E+02</pdfrwt>
<pdfrwt beam="2">  1       -2 0.41279458E-02 0.93909677E+02</pdfrwt>
<totfact> 0.19488721E+04</totfact>
</mgrwt>
</event>
<event>
 6    1  0.3075717E-002  0.8633767E+02  0.7546771E-02  0.1441842E+00
          1   -1    0    0  501    0  0.00000000000E+00  0.00000000000E+00  0.75697500853E+02  0.75697500853E+02  0.00000000000E+00 0. -1.
         -1   -1    0    0    0  501 -0.00000000000E+00 -0.00000000000E+00 -0.39675895469E+02  0.39675895469E+02  0.00000000000E+00 0.  1.
         23    2    1    2    0    0 -0.29915831195E+01  0.97828838884E+01  0.48665972102E+02  0.99108882912E+02  0.85729454943E+02 0.  0.
         13    1    3    3    0    0 -0.34671956628E+02 -0.74350232580E+01 -0.35672021017E+01  0.35639150917E+02  0.00000000000E+00 0.  1.
        -13    1    3    3    0    0  0.31680373508E+02  0.17217907146E+02  0.52233174204E+02  0.63469731995E+02  0.00000000000E+00 0. -1.
         22    1    1    2    0    0  0.29915831195E+01 -0.97828838884E+01 -0.12644366719E+02  0.16264513410E+02  0.00000000000E+00 0.  1.
<mgrwt>
<rscale>  0 0.50654722E+02</rscale>
<asrwt>0</asrwt>
<pdfrwt beam="1">  1        1 0.11645769E-01 0.86337673E+02</pdfrwt>
<pdfrwt beam="2">  1       -1 0.61039839E-02 0.86337673E+02</pdfrwt>
<totfact> 0.57781858E+04</totfact>
</mgrwt>
</event>
<event>
 6    1  0.3075717E-002  0.9523627E+02  0.7546771E-02  0.1406110E+00
          2   -1    0    0  501    0  0.00000000000E+00  0.00000000000E+00  0.20231548966E+03  0.20231548966E+03  0.00000000000E+00 0. -1.
         -2   -1    0    0    0  501 -0.00000000000E+00 -0.00000000000E+00 -0.15768683429E+02  0.15768683429E+02  0.00000000000E+00 0.  1.
         23    2    1    2    0    0  0.69571567634E+01  0.11176847529E+02  0.17938175621E+03  0.20309544757E+03  0.94321908436E+02 0.  0.
         11    1    3    3    0    0  0.37985111694E+02 -0.36699722735E+01  0.26669993978E+02  0.46557770411E+02  0.00000000000E+00 0.  1.
        -11    1    3    3    0    0 -0.31027954931E+02  0.14846819803E+02  0.15271176224E+03  0.15653767716E+03  0.00000000000E+00 0. -1.
         22    1    1    2    0    0 -0.69571567634E+01 -0.11176847529E+02  0.71650500205E+01  0.14988725520E+02  0.00000000000E+00 0.  1.
<mgrwt>
<rscale>  0 0.58070972E+02</rscale>
<asrwt>0</asrwt>
<pdfrwt beam="1">  1        2 0.31125458E-01 0.95236266E+02</pdfrwt>
<pdfrwt beam="2">  1       -2 0.24259514E-02 0.95236266E+02</pdfrwt>
<totfact> 0.84480073E+04</totfact>
</mgrwt>
</event>
<event>
 6    1  0.3075717E-002  0.9390371E+02  0.7546771E-02  0.1370156E+00
          2   -1    0    0  501    0  0.00000000000E+00  0.00000000000E+00  0.42221920761E+03  0.42221920761E+03  0.00000000000E+00 0.  1.
         -2   -1    0    0    0  501 -0.00000000000E+00 -0.00000000000E+00 -0.11952038228E+02  0.11952038228E+02  0.00000000000E+00 0. -1.
         23    2    1    2    0    0  0.22340597884E+02 -0.10097181311E+02  0.39330335422E+03  0.40435805397E+03  0.90646853159E+02 0.  0.
         11    1    3    3    0    0  0.26190944279E+02 -0.32541471070E+02  0.36781222462E+03  0.37017664092E+03  0.00000000000E+00 0.  1.
        -11    1    3    3    0    0 -0.38503463948E+01  0.22444289759E+02  0.25491129601E+02  0.34181413056E+02  0.00000000000E+00 0. -1.
         22    1    1    2    0    0 -0.22340597884E+02  0.10097181311E+02  0.16963815158E+02  0.29813191861E+02  0.00000000000E+00 0. -1.
<mgrwt>
<rscale>  0 0.67123777E+02</rscale>
<asrwt>0</asrwt>
<pdfrwt beam="1">  1        2 0.64956790E-01 0.93903713E+02</pdfrwt>
<pdfrwt beam="2">  1       -2 0.18387754E-02 0.93903713E+02</pdfrwt>
<totfact> 0.57941681E+04</totfact>
</mgrwt>
</event>
<event>
 6    1  0.3075717E-002  0.9449234E+02  0.7546771E-02  0.1392629E+00
         -2   -1    0    0    0  501 -0.00000000000E+00  0.00000000000E+00  0.94838375757E+01  0.94838375757E+01  0.00000000000E+00 0.  1.
          2   -1    0    0  501    0  0.00000000000E+00 -0.00000000000E+00 -0.44032562697E+03  0.44032562697E+03  0.00000000000E+00 0. -1.
         23    2    1    2    0    0 -0.16560617855E+02 -0.20706224757E+01 -0.41854518629E+03  0.42907910060E+03  0.93006774313E+02 0.  0.
         11    1    3    3    0    0 -0.10214379005E+02 -0.41417766019E+02 -0.31919122689E+03  0.32202919775E+03  0.00000000000E+00 0. -1.
        -11    1    3    3    0    0 -0.63462388494E+01  0.39347143544E+02 -0.99353959400E+02  0.10704990285E+03  0.00000000000E+00 0.  1.
         22    1    1    2    0    0  0.16560617855E+02  0.20706224757E+01 -0.12296603101E+02  0.20730363938E+02  0.00000000000E+00 0.  1.
<mgrwt>
<rscale>  0 0.61257418E+02</rscale>
<asrwt>0</asrwt>
<pdfrwt beam="1">  1        2 0.67742400E-01 0.94492336E+02</pdfrwt>
<pdfrwt beam="2">  1       -2 0.14590520E-02 0.94492336E+02</pdfrwt>
<totfact> 0.77219339E+04</totfact>
</mgrwt>
</event>
<event>
 6    1  0.3075717E-002  0.9220244E+02  0.7546771E-02  0.1424842E+00
         -2   -1    0    0    0  501 -0.00000000000E+00  0.00000000000E+00  0.27635688108E+01  0.27635688108E+01  0.00000000000E+00 0. -1.
          2   -1    0    0  501    0  0.00000000000E+00 -0.00000000000E+00 -0.10330659995E+04  0.10330659995E+04  0.00000000000E+00 0.  1.
         23    2    1    2    0    0  0.83643642761E+01  0.69195582829E+01 -0.98216260322E+03  0.98648095267E+03  0.91561170513E+02 0.  0.
         13    1    3    3    0    0 -0.41244457410E+02  0.25483126814E+01 -0.37155939387E+03  0.37385021377E+03  0.00000000000E+00 0. -1.
        -13    1    3    3    0    0  0.49608821686E+02  0.43712456015E+01 -0.61060320935E+03  0.61263073890E+03  0.00000000000E+00 0.  1.
         22    1    1    2    0    0 -0.83643642761E+01 -0.69195582829E+01 -0.48139827453E+02  0.49348615622E+02  0.00000000000E+00 0.  1.
<mgrwt>
<rscale>  0 0.54009449E+02</rscale>
<asrwt>0</asrwt>
<pdfrwt beam="1">  1        2 0.15893317E+00 0.92202445E+02</pdfrwt>
<pdfrwt beam="2">  1       -2 0.42516458E-03 0.92202445E+02</pdfrwt>
<totfact> 0.16092757E+05</totfact>
</mgrwt>
</event>
<event>
 6    1  0.3075717E-002  0.1031951E+03  0.7546771E-02  0.1378295E+00
         -2   -1    0    0    0  501 -0.00000000000E+00  0.00000000000E+00  0.31694519552E+02  0.31694519552E+02  0.00000000000E+00 0. -1.
          2   -1    0    0  501    0  0.00000000000E+00 -0.00000000000E+00 -0.16174358069E+03  0.16174358069E+03  0.00000000000E+00 0.  1.
         23    2    1    2    0    0 -0.12829839223E+02  0.98215601934E+01 -0.14040305616E+03  0.17424765907E+03  0.10192232677E+03 0.  0.
         11    1    3    3    0    0 -0.17756027440E+02  0.43795680360E+02 -0.13008189584E+03  0.13840028090E+03  0.00000000000E+00 0.  1.
        -11    1    3    3    0    0  0.49261882171E+01 -0.33974120167E+02 -0.10321160322E+02  0.35847378173E+02  0.00000000000E+00 0. -1.
         22    1    1    2    0    0  0.12829839223E+02 -0.98215601934E+01  0.10353995025E+02  0.19190441165E+02  0.00000000000E+00 0. -1.
<mgrwt>
<rscale>  0 0.64914015E+02</rscale>
<asrwt>0</asrwt>
<pdfrwt beam="1">  1        2 0.24883628E-01 0.10319510E+03</pdfrwt>
<pdfrwt beam="2">  1       -2 0.48760799E-02 0.10319510E+03</pdfrwt>
<totfact> 0.39089733E+04</totfact>
</mgrwt>
</event>
<event>
 6    1  0.3075717E-002  0.8963684E+02  0.7546771E-02  0.1422787E+00
          2   -1    0    0  501    0  0.00000000000E+00  0.00000000000E+00  0.31133997750E+03  0.31133997750E+03  0.00000000000E+00 0.  1.
         -2   -1    0    0    0  501 -0.00000000000E+00 -0.00000000000E+00 -0.21072571141E+02  0.21072571141E+02  0.00000000000E+00 0. -1.
         23    2    1    2    0    0  0.10818647284E+02  0.56213567935E+01  0.30228398985E+03  0.31529410653E+03  0.88803830485E+02 0.  0.
         11    1    3    3    0    0 -0.15077482819E+02 -0.32549129058E+02  0.72059683106E+02  0.80494560189E+02  0.00000000000E+00 0. -1.
        -11    1    3    3    0    0  0.25896130102E+02  0.38170485851E+02  0.23022430675E+03  0.23479954634E+03  0.00000000000E+00 0.  1.
         22    1    1    2    0    0 -0.10818647284E+02 -0.56213567935E+01 -0.12016583499E+02  0.17118442109E+02  0.00000000000E+00 0. -1.
<mgrwt>
<rscale>  0 0.54435583E+02</rscale>
<asrwt>0</asrwt>
<pdfrwt beam="1">  1        2 0.47898455E-01 0.89636840E+02</pdfrwt>
<pdfrwt beam="2">  1       -2 0.32419342E-02 0.89636840E+02</pdfrwt>
<totfact> 0.34945838E+04</totfact>
</mgrwt>
</event>
<event>
 6    1  0.3075717E-002  0.9552634E+02  0.7546771E-02  0.1415494E+00
          4   -1    0    0  501    0  0.00000000000E+00  0.00000000000E+00  0.97255356691E+03  0.97255356691E+03  0.00000000000E+00 0. -1.
         -4   -1    0    0    0  501 -0.00000000000E+00 -0.00000000000E+00 -0.31690442036E+01  0.31690442036E+01  0.00000000000E+00 0.  1.
         23    2    1    2    0    0 -0.62568992549E+01 -0.93741387506E+01  0.92538849397E+03  0.93030594225E+03  0.94859149047E+02 0.  0.
         11    1    3    3    0    0  0.35586894019E+02  0.23208251603E+02  0.40589287675E+03  0.40811037399E+03  0.00000000000E+00 0. -1.
        -11    1    3    3    0    0 -0.41843793274E+02 -0.32582390354E+02  0.51949561722E+03  0.52219556826E+03  0.00000000000E+00 0.  1.
         22    1    1    2    0    0  0.62568992549E+01  0.93741387506E+01  0.43996028736E+02  0.45416668858E+02  0.00000000000E+00 0.  1.
<mgrwt>
<rscale>  0 0.55985783E+02</rscale>
<asrwt>0</asrwt>
<pdfrwt beam="1">  1        4 0.14962339E+00 0.95526339E+02</pdfrwt>
<pdfrwt beam="2">  1       -4 0.48754604E-03 0.95526339E+02</pdfrwt>
<totfact> 0.41674615E+03</totfact>
</mgrwt>
</event>
<event>
 6    1  0.3075717E-002  0.9018306E+02  0.7546771E-02  0.1394687E+00
          2   -1    0    0  501    0  0.00000000000E+00  0.00000000000E+00  0.78877167796E+03  0.78877167796E+03  0.00000000000E+00 0. -1.
         -2   -1    0    0    0  501 -0.00000000000E+00 -0.00000000000E+00 -0.14505448637E+02  0.14505448637E+02  0.00000000000E+00 0.  1.
         23    2    1    2    0    0 -0.73677319715E+01 -0.17053557797E+02  0.77892219918E+03  0.78412548533E+03  0.88248949278E+02 0.  0.
         11    1    3    3    0    0  0.22094502780E+02  0.27820462941E+02  0.36822153537E+03  0.36993140489E+03  0.00000000000E+00 0. -1.
        -11    1    3    3    0    0 -0.29462234752E+02 -0.44874020738E+02  0.41070066381E+03  0.41419408044E+03  0.00000000000E+00 0.  1.
         22    1    1    2    0    0  0.73677319715E+01  0.17053557797E+02 -0.46559698627E+01  0.19151641269E+02  0.00000000000E+00 0. -1.
<mgrwt>
<rscale>  0 0.60755835E+02</rscale>
<asrwt>0</asrwt>
<pdfrwt beam="1">  1        2 0.12134946E+00 0.90183060E+02</pdfrwt>
<pdfrwt beam="2">  1       -2 0.22316081E-02 0.90183060E+02</pdfrwt>
<totfact> 0.21700452E+04</totfact>
</mgrwt>
</event>
<event>
 6    1  0.3075717E-002  0.9520052E+02  0.7546771E-02  0.1386242E+00
          2   -1    0    0  501    0  0.00000000000E+00  0.00000000000E+00  0.39115886455E+02  0.39115886455E+02  0.00000000000E+00 0. -1.
         -2   -1    0    0    0  501 -0.00000000000E+00 -0.00000000000E+00 -0.82035670769E+02  0.82035670769E+02  0.00000000000E+00 0.  1.
         23    2    1    2    0    0  0.17767292515E+02 -0.33784785174E+01 -0.35534986548E+02  0.10161630605E+03  0.93466826124E+02 0.  0.
         13    1    3    3    0    0 -0.20742914535E+02 -0.37078931222E+02 -0.25236436401E+02  0.49416529281E+02  0.00000000000E+00 0. -1.
        -13    1    3    3    0    0  0.38510207050E+02  0.33700452704E+02 -0.10298550147E+02  0.52199776768E+02  0.00000000000E+00 0.  1.
         22    1    1    2    0    0 -0.17767292515E+02  0.33784785174E+01 -0.73847977658E+01  0.19535251174E+02  0.00000000000E+00 0.  1.
<mgrwt>
<rscale>  0 0.62851120E+02</rscale>
<asrwt>0</asrwt>
<pdfrwt beam="1">  1        2 0.60178287E-02 0.95200517E+02</pdfrwt>
<pdfrwt beam="2">  1       -2 0.12620872E-01 0.95200517E+02</pdfrwt>
<totfact> 0.48491154E+04</totfact>
</mgrwt>
</event>
<event>
 6    1  0.3075717E-002  0.8837942E+02  0.7546771E-02  0.1343857E+00
          2   -1    0    0  501    0  0.00000000000E+00  0.00000000000E+00  0.11818933243E+04  0.11818933243E+04  0.00000000000E+00 0. -1.
         -2   -1    0    0    0  501 -0.00000000000E+00 -0.00000000000E+00 -0.14022639893E+02  0.14022639893E+02  0.00000000000E+00 0.  1.
         23    2    1    2    0    0  0.42770843187E+02  0.16507212121E+02  0.11374885886E+04  0.11409168294E+04  0.75558516834E+02 0.  0.
         13    1    3    3    0    0 -0.45090607965E+01  0.79858998084E+01  0.79730057271E+03  0.79735331533E+03  0.00000000000E+00 0. -1.
        -13    1    3    3    0    0  0.47279903983E+02  0.85213123130E+01  0.34018801587E+03  0.34356351410E+03  0.00000000000E+00 0.  1.
         22    1    1    2    0    0 -0.42770843187E+02 -0.16507212121E+02  0.30382095868E+02  0.54999134796E+02  0.00000000000E+00 0.  1.
<mgrwt>
<rscale>  0 0.75004644E+02</rscale>
<asrwt>0</asrwt>
<pdfrwt beam="1">  1        2 0.18182966E+00 0.88379424E+02</pdfrwt>
<pdfrwt beam="2">  1       -2 0.21573301E-02 0.88379424E+02</pdfrwt>
<totfact> 0.13267202E+04</totfact>
</mgrwt>
</event>
<event>
 6    1  0.3075717E-002  0.9325588E+02  0.7546771E-02  0.1405574E+00
          2   -1    0    0  501    0  0.00000000000E+00  0.00000000000E+00  0.80151710988E+03  0.80151710988E+03  0.00000000000E+00 0. -1.
         -2   -1    0    0    0  501 -0.00000000000E+00 -0.00000000000E+00 -0.49264322873E+01  0.49264322873E+01  0.00000000000E+00 0.  1.
         23    2    1    2    0    0  0.59803840712E+01  0.12813422927E+02  0.77527815712E+03  0.78086674937E+03  0.92177603398E+02 0.  0.
         11    1    3    3    0    0  0.48784153319E+02  0.75939241459E+01  0.46315194484E+03  0.46577600336E+03  0.00000000000E+00 0. -1.
        -11    1    3    3    0    0 -0.42803769248E+02  0.52194987815E+01  0.31212621228E+03  0.31509074601E+03  0.00000000000E+00 0.  1.
         22    1    1    2    0    0 -0.59803840712E+01 -0.12813422927E+02  0.21312520474E+02  0.25576792796E+02  0.00000000000E+00 0.  1.
<mgrwt>
<rscale>  0 0.58193171E+02</rscale>
<asrwt>0</asrwt>
<pdfrwt beam="1">  1        2 0.12331022E+00 0.93255881E+02</pdfrwt>
<pdfrwt beam="2">  1       -2 0.75791330E-03 0.93255881E+02</pdfrwt>
<totfact> 0.99371610E+04</totfact>
</mgrwt>
</event>
<event>
 6    1  0.3075717E-002  0.9236014E+02  0.7546771E-02  0.1399295E+00
          1   -1    0    0  501    0  0.00000000000E+00  0.00000000000E+00  0.13630201561E+04  0.13630201561E+04  0.00000000000E+00 0. -1.
         -1   -1    0    0    0  501 -0.00000000000E+00 -0.00000000000E+00 -0.25240009432E+01  0.25240009432E+01  0.00000000000E+00 0.  1.
         23    2    1    2    0    0  0.79318665532E+01  0.13978199392E+02  0.12870705798E+04  0.12903802050E+04  0.90951039510E+02 0.  0.
         13    1    3    3    0    0  0.70259258560E+01  0.45042971743E+02  0.10827806036E+04  0.10837398527E+04  0.00000000000E+00 0. -1.
        -13    1    3    3    0    0  0.90594069718E+00 -0.31064772351E+02  0.20428997622E+03  0.20664035228E+03  0.00000000000E+00 0.  1.
         22    1    1    2    0    0 -0.79318665532E+01 -0.13978199392E+02  0.73425575317E+02  0.75163951971E+02  0.00000000000E+00 0.  1.
<mgrwt>
<rscale>  0 0.59652680E+02</rscale>
<asrwt>0</asrwt>
<pdfrwt beam="1">  1        1 0.20969482E+00 0.92360144E+02</pdfrwt>
<pdfrwt beam="2">  1       -1 0.38830893E-03 0.92360144E+02</pdfrwt>
<totfact> 0.58884193E+04</totfact>
</mgrwt>
</event>
<event>
 6    1  0.3075717E-002  0.9363022E+02  0.7546771E-02  0.1392113E+00
         -3   -1    0    0    0  501 -0.00000000000E+00  0.00000000000E+00  0.14552893974E+02  0.14552893974E+02  0.00000000000E+00 0.  1.
          3   -1    0    0  501    0  0.00000000000E+00 -0.00000000000E+00 -0.26395599043E+03  0.26395599043E+03  0.00000000000E+00 0. -1.
         23    2    1    2    0    0  0.15608981502E+02  0.74537925569E+01 -0.24238759823E+03  0.25984296513E+03  0.92018581948E+02 0.  0.
         11    1    3    3    0    0  0.27456854800E+02 -0.12482299265E+02 -0.19864982398E+02  0.36115151891E+02  0.00000000000E+00 0.  1.
        -11    1    3    3    0    0 -0.11847873298E+02  0.19936091822E+02 -0.22252261584E+03  0.22372781324E+03  0.00000000000E+00 0. -1.
         22    1    1    2    0    0 -0.15608981502E+02 -0.74537925569E+01 -0.70154982235E+01  0.18665919274E+02  0.00000000000E+00 0.  1.
<mgrwt>
<rscale>  0 0.61384274E+02</rscale>
<asrwt>0</asrwt>
<pdfrwt beam="1">  1        3 0.40608615E-01 0.93630223E+02</pdfrwt>
<pdfrwt beam="2">  1       -3 0.22389067E-02 0.93630223E+02</pdfrwt>
<totfact> 0.10072706E+04</totfact>
</mgrwt>
</event>
<event>
 6    1  0.3075717E-002  0.9524818E+02  0.7546771E-02  0.1361528E+00
         -2   -1    0    0    0  501 -0.00000000000E+00  0.00000000000E+00  0.19173465289E+02  0.19173465289E+02  0.00000000000E+00 0.  1.
          2   -1    0    0  501    0  0.00000000000E+00 -0.00000000000E+00 -0.25707187053E+03  0.25707187053E+03  0.00000000000E+00 0. -1.
         23    2    1    2    0    0  0.36818853152E+01  0.26873463410E+02 -0.22846930612E+03  0.24752866426E+03  0.91304307013E+02 0.  0.
         13    1    3    3    0    0  0.33347898601E+02  0.27890333964E+02 -0.20535753348E+03  0.20990871737E+03  0.00000000000E+00 0. -1.
        -13    1    3    3    0    0 -0.29666013285E+02 -0.10168705535E+01 -0.23111772635E+02  0.37619946894E+02  0.00000000000E+00 0.  1.
         22    1    1    2    0    0 -0.36818853152E+01 -0.26873463410E+02 -0.94290991280E+01  0.28716671560E+02  0.00000000000E+00 0.  1.
<mgrwt>
<rscale>  0 0.69579773E+02</rscale>
<asrwt>0</asrwt>
<pdfrwt beam="1">  1        2 0.39549515E-01 0.95248180E+02</pdfrwt>
<pdfrwt beam="2">  1       -2 0.29497642E-02 0.95248180E+02</pdfrwt>
<totfact> 0.49368616E+04</totfact>
</mgrwt>
</event>
<event>
 6    1  0.3075717E-002  0.7650047E+02  0.7546771E-02  0.1405390E+00
          2   -1    0    0  501    0  0.00000000000E+00  0.00000000000E+00  0.25321146066E+03  0.25321146066E+03  0.00000000000E+00 0. -1.
         -2   -1    0    0    0  501 -0.00000000000E+00 -0.00000000000E+00 -0.10314570018E+02  0.10314570018E+02  0.00000000000E+00 0.  1.
         23    2    1    2    0    0  0.12497760387E+02 -0.22444315091E+02  0.17948701973E+03  0.19511000168E+03  0.72058179339E+02 0.  0.
         11    1    3    3    0    0 -0.33110745594E+01 -0.22427635890E+02  0.98168058054E+01  0.24704893090E+02  0.00000000000E+00 0.  1.
        -11    1    3    3    0    0  0.15808834946E+02 -0.16679200706E-01  0.16967021393E+03  0.17040510859E+03  0.00000000000E+00 0. -1.
         22    1    1    2    0    0 -0.12497760387E+02  0.22444315091E+02  0.63409870906E+02  0.68416028991E+02  0.00000000000E+00 0. -1.
<mgrwt>
<rscale>  0 0.58235292E+02</rscale>
<asrwt>0</asrwt>
<pdfrwt beam="1">  1        2 0.38955605E-01 0.76500474E+02</pdfrwt>
<pdfrwt beam="2">  1       -2 0.15868571E-02 0.76500474E+02</pdfrwt>
<totfact> 0.11840294E+05</totfact>
</mgrwt>
</event>
<event>
 6    1  0.3075717E-002  0.9530929E+02  0.7546771E-02  0.1358165E+00
         -2   -1    0    0    0  501 -0.00000000000E+00  0.00000000000E+00  0.10817080921E+02  0.10817080921E+02  0.00000000000E+00 0.  1.
          2   -1    0    0  501    0  0.00000000000E+00 -0.00000000000E+00 -0.16944319383E+04  0.16944319383E+04  0.00000000000E+00 0. -1.
         23    2    1    2    0    0  0.60841249470E+01 -0.27993271661E+02 -0.16713859538E+04  0.16741012117E+04  0.90902258116E+02 0.  0.
         11    1    3    3    0    0  0.43829623627E+02 -0.12331945034E+02 -0.51977960526E+03  0.52177001717E+03  0.00000000000E+00 0. -1.
        -11    1    3    3    0    0 -0.37745498680E+02 -0.15661326627E+02 -0.11516063485E+04  0.11523311945E+04  0.00000000000E+00 0.  1.
         22    1    1    2    0    0 -0.60841249470E+01  0.27993271661E+02 -0.12228903641E+02  0.31147807610E+02  0.00000000000E+00 0.  1.
<mgrwt>
<rscale>  0 0.70570061E+02</rscale>
<asrwt>0</asrwt>
<pdfrwt beam="1">  1        2 0.26068180E+00 0.95309288E+02</pdfrwt>
<pdfrwt beam="2">  1       -2 0.16641665E-02 0.95309288E+02</pdfrwt>
<totfact> 0.10486472E+04</totfact>
</mgrwt>
</event>
<event>
 6    1  0.3075717E-002  0.9296094E+02  0.7546771E-02  0.1400742E+00
         -2   -1    0    0    0  501 -0.00000000000E+00  0.00000000000E+00  0.57536814798E+01  0.57536814798E+01  0.00000000000E+00 0.  1.
          2   -1    0    0  501    0  0.00000000000E+00 -0.00000000000E+00 -0.53359511605E+03  0.53359511605E+03  0.00000000000E+00 0. -1.
         23    2    1    2    0    0  0.11802907083E+02 -0.99000280988E+01 -0.48483242975E+03  0.49366407725E+03  0.91675607725E+02 0.  0.
         11    1    3    3    0    0  0.15004186784E+01 -0.35750717216E+02 -0.77272157537E+02  0.85154866966E+02  0.00000000000E+00 0.  1.
        -11    1    3    3    0    0  0.10302488405E+02  0.25850689117E+02 -0.40756027222E+03  0.40850921028E+03  0.00000000000E+00 0. -1.
         22    1    1    2    0    0 -0.11802907083E+02  0.99000280988E+01 -0.43009004815E+02  0.45684720281E+02  0.00000000000E+00 0.  1.
<mgrwt>
<rscale>  0 0.59311920E+02</rscale>
<asrwt>0</asrwt>
<pdfrwt beam="1">  1        2 0.82091559E-01 0.92960939E+02</pdfrwt>
<pdfrwt beam="2">  1       -2 0.88518174E-03 0.92960939E+02</pdfrwt>
<totfact> 0.12734990E+05</totfact>
</mgrwt>
</event>
<event>
 6    1  0.3075717E-002  0.9014278E+02  0.7546771E-02  0.1425417E+00
          2   -1    0    0  501    0  0.00000000000E+00  0.00000000000E+00  0.38160729552E+03  0.38160729552E+03  0.00000000000E+00 0.  1.
         -2   -1    0    0    0  501 -0.00000000000E+00 -0.00000000000E+00 -0.82812742078E+01  0.82812742078E+01  0.00000000000E+00 0. -1.
         23    2    1    2    0    0 -0.11270287528E+02 -0.23628323600E+01  0.36421635204E+03  0.37520563977E+03  0.89404243007E+02 0.  0.
         11    1    3    3    0    0  0.17728956533E+01 -0.45256594727E+02  0.18682988640E+03  0.19224127803E+03  0.00000000000E+00 0.  1.
        -11    1    3    3    0    0 -0.13043183181E+02  0.42893762367E+02  0.17738646564E+03  0.18296436175E+03  0.00000000000E+00 0. -1.
         22    1    1    2    0    0  0.11270287528E+02  0.23628323600E+01  0.91096692686E+01  0.14682929949E+02  0.00000000000E+00 0.  1.
<mgrwt>
<rscale>  0 0.53891109E+02</rscale>
<asrwt>0</asrwt>
<pdfrwt beam="1">  1        2 0.58708801E-01 0.90142781E+02</pdfrwt>
<pdfrwt beam="2">  1       -2 0.12740425E-02 0.90142781E+02</pdfrwt>
<totfact> 0.10821968E+05</totfact>
</mgrwt>
</event>
<event>
 6    1  0.3075717E-002  0.9676590E+02  0.7546771E-02  0.1345138E+00
         -2   -1    0    0    0  501 -0.00000000000E+00  0.00000000000E+00  0.10327841256E+02  0.10327841256E+02  0.00000000000E+00 0.  1.
          2   -1    0    0  501    0  0.00000000000E+00 -0.00000000000E+00 -0.75828810303E+03  0.75828810303E+03  0.00000000000E+00 0. -1.
         23    2    1    2    0    0  0.11420134032E+02 -0.32202362985E+02 -0.71370063195E+03  0.72023067919E+03  0.90533019123E+02 0.  0.
         11    1    3    3    0    0  0.21286634494E+02 -0.42452820071E+02 -0.69554564441E+03  0.69716504947E+03  0.00000000000E+00 0. -1.
        -11    1    3    3    0    0 -0.98665004616E+01  0.10250457085E+02 -0.18154987545E+02  0.23065629724E+02  0.00000000000E+00 0.  1.
         22    1    1    2    0    0 -0.11420134032E+02  0.32202362985E+02 -0.34259629824E+02  0.48385265100E+02  0.00000000000E+00 0.  1.
<mgrwt>
<rscale>  0 0.74592430E+02</rscale>
<asrwt>0</asrwt>
<pdfrwt beam="1">  1        2 0.11665969E+00 0.96765899E+02</pdfrwt>
<pdfrwt beam="2">  1       -2 0.15888988E-02 0.96765899E+02</pdfrwt>
<totfact> 0.37319174E+04</totfact>
</mgrwt>
</event>
<event>
 6    1  0.3075717E-002  0.9318785E+02  0.7546771E-02  0.1381114E+00
          3   -1    0    0  501    0  0.00000000000E+00  0.00000000000E+00  0.21928983700E+02  0.21928983700E+02  0.00000000000E+00 0. -1.
         -3   -1    0    0    0  501 -0.00000000000E+00 -0.00000000000E+00 -0.17938375339E+03  0.17938375339E+03  0.00000000000E+00 0.  1.
         23    2    1    2    0    0 -0.36096460869E+00 -0.20952376746E+02 -0.85852012377E+02  0.12670652259E+03  0.90801114814E+02 0.  0.
         13    1    3    3    0    0 -0.14156808836E+02  0.30269065734E+02 -0.11435757918E+02  0.35318665547E+02  0.00000000000E+00 0. -1.
        -13    1    3    3    0    0  0.13795844227E+02 -0.51221442480E+02 -0.74416254458E+02  0.91387857045E+02  0.00000000000E+00 0.  1.
         22    1    1    2    0    0  0.36096460869E+00  0.20952376746E+02 -0.71602757311E+02  0.74606214495E+02  0.00000000000E+00 0.  1.
<mgrwt>
<rscale>  0 0.64171751E+02</rscale>
<asrwt>0</asrwt>
<pdfrwt beam="1">  1        3 0.33736898E-02 0.93187847E+02</pdfrwt>
<pdfrwt beam="2">  1       -3 0.27597501E-01 0.93187847E+02</pdfrwt>
<totfact> 0.11038175E+04</totfact>
</mgrwt>
</event>
<event>
 6    1  0.3075717E-002  0.1011775E+03  0.7546771E-02  0.1322548E+00
          2   -1    0    0  501    0  0.00000000000E+00  0.00000000000E+00  0.13672238269E+04  0.13672238269E+04  0.00000000000E+00 0. -1.
         -2   -1    0    0    0  501 -0.00000000000E+00 -0.00000000000E+00 -0.49369853226E+01  0.49369853226E+01  0.00000000000E+00 0.  1.
         23    2    1    2    0    0 -0.34448520815E+02  0.27969212875E+02  0.11884862968E+04  0.11927852096E+04  0.90927999431E+02 0.  0.
         13    1    3    3    0    0 -0.17457758048E+02  0.23937879968E+02  0.11515285822E+04  0.11519096627E+04  0.00000000000E+00 0. -1.
        -13    1    3    3    0    0 -0.16990762767E+02  0.40313329073E+01  0.36957714579E+02  0.40875546863E+02  0.00000000000E+00 0.  1.
         22    1    1    2    0    0  0.34448520815E+02 -0.27969212875E+02  0.17380054482E+03  0.17937560267E+03  0.00000000000E+00 0.  1.
<mgrwt>
<rscale>  0 0.82336599E+02</rscale>
<asrwt>0</asrwt>
<pdfrwt beam="1">  1        2 0.21034183E+00 0.10117746E+03</pdfrwt>
<pdfrwt beam="2">  1       -2 0.75953729E-03 0.10117746E+03</pdfrwt>
<totfact> 0.47248687E+04</totfact>
</mgrwt>
</event>
<event>
 6    1  0.3075717E-002  0.9406338E+02  0.7546771E-02  0.1411823E+00
          2   -1    0    0  501    0  0.00000000000E+00  0.00000000000E+00  0.77981547552E+03  0.77981547552E+03  0.00000000000E+00 0.  1.
         -2   -1    0    0    0  501 -0.00000000000E+00 -0.00000000000E+00 -0.47521596571E+01  0.47521596571E+01  0.00000000000E+00 0. -1.
         23    2    1    2    0    0 -0.12081583361E+02 -0.31941972373E+01  0.75563598196E+03  0.76146809287E+03  0.93229564327E+02 0.  0.
         13    1    3    3    0    0  0.37386903824E+02 -0.62500016638E+01  0.19530881431E+03  0.19895320064E+03  0.00000000000E+00 0. -1.
        -13    1    3    3    0    0 -0.49468487186E+02  0.30558044265E+01  0.56032716765E+03  0.56251489223E+03  0.00000000000E+00 0.  1.
         22    1    1    2    0    0  0.12081583361E+02  0.31941972373E+01  0.19427333903E+02  0.23099542313E+02  0.00000000000E+00 0. -1.
<mgrwt>
<rscale>  0 0.56789008E+02</rscale>
<asrwt>0</asrwt>
<pdfrwt beam="1">  1        2 0.11997151E+00 0.94063379E+02</pdfrwt>
<pdfrwt beam="2">  1       -2 0.73110210E-03 0.94063379E+02</pdfrwt>
<totfact> 0.10822814E+05</totfact>
</mgrwt>
</event>
<event>
 6    1  0.3075717E-002  0.8973897E+02  0.7546771E-02  0.1433964E+00
         -2   -1    0    0    0  501 -0.00000000000E+00  0.00000000000E+00  0.16362530075E+02  0.16362530075E+02  0.00000000000E+00 0.  1.
          2   -1    0    0  501    0  0.00000000000E+00 -0.00000000000E+00 -0.15278969863E+03  0.15278969863E+03  0.00000000000E+00 0. -1.
         23    2    1    2    0    0 -0.93935003034E+01  0.41077847933E+01 -0.12173485837E+03  0.15123643337E+03  0.89151395351E+02 0.  0.
         13    1    3    3    0    0 -0.97631501369E+01  0.39540629904E+02 -0.10383558069E+03  0.11153747501E+03  0.00000000000E+00 0. -1.
        -13    1    3    3    0    0  0.36964983351E+00 -0.35432845111E+02 -0.17899277677E+02  0.39698958362E+02  0.00000000000E+00 0.  1.
         22    1    1    2    0    0  0.93935003034E+01 -0.41077847933E+01 -0.14692310185E+02  0.17915795333E+02  0.00000000000E+00 0.  1.
<mgrwt>
<rscale>  0 0.52172569E+02</rscale>
<asrwt>0</asrwt>
<pdfrwt beam="1">  1        2 0.23506108E-01 0.89738972E+02</pdfrwt>
<pdfrwt beam="2">  1       -2 0.25173123E-02 0.89738972E+02</pdfrwt>
<totfact> 0.10751645E+05</totfact>
</mgrwt>
</event>
<event>
 6    1  0.3075717E-002  0.9844988E+02  0.7546771E-02  0.1342943E+00
          1   -1    0    0  501    0  0.00000000000E+00  0.00000000000E+00  0.14602219516E+04  0.14602219516E+04  0.00000000000E+00 0. -1.
         -1   -1    0    0    0  501 -0.00000000000E+00 -0.00000000000E+00 -0.38123372783E+01  0.38123372783E+01  0.00000000000E+00 0.  1.
         23    2    1    2    0    0 -0.33441276166E+02  0.41130002224E+01  0.13144213307E+04  0.13181031119E+04  0.92504828696E+02 0.  0.
         11    1    3    3    0    0 -0.45962516884E+02  0.28864458981E+01  0.29240996560E+03  0.29601431133E+03  0.00000000000E+00 0. -1.
        -11    1    3    3    0    0  0.12521240718E+02  0.12265543242E+01  0.10220113651E+04  0.10220888006E+04  0.00000000000E+00 0.  1.
         22    1    1    2    0    0  0.33441276166E+02 -0.41130002224E+01  0.14198828361E+03  0.14593117695E+03  0.00000000000E+00 0.  1.
<mgrwt>
<rscale>  0 0.75300377E+02</rscale>
<asrwt>0</asrwt>
<pdfrwt beam="1">  1        1 0.22464909E+00 0.98449881E+02</pdfrwt>
<pdfrwt beam="2">  1       -1 0.58651459E-03 0.98449881E+02</pdfrwt>
<totfact> 0.28781491E+04</totfact>
</mgrwt>
</event>
<event>
 6    1  0.3075717E-002  0.9497254E+02  0.7546771E-02  0.1353124E+00
         -2   -1    0    0    0  501 -0.00000000000E+00  0.00000000000E+00  0.74629804484E+02  0.74629804484E+02  0.00000000000E+00 0. -1.
          2   -1    0    0  501    0  0.00000000000E+00 -0.00000000000E+00 -0.58636206096E+02  0.58636206096E+02  0.00000000000E+00 0.  1.
         23    2    1    2    0    0  0.25744822103E+02  0.18203092288E+02 -0.54599824158E+01  0.95129354156E+02  0.89585903914E+02 0.  0.
         11    1    3    3    0    0 -0.14128832193E+02 -0.18522268678E+02  0.23987574662E+02  0.33438033349E+02  0.00000000000E+00 0. -1.
        -11    1    3    3    0    0  0.39873654296E+02  0.36725360966E+02 -0.29447557077E+02  0.61691320806E+02  0.00000000000E+00 0.  1.
         22    1    1    2    0    0 -0.25744822103E+02 -0.18203092288E+02  0.21453580804E+02  0.38136656425E+02  0.00000000000E+00 0.  1.
<mgrwt>
<rscale>  0 0.72090814E+02</rscale>
<asrwt>0</asrwt>
<pdfrwt beam="1">  1        2 0.90209547E-02 0.94972536E+02</pdfrwt>
<pdfrwt beam="2">  1       -2 0.11481508E-01 0.94972536E+02</pdfrwt>
<totfact> 0.33933065E+04</totfact>
</mgrwt>
</event>
<event>
 6    1  0.3075717E-002  0.9397532E+02  0.7546771E-02  0.1377162E+00
         -2   -1    0    0    0  501 -0.00000000000E+00  0.00000000000E+00  0.24867729457E+03  0.24867729457E+03  0.00000000000E+00 0.  1.
          2   -1    0    0  501    0  0.00000000000E+00 -0.00000000000E+00 -0.13554151371E+02  0.13554151371E+02  0.00000000000E+00 0. -1.
         23    2    1    2    0    0 -0.70686170658E+01 -0.20617393139E+02  0.19831516483E+03  0.21945447178E+03  0.91412900263E+02 0.  0.
         11    1    3    3    0    0  0.28047173115E+02  0.18315185348E+02  0.12441034502E+03  0.12884107995E+03  0.00000000000E+00 0. -1.
        -11    1    3    3    0    0 -0.35115790181E+02 -0.38932578487E+02  0.73904819809E+02  0.90613391828E+02  0.00000000000E+00 0.  1.
         22    1    1    2    0    0  0.70686170658E+01  0.20617393139E+02  0.36807978371E+02  0.42776974166E+02  0.00000000000E+00 0. -1.
<mgrwt>
<rscale>  0 0.65215659E+02</rscale>
<asrwt>0</asrwt>
<pdfrwt beam="1">  1        2 0.20852542E-02 0.93975319E+02</pdfrwt>
<pdfrwt beam="2">  1       -2 0.38258042E-01 0.93975319E+02</pdfrwt>
<totfact> 0.29363184E+04</totfact>
</mgrwt>
</event>
<event>
 6    1  0.3075717E-002  0.9176975E+02  0.7546771E-02  0.1428644E+00
          2   -1    0    0  501    0  0.00000000000E+00  0.00000000000E+00  0.17514173244E+03  0.17514173244E+03  0.00000000000E+00 0. -1.
         -2   -1    0    0    0  501 -0.00000000000E+00 -0.00000000000E+00 -0.22341475021E+02  0.22341475021E+02  0.00000000000E+00 0.  1.
         23    2    1    2    0    0  0.76425714822E+01 -0.70392810084E+01  0.16027171303E+03  0.18468543325E+03  0.91179640731E+02 0.  0.
         13    1    3    3    0    0  0.11642095332E+01 -0.48819847333E+02  0.96812902763E+02  0.10843187271E+03  0.00000000000E+00 0. -1.
        -13    1    3    3    0    0  0.64783619489E+01  0.41780566325E+02  0.63458810262E+02  0.76253560545E+02  0.00000000000E+00 0.  1.
         22    1    1    2    0    0 -0.76425714822E+01  0.70392810084E+01 -0.74714556017E+01  0.12797774212E+02  0.00000000000E+00 0.  1.
<mgrwt>
<rscale>  0 0.53233217E+02</rscale>
<asrwt>0</asrwt>
<pdfrwt beam="1">  1        2 0.26944881E-01 0.91769751E+02</pdfrwt>
<pdfrwt beam="2">  1       -2 0.34371501E-02 0.91769751E+02</pdfrwt>
<totfact> 0.59130781E+04</totfact>
</mgrwt>
</event>
<event>
 6    1  0.3075717E-002  0.9287586E+02  0.7546771E-02  0.1394038E+00
          2   -1    0    0  501    0  0.00000000000E+00  0.00000000000E+00  0.57963491409E+03  0.57963491409E+03  0.00000000000E+00 0. -1.
         -2   -1    0    0    0  501 -0.00000000000E+00 -0.00000000000E+00 -0.88590795477E+01  0.88590795477E+01  0.00000000000E+00 0.  1.
         23    2    1    2    0    0 -0.14547356786E+02 -0.91483838222E+01  0.56117588329E+03  0.56880954343E+03  0.91272154531E+02 0.  0.
         13    1    3    3    0    0 -0.18734832932E+02  0.22553218275E+02  0.48886949814E+03  0.48974792274E+03  0.00000000000E+00 0. -1.
        -13    1    3    3    0    0  0.41874761461E+01 -0.31701602097E+02  0.72306385158E+02  0.79061620693E+02  0.00000000000E+00 0.  1.
         22    1    1    2    0    0  0.14547356786E+02  0.91483838222E+01  0.95999512532E+01  0.19684450210E+02  0.00000000000E+00 0.  1.
<mgrwt>
<rscale>  0 0.60913487E+02</rscale>
<asrwt>0</asrwt>
<pdfrwt beam="1">  1        2 0.89174573E-01 0.92875856E+02</pdfrwt>
<pdfrwt beam="2">  1       -2 0.13629358E-02 0.92875856E+02</pdfrwt>
<totfact> 0.63009699E+04</totfact>
</mgrwt>
</event>
<event>
 6    1  0.3075717E-002  0.9443431E+02  0.7546771E-02  0.1368048E+00
         -2   -1    0    0    0  501 -0.00000000000E+00  0.00000000000E+00  0.40328813949E+02  0.40328813949E+02  0.00000000000E+00 0.  1.
          2   -1    0    0  501    0  0.00000000000E+00 -0.00000000000E+00 -0.11504055243E+03  0.11504055243E+03  0.00000000000E+00 0. -1.
         23    2    1    2    0    0 -0.20975654594E+02  0.13534048387E+02 -0.86226882362E+02  0.12787851172E+03  0.91075188532E+02 0.  0.
         11    1    3    3    0    0  0.32465642413E+02  0.16334767989E+02 -0.16318805609E+02  0.39839000979E+02  0.00000000000E+00 0. -1.
        -11    1    3    3    0    0 -0.53441297006E+02 -0.28007196022E+01 -0.69908076753E+02  0.88039510740E+02  0.00000000000E+00 0.  1.
         22    1    1    2    0    0  0.20975654594E+02 -0.13534048387E+02  0.11515143881E+02  0.27490854660E+02  0.00000000000E+00 0. -1.
<mgrwt>
<rscale>  0 0.67712882E+02</rscale>
<asrwt>0</asrwt>
<pdfrwt beam="1">  1        2 0.17698546E-01 0.94434308E+02</pdfrwt>
<pdfrwt beam="2">  1       -2 0.62044330E-02 0.94434308E+02</pdfrwt>
<totfact> 0.39397834E+04</totfact>
</mgrwt>
</event>
<event>
 6    1  0.3075717E-002  0.8911702E+02  0.7546771E-02  0.1433702E+00
         -2   -1    0    0    0  501 -0.00000000000E+00  0.00000000000E+00  0.13743407028E+03  0.13743407028E+03  0.00000000000E+00 0.  1.
          2   -1    0    0  501    0  0.00000000000E+00 -0.00000000000E+00 -0.26133342572E+02  0.26133342572E+02  0.00000000000E+00 0. -1.
         23    2    1    2    0    0  0.30785097009E+01  0.10048946792E+02  0.51660066054E+02  0.10300779697E+03  0.88495114316E+02 0.  0.
         13    1    3    3    0    0 -0.22302987942E+02  0.25251446463E+02  0.62903280697E+02  0.71357421072E+02  0.00000000000E+00 0.  1.
        -13    1    3    3    0    0  0.25381497643E+02 -0.15202499671E+02 -0.11243214643E+02  0.31650375896E+02  0.00000000000E+00 0. -1.
         22    1    1    2    0    0 -0.30785097009E+01 -0.10048946792E+02  0.59640661652E+02  0.60559615883E+02  0.00000000000E+00 0.  1.
<mgrwt>
<rscale>  0 0.52224035E+02</rscale>
<asrwt>0</asrwt>
<pdfrwt beam="1">  1        2 0.40205143E-02 0.89117023E+02</pdfrwt>
<pdfrwt beam="2">  1       -2 0.21143703E-01 0.89117023E+02</pdfrwt>
<totfact> 0.34774519E+04</totfact>
</mgrwt>
</event>
<event>
 6    1  0.3075717E-002  0.9217795E+02  0.7546771E-02  0.1400488E+00
          2   -1    0    0  501    0  0.00000000000E+00  0.00000000000E+00  0.82163900336E+03  0.82163900336E+03  0.00000000000E+00 0. -1.
         -2   -1    0    0    0  501 -0.00000000000E+00 -0.00000000000E+00 -0.41919505331E+01  0.41919505331E+01  0.00000000000E+00 0.  1.
         23    2    1    2    0    0  0.12523542031E+02  0.97390247097E+01  0.77592947650E+03  0.78138551711E+03  0.90802456634E+02 0.  0.
         13    1    3    3    0    0 -0.10067657130E+02 -0.34854900535E+02  0.19786541984E+03  0.20116397834E+03  0.00000000000E+00 0. -1.
        -13    1    3    3    0    0  0.22591199161E+02  0.44593925245E+02  0.57806405666E+03  0.58022153877E+03  0.00000000000E+00 0.  1.
         22    1    1    2    0    0 -0.12523542031E+02 -0.97390247097E+01  0.41517576322E+02  0.44445436785E+02  0.00000000000E+00 0. -1.
<mgrwt>
<rscale>  0 0.59371500E+02</rscale>
<asrwt>0</asrwt>
<pdfrwt beam="1">  1        2 0.12640587E+00 0.92177947E+02</pdfrwt>
<pdfrwt beam="2">  1       -2 0.64491612E-03 0.92177947E+02</pdfrwt>
<totfact> 0.12080563E+05</totfact>
</mgrwt>
</event>
<event>
 6    1  0.3075717E-002  0.9035518E+02  0.7546771E-02  0.1374279E+00
         -2   -1    0    0    0  501 -0.00000000000E+00  0.00000000000E+00  0.32453191492E+01  0.32453191492E+01  0.00000000000E+00 0.  1.
          2   -1    0    0  501    0  0.00000000000E+00 -0.00000000000E+00 -0.27263972792E+04  0.27263972792E+04  0.00000000000E+00 0. -1.
         23    2    1    2    0    0  0.21034127373E+02  0.14783829891E+02 -0.26589417309E+04  0.26604764963E+04  0.86620223452E+02 0.  0.
         11    1    3    3    0    0  0.24275543886E+02 -0.43346467660E+01 -0.25267257162E+04  0.25268460452E+04  0.00000000000E+00 0. -1.
        -11    1    3    3    0    0 -0.32414165131E+01  0.19118476657E+02 -0.13221601467E+03  0.13363045112E+03  0.00000000000E+00 0.  1.
         22    1    1    2    0    0 -0.21034127373E+02 -0.14783829891E+02 -0.64210229244E+02  0.69166102103E+02  0.00000000000E+00 0.  1.
<mgrwt>
<rscale>  0 0.65991754E+02</rscale>
<asrwt>0</asrwt>
<pdfrwt beam="1">  1        2 0.41944604E+00 0.90355184E+02</pdfrwt>
<pdfrwt beam="2">  1       -2 0.49927950E-03 0.90355184E+02</pdfrwt>
<totfact> 0.16938514E+04</totfact>
</mgrwt>
</event>
<event>
 6    1  0.3075717E-002  0.9158787E+02  0.7546771E-02  0.1405055E+00
          1   -1    0    0  501    0  0.00000000000E+00  0.00000000000E+00  0.24102829291E+03  0.24102829291E+03  0.00000000000E+00 0. -1.
         -1   -1    0    0    0  501 -0.00000000000E+00 -0.00000000000E+00 -0.13419015901E+02  0.13419015901E+02  0.00000000000E+00 0.  1.
         23    2    1    2    0    0  0.14161408828E+02 -0.50931037797E+01  0.21834236557E+03  0.23677357537E+03  0.90342969757E+02 0.  0.
         13    1    3    3    0    0 -0.28371778721E+02  0.59007632273E+01  0.16567079886E+03  0.16818617788E+03  0.00000000000E+00 0. -1.
        -13    1    3    3    0    0  0.42533187549E+02 -0.10993867007E+02  0.52671566708E+02  0.68587397489E+02  0.00000000000E+00 0.  1.
         22    1    1    2    0    0 -0.14161408828E+02  0.50931037797E+01  0.92669114375E+01  0.17673733440E+02  0.00000000000E+00 0.  1.
<mgrwt>
<rscale>  0 0.58312067E+02</rscale>
<asrwt>0</asrwt>
<pdfrwt beam="1">  1        1 0.37081273E-01 0.91587867E+02</pdfrwt>
<pdfrwt beam="2">  1       -1 0.20644642E-02 0.91587867E+02</pdfrwt>
<totfact> 0.65512019E+04</totfact>
</mgrwt>
</event>
<event>
 6    1  0.3075717E-002  0.9496059E+02  0.7546771E-02  0.1360309E+00
         -2   -1    0    0    0  501 -0.00000000000E+00  0.00000000000E+00  0.97237118559E+01  0.97237118559E+01  0.00000000000E+00 0.  1.
          2   -1    0    0  501    0  0.00000000000E+00 -0.00000000000E+00 -0.11236963257E+04  0.11236963257E+04  0.00000000000E+00 0. -1.
         23    2    1    2    0    0 -0.13472528466E+01 -0.27904676076E+02 -0.10962074894E+04  0.11003128528E+04  0.90758074566E+02 0.  0.
         13    1    3    3    0    0 -0.28029861504E+02 -0.45827072637E+02 -0.88954998522E+03  0.89117056164E+03  0.00000000000E+00 0. -1.
        -13    1    3    3    0    0  0.26682608657E+02  0.17922396561E+02 -0.20665750418E+03  0.20914229112E+03  0.00000000000E+00 0.  1.
         22    1    1    2    0    0  0.13472528466E+01  0.27904676076E+02 -0.17765124400E+02  0.33107184750E+02  0.00000000000E+00 0.  1.
<mgrwt>
<rscale>  0 0.69936389E+02</rscale>
<asrwt>0</asrwt>
<pdfrwt beam="1">  1        2 0.17287644E+00 0.94960593E+02</pdfrwt>
<pdfrwt beam="2">  1       -2 0.14959549E-02 0.94960593E+02</pdfrwt>
<totfact> 0.24272146E+04</totfact>
</mgrwt>
</event>
<event>
 6    1  0.3075717E-002  0.8623784E+02  0.7546771E-02  0.1420311E+00
         -2   -1    0    0    0  501 -0.00000000000E+00  0.00000000000E+00  0.24640856840E+02  0.24640856840E+02  0.00000000000E+00 0.  1.
          2   -1    0    0  501    0  0.00000000000E+00 -0.00000000000E+00 -0.10244609504E+03  0.10244609504E+03  0.00000000000E+00 0. -1.
         23    2    1    2    0    0  0.68907233332E+01 -0.12440416056E+02 -0.67800222230E+02  0.10969884203E+03  0.85057156006E+02 0.  0.
         13    1    3    3    0    0  0.42402314481E+02  0.10681711156E+02 -0.37498184833E+02  0.57603551039E+02  0.00000000000E+00 0.  1.
        -13    1    3    3    0    0 -0.35511591148E+02 -0.23122127212E+02 -0.30302037397E+02  0.52095290987E+02  0.00000000000E+00 0. -1.
         22    1    1    2    0    0 -0.68907233332E+01  0.12440416056E+02 -0.10005015970E+02  0.17388109853E+02  0.00000000000E+00 0. -1.
<mgrwt>
<rscale>  0 0.54955152E+02</rscale>
<asrwt>0</asrwt>
<pdfrwt beam="1">  1        2 0.15760938E-01 0.86237844E+02</pdfrwt>
<pdfrwt beam="2">  1       -2 0.37909010E-02 0.86237844E+02</pdfrwt>
<totfact> 0.92204426E+04</totfact>
</mgrwt>
</event>
<event>
 6    1  0.3075717E-002  0.9532828E+02  0.7546771E-02  0.1373161E+00
          2   -1    0    0  501    0  0.00000000000E+00  0.00000000000E+00  0.43241854973E+02  0.43241854973E+02  0.00000000000E+00 0.  1.
         -2   -1    0    0    0  501 -0.00000000000E+00 -0.00000000000E+00 -0.17682839744E+03  0.17682839744E+03  0.00000000000E+00 0. -1.
         23    2    1    2    0    0 -0.28072140124E+01  0.22121728331E+02 -0.11564247663E+02  0.96027148032E+02  0.92683493786E+02 0.  0.
         11    1    3    3    0    0  0.44106441641E+02  0.23485816955E+01 -0.19152102120E+01  0.44210429317E+02  0.00000000000E+00 0. -1.
        -11    1    3    3    0    0 -0.46913655654E+02  0.19773146636E+02 -0.96490374507E+01  0.51816718715E+02  0.00000000000E+00 0.  1.
         22    1    1    2    0    0  0.28072140124E+01 -0.22121728331E+02 -0.12202229480E+03  0.12404310438E+03  0.00000000000E+00 0. -1.
<mgrwt>
<rscale>  0 0.66296151E+02</rscale>
<asrwt>0</asrwt>
<pdfrwt beam="1">  1        2 0.66525929E-02 0.95328282E+02</pdfrwt>
<pdfrwt beam="2">  1       -2 0.27204369E-01 0.95328282E+02</pdfrwt>
<totfact> 0.11888570E+04</totfact>
</mgrwt>
</event>
<event>
 6    1  0.3075717E-002  0.9264384E+02  0.7546771E-02  0.1389177E+00
          2   -1    0    0  501    0  0.00000000000E+00  0.00000000000E+00  0.18921422146E+02  0.18921422146E+02  0.00000000000E+00 0. -1.
         -2   -1    0    0    0  501 -0.00000000000E+00 -0.00000000000E+00 -0.18804812630E+03  0.18804812630E+03  0.00000000000E+00 0.  1.
         23    2    1    2    0    0 -0.18354921180E+02 -0.36665520522E+01 -0.10434350869E+03  0.13953655096E+03  0.90733315340E+02 0.  0.
         13    1    3    3    0    0  0.28835589317E+02 -0.14098660764E+02 -0.10144054685E+02  0.33662520584E+02  0.00000000000E+00 0. -1.
        -13    1    3    3    0    0 -0.47190510497E+02  0.10432108712E+02 -0.94199454009E+02  0.10587403038E+03  0.00000000000E+00 0.  1.
         22    1    1    2    0    0  0.18354921180E+02  0.36665520522E+01 -0.64783195465E+02  0.67432997487E+02  0.00000000000E+00 0.  1.
<mgrwt>
<rscale>  0 0.62111880E+02</rscale>
<asrwt>0</asrwt>
<pdfrwt beam="1">  1        2 0.29109880E-02 0.92643841E+02</pdfrwt>
<pdfrwt beam="2">  1       -2 0.28930481E-01 0.92643841E+02</pdfrwt>
<totfact> 0.31134520E+04</totfact>
</mgrwt>
</event>
<event>
 6    1  0.3075717E-002  0.9460525E+02  0.7546771E-02  0.1423962E+00
         -1   -1    0    0    0  501 -0.00000000000E+00  0.00000000000E+00  0.90021046234E+02  0.90021046234E+02  0.00000000000E+00 0.  1.
          1   -1    0    0  501    0  0.00000000000E+00 -0.00000000000E+00 -0.31334917472E+02  0.31334917472E+02  0.00000000000E+00 0. -1.
         23    2    1    2    0    0  0.83276282260E+01  0.58644188864E+01  0.46322447110E+02  0.10533718021E+03  0.94055364691E+02 0.  0.
         13    1    3    3    0    0 -0.21485069444E+01 -0.31559008190E+02  0.56864669344E+02  0.65070559393E+02  0.00000000000E+00 0.  1.
        -13    1    3    3    0    0  0.10476135170E+02  0.37423427076E+02 -0.10542222235E+02  0.40266620815E+02  0.00000000000E+00 0. -1.
         22    1    1    2    0    0 -0.83276282260E+01 -0.58644188864E+01  0.12363681652E+02  0.16018783497E+02  0.00000000000E+00 0.  1.
<mgrwt>
<rscale>  0 0.54191368E+02</rscale>
<asrwt>0</asrwt>
<pdfrwt beam="1">  1        1 0.48207566E-02 0.94605245E+02</pdfrwt>
<pdfrwt beam="2">  1       -1 0.13849392E-01 0.94605245E+02</pdfrwt>
<totfact> 0.55061501E+04</totfact>
</mgrwt>
</event>
<event>
 6    1  0.3075717E-002  0.1065223E+03  0.7546771E-02  0.1300706E+00
         -1   -1    0    0    0  501 -0.00000000000E+00  0.00000000000E+00  0.60644015737E+02  0.60644015737E+02  0.00000000000E+00 0.  1.
          1   -1    0    0  501    0  0.00000000000E+00 -0.00000000000E+00 -0.19230536846E+03  0.19230536846E+03  0.00000000000E+00 0. -1.
         23    2    1    2    0    0  0.54679992004E+02  0.14084960474E+02 -0.15807118568E+03  0.19061346426E+03  0.90325552197E+02 0.  0.
         11    1    3    3    0    0 -0.19664820038E+02  0.24493138496E+02 -0.44215724839E+02  0.54236973584E+02  0.00000000000E+00 0. -1.
        -11    1    3    3    0    0  0.74344812042E+02 -0.10408178022E+02 -0.11385546084E+03  0.13637649068E+03  0.00000000000E+00 0.  1.
         22    1    1    2    0    0 -0.54679992004E+02 -0.14084960474E+02  0.26409832955E+02  0.62335919933E+02  0.00000000000E+00 0.  1.
<mgrwt>
<rscale>  0 0.90891858E+02</rscale>
<asrwt>0</asrwt>
<pdfrwt beam="1">  1        1 0.29585441E-01 0.10652227E+03</pdfrwt>
<pdfrwt beam="2">  1       -1 0.93298486E-02 0.10652227E+03</pdfrwt>
<totfact> 0.96754835E+03</totfact>
</mgrwt>
</event>
<event>
 6    1  0.3075717E-002  0.9686405E+02  0.7546771E-02  0.1377457E+00
          2   -1    0    0  501    0  0.00000000000E+00  0.00000000000E+00  0.10025380277E+04  0.10025380277E+04  0.00000000000E+00 0.  1.
         -2   -1    0    0    0  501 -0.00000000000E+00 -0.00000000000E+00 -0.18209910855E+02  0.18209910855E+02  0.00000000000E+00 0. -1.
         23    2    1    2    0    0  0.62664751788E+01  0.18789778783E+02  0.99399790516E+03  0.99870640268E+03  0.94817291682E+02 0.  0.
         13    1    3    3    0    0  0.24625867574E+02  0.50616545065E+02  0.72953345154E+03  0.73170180053E+03  0.00000000000E+00 0.  1.
        -13    1    3    3    0    0 -0.18359392396E+02 -0.31826766282E+02  0.26446445362E+03  0.26700460215E+03  0.00000000000E+00 0. -1.
         22    1    1    2    0    0 -0.62664751788E+01 -0.18789778783E+02 -0.96697883083E+01  0.22041535877E+02  0.00000000000E+00 0. -1.
<mgrwt>
<rscale>  0 0.65136982E+02</rscale>
<asrwt>0</asrwt>
<pdfrwt beam="1">  1        2 0.15423658E+00 0.96864045E+02</pdfrwt>
<pdfrwt beam="2">  1       -2 0.28015255E-02 0.96864045E+02</pdfrwt>
<totfact> 0.11554076E+04</totfact>
</mgrwt>
</event>
<event>
 6    1  0.3075717E-002  0.9263889E+02  0.7546771E-02  0.1410734E+00
         -2   -1    0    0    0  501 -0.00000000000E+00  0.00000000000E+00  0.44727022316E+01  0.44727022316E+01  0.00000000000E+00 0.  1.
          2   -1    0    0  501    0  0.00000000000E+00 -0.00000000000E+00 -0.75442602241E+03  0.75442602241E+03  0.00000000000E+00 0. -1.
         23    2    1    2    0    0 -0.10003194622E+02 -0.87739821583E+01 -0.72223646385E+03  0.72815346825E+03  0.91678334143E+02 0.  0.
         13    1    3    3    0    0 -0.15455905837E+02 -0.32769950658E+02 -0.66326349743E+03  0.66425237803E+03  0.00000000000E+00 0. -1.
        -13    1    3    3    0    0  0.54527112152E+01  0.23995968500E+02 -0.58972966412E+02  0.63901090220E+02  0.00000000000E+00 0.  1.
         22    1    1    2    0    0  0.10003194622E+02  0.87739821583E+01 -0.27716856327E+02  0.30745256386E+02  0.00000000000E+00 0.  1.
<mgrwt>
<rscale>  0 0.57030341E+02</rscale>
<asrwt>0</asrwt>
<pdfrwt beam="1">  1        2 0.11606556E+00 0.92638888E+02</pdfrwt>
<pdfrwt beam="2">  1       -2 0.68810794E-03 0.92638888E+02</pdfrwt>
<totfact> 0.12241048E+05</totfact>
</mgrwt>
</event>
<event>
 6    1  0.3075717E-002  0.9470344E+02  0.7546771E-02  0.1405890E+00
          2   -1    0    0  501    0  0.00000000000E+00  0.00000000000E+00  0.95995233962E+02  0.95995233962E+02  0.00000000000E+00 0. -1.
         -2   -1    0    0    0  501 -0.00000000000E+00 -0.00000000000E+00 -0.30795985844E+02  0.30795985844E+02  0.00000000000E+00 0.  1.
         23    2    1    2    0    0 -0.13375408763E+02 -0.12643294590E+01  0.61263181107E+02  0.11279148009E+03  0.93745616075E+02 0.  0.
         11    1    3    3    0    0 -0.20851665643E+02  0.16531782238E+02  0.80955341483E+02  0.85216542400E+02  0.00000000000E+00 0. -1.
        -11    1    3    3    0    0  0.74762568796E+01 -0.17796111697E+02 -0.19692160375E+02  0.27574937692E+02  0.00000000000E+00 0.  1.
         22    1    1    2    0    0  0.13375408763E+02  0.12643294590E+01  0.39360670098E+01  0.13999739715E+02  0.00000000000E+00 0. -1.
<mgrwt>
<rscale>  0 0.58121120E+02</rscale>
<asrwt>0</asrwt>
<pdfrwt beam="1">  1        2 0.14768497E-01 0.94703435E+02</pdfrwt>
<pdfrwt beam="2">  1       -2 0.47378440E-02 0.94703435E+02</pdfrwt>
<totfact> 0.72573087E+04</totfact>
</mgrwt>
</event>
<event>
 6    1  0.3075717E-002  0.9232985E+02  0.7546771E-02  0.1405141E+00
         -2   -1    0    0    0  501 -0.00000000000E+00  0.00000000000E+00  0.11079029636E+02  0.11079029636E+02  0.00000000000E+00 0.  1.
          2   -1    0    0  501    0  0.00000000000E+00 -0.00000000000E+00 -0.39663541422E+03  0.39663541422E+03  0.00000000000E+00 0. -1.
         23    2    1    2    0    0 -0.14236702368E+02 -0.35377347922E+01 -0.38147234725E+03  0.39248688257E+03  0.91157018453E+02 0.  0.
         11    1    3    3    0    0  0.36858698048E+02 -0.90662992155E+01 -0.21279468447E+03  0.21615350828E+03  0.00000000000E+00 0. -1.
        -11    1    3    3    0    0 -0.51095400416E+02  0.55285644233E+01 -0.16867766277E+03  0.17633337429E+03  0.00000000000E+00 0.  1.
         22    1    1    2    0    0  0.14236702368E+02  0.35377347922E+01 -0.40840373381E+01  0.15227561287E+02  0.00000000000E+00 0.  1.
<mgrwt>
<rscale>  0 0.58292368E+02</rscale>
<asrwt>0</asrwt>
<pdfrwt beam="1">  1        2 0.61020844E-01 0.92329850E+02</pdfrwt>
<pdfrwt beam="2">  1       -2 0.17044658E-02 0.92329850E+02</pdfrwt>
<totfact> 0.68847368E+04</totfact>
</mgrwt>
</event>
<event>
 6    1  0.3075717E-002  0.9071115E+02  0.7546771E-02  0.1407063E+00
          2   -1    0    0  501    0  0.00000000000E+00  0.00000000000E+00  0.62118990018E+02  0.62118990018E+02  0.00000000000E+00 0. -1.
         -2   -1    0    0    0  501 -0.00000000000E+00 -0.00000000000E+00 -0.75239517310E+02  0.75239517310E+02  0.00000000000E+00 0.  1.
         23    2    1    2    0    0  0.60434407066E+01  0.13738823392E+02  0.26900285509E+02  0.94615743015E+02  0.89460801595E+02 0.  0.
         13    1    3    3    0    0  0.39531906701E+02  0.18821103117E+02  0.39013031163E+02  0.58643176674E+02  0.00000000000E+00 0. -1.
        -13    1    3    3    0    0 -0.33488465994E+02 -0.50822797242E+01 -0.12112745654E+02  0.35972566340E+02  0.00000000000E+00 0.  1.
         22    1    1    2    0    0 -0.60434407066E+01 -0.13738823392E+02 -0.40020812802E+02  0.42742764313E+02  0.00000000000E+00 0.  1.
<mgrwt>
<rscale>  0 0.57854277E+02</rscale>
<asrwt>0</asrwt>
<pdfrwt beam="1">  1        2 0.95567677E-02 0.90711154E+02</pdfrwt>
<pdfrwt beam="2">  1       -2 0.11575310E-01 0.90711154E+02</pdfrwt>
<totfact> 0.31039653E+04</totfact>
</mgrwt>
</event>
<event>
 6    1  0.3075717E-002  0.1005438E+03  0.7546771E-02  0.1328801E+00
          1   -1    0    0  501    0  0.00000000000E+00  0.00000000000E+00  0.40666850312E+03  0.40666850312E+03  0.00000000000E+00 0. -1.
         -1   -1    0    0    0  501 -0.00000000000E+00 -0.00000000000E+00 -0.13102066743E+02  0.13102066743E+02  0.00000000000E+00 0.  1.
         23    2    1    2    0    0 -0.39083418138E+02 -0.10531768475E+02  0.32447155788E+03  0.33969227096E+03  0.92035946002E+02 0.  0.
         13    1    3    3    0    0 -0.21788962629E+01  0.25071707976E+02  0.23673709719E+03  0.23807097958E+03  0.00000000000E+00 0. -1.
        -13    1    3    3    0    0 -0.36904521875E+02 -0.35603476451E+02  0.87734460689E+02  0.10162129138E+03  0.00000000000E+00 0.  1.
         22    1    1    2    0    0  0.39083418138E+02  0.10531768475E+02  0.69094878491E+02  0.80078298897E+02  0.00000000000E+00 0.  1.
<mgrwt>
<rscale>  0 0.80088448E+02</rscale>
<asrwt>0</asrwt>
<pdfrwt beam="1">  1        1 0.62564375E-01 0.10054376E+03</pdfrwt>
<pdfrwt beam="2">  1       -1 0.20157029E-02 0.10054376E+03</pdfrwt>
<totfact> 0.36080086E+04</totfact>
</mgrwt>
</event>
<event>
 6    1  0.3075717E-002  0.9438790E+02  0.7546771E-02  0.1405432E+00
          2   -1    0    0  501    0  0.00000000000E+00  0.00000000000E+00  0.66171161105E+03  0.66171161105E+03  0.00000000000E+00 0. -1.
         -2   -1    0    0    0  501 -0.00000000000E+00 -0.00000000000E+00 -0.55878295603E+01  0.55878295603E+01  0.00000000000E+00 0.  1.
         23    2    1    2    0    0 -0.13486225681E+02  0.22230864592E+01  0.63604268847E+03  0.64300806985E+03  0.93393018692E+02 0.  0.
         13    1    3    3    0    0  0.73373466114E+00  0.21218392372E+02  0.59660340431E+03  0.59698105546E+03  0.00000000000E+00 0. -1.
        -13    1    3    3    0    0 -0.14219960342E+02 -0.18995305913E+02  0.39439284159E+02  0.46027014392E+02  0.00000000000E+00 0.  1.
         22    1    1    2    0    0  0.13486225681E+02 -0.22230864592E+01  0.20081093020E+02  0.24291370760E+02  0.00000000000E+00 0.  1.
<mgrwt>
<rscale>  0 0.58225777E+02</rscale>
<asrwt>0</asrwt>
<pdfrwt beam="1">  1        2 0.10180172E+00 0.94387904E+02</pdfrwt>
<pdfrwt beam="2">  1       -2 0.85966661E-03 0.94387904E+02</pdfrwt>
<totfact> 0.10454957E+05</totfact>
</mgrwt>
</event>
<event>
 6    1  0.3075717E-002  0.9934199E+02  0.7546771E-02  0.1331827E+00
         -2   -1    0    0    0  501 -0.00000000000E+00  0.00000000000E+00  0.11956622717E+02  0.11956622717E+02  0.00000000000E+00 0. -1.
          2   -1    0    0  501    0  0.00000000000E+00 -0.00000000000E+00 -0.14986724194E+04  0.14986724194E+04  0.00000000000E+00 0.  1.
         23    2    1    2    0    0  0.67348923586E+01 -0.39215136686E+02 -0.14584319502E+04  0.14618114050E+04  0.91025516950E+02 0.  0.
         13    1    3    3    0    0 -0.13375364391E+02 -0.75538420725E+01 -0.39469467010E+02  0.42353272940E+02  0.00000000000E+00 0. -1.
        -13    1    3    3    0    0  0.20110256750E+02 -0.31661294613E+02 -0.14189624832E+04  0.14194581320E+04  0.00000000000E+00 0.  1.
         22    1    1    2    0    0 -0.67348923586E+01  0.39215136686E+02 -0.28283846475E+02  0.48817637098E+02  0.00000000000E+00 0. -1.
<mgrwt>
<rscale>  0 0.79029842E+02</rscale>
<asrwt>0</asrwt>
<pdfrwt beam="1">  1        2 0.23056483E+00 0.99341987E+02</pdfrwt>
<pdfrwt beam="2">  1       -2 0.18394817E-02 0.99341987E+02</pdfrwt>
<totfact> 0.11444736E+04</totfact>
</mgrwt>
</event>
<event>
 6    1  0.3075717E-002  0.9257662E+02  0.7546771E-02  0.1425971E+00
          4   -1    0    0  501    0  0.00000000000E+00  0.00000000000E+00  0.69508258824E+03  0.69508258824E+03  0.00000000000E+00 0. -1.
         -4   -1    0    0    0  501 -0.00000000000E+00 -0.00000000000E+00 -0.47251719862E+01  0.47251719862E+01  0.00000000000E+00 0.  1.
         23    2    1    2    0    0  0.94672544727E+01 -0.46356695646E+01  0.67413097362E+03  0.68045793387E+03  0.91974517285E+02 0.  0.
         11    1    3    3    0    0  0.48922128035E+02 -0.52940284450E+01  0.46832868988E+03  0.47090674567E+03  0.00000000000E+00 0. -1.
        -11    1    3    3    0    0 -0.39454873562E+02  0.65835888042E+00  0.20580228374E+03  0.20955118820E+03  0.00000000000E+00 0.  1.
         22    1    1    2    0    0 -0.94672544727E+01  0.46356695646E+01  0.16226442634E+02  0.19349826358E+02  0.00000000000E+00 0.  1.
<mgrwt>
<rscale>  0 0.53777326E+02</rscale>
<asrwt>0</asrwt>
<pdfrwt beam="1">  1        4 0.10693570E+00 0.92576618E+02</pdfrwt>
<pdfrwt beam="2">  1       -4 0.72695009E-03 0.92576618E+02</pdfrwt>
<totfact> 0.51539992E+03</totfact>
</mgrwt>
</event>
<event>
 6    1  0.3075717E-002  0.9214846E+02  0.7546771E-02  0.1422454E+00
          2   -1    0    0  501    0  0.00000000000E+00  0.00000000000E+00  0.95214307607E+02  0.95214307607E+02  0.00000000000E+00 0. -1.
         -2   -1    0    0    0  501 -0.00000000000E+00 -0.00000000000E+00 -0.32439983865E+02  0.32439983865E+02  0.00000000000E+00 0.  1.
         23    2    1    2    0    0 -0.10786067122E+02 -0.32992319007E+01  0.68675393125E+02  0.11492453126E+03  0.91455530671E+02 0.  0.
         13    1    3    3    0    0 -0.36591222890E+02 -0.35087582111E+02  0.31955158335E+02  0.59926522969E+02  0.00000000000E+00 0. -1.
        -13    1    3    3    0    0  0.25805155769E+02  0.31788350210E+02  0.36720234790E+02  0.54998008295E+02  0.00000000000E+00 0.  1.
         22    1    1    2    0    0  0.10786067122E+02  0.32992319007E+01 -0.59010693827E+01  0.12729760208E+02  0.00000000000E+00 0.  1.
<mgrwt>
<rscale>  0 0.54505115E+02</rscale>
<asrwt>0</asrwt>
<pdfrwt beam="1">  1        2 0.14648355E-01 0.92148458E+02</pdfrwt>
<pdfrwt beam="2">  1       -2 0.49907668E-02 0.92148458E+02</pdfrwt>
<totfact> 0.67553904E+04</totfact>
</mgrwt>
</event>
<event>
 6    1  0.3075717E-002  0.7572286E+02  0.7546771E-02  0.1457988E+00
         -1   -1    0    0    0  501 -0.00000000000E+00  0.00000000000E+00  0.55395990082E+02  0.55395990082E+02  0.00000000000E+00 0.  1.
          1   -1    0    0  501    0  0.00000000000E+00 -0.00000000000E+00 -0.37524764748E+02  0.37524764748E+02  0.00000000000E+00 0. -1.
         23    2    1    2    0    0  0.83998353719E+01 -0.85032974608E+01  0.58181129955E+01  0.75946043668E+02  0.74773576937E+02 0.  0.
         13    1    3    3    0    0 -0.23676747589E+01 -0.23668005180E+01 -0.34040700961E+02  0.34204925820E+02  0.00000000000E+00 0. -1.
        -13    1    3    3    0    0  0.10767510131E+02 -0.61364969427E+01  0.39858813957E+02  0.41741117848E+02  0.00000000000E+00 0.  1.
         22    1    1    2    0    0 -0.83998353719E+01  0.85032974608E+01  0.12053112338E+02  0.16974711162E+02  0.00000000000E+00 0.  1.
<mgrwt>
<rscale>  0 0.47729329E+02</rscale>
<asrwt>0</asrwt>
<pdfrwt beam="1">  1        1 0.57730407E-02 0.75722857E+02</pdfrwt>
<pdfrwt beam="2">  1       -1 0.85224600E-02 0.75722857E+02</pdfrwt>
<totfact> 0.87061907E+04</totfact>
</mgrwt>
</event>
<event>
 6    1  0.3075717E-002  0.8778462E+02  0.7546771E-02  0.1429445E+00
         -1   -1    0    0    0  501 -0.00000000000E+00  0.00000000000E+00  0.94121107032E+01  0.94121107032E+01  0.00000000000E+00 0.  1.
          1   -1    0    0  501    0  0.00000000000E+00 -0.00000000000E+00 -0.44746748024E+03  0.44746748024E+03  0.00000000000E+00 0. -1.
         23    2    1    2    0    0 -0.36760967091E+01 -0.11136175306E+02 -0.43627362911E+03  0.44501777462E+03  0.86997771143E+02 0.  0.
         11    1    3    3    0    0  0.21795728127E+02  0.94929340549E+01 -0.37301248054E+03  0.37376928739E+03  0.00000000000E+00 0. -1.
        -11    1    3    3    0    0 -0.25471824837E+02 -0.20629109361E+02 -0.63261148575E+02  0.71248487230E+02  0.00000000000E+00 0.  1.
         22    1    1    2    0    0  0.36760967091E+01  0.11136175306E+02 -0.17817404233E+01  0.11861816319E+02  0.00000000000E+00 0.  1.
<mgrwt>
<rscale>  0 0.53071672E+02</rscale>
<asrwt>0</asrwt>
<pdfrwt beam="1">  1        1 0.68841137E-01 0.87784624E+02</pdfrwt>
<pdfrwt beam="2">  1       -1 0.14480173E-02 0.87784624E+02</pdfrwt>
<totfact> 0.50406734E+04</totfact>
</mgrwt>
</event>
<event>
 6    1  0.3075717E-002  0.1004857E+03  0.7546771E-02  0.1388946E+00
         -2   -1    0    0    0  501 -0.00000000000E+00  0.00000000000E+00  0.21111534168E+02  0.21111534168E+02  0.00000000000E+00 0. -1.
          2   -1    0    0  501    0  0.00000000000E+00 -0.00000000000E+00 -0.23021827583E+03  0.23021827583E+03  0.00000000000E+00 0.  1.
         23    2    1    2    0    0 -0.35175902141E+01  0.14296870056E+02 -0.21349982951E+03  0.23596513769E+03  0.99401182420E+02 0.  0.
         11    1    3    3    0    0 -0.11117744922E+02  0.53600167748E+02 -0.16028130032E+03  0.16937141868E+03  0.00000000000E+00 0. -1.
        -11    1    3    3    0    0  0.76001547079E+01 -0.39303297692E+02 -0.53218529194E+02  0.66593719002E+02  0.00000000000E+00 0.  1.
         22    1    1    2    0    0  0.35175902141E+01 -0.14296870056E+02  0.43930878532E+01  0.15364672311E+02  0.00000000000E+00 0. -1.
<mgrwt>
<rscale>  0 0.62169728E+02</rscale>
<asrwt>0</asrwt>
<pdfrwt beam="1">  1        2 0.35418197E-01 0.10048567E+03</pdfrwt>
<pdfrwt beam="2">  1       -2 0.32479282E-02 0.10048567E+03</pdfrwt>
<totfact> 0.48530857E+04</totfact>
</mgrwt>
</event>
<event>
 6    1  0.3075717E-002  0.9676801E+02  0.7546771E-02  0.1373440E+00
          2   -1    0    0  501    0  0.00000000000E+00  0.00000000000E+00  0.14540559050E+04  0.14540559050E+04  0.00000000000E+00 0. -1.
         -2   -1    0    0    0  501 -0.00000000000E+00 -0.00000000000E+00 -0.34821486555E+01  0.34821486555E+01  0.00000000000E+00 0.  1.
         23    2    1    2    0    0 -0.56270626232E+01  0.20461036477E+02  0.13898220418E+04  0.13931867625E+04  0.94412550045E+02 0.  0.
         11    1    3    3    0    0  0.11703706954E+02  0.17083259977E+02  0.64406508253E+02  0.67653623947E+02  0.00000000000E+00 0.  1.
        -11    1    3    3    0    0 -0.17330769577E+02  0.33777764998E+01  0.13254155335E+04  0.13255331386E+04  0.00000000000E+00 0. -1.
         22    1    1    2    0    0  0.56270626232E+01 -0.20461036477E+02  0.60751714517E+02  0.64351291085E+02  0.00000000000E+00 0.  1.
<mgrwt>
<rscale>  0 0.66219935E+02</rscale>
<asrwt>0</asrwt>
<pdfrwt beam="1">  1        2 0.22370042E+00 0.96768008E+02</pdfrwt>
<pdfrwt beam="2">  1       -2 0.53571634E-03 0.96768008E+02</pdfrwt>
<totfact> 0.69335753E+04</totfact>
</mgrwt>
</event>
<event>
 6    1  0.3075717E-002  0.1125964E+03  0.7546771E-02  0.1285425E+00
         -4   -1    0    0    0  501 -0.00000000000E+00  0.00000000000E+00  0.20137849353E+03  0.20137849353E+03  0.00000000000E+00 0.  1.
          4   -1    0    0  501    0  0.00000000000E+00 -0.00000000000E+00 -0.44795987763E+02  0.44795987763E+02  0.00000000000E+00 0. -1.
         23    2    1    2    0    0  0.12175149830E+02 -0.62389244548E+02  0.52542445720E+02  0.12425243159E+03  0.92937108012E+02 0.  0.
         11    1    3    3    0    0  0.18805226392E+02 -0.85961011086E+02  0.43402322383E+02  0.98115715127E+02  0.00000000000E+00 0. -1.
        -11    1    3    3    0    0 -0.66300765619E+01  0.23571766539E+02  0.91401233368E+01  0.26136716465E+02  0.00000000000E+00 0.  1.
         22    1    1    2    0    0 -0.12175149830E+02  0.62389244548E+02  0.10404006005E+03  0.12192204970E+03  0.00000000000E+00 0.  1.
<mgrwt>
<rscale>  0 0.97600024E+02</rscale>
<asrwt>0</asrwt>
<pdfrwt beam="1">  1        4 0.68916905E-02 0.11259644E+03</pdfrwt>
<pdfrwt beam="2">  1       -4 0.30981306E-01 0.11259644E+03</pdfrwt>
<totfact> 0.22221742E+03</totfact>
</mgrwt>
</event>
<event>
 6    1  0.3075717E-002  0.9192805E+02  0.7546771E-02  0.1421485E+00
         -2   -1    0    0    0  501 -0.00000000000E+00  0.00000000000E+00  0.46911393840E+01  0.46911393840E+01  0.00000000000E+00 0.  1.
          2   -1    0    0  501    0  0.00000000000E+00 -0.00000000000E+00 -0.57132649170E+03  0.57132649170E+03  0.00000000000E+00 0. -1.
         23    2    1    2    0    0  0.38099793348E+01  0.10883072192E+02 -0.51035540552E+03  0.51856861356E+03  0.91202027529E+02 0.  0.
         13    1    3    3    0    0  0.19201818061E+02  0.16251650213E+02 -0.35917821607E+02  0.43851064531E+02  0.00000000000E+00 0.  1.
        -13    1    3    3    0    0 -0.15391838726E+02 -0.53685780209E+01 -0.47443758391E+03  0.47471754903E+03  0.00000000000E+00 0. -1.
         22    1    1    2    0    0 -0.38099793348E+01 -0.10883072192E+02 -0.56279946799E+02  0.57449017524E+02  0.00000000000E+00 0.  1.
<mgrwt>
<rscale>  0 0.54707898E+02</rscale>
<asrwt>0</asrwt>
<pdfrwt beam="1">  1        2 0.87896343E-01 0.91928054E+02</pdfrwt>
<pdfrwt beam="2">  1       -2 0.72171409E-03 0.91928054E+02</pdfrwt>
<totfact> 0.15730596E+05</totfact>
</mgrwt>
</event>
<event>
 6    1  0.3075717E-002  0.9082346E+02  0.7546771E-02  0.1413204E+00
          2   -1    0    0  501    0  0.00000000000E+00  0.00000000000E+00  0.71052795913E+03  0.71052795913E+03  0.00000000000E+00 0. -1.
         -2   -1    0    0    0  501 -0.00000000000E+00 -0.00000000000E+00 -0.38809849285E+01  0.38809849285E+01  0.00000000000E+00 0.  1.
         23    2    1    2    0    0 -0.23253950543E+01  0.13386998022E+02  0.63777263632E+03  0.64420713784E+03  0.89801345329E+02 0.  0.
         13    1    3    3    0    0 -0.25258671510E+02 -0.33863551209E+00  0.51859022267E+02  0.57684255660E+02  0.00000000000E+00 0.  1.
        -13    1    3    3    0    0  0.22933276456E+02  0.13725633534E+02  0.58591361406E+03  0.58652288218E+03  0.00000000000E+00 0. -1.
         22    1    1    2    0    0  0.23253950543E+01 -0.13386998022E+02  0.68874337878E+02  0.70201806218E+02  0.00000000000E+00 0. -1.
<mgrwt>
<rscale>  0 0.56485000E+02</rscale>
<asrwt>0</asrwt>
<pdfrwt beam="1">  1        2 0.10931189E+00 0.90823460E+02</pdfrwt>
<pdfrwt beam="2">  1       -2 0.59707517E-03 0.90823460E+02</pdfrwt>
<totfact> 0.15997762E+05</totfact>
</mgrwt>
</event>
<event>
 6    1  0.3075717E-002  0.9591600E+02  0.7546771E-02  0.1355553E+00
          2   -1    0    0  501    0  0.00000000000E+00  0.00000000000E+00  0.14145018294E+04  0.14145018294E+04  0.00000000000E+00 0.  1.
         -2   -1    0    0    0  501 -0.00000000000E+00 -0.00000000000E+00 -0.33590586441E+01  0.33590586441E+01  0.00000000000E+00 0. -1.
         23    2    1    2    0    0  0.21086468899E+02  0.20449807915E+02  0.12741091899E+04  0.12777144072E+04  0.91307418818E+02 0.  0.
         11    1    3    3    0    0  0.14601282337E+02  0.18896371409E+02  0.12692220954E+04  0.12694467290E+04  0.00000000000E+00 0.  1.
        -11    1    3    3    0    0  0.64851865624E+01  0.15534365063E+01  0.48870944487E+01  0.82676781432E+01  0.00000000000E+00 0. -1.
         22    1    1    2    0    0 -0.21086468899E+02 -0.20449807915E+02  0.13703358085E+03  0.14014648085E+03  0.00000000000E+00 0.  1.
<mgrwt>
<rscale>  0 0.71352498E+02</rscale>
<asrwt>0</asrwt>
<pdfrwt beam="1">  1        2 0.21761519E+00 0.95915997E+02</pdfrwt>
<pdfrwt beam="2">  1       -2 0.51677938E-03 0.95915997E+02</pdfrwt>
<totfact> 0.76375069E+04</totfact>
</mgrwt>
</event>
<event>
 6    1  0.3075717E-002  0.9343611E+02  0.7546771E-02  0.1387543E+00
         -2   -1    0    0    0  501 -0.00000000000E+00  0.00000000000E+00  0.27136857463E+03  0.27136857463E+03  0.00000000000E+00 0.  1.
          2   -1    0    0  501    0  0.00000000000E+00 -0.00000000000E+00 -0.13902411101E+02  0.13902411101E+02  0.00000000000E+00 0. -1.
         23    2    1    2    0    0  0.15640309137E+02  0.10309018034E+02  0.15404486999E+03  0.18016694642E+03  0.91539125451E+02 0.  0.
         13    1    3    3    0    0  0.31954007754E+02  0.30972818783E+02  0.14600960864E+03  0.15264068897E+03  0.00000000000E+00 0.  1.
        -13    1    3    3    0    0 -0.16313698617E+02 -0.20663800749E+02  0.80352613500E+01  0.27526257444E+02  0.00000000000E+00 0. -1.
         22    1    1    2    0    0 -0.15640309137E+02 -0.10309018034E+02  0.10342129354E+03  0.10510403932E+03  0.00000000000E+00 0.  1.
<mgrwt>
<rscale>  0 0.62522053E+02</rscale>
<asrwt>0</asrwt>
<pdfrwt beam="1">  1        2 0.21388327E-02 0.93436110E+02</pdfrwt>
<pdfrwt beam="2">  1       -2 0.41749007E-01 0.93436110E+02</pdfrwt>
<totfact> 0.24066796E+04</totfact>
</mgrwt>
</event>
<event>
 6    1  0.3075717E-002  0.9330281E+02  0.7546771E-02  0.1374058E+00
         -1   -1    0    0    0  501 -0.00000000000E+00  0.00000000000E+00  0.13796274972E+02  0.13796274972E+02  0.00000000000E+00 0.  1.
          1   -1    0    0  501    0  0.00000000000E+00 -0.00000000000E+00 -0.35510416369E+03  0.35510416369E+03  0.00000000000E+00 0. -1.
         23    2    1    2    0    0  0.68008731177E+01 -0.22425993133E+02 -0.32989332344E+03  0.34283380589E+03  0.90311885003E+02 0.  0.
         11    1    3    3    0    0 -0.80049861313E+01 -0.18767803858E+02 -0.32659296541E+03  0.32722969810E+03  0.00000000000E+00 0. -1.
        -11    1    3    3    0    0  0.14805859249E+02 -0.36581892751E+01 -0.33003580256E+01  0.15604107792E+02  0.00000000000E+00 0.  1.
         22    1    1    2    0    0 -0.68008731177E+01  0.22425993133E+02 -0.11414565279E+02  0.26066632764E+02  0.00000000000E+00 0.  1.
<mgrwt>
<rscale>  0 0.66051864E+02</rscale>
<asrwt>0</asrwt>
<pdfrwt beam="1">  1        1 0.54631416E-01 0.93302806E+02</pdfrwt>
<pdfrwt beam="2">  1       -1 0.21225036E-02 0.93302806E+02</pdfrwt>
<totfact> 0.39295620E+04</totfact>
</mgrwt>
</event>
<event>
 6    1  0.3075717E-002  0.9698905E+02  0.7546771E-02  0.1345708E+00
         -1   -1    0    0    0  501 -0.00000000000E+00  0.00000000000E+00  0.56428741527E+01  0.56428741527E+01  0.00000000000E+00 0.  1.
          1   -1    0    0  501    0  0.00000000000E+00 -0.00000000000E+00 -0.10053186048E+04  0.10053186048E+04  0.00000000000E+00 0. -1.
         23    2    1    2    0    0 -0.31208917077E+02 -0.12451415740E+02 -0.91074138910E+03  0.91589123458E+03  0.90982643925E+02 0.  0.
         11    1    3    3    0    0 -0.58144832876E+02  0.10729101678E+01 -0.75653525490E+03  0.75876713466E+03  0.00000000000E+00 0. -1.
        -11    1    3    3    0    0  0.26935915799E+02 -0.13524325907E+02 -0.15420613420E+03  0.15712409992E+03  0.00000000000E+00 0.  1.
         22    1    1    2    0    0  0.31208917077E+02  0.12451415740E+02 -0.88934341531E+02  0.95070244360E+02  0.00000000000E+00 0.  1.
<mgrwt>
<rscale>  0 0.74409848E+02</rscale>
<asrwt>0</asrwt>
<pdfrwt beam="1">  1        1 0.15466433E+00 0.96989050E+02</pdfrwt>
<pdfrwt beam="2">  1       -1 0.86813486E-03 0.96989050E+02</pdfrwt>
<totfact> 0.33513385E+04</totfact>
</mgrwt>
</event>
<event>
 6    1  0.3075717E-002  0.9405145E+02  0.7546771E-02  0.1365273E+00
          2   -1    0    0  501    0  0.00000000000E+00  0.00000000000E+00  0.21980656194E+02  0.21980656194E+02  0.00000000000E+00 0. -1.
         -2   -1    0    0    0  501 -0.00000000000E+00 -0.00000000000E+00 -0.20818599822E+03  0.20818599822E+03  0.00000000000E+00 0.  1.
         23    2    1    2    0    0  0.21567571091E+02  0.15334093045E+02 -0.89226154671E+02  0.12964174550E+03  0.90251764340E+02 0.  0.
         11    1    3    3    0    0  0.10078412015E+02  0.21973457578E+02  0.12388739707E+02  0.27164095755E+02  0.00000000000E+00 0. -1.
        -11    1    3    3    0    0  0.11489159076E+02 -0.66393645320E+01 -0.10161489438E+03  0.10247764974E+03  0.00000000000E+00 0.  1.
         22    1    1    2    0    0 -0.21567571091E+02 -0.15334093045E+02 -0.96979187354E+02  0.10052490891E+03  0.00000000000E+00 0.  1.
<mgrwt>
<rscale>  0 0.68498998E+02</rscale>
<asrwt>0</asrwt>
<pdfrwt beam="1">  1        2 0.33816394E-02 0.94051451E+02</pdfrwt>
<pdfrwt beam="2">  1       -2 0.32028615E-01 0.94051451E+02</pdfrwt>
<totfact> 0.21319854E+04</totfact>
</mgrwt>
</event>
<event>
 6    1  0.3075717E-002  0.9192404E+02  0.7546771E-02  0.1364700E+00
         -1   -1    0    0    0  501 -0.00000000000E+00  0.00000000000E+00  0.23599377333E+02  0.23599377333E+02  0.00000000000E+00 0.  1.
          1   -1    0    0  501    0  0.00000000000E+00 -0.00000000000E+00 -0.25262473536E+03  0.25262473536E+03  0.00000000000E+00 0. -1.
         23    2    1    2    0    0 -0.46154009012E+01  0.28240719066E+02 -0.22989879159E+03  0.24759540289E+03  0.87356677000E+02 0.  0.
         13    1    3    3    0    0 -0.20711866269E+02  0.35388609956E+02 -0.22582600622E+03  0.22951845286E+03  0.00000000000E+00 0. -1.
        -13    1    3    3    0    0  0.16096465368E+02 -0.71478908897E+01 -0.40727853715E+01  0.18076950024E+02  0.00000000000E+00 0.  1.
         22    1    1    2    0    0  0.46154009012E+01 -0.28240719066E+02  0.87343356632E+00  0.28628709804E+02  0.00000000000E+00 0.  1.
<mgrwt>
<rscale>  0 0.68662833E+02</rscale>
<asrwt>0</asrwt>
<pdfrwt beam="1">  1        1 0.38865343E-01 0.91924040E+02</pdfrwt>
<pdfrwt beam="2">  1       -1 0.36306735E-02 0.91924040E+02</pdfrwt>
<totfact> 0.27485972E+04</totfact>
</mgrwt>
</event>
<event>
 6    1  0.3075717E-002  0.8969951E+02  0.7546771E-02  0.1379963E+00
          1   -1    0    0  501    0  0.00000000000E+00  0.00000000000E+00  0.15658176115E+04  0.15658176115E+04  0.00000000000E+00 0. -1.
         -1   -1    0    0    0  501 -0.00000000000E+00 -0.00000000000E+00 -0.26495347655E+01  0.26495347655E+01  0.00000000000E+00 0.  1.
         23    2    1    2    0    0  0.22246408726E+02 -0.88486421403E+01  0.14511240679E+04  0.14538937589E+04  0.86445362292E+02 0.  0.
         11    1    3    3    0    0  0.25050557637E+01  0.31512990765E+02  0.25882410655E+03  0.26074750626E+03  0.00000000000E+00 0.  1.
        -11    1    3    3    0    0  0.19741352962E+02 -0.40361632906E+02  0.11922999613E+04  0.11931462527E+04  0.00000000000E+00 0. -1.
         22    1    1    2    0    0 -0.22246408726E+02  0.88486421403E+01  0.11204400887E+03  0.11457338736E+03  0.00000000000E+00 0. -1.
<mgrwt>
<rscale>  0 0.64473453E+02</rscale>
<asrwt>0</asrwt>
<pdfrwt beam="1">  1        1 0.24089428E+00 0.89699509E+02</pdfrwt>
<pdfrwt beam="2">  1       -1 0.40762198E-03 0.89699509E+02</pdfrwt>
<totfact> 0.40664826E+04</totfact>
</mgrwt>
</event>
<event>
 6    1  0.3075717E-002  0.9465498E+02  0.7546771E-02  0.1385897E+00
          2   -1    0    0  501    0  0.00000000000E+00  0.00000000000E+00  0.99741320137E+03  0.99741320137E+03  0.00000000000E+00 0. -1.
         -2   -1    0    0    0  501 -0.00000000000E+00 -0.00000000000E+00 -0.40380622219E+01  0.40380622219E+01  0.00000000000E+00 0.  1.
         23    2    1    2    0    0  0.17001409683E+02  0.73018840935E+01  0.94381736150E+03  0.94855193687E+03  0.92828872790E+02 0.  0.
         11    1    3    3    0    0  0.37015091572E+02  0.40173017620E+02  0.46699007801E+03  0.47017413935E+03  0.00000000000E+00 0. -1.
        -11    1    3    3    0    0 -0.20013681890E+02 -0.32871133527E+02  0.47682728349E+03  0.47837779752E+03  0.00000000000E+00 0.  1.
         22    1    1    2    0    0 -0.17001409683E+02 -0.73018840935E+01  0.49557777652E+02  0.52899326729E+02  0.00000000000E+00 0.  1.
<mgrwt>
<rscale>  0 0.62938855E+02</rscale>
<asrwt>0</asrwt>
<pdfrwt beam="1">  1        2 0.15344799E+00 0.94654979E+02</pdfrwt>
<pdfrwt beam="2">  1       -2 0.62124114E-03 0.94654979E+02</pdfrwt>
<totfact> 0.99516233E+04</totfact>
</mgrwt>
</event>
<event>
 6    1  0.3075717E-002  0.9844369E+02  0.7546771E-02  0.1324584E+00
         -2   -1    0    0    0  501 -0.00000000000E+00  0.00000000000E+00  0.53014339043E+01  0.53014339043E+01  0.00000000000E+00 0.  1.
          2   -1    0    0  501    0  0.00000000000E+00 -0.00000000000E+00 -0.10059115335E+04  0.10059115335E+04  0.00000000000E+00 0. -1.
         23    2    1    2    0    0 -0.46405339384E+02 -0.23000734836E+01 -0.73603892386E+03  0.74259306327E+03  0.86789482846E+02 0.  0.
         13    1    3    3    0    0 -0.54326040282E+02  0.96331398420E+01 -0.71509379516E+03  0.71721911011E+03  0.00000000000E+00 0. -1.
        -13    1    3    3    0    0  0.79207008972E+01 -0.11933213326E+02 -0.20945128696E+02  0.25373953162E+02  0.00000000000E+00 0.  1.
         22    1    1    2    0    0  0.46405339384E+02  0.23000734836E+01 -0.26457117570E+03  0.26861990409E+03  0.00000000000E+00 0.  1.
<mgrwt>
<rscale>  0 0.81595481E+02</rscale>
<asrwt>0</asrwt>
<pdfrwt beam="1">  1        2 0.15475565E+00 0.98443690E+02</pdfrwt>
<pdfrwt beam="2">  1       -2 0.81560508E-03 0.98443690E+02</pdfrwt>
<totfact> 0.67335088E+04</totfact>
</mgrwt>
</event>
<event>
 6    1  0.3075717E-002  0.8664913E+02  0.7546771E-02  0.1412940E+00
          2   -1    0    0  501    0  0.00000000000E+00  0.00000000000E+00  0.18707772320E+03  0.18707772320E+03  0.00000000000E+00 0. -1.
         -2   -1    0    0    0  501 -0.00000000000E+00 -0.00000000000E+00 -0.26286477863E+02  0.26286477863E+02  0.00000000000E+00 0.  1.
         23    2    1    2    0    0 -0.82656033793E+01  0.13361577241E+02  0.17298686903E+03  0.19347487773E+03  0.85212789595E+02 0.  0.
         13    1    3    3    0    0 -0.19101303115E+02  0.47283240824E+02  0.98840515390E+02  0.11122055622E+03  0.00000000000E+00 0. -1.
        -13    1    3    3    0    0  0.10835699736E+02 -0.33921663583E+02  0.74146353637E+02  0.82254321507E+02  0.00000000000E+00 0.  1.
         22    1    1    2    0    0  0.82656033793E+01 -0.13361577241E+02 -0.12195623689E+02  0.19889323336E+02  0.00000000000E+00 0.  1.
<mgrwt>
<rscale>  0 0.56542853E+02</rscale>
<asrwt>0</asrwt>
<pdfrwt beam="1">  1        2 0.28781187E-01 0.86649128E+02</pdfrwt>
<pdfrwt beam="2">  1       -2 0.40440736E-02 0.86649128E+02</pdfrwt>
<totfact> 0.43065955E+04</totfact>
</mgrwt>
</event>
<event>
 6    1  0.3075717E-002  0.9216987E+02  0.7546771E-02  0.1381445E+00
          2   -1    0    0  501    0  0.00000000000E+00  0.00000000000E+00  0.16488239287E+04  0.16488239287E+04  0.00000000000E+00 0. -1.
         -2   -1    0    0    0  501 -0.00000000000E+00 -0.00000000000E+00 -0.39458239807E+01  0.39458239807E+01  0.00000000000E+00 0.  1.
         23    2    1    2    0    0  0.90758354988E+01 -0.19535998382E+02  0.16032606618E+04  0.16059078537E+04  0.89617290800E+02 0.  0.
         11    1    3    3    0    0  0.46346131752E+02 -0.27721680277E+02  0.92966392741E+03  0.93123116003E+03  0.00000000000E+00 0. -1.
        -11    1    3    3    0    0 -0.37270296253E+02  0.81856818950E+01  0.67359673437E+03  0.67467669363E+03  0.00000000000E+00 0.  1.
         22    1    1    2    0    0 -0.90758354988E+01  0.19535998382E+02  0.41617442908E+02  0.46861898990E+02  0.00000000000E+00 0.  1.
<mgrwt>
<rscale>  0 0.64085462E+02</rscale>
<asrwt>0</asrwt>
<pdfrwt beam="1">  1        2 0.25366467E+00 0.92169869E+02</pdfrwt>
<pdfrwt beam="2">  1       -2 0.60705116E-03 0.92169869E+02</pdfrwt>
<totfact> 0.46066810E+04</totfact>
</mgrwt>
</event>
<event>
 6    1  0.3075717E-002  0.9219206E+02  0.7546771E-02  0.1421485E+00
          2   -1    0    0  501    0  0.00000000000E+00  0.00000000000E+00  0.19795888062E+02  0.19795888062E+02  0.00000000000E+00 0. -1.
         -2   -1    0    0    0  501 -0.00000000000E+00 -0.00000000000E+00 -0.14706014317E+03  0.14706014317E+03  0.00000000000E+00 0.  1.
         23    2    1    2    0    0 -0.10899368839E+02  0.34486017568E+01 -0.93921100690E+02  0.13160755550E+03  0.91480524779E+02 0.  0.
         13    1    3    3    0    0 -0.48176888429E+02 -0.16087733610E+01 -0.28104325917E+02  0.55798332105E+02  0.00000000000E+00 0.  1.
        -13    1    3    3    0    0  0.37277519590E+02  0.50573751178E+01 -0.65816774773E+02  0.75809223392E+02  0.00000000000E+00 0. -1.
         22    1    1    2    0    0  0.10899368839E+02 -0.34486017568E+01 -0.33343154418E+02  0.35248475736E+02  0.00000000000E+00 0. -1.
<mgrwt>
<rscale>  0 0.54707901E+02</rscale>
<asrwt>0</asrwt>
<pdfrwt beam="1">  1        2 0.30455212E-02 0.92192058E+02</pdfrwt>
<pdfrwt beam="2">  1       -2 0.22624638E-01 0.92192058E+02</pdfrwt>
<totfact> 0.44916512E+04</totfact>
</mgrwt>
</event>
<event>
 6    1  0.3075717E-002  0.9055718E+02  0.7546771E-02  0.1403208E+00
          2   -1    0    0  501    0  0.00000000000E+00  0.00000000000E+00  0.19790672784E+03  0.19790672784E+03  0.00000000000E+00 0.  1.
         -2   -1    0    0    0  501 -0.00000000000E+00 -0.00000000000E+00 -0.15422086744E+02  0.15422086744E+02  0.00000000000E+00 0. -1.
         23    2    1    2    0    0 -0.15180458482E+02 -0.51446047986E+01  0.17136472433E+03  0.19382071813E+03  0.89127373766E+02 0.  0.
         11    1    3    3    0    0 -0.59280885349E+01 -0.24286706796E+02  0.17072969223E+03  0.17255032358E+03  0.00000000000E+00 0.  1.
        -11    1    3    3    0    0 -0.92523699474E+01  0.19142101997E+02  0.63503210242E+00  0.21270394549E+02  0.00000000000E+00 0. -1.
         22    1    1    2    0    0  0.15180458482E+02  0.51446047986E+01  0.11119916765E+02  0.19508096451E+02  0.00000000000E+00 0. -1.
<mgrwt>
<rscale>  0 0.58737502E+02</rscale>
<asrwt>0</asrwt>
<pdfrwt beam="1">  1        2 0.30447187E-01 0.90557175E+02</pdfrwt>
<pdfrwt beam="2">  1       -2 0.23726289E-02 0.90557175E+02</pdfrwt>
<totfact> 0.88655517E+04</totfact>
</mgrwt>
</event>
<event>
 6    1  0.3075717E-002  0.1432393E+03  0.7546771E-02  0.1221357E+00
         -2   -1    0    0    0  501 -0.00000000000E+00  0.00000000000E+00  0.47920870609E+02  0.47920870609E+02  0.00000000000E+00 0.  1.
          2   -1    0    0  501    0  0.00000000000E+00 -0.00000000000E+00 -0.41574340144E+03  0.41574340144E+03  0.00000000000E+00 0. -1.
         23    2    1    2    0    0 -0.92078933262E+02 -0.60822963760E+02 -0.30431602685E+03  0.33634169385E+03  0.91321015950E+02 0.  0.
         11    1    3    3    0    0 -0.69378425491E+02 -0.82555749219E+02 -0.19779237893E+03  0.22527903323E+03  0.00000000000E+00 0. -1.
        -11    1    3    3    0    0 -0.22700507771E+02  0.21732785460E+02 -0.10652364793E+03  0.11106266062E+03  0.00000000000E+00 0.  1.
         22    1    1    2    0    0  0.92078933262E+02  0.60822963760E+02 -0.63506503982E+02  0.12732257820E+03  0.00000000000E+00 0.  1.
<mgrwt>
<rscale>  0 0.13419719E+03</rscale>
<asrwt>0</asrwt>
<pdfrwt beam="1">  1        2 0.63960522E-01 0.14323928E+03</pdfrwt>
<pdfrwt beam="2">  1       -2 0.73724418E-02 0.14323928E+03</pdfrwt>
<totfact> 0.78709697E+03</totfact>
</mgrwt>
</event>
<event>
 6    1  0.3075717E-002  0.9696168E+02  0.7546771E-02  0.1397819E+00
          2   -1    0    0  501    0  0.00000000000E+00  0.00000000000E+00  0.36308384749E+04  0.36308384749E+04  0.00000000000E+00 0. -1.
         -2   -1    0    0    0  501 -0.00000000000E+00 -0.00000000000E+00 -0.19711384817E+01  0.19711384817E+01  0.00000000000E+00 0.  1.
         23    2    1    2    0    0 -0.14214025004E+02 -0.40575009888E+00  0.35917974368E+04  0.35931059536E+04  0.95913314228E+02 0.  0.
         13    1    3    3    0    0 -0.20546479164E+02  0.44253879682E+02  0.14142247622E+04  0.14150661616E+04  0.00000000000E+00 0. -1.
        -13    1    3    3    0    0  0.63324541592E+01 -0.44659629781E+02  0.21775726746E+04  0.21780397920E+04  0.00000000000E+00 0.  1.
         22    1    1    2    0    0  0.14214025004E+02  0.40575009888E+00  0.37069899573E+02  0.39703659709E+02  0.00000000000E+00 0.  1.
<mgrwt>
<rscale>  0 0.60003085E+02</rscale>
<asrwt>0</asrwt>
<pdfrwt beam="1">  1        2 0.55858518E+00 0.96961678E+02</pdfrwt>
<pdfrwt beam="2">  1       -2 0.30325498E-03 0.96961678E+02</pdfrwt>
<totfact> 0.98692535E+03</totfact>
</mgrwt>
</event>
<event>
 6    1  0.3075717E-002  0.9161708E+02  0.7546771E-02  0.1410077E+00
          1   -1    0    0  501    0  0.00000000000E+00  0.00000000000E+00  0.76073396084E+02  0.76073396084E+02  0.00000000000E+00 0. -1.
         -1   -1    0    0    0  501 -0.00000000000E+00 -0.00000000000E+00 -0.85777362514E+02  0.85777362514E+02  0.00000000000E+00 0.  1.
         23    2    1    2    0    0  0.12464924285E+02 -0.61460233249E+01  0.47349242273E+02  0.10312924156E+03  0.90556842813E+02 0.  0.
         13    1    3    3    0    0  0.34062759338E+02  0.85731510110E+01 -0.12928611731E+02  0.37428859097E+02  0.00000000000E+00 0.  1.
        -13    1    3    3    0    0 -0.21597835053E+02 -0.14719174336E+02  0.60277854005E+02  0.65700382461E+02  0.00000000000E+00 0. -1.
         22    1    1    2    0    0 -0.12464924285E+02  0.61460233249E+01 -0.57053208703E+02  0.58721517040E+02  0.00000000000E+00 0.  1.
<mgrwt>
<rscale>  0 0.57176636E+02</rscale>
<asrwt>0</asrwt>
<pdfrwt beam="1">  1        1 0.11703599E-01 0.91617082E+02</pdfrwt>
<pdfrwt beam="2">  1       -1 0.13196517E-01 0.91617082E+02</pdfrwt>
<totfact> 0.18180453E+04</totfact>
</mgrwt>
</event>
<event>
 6    1  0.3075717E-002  0.1061780E+03  0.7546771E-02  0.1302408E+00
          2   -1    0    0  501    0  0.00000000000E+00  0.00000000000E+00  0.23010784425E+04  0.23010784425E+04  0.00000000000E+00 0.  1.
         -2   -1    0    0    0  501 -0.00000000000E+00 -0.00000000000E+00 -0.11467540719E+02  0.11467540719E+02  0.00000000000E+00 0. -1.
         23    2    1    2    0    0  0.54751042677E+02 -0.74793161997E+01  0.22249801339E+04  0.22275121488E+04  0.90665097023E+02 0.  0.
         11    1    3    3    0    0  0.76047109059E+02 -0.22505202425E+02  0.17847212999E+04  0.17864825119E+04  0.00000000000E+00 0.  1.
        -11    1    3    3    0    0 -0.21296066382E+02  0.15025886226E+02  0.44025883396E+03  0.44102963685E+03  0.00000000000E+00 0. -1.
         22    1    1    2    0    0 -0.54751042677E+02  0.74793161997E+01  0.64630767896E+02  0.85033834466E+02  0.00000000000E+00 0. -1.
<mgrwt>
<rscale>  0 0.90183659E+02</rscale>
<asrwt>0</asrwt>
<pdfrwt beam="1">  1        2 0.35401170E+00 0.10617804E+03</pdfrwt>
<pdfrwt beam="2">  1       -2 0.17642389E-02 0.10617804E+03</pdfrwt>
<totfact> 0.47656978E+03</totfact>
</mgrwt>
</event>
<event>
 6    1  0.3075717E-002  0.8382902E+02  0.7546771E-02  0.1448824E+00
         -2   -1    0    0    0  501 -0.00000000000E+00  0.00000000000E+00  0.76519034240E+01  0.76519034240E+01  0.00000000000E+00 0.  1.
          2   -1    0    0  501    0  0.00000000000E+00 -0.00000000000E+00 -0.29934554273E+03  0.29934554273E+03  0.00000000000E+00 0. -1.
         23    2    1    2    0    0  0.43507228676E+01  0.90890980454E+01 -0.27505087755E+03  0.28754180400E+03  0.83221171065E+02 0.  0.
         13    1    3    3    0    0 -0.37410980827E+02  0.10373491017E+02 -0.93388084888E+02  0.10113617158E+03  0.00000000000E+00 0.  1.
        -13    1    3    3    0    0  0.41761703695E+02 -0.12843929714E+01 -0.18166279266E+03  0.18640563242E+03  0.00000000000E+00 0. -1.
         22    1    1    2    0    0 -0.43507228676E+01 -0.90890980454E+01 -0.16642761750E+02  0.19455642148E+02  0.00000000000E+00 0.  1.
<mgrwt>
<rscale>  0 0.49360060E+02</rscale>
<asrwt>0</asrwt>
<pdfrwt beam="1">  1        2 0.46053165E-01 0.83829015E+02</pdfrwt>
<pdfrwt beam="2">  1       -2 0.11772158E-02 0.83829015E+02</pdfrwt>
<totfact> 0.15422831E+05</totfact>
</mgrwt>
</event>
<event>
 6    1  0.3075717E-002  0.9428780E+02  0.7546771E-02  0.1404986E+00
         -2   -1    0    0    0  501 -0.00000000000E+00  0.00000000000E+00  0.17113486153E+02  0.17113486153E+02  0.00000000000E+00 0.  1.
          2   -1    0    0  501    0  0.00000000000E+00 -0.00000000000E+00 -0.17089728815E+03  0.17089728815E+03  0.00000000000E+00 0. -1.
         23    2    1    2    0    0 -0.10961933235E+02  0.83964957624E+01 -0.13191006224E+03  0.16214331188E+03  0.93271238576E+02 0.  0.
         11    1    3    3    0    0  0.32493381414E+02  0.21145226761E+02 -0.98534142146E+02  0.10588634293E+03  0.00000000000E+00 0. -1.
        -11    1    3    3    0    0 -0.43455314649E+02 -0.12748730998E+02 -0.33375920097E+02  0.56256968952E+02  0.00000000000E+00 0.  1.
         22    1    1    2    0    0  0.10961933235E+02 -0.83964957624E+01 -0.21873739757E+02  0.25867462425E+02  0.00000000000E+00 0. -1.
<mgrwt>
<rscale>  0 0.58327791E+02</rscale>
<asrwt>0</asrwt>
<pdfrwt beam="1">  1        2 0.26291892E-01 0.94287799E+02</pdfrwt>
<pdfrwt beam="2">  1       -2 0.26328439E-02 0.94287799E+02</pdfrwt>
<totfact> 0.89846702E+04</totfact>
</mgrwt>
</event>
<event>
 6    1  0.3075717E-002  0.9320064E+02  0.7546771E-02  0.1393863E+00
          2   -1    0    0  501    0  0.00000000000E+00  0.00000000000E+00  0.38896090607E+04  0.38896090607E+04  0.00000000000E+00 0. -1.
         -2   -1    0    0    0  501 -0.00000000000E+00 -0.00000000000E+00 -0.33064917406E+01  0.33064917406E+01  0.00000000000E+00 0.  1.
         23    2    1    2    0    0 -0.12453111591E+02  0.11650764436E+02  0.38625543602E+04  0.38636786285E+04  0.91627172645E+02 0.  0.
         11    1    3    3    0    0 -0.15869424194E+02  0.42414761847E+02  0.10762627051E+04  0.10772150486E+04  0.00000000000E+00 0.  1.
        -11    1    3    3    0    0  0.34163126025E+01 -0.30763997411E+02  0.27862916551E+04  0.27864635799E+04  0.00000000000E+00 0. -1.
         22    1    1    2    0    0  0.12453111591E+02 -0.11650764436E+02  0.23748208744E+02  0.29236923895E+02  0.00000000000E+00 0.  1.
<mgrwt>
<rscale>  0 0.60956112E+02</rscale>
<asrwt>0</asrwt>
<pdfrwt beam="1">  1        2 0.59839773E+00 0.93200639E+02</pdfrwt>
<pdfrwt beam="2">  1       -2 0.50869415E-03 0.93200639E+02</pdfrwt>
<totfact> 0.31791505E+03</totfact>
</mgrwt>
</event>
<event>
 6    1  0.3075717E-002  0.1103084E+03  0.7546771E-02  0.1290445E+00
          1   -1    0    0  501    0  0.00000000000E+00  0.00000000000E+00  0.22128689389E+03  0.22128689389E+03  0.00000000000E+00 0. -1.
         -1   -1    0    0    0  501 -0.00000000000E+00 -0.00000000000E+00 -0.35982984225E+03  0.35982984225E+03  0.00000000000E+00 0.  1.
         23    2    1    2    0    0 -0.56928249255E+02  0.23317482307E+02  0.20463287023E+03  0.23247053580E+03  0.91560951777E+02 0.  0.
         13    1    3    3    0    0 -0.48586348739E+02  0.39680025328E+02  0.20470815814E+03  0.21410410483E+03  0.00000000000E+00 0. -1.
        -13    1    3    3    0    0 -0.83419005156E+01 -0.16362543022E+02 -0.75287909265E-01  0.18366430971E+02  0.00000000000E+00 0.  1.
         22    1    1    2    0    0  0.56928249255E+02 -0.23317482307E+02 -0.34317581860E+03  0.34864620034E+03  0.00000000000E+00 0.  1.
<mgrwt>
<rscale>  0 0.95325234E+02</rscale>
<asrwt>0</asrwt>
<pdfrwt beam="1">  1        1 0.34044138E-01 0.11030838E+03</pdfrwt>
<pdfrwt beam="2">  1       -1 0.55358437E-01 0.11030838E+03</pdfrwt>
<totfact> 0.44124169E+02</totfact>
</mgrwt>
</event>
<event>
 6    1  0.3075717E-002  0.9646301E+02  0.7546771E-02  0.1369574E+00
         -2   -1    0    0    0  501 -0.00000000000E+00  0.00000000000E+00  0.66115651946E+01  0.66115651946E+01  0.00000000000E+00 0.  1.
          2   -1    0    0  501    0  0.00000000000E+00 -0.00000000000E+00 -0.53834430717E+03  0.53834430717E+03  0.00000000000E+00 0. -1.
         23    2    1    2    0    0 -0.13546995523E+01  0.22795327095E+02 -0.43393011316E+03  0.44452272868E+03  0.93721134506E+02 0.  0.
         13    1    3    3    0    0 -0.41169325791E+02 -0.11787397923E+02 -0.16470226273E+03  0.17017841075E+03  0.00000000000E+00 0.  1.
        -13    1    3    3    0    0  0.39814626239E+02  0.34582725018E+02 -0.26922785043E+03  0.27434431792E+03  0.00000000000E+00 0. -1.
         22    1    1    2    0    0  0.13546995523E+01 -0.22795327095E+02 -0.97802628812E+02  0.10043314369E+03  0.00000000000E+00 0. -1.
<mgrwt>
<rscale>  0 0.67285808E+02</rscale>
<asrwt>0</asrwt>
<pdfrwt beam="1">  1        2 0.82822214E-01 0.96463015E+02</pdfrwt>
<pdfrwt beam="2">  1       -2 0.10171637E-02 0.96463015E+02</pdfrwt>
<totfact> 0.10414659E+05</totfact>
</mgrwt>
</event>
<event>
 6    1  0.3075717E-002  0.9287960E+02  0.7546771E-02  0.1374042E+00
          2   -1    0    0  501    0  0.00000000000E+00  0.00000000000E+00  0.29749812063E+03  0.29749812063E+03  0.00000000000E+00 0. -1.
         -2   -1    0    0    0  501 -0.00000000000E+00 -0.00000000000E+00 -0.11434196026E+02  0.11434196026E+02  0.00000000000E+00 0.  1.
         23    2    1    2    0    0 -0.84405152686E+01 -0.22213011955E+02  0.22660638995E+03  0.24490217824E+03  0.89788422103E+02 0.  0.
         13    1    3    3    0    0 -0.40031138043E+02  0.29376727313E+01  0.17408506331E+03  0.17865254323E+03  0.00000000000E+00 0. -1.
        -13    1    3    3    0    0  0.31590622775E+02 -0.25150684687E+02  0.52521326638E+02  0.66249635013E+02  0.00000000000E+00 0.  1.
         22    1    1    2    0    0  0.84405152686E+01  0.22213011955E+02  0.59457534655E+02  0.64030138414E+02  0.00000000000E+00 0.  1.
<mgrwt>
<rscale>  0 0.66056212E+02</rscale>
<asrwt>0</asrwt>
<pdfrwt beam="1">  1        2 0.45768936E-01 0.92879605E+02</pdfrwt>
<pdfrwt beam="2">  1       -2 0.17591073E-02 0.92879605E+02</pdfrwt>
<totfact> 0.89023301E+04</totfact>
</mgrwt>
</event>
<event>
 6    1  0.3075717E-002  0.9263242E+02  0.7546771E-02  0.1415235E+00
          1   -1    0    0  501    0  0.00000000000E+00  0.00000000000E+00  0.52683669657E+02  0.52683669657E+02  0.00000000000E+00 0. -1.
         -1   -1    0    0    0  501 -0.00000000000E+00 -0.00000000000E+00 -0.62280014766E+02  0.62280014766E+02  0.00000000000E+00 0.  1.
         23    2    1    2    0    0  0.57756507166E+01  0.10983688085E+02  0.84994613770E+01  0.93021538733E+02  0.91797419786E+02 0.  0.
         11    1    3    3    0    0 -0.13453009776E+02  0.19384288500E+01 -0.38830234097E+02  0.41140345872E+02  0.00000000000E+00 0.  1.
        -11    1    3    3    0    0  0.19228660493E+02  0.90452592347E+01  0.47329695474E+02  0.51881192861E+02  0.00000000000E+00 0. -1.
         22    1    1    2    0    0 -0.57756507166E+01 -0.10983688085E+02 -0.18095806486E+02  0.21942145691E+02  0.00000000000E+00 0.  1.
<mgrwt>
<rscale>  0 0.56041816E+02</rscale>
<asrwt>0</asrwt>
<pdfrwt beam="1">  1        1 0.81051799E-02 0.92632423E+02</pdfrwt>
<pdfrwt beam="2">  1       -1 0.95815407E-02 0.92632423E+02</pdfrwt>
<totfact> 0.47973627E+04</totfact>
</mgrwt>
</event>
<event>
 6    1  0.3075717E-002  0.9335926E+02  0.7546771E-02  0.1414417E+00
         -2   -1    0    0    0  501 -0.00000000000E+00  0.00000000000E+00  0.62288651629E+01  0.62288651629E+01  0.00000000000E+00 0.  1.
          2   -1    0    0  501    0  0.00000000000E+00 -0.00000000000E+00 -0.45137618372E+03  0.45137618372E+03  0.00000000000E+00 0. -1.
         23    2    1    2    0    0 -0.44695254539E+01  0.11434277558E+02 -0.37909676241E+03  0.39042324087E+03  0.92548540656E+02 0.  0.
         11    1    3    3    0    0 -0.40047388067E+02 -0.56223278753E+01 -0.90275708473E+02  0.98919701789E+02  0.00000000000E+00 0.  1.
        -11    1    3    3    0    0  0.35577862613E+02  0.17056605434E+02 -0.28882105394E+03  0.29150353908E+03  0.00000000000E+00 0. -1.
         22    1    1    2    0    0  0.44695254539E+01 -0.11434277558E+02 -0.66050556146E+02  0.67181808016E+02  0.00000000000E+00 0. -1.
<mgrwt>
<rscale>  0 0.56219786E+02</rscale>
<asrwt>0</asrwt>
<pdfrwt beam="1">  1        2 0.69442513E-01 0.93359262E+02</pdfrwt>
<pdfrwt beam="2">  1       -2 0.95828663E-03 0.93359262E+02</pdfrwt>
<totfact> 0.13644726E+05</totfact>
</mgrwt>
</event>
<event>
 6    1  0.3075717E-002  0.1070020E+03  0.7546771E-02  0.1297500E+00
          2   -1    0    0  501    0  0.00000000000E+00  0.00000000000E+00  0.14302589180E+04  0.14302589180E+04  0.00000000000E+00 0. -1.
         -2   -1    0    0    0  501 -0.00000000000E+00 -0.00000000000E+00 -0.21069406916E+02  0.21069406916E+02  0.00000000000E+00 0.  1.
         23    2    1    2    0    0 -0.50120232281E+02 -0.31327781658E+02  0.13822285563E+04  0.13863640218E+04  0.89196141797E+02 0.  0.
         11    1    3    3    0    0 -0.52179571374E+02 -0.24523229537E+02  0.13750591503E+04  0.13762673298E+04  0.00000000000E+00 0. -1.
        -11    1    3    3    0    0  0.20593390937E+01 -0.68045521209E+01  0.71694060169E+01  0.10096692018E+02  0.00000000000E+00 0.  1.
         22    1    1    2    0    0  0.50120232281E+02  0.31327781658E+02  0.26960954795E+02  0.64964303051E+02  0.00000000000E+00 0.  1.
<mgrwt>
<rscale>  0 0.92246710E+02</rscale>
<asrwt>0</asrwt>
<pdfrwt beam="1">  1        2 0.22003976E+00 0.10700196E+03</pdfrwt>
<pdfrwt beam="2">  1       -2 0.32414483E-02 0.10700196E+03</pdfrwt>
<totfact> 0.54780896E+03</totfact>
</mgrwt>
</event>
<event>
 6    1  0.3075717E-002  0.9104841E+02  0.7546771E-02  0.1432560E+00
         -2   -1    0    0    0  501 -0.00000000000E+00  0.00000000000E+00  0.36545411317E+01  0.36545411317E+01  0.00000000000E+00 0.  1.
          2   -1    0    0  501    0  0.00000000000E+00 -0.00000000000E+00 -0.90447576360E+03  0.90447576360E+03  0.00000000000E+00 0. -1.
         23    2    1    2    0    0  0.61800262180E+01 -0.78955446054E+01 -0.88300334030E+03  0.88768502964E+03  0.90494643558E+02 0.  0.
         11    1    3    3    0    0  0.32612993271E+02 -0.35187071104E+02 -0.34193238756E+03  0.34528176171E+03  0.00000000000E+00 0.  1.
        -11    1    3    3    0    0 -0.26432967053E+02  0.27291526498E+02 -0.54107095274E+03  0.54240326793E+03  0.00000000000E+00 0. -1.
         22    1    1    2    0    0 -0.61800262180E+01  0.78955446054E+01 -0.17817882160E+02  0.20445275086E+02  0.00000000000E+00 0.  1.
<mgrwt>
<rscale>  0 0.52449639E+02</rscale>
<asrwt>0</asrwt>
<pdfrwt beam="1">  1        2 0.13915013E+00 0.91048409E+02</pdfrwt>
<pdfrwt beam="2">  1       -2 0.56223706E-03 0.91048409E+02</pdfrwt>
<totfact> 0.12956993E+05</totfact>
</mgrwt>
</event>
<event>
 6    1  0.3075717E-002  0.9192846E+02  0.7546771E-02  0.1388907E+00
          1   -1    0    0  501    0  0.00000000000E+00  0.00000000000E+00  0.10187810887E+03  0.10187810887E+03  0.00000000000E+00 0. -1.
         -1   -1    0    0    0  501 -0.00000000000E+00 -0.00000000000E+00 -0.31530850232E+02  0.31530850232E+02  0.00000000000E+00 0.  1.
         23    2    1    2    0    0 -0.14695266274E+02  0.12420795620E+02  0.67294219119E+02  0.11392696575E+03  0.89892238728E+02 0.  0.
         11    1    3    3    0    0 -0.40955683994E+02  0.28481570416E+02  0.66503825639E+02  0.83134389572E+02  0.00000000000E+00 0. -1.
        -11    1    3    3    0    0  0.26260417720E+02 -0.16060774796E+02  0.79039348015E+00  0.30792576179E+02  0.00000000000E+00 0.  1.
         22    1    1    2    0    0  0.14695266274E+02 -0.12420795620E+02  0.30530395203E+01  0.19481993353E+02  0.00000000000E+00 0.  1.
<mgrwt>
<rscale>  0 0.62179324E+02</rscale>
<asrwt>0</asrwt>
<pdfrwt beam="1">  1        1 0.15673555E-01 0.91928459E+02</pdfrwt>
<pdfrwt beam="2">  1       -1 0.48509001E-02 0.91928459E+02</pdfrwt>
<totfact> 0.55751540E+04</totfact>
</mgrwt>
</event>
<event>
 6    1  0.3075717E-002  0.9192349E+02  0.7546771E-02  0.1387553E+00
         -1   -1    0    0    0  501 -0.00000000000E+00  0.00000000000E+00  0.43010322216E+02  0.43010322216E+02  0.00000000000E+00 0.  1.
          1   -1    0    0  501    0  0.00000000000E+00 -0.00000000000E+00 -0.10016572343E+03  0.10016572343E+03  0.00000000000E+00 0. -1.
         23    2    1    2    0    0 -0.30882250479E+01 -0.19425103862E+02 -0.73426340108E+02  0.11764929014E+03  0.89794522408E+02 0.  0.
         11    1    3    3    0    0 -0.20070570329E+02 -0.19977419296E+02  0.11849256018E+02  0.30697393102E+02  0.00000000000E+00 0.  1.
        -11    1    3    3    0    0  0.16982345281E+02  0.55231543370E+00 -0.85275596126E+02  0.86951897037E+02  0.00000000000E+00 0. -1.
         22    1    1    2    0    0  0.30882250479E+01  0.19425103862E+02  0.16270938896E+02  0.25526755504E+02  0.00000000000E+00 0.  1.
<mgrwt>
<rscale>  0 0.62519538E+02</rscale>
<asrwt>0</asrwt>
<pdfrwt beam="1">  1        1 0.15410111E-01 0.91923490E+02</pdfrwt>
<pdfrwt beam="2">  1       -1 0.66169727E-02 0.91923490E+02</pdfrwt>
<totfact> 0.36085732E+04</totfact>
</mgrwt>
</event>
<event>
 6    1  0.3075717E-002  0.9526325E+02  0.7546771E-02  0.1398413E+00
          2   -1    0    0  501    0  0.00000000000E+00  0.00000000000E+00  0.20604266909E+03  0.20604266909E+03  0.00000000000E+00 0. -1.
         -2   -1    0    0    0  501 -0.00000000000E+00 -0.00000000000E+00 -0.15360581991E+02  0.15360581991E+02  0.00000000000E+00 0.  1.
         23    2    1    2    0    0  0.11553759691E+02  0.93344261511E+01  0.17792886892E+03  0.20182608458E+03  0.94098167591E+02 0.  0.
         11    1    3    3    0    0  0.21549522728E+02  0.66539314452E+01  0.18682357591E+03  0.18817998100E+03  0.00000000000E+00 0. -1.
        -11    1    3    3    0    0 -0.99957630376E+01  0.26804947059E+01 -0.88947069825E+01  0.13646103579E+02  0.00000000000E+00 0.  1.
         22    1    1    2    0    0 -0.11553759691E+02 -0.93344261511E+01  0.12753218176E+02  0.19577166506E+02  0.00000000000E+00 0.  1.
<mgrwt>
<rscale>  0 0.59861812E+02</rscale>
<asrwt>0</asrwt>
<pdfrwt beam="1">  1        2 0.31698870E-01 0.95263246E+02</pdfrwt>
<pdfrwt beam="2">  1       -2 0.23631666E-02 0.95263246E+02</pdfrwt>
<totfact> 0.86054656E+04</totfact>
</mgrwt>
</event>
<event>
 6    1  0.3075717E-002  0.9774478E+02  0.7546771E-02  0.1333120E+00
          2   -1    0    0  501    0  0.00000000000E+00  0.00000000000E+00  0.60291485756E+03  0.60291485756E+03  0.00000000000E+00 0. -1.
         -2   -1    0    0    0  501 -0.00000000000E+00 -0.00000000000E+00 -0.79644822684E+01  0.79644822684E+01  0.00000000000E+00 0.  1.
         23    2    1    2    0    0 -0.11322171890E+01  0.40820269188E+02  0.41613877513E+03  0.42746406063E+03  0.88805780601E+02 0.  0.
         13    1    3    3    0    0 -0.14287281146E+02 -0.21290900721E+02  0.21549597477E+03  0.21701599940E+03  0.00000000000E+00 0. -1.
        -13    1    3    3    0    0  0.13155063957E+02  0.62111169910E+02  0.20064280037E+03  0.21044806123E+03  0.00000000000E+00 0.  1.
         22    1    1    2    0    0  0.11322171890E+01 -0.40820269188E+02  0.17881160016E+03  0.18341527920E+03  0.00000000000E+00 0.  1.
<mgrwt>
<rscale>  0 0.78583417E+02</rscale>
<asrwt>0</asrwt>
<pdfrwt beam="1">  1        2 0.92756096E-01 0.97744785E+02</pdfrwt>
<pdfrwt beam="2">  1       -2 0.12253054E-02 0.97744785E+02</pdfrwt>
<totfact> 0.70625219E+04</totfact>
</mgrwt>
</event>
<event>
 6    1  0.3075717E-002  0.9354709E+02  0.7546771E-02  0.1399709E+00
         -2   -1    0    0    0  501 -0.00000000000E+00  0.00000000000E+00  0.10508101828E+03  0.10508101828E+03  0.00000000000E+00 0.  1.
          2   -1    0    0  501    0  0.00000000000E+00 -0.00000000000E+00 -0.55869380108E+02  0.55869380108E+02  0.00000000000E+00 0. -1.
         23    2    1    2    0    0  0.16836069850E+01  0.15274096400E+02 -0.15162220130E+02  0.94767876631E+02  0.92276351080E+02 0.  0.
         13    1    3    3    0    0 -0.74407276967E+01  0.15226707819E+02 -0.53104850186E+02  0.55743539293E+02  0.00000000000E+00 0. -1.
        -13    1    3    3    0    0  0.91243346817E+01  0.47388581075E-01  0.37942630056E+02  0.39024337338E+02  0.00000000000E+00 0.  1.
         22    1    1    2    0    0 -0.16836069850E+01 -0.15274096400E+02  0.64373858300E+02  0.66182521754E+02  0.00000000000E+00 0.  1.
<mgrwt>
<rscale>  0 0.59554857E+02</rscale>
<asrwt>0</asrwt>
<pdfrwt beam="1">  1        2 0.85952892E-02 0.93547087E+02</pdfrwt>
<pdfrwt beam="2">  1       -2 0.16166311E-01 0.93547087E+02</pdfrwt>
<totfact> 0.20768153E+04</totfact>
</mgrwt>
</event>
<event>
 6    1  0.3075717E-002  0.9230737E+02  0.7546771E-02  0.1375483E+00
         -2   -1    0    0    0  501 -0.00000000000E+00  0.00000000000E+00  0.45519702086E+02  0.45519702086E+02  0.00000000000E+00 0.  1.
          2   -1    0    0  501    0  0.00000000000E+00 -0.00000000000E+00 -0.87350330376E+02  0.87350330376E+02  0.00000000000E+00 0. -1.
         23    2    1    2    0    0  0.16773405962E+02 -0.16659196265E+02 -0.53303862180E+02  0.10659245526E+03  0.89228772418E+02 0.  0.
         11    1    3    3    0    0 -0.64321849346E+01 -0.31278490511E+02  0.13277544592E+02  0.34583379853E+02  0.00000000000E+00 0.  1.
        -11    1    3    3    0    0  0.23205590896E+02  0.14619294246E+02 -0.66581406772E+02  0.72009075406E+02  0.00000000000E+00 0. -1.
         22    1    1    2    0    0 -0.16773405962E+02  0.16659196265E+02  0.11473233890E+02  0.26277577203E+02  0.00000000000E+00 0.  1.
<mgrwt>
<rscale>  0 0.65666172E+02</rscale>
<asrwt>0</asrwt>
<pdfrwt beam="1">  1        2 0.13438512E-01 0.92307366E+02</pdfrwt>
<pdfrwt beam="2">  1       -2 0.70030311E-02 0.92307366E+02</pdfrwt>
<totfact> 0.44950870E+04</totfact>
</mgrwt>
</event>
<event>
 6    1  0.3075717E-002  0.1089726E+03  0.7546771E-02  0.1295098E+00
         -2   -1    0    0    0  501 -0.00000000000E+00  0.00000000000E+00  0.20306972118E+02  0.20306972118E+02  0.00000000000E+00 0.  1.
          2   -1    0    0  501    0  0.00000000000E+00 -0.00000000000E+00 -0.85431110262E+03  0.85431110262E+03  0.00000000000E+00 0. -1.
         23    2    1    2    0    0 -0.35387336389E+02 -0.46589798931E+02 -0.79909143595E+03  0.80648754427E+03  0.91935646586E+02 0.  0.
         13    1    3    3    0    0 -0.21939776881E+02  0.82220183702E+01 -0.57229757020E+03  0.57277697601E+03  0.00000000000E+00 0. -1.
        -13    1    3    3    0    0 -0.13447559509E+02 -0.54811817301E+02 -0.22679386575E+03  0.23371056826E+03  0.00000000000E+00 0.  1.
         22    1    1    2    0    0  0.35387336389E+02  0.46589798931E+02 -0.34912694555E+02  0.68130530471E+02  0.00000000000E+00 0.  1.
<mgrwt>
<rscale>  0 0.93279659E+02</rscale>
<asrwt>0</asrwt>
<pdfrwt beam="1">  1        2 0.13143250E+00 0.10897264E+03</pdfrwt>
<pdfrwt beam="2">  1       -2 0.31241491E-02 0.10897264E+03</pdfrwt>
<totfact> 0.12249969E+04</totfact>
</mgrwt>
</event>
<event>
 6    1  0.3075717E-002  0.9480194E+02  0.7546771E-02  0.1422551E+00
          4   -1    0    0  501    0  0.00000000000E+00  0.00000000000E+00  0.37966900035E+03  0.37966900035E+03  0.00000000000E+00 0. -1.
         -4   -1    0    0    0  501 -0.00000000000E+00 -0.00000000000E+00 -0.73521280444E+01  0.73521280444E+01  0.00000000000E+00 0.  1.
         23    2    1    2    0    0  0.25044508282E+01  0.10035370627E+02  0.34576147216E+03  0.35852252817E+03  0.94236015625E+02 0.  0.
         11    1    3    3    0    0  0.21741080081E+02 -0.37122513413E+02  0.13470312930E+03  0.14140611234E+03  0.00000000000E+00 0. -1.
        -11    1    3    3    0    0 -0.19236629253E+02  0.47157884040E+02  0.21105834286E+03  0.21711641583E+03  0.00000000000E+00 0.  1.
         22    1    1    2    0    0 -0.25044508282E+01 -0.10035370627E+02  0.26555400141E+02  0.28498600215E+02  0.00000000000E+00 0.  1.
<mgrwt>
<rscale>  0 0.54484907E+02</rscale>
<asrwt>0</asrwt>
<pdfrwt beam="1">  1        4 0.58410600E-01 0.94801939E+02</pdfrwt>
<pdfrwt beam="2">  1       -4 0.11310969E-02 0.94801939E+02</pdfrwt>
<totfact> 0.10097876E+04</totfact>
</mgrwt>
</event>
<event>
 6    1  0.3075717E-002  0.9215285E+02  0.7546771E-02  0.1408707E+00
          2   -1    0    0  501    0  0.00000000000E+00  0.00000000000E+00  0.25550506690E+02  0.25550506690E+02  0.00000000000E+00 0. -1.
         -2   -1    0    0    0  501 -0.00000000000E+00 -0.00000000000E+00 -0.11107229211E+03  0.11107229211E+03  0.00000000000E+00 0.  1.
         23    2    1    2    0    0  0.13368467729E+02 -0.39937512506E+01 -0.78227523650E+02  0.12087884017E+03  0.91090518531E+02 0.  0.
         13    1    3    3    0    0 -0.52746650162E+01  0.68204464335E+01  0.19225833962E+02  0.21070673272E+02  0.00000000000E+00 0. -1.
        -13    1    3    3    0    0  0.18643132745E+02 -0.10814197684E+02 -0.97453357611E+02  0.99808166900E+02  0.00000000000E+00 0.  1.
         22    1    1    2    0    0 -0.13368467729E+02  0.39937512506E+01 -0.72942617664E+01  0.15743958625E+02  0.00000000000E+00 0. -1.
<mgrwt>
<rscale>  0 0.57483453E+02</rscale>
<asrwt>0</asrwt>
<pdfrwt beam="1">  1        2 0.39308471E-02 0.92152854E+02</pdfrwt>
<pdfrwt beam="2">  1       -2 0.17088045E-01 0.92152854E+02</pdfrwt>
<totfact> 0.51302076E+04</totfact>
</mgrwt>
</event>
<event>
 6    1  0.3075717E-002  0.9073289E+02  0.7546771E-02  0.1422485E+00
         -2   -1    0    0    0  501 -0.00000000000E+00  0.00000000000E+00  0.41833718467E+01  0.41833718467E+01  0.00000000000E+00 0.  1.
          2   -1    0    0  501    0  0.00000000000E+00 -0.00000000000E+00 -0.77265786182E+03  0.77265786182E+03  0.00000000000E+00 0. -1.
         23    2    1    2    0    0 -0.86921492437E+01 -0.79951190213E+01 -0.74557621591E+03  0.75107679419E+03  0.89961000710E+02 0.  0.
         11    1    3    3    0    0 -0.87556611028E+00  0.52269310042E+01  0.42462749300E-01  0.52999270581E+01  0.00000000000E+00 0.  1.
        -11    1    3    3    0    0 -0.78165831334E+01 -0.13222050025E+02 -0.74561867866E+03  0.74577686713E+03  0.00000000000E+00 0. -1.
         22    1    1    2    0    0  0.86921492437E+01  0.79951190213E+01 -0.22898274065E+02  0.25764439481E+02  0.00000000000E+00 0. -1.
<mgrwt>
<rscale>  0 0.54498651E+02</rscale>
<asrwt>0</asrwt>
<pdfrwt beam="1">  1        2 0.11887050E+00 0.90732888E+02</pdfrwt>
<pdfrwt beam="2">  1       -2 0.64359537E-03 0.90732888E+02</pdfrwt>
<totfact> 0.13029957E+05</totfact>
</mgrwt>
</event>
<event>
 6    1  0.3075717E-002  0.9230722E+02  0.7546771E-02  0.1384623E+00
          2   -1    0    0  501    0  0.00000000000E+00  0.00000000000E+00  0.23203215242E+03  0.23203215242E+03  0.00000000000E+00 0. -1.
         -2   -1    0    0    0  501 -0.00000000000E+00 -0.00000000000E+00 -0.26092024598E+02  0.26092024598E+02  0.00000000000E+00 0.  1.
         23    2    1    2    0    0  0.14568436664E+02  0.14232414299E+02  0.21637357017E+03  0.23524060905E+03  0.90032334842E+02 0.  0.
         13    1    3    3    0    0  0.44510710571E+02  0.34287903046E+02  0.13664272193E+03  0.14774334877E+03  0.00000000000E+00 0. -1.
        -13    1    3    3    0    0 -0.29942273907E+02 -0.20055488746E+02  0.79730848239E+02  0.87497260280E+02  0.00000000000E+00 0.  1.
         22    1    1    2    0    0 -0.14568436664E+02 -0.14232414299E+02 -0.10433442346E+02  0.22883567965E+02  0.00000000000E+00 0.  1.
<mgrwt>
<rscale>  0 0.63264009E+02</rscale>
<asrwt>0</asrwt>
<pdfrwt beam="1">  1        2 0.35697253E-01 0.92307217E+02</pdfrwt>
<pdfrwt beam="2">  1       -2 0.40141578E-02 0.92307217E+02</pdfrwt>
<totfact> 0.34909314E+04</totfact>
</mgrwt>
</event>
<event>
 6    1  0.3075717E-002  0.9249360E+02  0.7546771E-02  0.1395897E+00
          2   -1    0    0  501    0  0.00000000000E+00  0.00000000000E+00  0.18974241348E+03  0.18974241348E+03  0.00000000000E+00 0.  1.
         -2   -1    0    0    0  501 -0.00000000000E+00 -0.00000000000E+00 -0.20896649913E+02  0.20896649913E+02  0.00000000000E+00 0. -1.
         23    2    1    2    0    0 -0.73226325694E+01 -0.15220495737E+02  0.17018505280E+03  0.19369568316E+03  0.90938336462E+02 0.  0.
         11    1    3    3    0    0 -0.23573560907E+02 -0.22058305861E+01  0.17122064654E+03  0.17284990096E+03  0.00000000000E+00 0.  1.
        -11    1    3    3    0    0  0.16250928338E+02 -0.13014665151E+02 -0.10355937375E+01  0.20845782192E+02  0.00000000000E+00 0. -1.
         22    1    1    2    0    0  0.73226325694E+01  0.15220495737E+02 -0.13392892331E+01  0.16943380237E+02  0.00000000000E+00 0. -1.
<mgrwt>
<rscale>  0 0.60463532E+02</rscale>
<asrwt>0</asrwt>
<pdfrwt beam="1">  1        2 0.29191139E-01 0.92493597E+02</pdfrwt>
<pdfrwt beam="2">  1       -2 0.32148693E-02 0.92493597E+02</pdfrwt>
<totfact> 0.59874485E+04</totfact>
</mgrwt>
</event>
<event>
 6    1  0.3075717E-002  0.8992939E+02  0.7546771E-02  0.1405545E+00
         -2   -1    0    0    0  501 -0.00000000000E+00  0.00000000000E+00  0.29807271325E+02  0.29807271325E+02  0.00000000000E+00 0.  1.
          2   -1    0    0  501    0  0.00000000000E+00 -0.00000000000E+00 -0.95890563911E+02  0.95890563911E+02  0.00000000000E+00 0. -1.
         23    2    1    2    0    0 -0.91555073306E+01  0.12846951255E+02 -0.48874512453E+02  0.10235239490E+03  0.88534893136E+02 0.  0.
         11    1    3    3    0    0  0.31176985651E+02 -0.19061728444E+02 -0.30956163839E+02  0.47891940921E+02  0.00000000000E+00 0. -1.
        -11    1    3    3    0    0 -0.40332492981E+02  0.31908679699E+02 -0.17918348615E+02  0.54460453976E+02  0.00000000000E+00 0.  1.
         22    1    1    2    0    0  0.91555073306E+01 -0.12846951255E+02 -0.17208780132E+02  0.23345440339E+02  0.00000000000E+00 0.  1.
<mgrwt>
<rscale>  0 0.58199901E+02</rscale>
<asrwt>0</asrwt>
<pdfrwt beam="1">  1        2 0.14752395E-01 0.89929388E+02</pdfrwt>
<pdfrwt beam="2">  1       -2 0.45857340E-02 0.89929388E+02</pdfrwt>
<totfact> 0.75687022E+04</totfact>
</mgrwt>
</event>
<event>
 6    1  0.3075717E-002  0.9430029E+02  0.7546771E-02  0.1367311E+00
         -2   -1    0    0    0  501 -0.00000000000E+00  0.00000000000E+00  0.48364500464E+01  0.48364500464E+01  0.00000000000E+00 0.  1.
          2   -1    0    0  501    0  0.00000000000E+00 -0.00000000000E+00 -0.19500235296E+04  0.19500235296E+04  0.00000000000E+00 0. -1.
         23    2    1    2    0    0 -0.13011614687E+02 -0.21788895208E+02 -0.19049859185E+04  0.19073185091E+04  0.90821183870E+02 0.  0.
         11    1    3    3    0    0 -0.17473421301E+02  0.33770975458E+02 -0.67467764377E+03  0.67574826839E+03  0.00000000000E+00 0.  1.
        -11    1    3    3    0    0  0.44618066140E+01 -0.55559870666E+02 -0.12303082747E+04  0.12315702407E+04  0.00000000000E+00 0. -1.
         22    1    1    2    0    0  0.13011614687E+02  0.21788895208E+02 -0.40201161084E+02  0.47541470566E+02  0.00000000000E+00 0.  1.
<mgrwt>
<rscale>  0 0.67920428E+02</rscale>
<asrwt>0</asrwt>
<pdfrwt beam="1">  1        2 0.30000353E+00 0.94300294E+02</pdfrwt>
<pdfrwt beam="2">  1       -2 0.74406947E-03 0.94300294E+02</pdfrwt>
<totfact> 0.24455400E+04</totfact>
</mgrwt>
</event>
<event>
 6    1  0.3075717E-002  0.1013206E+03  0.7546771E-02  0.1325344E+00
          2   -1    0    0  501    0  0.00000000000E+00  0.00000000000E+00  0.96824303933E+03  0.96824303933E+03  0.00000000000E+00 0. -1.
         -2   -1    0    0    0  501 -0.00000000000E+00 -0.00000000000E+00 -0.99047254249E+01  0.99047254249E+01  0.00000000000E+00 0.  1.
         23    2    1    2    0    0  0.21464939155E+02 -0.36152940370E+02  0.90291008846E+03  0.90857717552E+03  0.92185016804E+02 0.  0.
         11    1    3    3    0    0  0.48053366323E+02 -0.26770963084E+02  0.79956541188E+03  0.80145533771E+03  0.00000000000E+00 0. -1.
        -11    1    3    3    0    0 -0.26588427168E+02 -0.93819772867E+01  0.10334467659E+03  0.10712183781E+03  0.00000000000E+00 0.  1.
         22    1    1    2    0    0 -0.21464939155E+02  0.36152940370E+02  0.55428225441E+02  0.69570589230E+02  0.00000000000E+00 0.  1.
<mgrwt>
<rscale>  0 0.81320806E+02</rscale>
<asrwt>0</asrwt>
<pdfrwt beam="1">  1        2 0.14896039E+00 0.10132056E+03</pdfrwt>
<pdfrwt beam="2">  1       -2 0.15238047E-02 0.10132056E+03</pdfrwt>
<totfact> 0.29230846E+04</totfact>
</mgrwt>
</event>
<event>
 6    1  0.3075717E-002  0.9681342E+02  0.7546771E-02  0.1364518E+00
          2   -1    0    0  501    0  0.00000000000E+00  0.00000000000E+00  0.14660363787E+04  0.14660363787E+04  0.00000000000E+00 0. -1.
         -2   -1    0    0    0  501 -0.00000000000E+00 -0.00000000000E+00 -0.28051964934E+01  0.28051964934E+01  0.00000000000E+00 0.  1.
         23    2    1    2    0    0  0.10784767432E+02  0.22076318336E+02  0.13176287086E+04  0.13211806279E+04  0.93643807746E+02 0.  0.
         13    1    3    3    0    0  0.30322939774E+02  0.25325773785E+02  0.12521199957E+04  0.12527431338E+04  0.00000000000E+00 0. -1.
        -13    1    3    3    0    0 -0.19538172341E+02 -0.32494554495E+01  0.65508712883E+02  0.68437494129E+02  0.00000000000E+00 0.  1.
         22    1    1    2    0    0 -0.10784767432E+02 -0.22076318336E+02  0.14560247358E+03  0.14766094728E+03  0.00000000000E+00 0.  1.
<mgrwt>
<rscale>  0 0.68715081E+02</rscale>
<asrwt>0</asrwt>
<pdfrwt beam="1">  1        2 0.22554345E+00 0.96813417E+02</pdfrwt>
<pdfrwt beam="2">  1       -2 0.43156986E-03 0.96813417E+02</pdfrwt>
<totfact> 0.92580900E+04</totfact>
</mgrwt>
</event>
<event>
 6    1  0.3075717E-002  0.9061455E+02  0.7546771E-02  0.1412632E+00
          2   -1    0    0  501    0  0.00000000000E+00  0.00000000000E+00  0.23340818062E+03  0.23340818062E+03  0.00000000000E+00 0. -1.
         -2   -1    0    0    0  501 -0.00000000000E+00 -0.00000000000E+00 -0.20104548815E+02  0.20104548815E+02  0.00000000000E+00 0.  1.
         23    2    1    2    0    0  0.12392420057E+02 -0.60805005100E+01  0.22017556753E+03  0.23809299980E+03  0.89556973248E+02 0.  0.
         11    1    3    3    0    0  0.29611359715E+02  0.35077204618E+02  0.11711402644E+03  0.12578926065E+03  0.00000000000E+00 0. -1.
        -11    1    3    3    0    0 -0.17218939658E+02 -0.41157705128E+02  0.10306154109E+03  0.11230373915E+03  0.00000000000E+00 0.  1.
         22    1    1    2    0    0 -0.12392420057E+02  0.60805005100E+01 -0.68719357234E+01  0.15419729632E+02  0.00000000000E+00 0.  1.
<mgrwt>
<rscale>  0 0.56610633E+02</rscale>
<asrwt>0</asrwt>
<pdfrwt beam="1">  1        2 0.35908949E-01 0.90614546E+02</pdfrwt>
<pdfrwt beam="2">  1       -2 0.30930077E-02 0.90614546E+02</pdfrwt>
<totfact> 0.50681480E+04</totfact>
</mgrwt>
</event>
<event>
 6    1  0.3075717E-002  0.9843024E+02  0.7546771E-02  0.1348908E+00
         -2   -1    0    0    0  501 -0.00000000000E+00  0.00000000000E+00  0.20281999834E+02  0.20281999834E+02  0.00000000000E+00 0.  1.
          2   -1    0    0  501    0  0.00000000000E+00 -0.00000000000E+00 -0.17704821206E+04  0.17704821206E+04  0.00000000000E+00 0. -1.
         23    2    1    2    0    0  0.26394344571E+02  0.15147599602E+02 -0.17568572387E+04  0.17596124204E+04  0.93607699304E+02 0.  0.
         11    1    3    3    0    0  0.70733510313E+01 -0.24420955670E+02 -0.13733799231E+04  0.13736152404E+04  0.00000000000E+00 0. -1.
        -11    1    3    3    0    0  0.19320993540E+02  0.39568555272E+02 -0.38347731560E+03  0.38599717996E+03  0.00000000000E+00 0.  1.
         22    1    1    2    0    0 -0.26394344571E+02 -0.15147599602E+02  0.66571179584E+01  0.31151700091E+02  0.00000000000E+00 0.  1.
<mgrwt>
<rscale>  0 0.73397169E+02</rscale>
<asrwt>0</asrwt>
<pdfrwt beam="1">  1        2 0.27238198E+00 0.98430242E+02</pdfrwt>
<pdfrwt beam="2">  1       -2 0.31203064E-02 0.98430242E+02</pdfrwt>
<totfact> 0.38764151E+03</totfact>
</mgrwt>
</event>
<event>
 6    1  0.3075717E-002  0.9371216E+02  0.7546771E-02  0.1364797E+00
          4   -1    0    0  501    0  0.00000000000E+00  0.00000000000E+00  0.60767711261E+02  0.60767711261E+02  0.00000000000E+00 0. -1.
         -4   -1    0    0    0  501 -0.00000000000E+00 -0.00000000000E+00 -0.60824233842E+02  0.60824233842E+02  0.00000000000E+00 0.  1.
         23    2    1    2    0    0  0.22243331501E+02  0.15242446864E+02 -0.62661667675E+01  0.93921425347E+02  0.89748934872E+02 0.  0.
         13    1    3    3    0    0  0.56890344117E+02  0.15848451706E+02 -0.43252539385E+01  0.59214799644E+02  0.00000000000E+00 0.  1.
        -13    1    3    3    0    0 -0.34647012616E+02 -0.60600484274E+00 -0.19409128290E+01  0.34706625703E+02  0.00000000000E+00 0. -1.
         22    1    1    2    0    0 -0.22243331501E+02 -0.15242446864E+02  0.62096441863E+01  0.27670519756E+02  0.00000000000E+00 0. -1.
<mgrwt>
<rscale>  0 0.68635071E+02</rscale>
<asrwt>0</asrwt>
<pdfrwt beam="1">  1        4 0.93488786E-02 0.93712162E+02</pdfrwt>
<pdfrwt beam="2">  1       -4 0.93575745E-02 0.93712162E+02</pdfrwt>
<totfact> 0.10570540E+04</totfact>
</mgrwt>
</event>
<event>
 6    1  0.3075717E-002  0.1017799E+03  0.7546771E-02  0.1325748E+00
         -2   -1    0    0    0  501 -0.00000000000E+00  0.00000000000E+00  0.13463184389E+03  0.13463184389E+03  0.00000000000E+00 0.  1.
          2   -1    0    0  501    0  0.00000000000E+00 -0.00000000000E+00 -0.53587041351E+02  0.53587041351E+02  0.00000000000E+00 0. -1.
         23    2    1    2    0    0  0.19761305395E+02  0.36132226123E+02  0.10017616411E+03  0.14280901901E+03  0.93075802978E+02 0.  0.
         13    1    3    3    0    0 -0.32779391174E+02 -0.73332923612E+01  0.33356774644E+02  0.47338568602E+02  0.00000000000E+00 0. -1.
        -13    1    3    3    0    0  0.52540696569E+02  0.43465518484E+02  0.66819389470E+02  0.95470450413E+02  0.00000000000E+00 0.  1.
         22    1    1    2    0    0 -0.19761305395E+02 -0.36132226123E+02 -0.19131361571E+02  0.45409866230E+02  0.00000000000E+00 0.  1.
<mgrwt>
<rscale>  0 0.81175750E+02</rscale>
<asrwt>0</asrwt>
<pdfrwt beam="1">  1        2 0.82441602E-02 0.10177992E+03</pdfrwt>
<pdfrwt beam="2">  1       -2 0.20712591E-01 0.10177992E+03</pdfrwt>
<totfact> 0.14628286E+04</totfact>
</mgrwt>
</event>
<event>
 6    1  0.3075717E-002  0.9446164E+02  0.7546771E-02  0.1384828E+00
         -2   -1    0    0    0  501 -0.00000000000E+00  0.00000000000E+00  0.74589255636E+01  0.74589255636E+01  0.00000000000E+00 0. -1.
          2   -1    0    0  501    0  0.00000000000E+00 -0.00000000000E+00 -0.43380733107E+03  0.43380733107E+03  0.00000000000E+00 0.  1.
         23    2    1    2    0    0  0.35129016450E+01 -0.18613156816E+02 -0.36741276240E+03  0.37936149016E+03  0.92543028653E+02 0.  0.
         11    1    3    3    0    0  0.10995180048E+02 -0.44399503898E+02 -0.93015536104E+02  0.10365374999E+03  0.00000000000E+00 0. -1.
        -11    1    3    3    0    0 -0.74822784027E+01  0.25786347082E+02 -0.27439722630E+03  0.27570774016E+03  0.00000000000E+00 0.  1.
         22    1    1    2    0    0 -0.35129016450E+01  0.18613156816E+02 -0.58935643100E+02  0.61904766474E+02  0.00000000000E+00 0.  1.
<mgrwt>
<rscale>  0 0.63211585E+02</rscale>
<asrwt>0</asrwt>
<pdfrwt beam="1">  1        2 0.66739608E-01 0.94461644E+02</pdfrwt>
<pdfrwt beam="2">  1       -2 0.11475267E-02 0.94461644E+02</pdfrwt>
<totfact> 0.11043280E+05</totfact>
</mgrwt>
</event>
<event>
 6    1  0.3075717E-002  0.9345256E+02  0.7546771E-02  0.1416417E+00
          2   -1    0    0  501    0  0.00000000000E+00  0.00000000000E+00  0.38829019299E+03  0.38829019299E+03  0.00000000000E+00 0. -1.
         -2   -1    0    0    0  501 -0.00000000000E+00 -0.00000000000E+00 -0.73243812798E+01  0.73243812798E+01  0.00000000000E+00 0.  1.
         23    2    1    2    0    0 -0.95926755126E+01 -0.69856921003E+01  0.35448364887E+03  0.36659519684E+03  0.92696071730E+02 0.  0.
         13    1    3    3    0    0 -0.18570913064E+02 -0.73285879046E+01  0.10618747453E+02  0.22612934577E+02  0.00000000000E+00 0.  1.
        -13    1    3    3    0    0  0.89782375514E+01  0.34289580428E+00  0.34386490141E+03  0.34398226226E+03  0.00000000000E+00 0. -1.
         22    1    1    2    0    0  0.95926755126E+01  0.69856921003E+01  0.26482162847E+02  0.29019377435E+02  0.00000000000E+00 0. -1.
<mgrwt>
<rscale>  0 0.55786123E+02</rscale>
<asrwt>0</asrwt>
<pdfrwt beam="1">  1        2 0.59736937E-01 0.93452560E+02</pdfrwt>
<pdfrwt beam="2">  1       -2 0.11268282E-02 0.93452560E+02</pdfrwt>
<totfact> 0.12720263E+05</totfact>
</mgrwt>
</event>
<event>
 6    1  0.3075717E-002  0.9522060E+02  0.7546771E-02  0.1390060E+00
          2   -1    0    0  501    0  0.00000000000E+00  0.00000000000E+00  0.15083097827E+03  0.15083097827E+03  0.00000000000E+00 0. -1.
         -2   -1    0    0    0  501 -0.00000000000E+00 -0.00000000000E+00 -0.20874864410E+02  0.20874864410E+02  0.00000000000E+00 0.  1.
         23    2    1    2    0    0  0.47192467443E+01  0.16327393589E+02  0.11100262166E+03  0.14624823208E+03  0.93691559375E+02 0.  0.
         11    1    3    3    0    0  0.18623561210E+02  0.10882033212E+02 -0.10389206392E+02  0.23941413668E+02  0.00000000000E+00 0.  1.
        -11    1    3    3    0    0 -0.13904314466E+02  0.54453603771E+01  0.12139182806E+03  0.12230681841E+03  0.00000000000E+00 0. -1.
         22    1    1    2    0    0 -0.47192467443E+01 -0.16327393589E+02  0.18953492200E+02  0.25457610607E+02  0.00000000000E+00 0. -1.
<mgrwt>
<rscale>  0 0.61891812E+02</rscale>
<asrwt>0</asrwt>
<pdfrwt beam="1">  1        2 0.23204765E-01 0.95220604E+02</pdfrwt>
<pdfrwt beam="2">  1       -2 0.32115177E-02 0.95220604E+02</pdfrwt>
<totfact> 0.77249956E+04</totfact>
</mgrwt>
</event>
<event>
 6    1  0.3075717E-002  0.9217208E+02  0.7546771E-02  0.1383882E+00
          4   -1    0    0  501    0  0.00000000000E+00  0.00000000000E+00  0.58890980136E+02  0.58890980136E+02  0.00000000000E+00 0. -1.
         -4   -1    0    0    0  501 -0.00000000000E+00 -0.00000000000E+00 -0.13750560910E+03  0.13750560910E+03  0.00000000000E+00 0.  1.
         23    2    1    2    0    0  0.14984548161E+02  0.14286275892E+02  0.21099154678E+02  0.94556160080E+02  0.89816806436E+02 0.  0.
         11    1    3    3    0    0 -0.12455367015E+02  0.47052171110E+02  0.17273694233E+02  0.51647105302E+02  0.00000000000E+00 0. -1.
        -11    1    3    3    0    0  0.27439915176E+02 -0.32765895218E+02  0.38254604457E+01  0.42909054778E+02  0.00000000000E+00 0.  1.
         22    1    1    2    0    0 -0.14984548161E+02 -0.14286275892E+02 -0.99713783641E+02  0.10184042916E+03  0.00000000000E+00 0.  1.
<mgrwt>
<rscale>  0 0.63454208E+02</rscale>
<asrwt>0</asrwt>
<pdfrwt beam="1">  1        4 0.90601509E-02 0.92172084E+02</pdfrwt>
<pdfrwt beam="2">  1       -4 0.21154709E-01 0.92172084E+02</pdfrwt>
<totfact> 0.27175212E+03</totfact>
</mgrwt>
</event>
<event>
 6    1  0.3075717E-002  0.9134694E+02  0.7546771E-02  0.1415679E+00
         -2   -1    0    0    0  501 -0.00000000000E+00  0.00000000000E+00  0.39883370932E+02  0.39883370932E+02  0.00000000000E+00 0.  1.
          2   -1    0    0  501    0  0.00000000000E+00 -0.00000000000E+00 -0.70529541676E+02  0.70529541676E+02  0.00000000000E+00 0. -1.
         23    2    1    2    0    0 -0.18465907390E+01  0.12718986914E+02 -0.33413084028E+02  0.97266113203E+02  0.90438266613E+02 0.  0.
         11    1    3    3    0    0  0.77469198461E+01 -0.35212690030E+02 -0.32244245758E+02  0.48369822108E+02  0.00000000000E+00 0. -1.
        -11    1    3    3    0    0 -0.95935105851E+01  0.47931676944E+02 -0.11688382701E+01  0.48896291095E+02  0.00000000000E+00 0.  1.
         22    1    1    2    0    0  0.18465907390E+01 -0.12718986914E+02  0.27669132832E+01  0.13146799405E+02  0.00000000000E+00 0.  1.
<mgrwt>
<rscale>  0 0.55945608E+02</rscale>
<asrwt>0</asrwt>
<pdfrwt beam="1">  1        2 0.10850699E-01 0.91346935E+02</pdfrwt>
<pdfrwt beam="2">  1       -2 0.61359033E-02 0.91346935E+02</pdfrwt>
<totfact> 0.70629713E+04</totfact>
</mgrwt>
</event>
<event>
 6    1  0.3075717E-002  0.9350232E+02  0.7546771E-02  0.1363773E+00
         -2   -1    0    0    0  501 -0.00000000000E+00  0.00000000000E+00  0.13119226953E+03  0.13119226953E+03  0.00000000000E+00 0.  1.
          2   -1    0    0  501    0  0.00000000000E+00 -0.00000000000E+00 -0.35976943367E+02  0.35976943367E+02  0.00000000000E+00 0. -1.
         23    2    1    2    0    0 -0.26801112444E+02 -0.66549755309E+01  0.33093415064E+02  0.99185978448E+02  0.89331382350E+02 0.  0.
         13    1    3    3    0    0 -0.20890184413E+02 -0.73224050266E-01 -0.29401890388E+02  0.36067663148E+02  0.00000000000E+00 0. -1.
        -13    1    3    3    0    0 -0.59109280316E+01 -0.65817514807E+01  0.62495305452E+02  0.63118315300E+02  0.00000000000E+00 0.  1.
         22    1    1    2    0    0  0.26801112444E+02  0.66549755309E+01  0.62121911097E+02  0.67983234447E+02  0.00000000000E+00 0.  1.
<mgrwt>
<rscale>  0 0.68929173E+02</rscale>
<asrwt>0</asrwt>
<pdfrwt beam="1">  1        2 0.55349144E-02 0.93502322E+02</pdfrwt>
<pdfrwt beam="2">  1       -2 0.20183426E-01 0.93502322E+02</pdfrwt>
<totfact> 0.25017952E+04</totfact>
</mgrwt>
</event>
<event>
 6    1  0.3075717E-002  0.9167833E+02  0.7546771E-02  0.1421983E+00
          4   -1    0    0  501    0  0.00000000000E+00  0.00000000000E+00  0.12427600057E+02  0.12427600057E+02  0.00000000000E+00 0. -1.
         -4   -1    0    0    0  501 -0.00000000000E+00 -0.00000000000E+00 -0.23278496769E+03  0.23278496769E+03  0.00000000000E+00 0.  1.
         23    2    1    2    0    0  0.11489465065E+02  0.10444743723E+01 -0.16589552873E+03  0.18954219294E+03  0.90949533912E+02 0.  0.
         11    1    3    3    0    0 -0.97395050837E+01  0.59485737699E+01 -0.16731893588E+03  0.16770769152E+03  0.00000000000E+00 0.  1.
        -11    1    3    3    0    0  0.21228970148E+02 -0.49040993976E+01  0.14234071555E+01  0.21834501423E+02  0.00000000000E+00 0. -1.
         22    1    1    2    0    0 -0.11489465065E+02 -0.10444743723E+01 -0.54461838904E+02  0.55670374805E+02  0.00000000000E+00 0.  1.
<mgrwt>
<rscale>  0 0.54603662E+02</rscale>
<asrwt>0</asrwt>
<pdfrwt beam="1">  1        4 0.19119385E-02 0.91678331E+02</pdfrwt>
<pdfrwt beam="2">  1       -4 0.35813072E-01 0.91678331E+02</pdfrwt>
<totfact> 0.11988830E+04</totfact>
</mgrwt>
</event>
<event>
 6    1  0.3075717E-002  0.9379821E+02  0.7546771E-02  0.1389502E+00
          2   -1    0    0  501    0  0.00000000000E+00  0.00000000000E+00  0.78743355476E+03  0.78743355476E+03  0.00000000000E+00 0. -1.
         -2   -1    0    0    0  501 -0.00000000000E+00 -0.00000000000E+00 -0.39991192817E+01  0.39991192817E+01  0.00000000000E+00 0.  1.
         23    2    1    2    0    0 -0.11379150554E+02 -0.13870339860E+02  0.68263568431E+03  0.68904976711E+03  0.92066457860E+02 0.  0.
         13    1    3    3    0    0 -0.23602305228E+02 -0.48404574843E+02  0.49096733629E+03  0.49391193242E+03  0.00000000000E+00 0. -1.
        -13    1    3    3    0    0  0.12223154673E+02  0.34534234983E+02  0.19166834802E+03  0.19513783469E+03  0.00000000000E+00 0.  1.
         22    1    1    2    0    0  0.11379150554E+02  0.13870339860E+02  0.10079875117E+03  0.10238290694E+03  0.00000000000E+00 0.  1.
<mgrwt>
<rscale>  0 0.62030632E+02</rscale>
<asrwt>0</asrwt>
<pdfrwt beam="1">  1        2 0.12114350E+00 0.93798209E+02</pdfrwt>
<pdfrwt beam="2">  1       -2 0.61524975E-03 0.93798209E+02</pdfrwt>
<totfact> 0.13631526E+05</totfact>
</mgrwt>
</event>
<event>
 6    1  0.3075717E-002  0.9162546E+02  0.7546771E-02  0.1420553E+00
          2   -1    0    0  501    0  0.00000000000E+00  0.00000000000E+00  0.91326357965E+02  0.91326357965E+02  0.00000000000E+00 0. -1.
         -2   -1    0    0    0  501 -0.00000000000E+00 -0.00000000000E+00 -0.29365516437E+02  0.29365516437E+02  0.00000000000E+00 0.  1.
         23    2    1    2    0    0 -0.87875253960E+01  0.78950826197E+01  0.56781064806E+02  0.10779292022E+03  0.90860725269E+02 0.  0.
         13    1    3    3    0    0  0.21236228746E+02  0.19181099046E+02 -0.12667880041E+02  0.31294842334E+02  0.00000000000E+00 0.  1.
        -13    1    3    3    0    0 -0.30023754142E+02 -0.11286016426E+02  0.69448944847E+02  0.76498077884E+02  0.00000000000E+00 0. -1.
         22    1    1    2    0    0  0.87875253960E+01 -0.78950826197E+01  0.51797767223E+01  0.12898954184E+02  0.00000000000E+00 0.  1.
<mgrwt>
<rscale>  0 0.54904063E+02</rscale>
<asrwt>0</asrwt>
<pdfrwt beam="1">  1        2 0.14050209E-01 0.91625457E+02</pdfrwt>
<pdfrwt beam="2">  1       -2 0.45177718E-02 0.91625457E+02</pdfrwt>
<totfact> 0.82119698E+04</totfact>
</mgrwt>
</event>
<event>
 6    1  0.3075717E-002  0.8928766E+02  0.7546771E-02  0.1399761E+00
         -2   -1    0    0    0  501 -0.00000000000E+00  0.00000000000E+00  0.17158946196E+02  0.17158946196E+02  0.00000000000E+00 0.  1.
          2   -1    0    0  501    0  0.00000000000E+00 -0.00000000000E+00 -0.20845619909E+03  0.20845619909E+03  0.00000000000E+00 0. -1.
         23    2    1    2    0    0 -0.52196594495E+01 -0.16868755669E+02 -0.18732483932E+03  0.20751597867E+03  0.87524203602E+02 0.  0.
         13    1    3    3    0    0 -0.24017816530E+02 -0.45424732671E+02 -0.81881418487E+02  0.96668653361E+02  0.00000000000E+00 0.  1.
        -13    1    3    3    0    0  0.18798157081E+02  0.28555977002E+02 -0.10544342083E+03  0.11084732531E+03  0.00000000000E+00 0. -1.
         22    1    1    2    0    0  0.52196594495E+01  0.16868755669E+02 -0.39724135793E+01  0.18099166617E+02  0.00000000000E+00 0.  1.
<mgrwt>
<rscale>  0 0.59542635E+02</rscale>
<asrwt>0</asrwt>
<pdfrwt beam="1">  1        2 0.32070183E-01 0.89287659E+02</pdfrwt>
<pdfrwt beam="2">  1       -2 0.26398380E-02 0.89287659E+02</pdfrwt>
<totfact> 0.71745209E+04</totfact>
</mgrwt>
</event>
<event>
 6    1  0.3075717E-002  0.9501591E+02  0.7546771E-02  0.1317022E+00
         -1   -1    0    0    0  501 -0.00000000000E+00  0.00000000000E+00  0.13294390774E+03  0.13294390774E+03  0.00000000000E+00 0.  1.
          1   -1    0    0  501    0  0.00000000000E+00 -0.00000000000E+00 -0.90311117147E+02  0.90311117147E+02  0.00000000000E+00 0. -1.
         23    2    1    2    0    0 -0.56950400691E+02 -0.15941398893E+02  0.10204110362E+03  0.13942887149E+03  0.74367647804E+02 0.  0.
         13    1    3    3    0    0 -0.39021118405E+02 -0.45239292064E+02  0.73870920493E+02  0.95006074135E+02  0.00000000000E+00 0. -1.
        -13    1    3    3    0    0 -0.17929282286E+02  0.29297893172E+02  0.28170183127E+02  0.44422797357E+02  0.00000000000E+00 0.  1.
         22    1    1    2    0    0  0.56950400691E+02  0.15941398893E+02 -0.59408313023E+02  0.83826153400E+02  0.00000000000E+00 0.  1.
<mgrwt>
<rscale>  0 0.84394977E+02</rscale>
<asrwt>0</asrwt>
<pdfrwt beam="1">  1        1 0.13894018E-01 0.95015911E+02</pdfrwt>
<pdfrwt beam="2">  1       -1 0.20452909E-01 0.95015911E+02</pdfrwt>
<totfact> 0.73675641E+03</totfact>
</mgrwt>
</event>
<event>
 6    1  0.3075717E-002  0.9678664E+02  0.7546771E-02  0.1347959E+00
         -1   -1    0    0    0  501 -0.00000000000E+00  0.00000000000E+00  0.44250411048E+01  0.44250411048E+01  0.00000000000E+00 0.  1.
          1   -1    0    0  501    0  0.00000000000E+00 -0.00000000000E+00 -0.18225500983E+04  0.18225500983E+04  0.00000000000E+00 0. -1.
         23    2    1    2    0    0  0.53954340210E+01  0.32081888878E+02 -0.17351962622E+04  0.17378934727E+04  0.91155338965E+02 0.  0.
         13    1    3    3    0    0 -0.27241292819E+02  0.48377130880E+02 -0.12944944592E+04  0.12956845063E+04  0.00000000000E+00 0. -1.
        -13    1    3    3    0    0  0.32636726840E+02 -0.16295242002E+02 -0.44070180297E+03  0.44220896643E+03  0.00000000000E+00 0.  1.
         22    1    1    2    0    0 -0.53954340210E+01 -0.32081888878E+02 -0.82928794987E+02  0.89081666690E+02  0.00000000000E+00 0.  1.
<mgrwt>
<rscale>  0 0.73695447E+02</rscale>
<asrwt>0</asrwt>
<pdfrwt beam="1">  1        1 0.28039242E+00 0.96786642E+02</pdfrwt>
<pdfrwt beam="2">  1       -1 0.68077533E-03 0.96786642E+02</pdfrwt>
<totfact> 0.13742994E+04</totfact>
</mgrwt>
</event>
<event>
 6    1  0.3075717E-002  0.9831334E+02  0.7546771E-02  0.1413386E+00
         -2   -1    0    0    0  501 -0.00000000000E+00  0.00000000000E+00  0.13871244832E+02  0.13871244832E+02  0.00000000000E+00 0.  1.
          2   -1    0    0  501    0  0.00000000000E+00 -0.00000000000E+00 -0.26154120111E+03  0.26154120111E+03  0.00000000000E+00 0. -1.
         23    2    1    2    0    0 -0.77126771091E+01 -0.73911029114E+01 -0.24557937893E+03  0.26452739638E+03  0.97731255421E+02 0.  0.
         11    1    3    3    0    0  0.10089242090E+02  0.23827162275E+02 -0.12577007526E+02  0.28769907652E+02  0.00000000000E+00 0.  1.
        -11    1    3    3    0    0 -0.17801919199E+02 -0.31218265186E+02 -0.23300237141E+03  0.23575748872E+03  0.00000000000E+00 0. -1.
         22    1    1    2    0    0  0.77126771091E+01  0.73911029114E+01 -0.20905773473E+01  0.10885049567E+02  0.00000000000E+00 0.  1.
<mgrwt>
<rscale>  0 0.56445145E+02</rscale>
<asrwt>0</asrwt>
<pdfrwt beam="1">  1        2 0.40237110E-01 0.98313336E+02</pdfrwt>
<pdfrwt beam="2">  1       -2 0.21340376E-02 0.98313336E+02</pdfrwt>
<totfact> 0.77810173E+04</totfact>
</mgrwt>
</event>
<event>
 6    1  0.3075717E-002  0.9287878E+02  0.7546771E-02  0.1413483E+00
         -2   -1    0    0    0  501 -0.00000000000E+00  0.00000000000E+00  0.30879302606E+02  0.30879302606E+02  0.00000000000E+00 0.  1.
          2   -1    0    0  501    0  0.00000000000E+00 -0.00000000000E+00 -0.29396824136E+03  0.29396824136E+03  0.00000000000E+00 0. -1.
         23    2    1    2    0    0  0.12441467999E+02  0.22887526608E+01 -0.28488687791E+03  0.29964479281E+03  0.92013260671E+02 0.  0.
         13    1    3    3    0    0 -0.10591960665E+02 -0.47405799886E+01 -0.27215855432E+03  0.27240583955E+03  0.00000000000E+00 0. -1.
        -13    1    3    3    0    0  0.23033428664E+02  0.70293326494E+01 -0.12728323587E+02  0.27238953263E+02  0.00000000000E+00 0.  1.
         22    1    1    2    0    0 -0.12441467999E+02 -0.22887526608E+01  0.21797939152E+02  0.25202751159E+02  0.00000000000E+00 0.  1.
<mgrwt>
<rscale>  0 0.56423765E+02</rscale>
<asrwt>0</asrwt>
<pdfrwt beam="1">  1        2 0.45225884E-01 0.92878785E+02</pdfrwt>
<pdfrwt beam="2">  1       -2 0.47506618E-02 0.92878785E+02</pdfrwt>
<totfact> 0.21248417E+04</totfact>
</mgrwt>
</event>
<event>
 6    1  0.3075717E-002  0.9123581E+02  0.7546771E-02  0.1415472E+00
         -2   -1    0    0    0  501 -0.00000000000E+00  0.00000000000E+00  0.73685633772E+01  0.73685633772E+01  0.00000000000E+00 0.  1.
          2   -1    0    0  501    0  0.00000000000E+00 -0.00000000000E+00 -0.38195617420E+03  0.38195617420E+03  0.00000000000E+00 0. -1.
         23    2    1    2    0    0 -0.96402410252E+01 -0.86331994545E+01 -0.34791216408E+03  0.35967603038E+03  0.90313379583E+02 0.  0.
         13    1    3    3    0    0  0.16959287164E+02  0.11616355620E+02 -0.15907194509E+02  0.25992229149E+02  0.00000000000E+00 0.  1.
        -13    1    3    3    0    0 -0.26599528189E+02 -0.20249555074E+02 -0.33200496957E+03  0.33368380123E+03  0.00000000000E+00 0. -1.
         22    1    1    2    0    0  0.96402410252E+01  0.86331994545E+01 -0.26675446745E+02  0.29648707205E+02  0.00000000000E+00 0. -1.
<mgrwt>
<rscale>  0 0.55990578E+02</rscale>
<asrwt>0</asrwt>
<pdfrwt beam="1">  1        2 0.58762487E-01 0.91235809E+02</pdfrwt>
<pdfrwt beam="2">  1       -2 0.11336252E-02 0.91235809E+02</pdfrwt>
<totfact> 0.12785216E+05</totfact>
</mgrwt>
</event>
<event>
 6    1  0.3075717E-002  0.9155996E+02  0.7546771E-02  0.1376154E+00
         -4   -1    0    0    0  501 -0.00000000000E+00  0.00000000000E+00  0.10212553694E+02  0.10212553694E+02  0.00000000000E+00 0.  1.
          4   -1    0    0  501    0  0.00000000000E+00 -0.00000000000E+00 -0.33814926438E+03  0.33814926438E+03  0.00000000000E+00 0. -1.
         23    2    1    2    0    0 -0.17126778722E+02  0.16753982031E+02 -0.28291653969E+03  0.29736340379E+03  0.88369695135E+02 0.  0.
         13    1    3    3    0    0 -0.28284951532E+02  0.40272596061E+02 -0.25284558953E+03  0.25759039698E+03  0.00000000000E+00 0. -1.
        -13    1    3    3    0    0  0.11158172809E+02 -0.23518614029E+02 -0.30070950169E+02  0.39773006806E+02  0.00000000000E+00 0.  1.
         22    1    1    2    0    0  0.17126778722E+02 -0.16753982031E+02 -0.45020170997E+02  0.50998414288E+02  0.00000000000E+00 0.  1.
<mgrwt>
<rscale>  0 0.65485522E+02</rscale>
<asrwt>0</asrwt>
<pdfrwt beam="1">  1        4 0.52022970E-01 0.91559956E+02</pdfrwt>
<pdfrwt beam="2">  1       -4 0.15711619E-02 0.91559956E+02</pdfrwt>
<totfact> 0.77273316E+03</totfact>
</mgrwt>
</event>
<event>
 6    1  0.3075717E-002  0.8882899E+02  0.7546771E-02  0.1426438E+00
          1   -1    0    0  501    0  0.00000000000E+00  0.00000000000E+00  0.53887145589E+03  0.53887145589E+03  0.00000000000E+00 0. -1.
         -1   -1    0    0    0  501 -0.00000000000E+00 -0.00000000000E+00 -0.47386296465E+01  0.47386296465E+01  0.00000000000E+00 0.  1.
         23    2    1    2    0    0  0.11744185528E+02 -0.15648046674E+01  0.48512028145E+03  0.49318584479E+03  0.88035308390E+02 0.  0.
         11    1    3    3    0    0  0.38603959207E+02  0.91736740238E+00  0.43089628377E+03  0.43262306295E+03  0.00000000000E+00 0. -1.
        -11    1    3    3    0    0 -0.26859773679E+02 -0.24821720698E+01  0.54223997681E+02  0.60562781845E+02  0.00000000000E+00 0.  1.
         22    1    1    2    0    0 -0.11744185528E+02  0.15648046674E+01  0.49012544800E+02  0.50424240750E+02  0.00000000000E+00 0. -1.
<mgrwt>
<rscale>  0 0.53681802E+02</rscale>
<asrwt>0</asrwt>
<pdfrwt beam="1">  1        1 0.82903252E-01 0.88828993E+02</pdfrwt>
<pdfrwt beam="2">  1       -1 0.72902037E-03 0.88828993E+02</pdfrwt>
<totfact> 0.10475395E+05</totfact>
</mgrwt>
</event>
<event>
 6    1  0.3075717E-002  0.9471722E+02  0.7546771E-02  0.1394303E+00
          2   -1    0    0  501    0  0.00000000000E+00  0.00000000000E+00  0.10203798074E+04  0.10203798074E+04  0.00000000000E+00 0. -1.
         -2   -1    0    0    0  501 -0.00000000000E+00 -0.00000000000E+00 -0.32189920129E+01  0.32189920129E+01  0.00000000000E+00 0.  1.
         23    2    1    2    0    0  0.14662298851E+02  0.67308091429E+01  0.94057903850E+03  0.94533606658E+03  0.93333082622E+02 0.  0.
         13    1    3    3    0    0 -0.32730959647E+02  0.24585635323E+02  0.30369340123E+03  0.30643996334E+03  0.00000000000E+00 0.  1.
        -13    1    3    3    0    0  0.47393258498E+02 -0.17854826181E+02  0.63688563727E+03  0.63889610323E+03  0.00000000000E+00 0. -1.
         22    1    1    2    0    0 -0.14662298851E+02 -0.67308091429E+01  0.76581776887E+02  0.78262732833E+02  0.00000000000E+00 0.  1.
<mgrwt>
<rscale>  0 0.60848967E+02</rscale>
<asrwt>0</asrwt>
<pdfrwt beam="1">  1        2 0.15698125E+00 0.94717217E+02</pdfrwt>
<pdfrwt beam="2">  1       -2 0.49523035E-03 0.94717217E+02</pdfrwt>
<totfact> 0.13267666E+05</totfact>
</mgrwt>
</event>
<event>
 6    1  0.3075717E-002  0.9566701E+02  0.7546771E-02  0.1420571E+00
          2   -1    0    0  501    0  0.00000000000E+00  0.00000000000E+00  0.14917283100E+04  0.14917283100E+04  0.00000000000E+00 0. -1.
         -2   -1    0    0    0  501 -0.00000000000E+00 -0.00000000000E+00 -0.37796486825E+01  0.37796486825E+01  0.00000000000E+00 0.  1.
         23    2    1    2    0    0 -0.51396197951E+01 -0.90131543152E+01  0.14781313436E+04  0.14812239687E+04  0.95102702186E+02 0.  0.
         11    1    3    3    0    0  0.21533887969E+02  0.31487216650E+02  0.97884931364E+03  0.97959232947E+03  0.00000000000E+00 0. -1.
        -11    1    3    3    0    0 -0.26673507764E+02 -0.40500370965E+02  0.49928202994E+03  0.50163163924E+03  0.00000000000E+00 0.  1.
         22    1    1    2    0    0  0.51396197951E+01  0.90131543152E+01  0.98173177773E+01  0.14283990013E+02  0.00000000000E+00 0.  1.
<mgrwt>
<rscale>  0 0.54900302E+02</rscale>
<asrwt>0</asrwt>
<pdfrwt beam="1">  1        2 0.22949619E+00 0.95667009E+02</pdfrwt>
<pdfrwt beam="2">  1       -2 0.58148560E-03 0.95667009E+02</pdfrwt>
<totfact> 0.59025117E+04</totfact>
</mgrwt>
</event>
<event>
 6    1  0.3075717E-002  0.8509828E+02  0.7546771E-02  0.1418562E+00
         -2   -1    0    0    0  501 -0.00000000000E+00  0.00000000000E+00  0.67016252092E+01  0.67016252092E+01  0.00000000000E+00 0.  1.
          2   -1    0    0  501    0  0.00000000000E+00 -0.00000000000E+00 -0.37752433023E+03  0.37752433023E+03  0.00000000000E+00 0. -1.
         23    2    1    2    0    0  0.13388022546E+02 -0.72060742413E+01 -0.32444915571E+03  0.33542357097E+03  0.83729031234E+02 0.  0.
         13    1    3    3    0    0  0.23631965704E+02  0.98339230550E+01 -0.30947900887E+03  0.31053571901E+03  0.00000000000E+00 0. -1.
        -13    1    3    3    0    0 -0.10243943158E+02 -0.17039997296E+02 -0.14970146834E+02  0.24887851967E+02  0.00000000000E+00 0.  1.
         22    1    1    2    0    0 -0.13388022546E+02  0.72060742413E+01 -0.46373549310E+02  0.48802384463E+02  0.00000000000E+00 0. -1.
<mgrwt>
<rscale>  0 0.55326250E+02</rscale>
<asrwt>0</asrwt>
<pdfrwt beam="1">  1        2 0.58080669E-01 0.85098280E+02</pdfrwt>
<pdfrwt beam="2">  1       -2 0.10310192E-02 0.85098280E+02</pdfrwt>
<totfact> 0.14640744E+05</totfact>
</mgrwt>
</event>
<event>
 6    1  0.3075717E-002  0.9100945E+02  0.7546771E-02  0.1428251E+00
          2   -1    0    0  501    0  0.00000000000E+00  0.00000000000E+00  0.34047846765E+03  0.34047846765E+03  0.00000000000E+00 0. -1.
         -2   -1    0    0    0  501 -0.00000000000E+00 -0.00000000000E+00 -0.13044797631E+02  0.13044797631E+02  0.00000000000E+00 0.  1.
         23    2    1    2    0    0  0.25205198040E+01  0.10416127589E+02  0.33015281375E+03  0.34246693331E+03  0.90376275946E+02 0.  0.
         13    1    3    3    0    0 -0.20964883066E+01 -0.53435523662E+01  0.32528912904E+03  0.32533977053E+03  0.00000000000E+00 0. -1.
        -13    1    3    3    0    0  0.46170081106E+01  0.15759679955E+02  0.48636847079E+01  0.17127162787E+02  0.00000000000E+00 0.  1.
         22    1    1    2    0    0 -0.25205198040E+01 -0.10416127589E+02 -0.27191437254E+01  0.11056331970E+02  0.00000000000E+00 0. -1.
<mgrwt>
<rscale>  0 0.53312696E+02</rscale>
<asrwt>0</asrwt>
<pdfrwt beam="1">  1        2 0.52381296E-01 0.91009450E+02</pdfrwt>
<pdfrwt beam="2">  1       -2 0.20068922E-02 0.91009450E+02</pdfrwt>
<totfact> 0.63811941E+04</totfact>
</mgrwt>
</event>
<event>
 6    1  0.3075717E-002  0.9144873E+02  0.7546771E-02  0.1429842E+00
         -2   -1    0    0    0  501 -0.00000000000E+00  0.00000000000E+00  0.53465902988E+01  0.53465902988E+01  0.00000000000E+00 0.  1.
          2   -1    0    0  501    0  0.00000000000E+00 -0.00000000000E+00 -0.48885622965E+03  0.48885622965E+03  0.00000000000E+00 0. -1.
         23    2    1    2    0    0 -0.66547409694E+01  0.78758814781E+01 -0.44737039304E+03  0.45662143879E+03  0.90865585898E+02 0.  0.
         11    1    3    3    0    0 -0.15729125141E+02 -0.52292863644E+01 -0.43762379432E+03  0.43793759392E+03  0.00000000000E+00 0. -1.
        -11    1    3    3    0    0  0.90743841714E+01  0.13105167842E+02 -0.97465987225E+01  0.18683844865E+02  0.00000000000E+00 0.  1.
         22    1    1    2    0    0  0.66547409694E+01 -0.78758814781E+01 -0.36139246308E+02  0.37581381163E+02  0.00000000000E+00 0.  1.
<mgrwt>
<rscale>  0 0.52991671E+02</rscale>
<asrwt>0</asrwt>
<pdfrwt beam="1">  1        2 0.75208675E-01 0.91448728E+02</pdfrwt>
<pdfrwt beam="2">  1       -2 0.82255209E-03 0.91448728E+02</pdfrwt>
<totfact> 0.15495427E+05</totfact>
</mgrwt>
</event>
<event>
 6    1  0.3075717E-002  0.9299834E+02  0.7546771E-02  0.1413550E+00
          1   -1    0    0  501    0  0.00000000000E+00  0.00000000000E+00  0.69611345440E+03  0.69611345440E+03  0.00000000000E+00 0. -1.
         -1   -1    0    0    0  501 -0.00000000000E+00 -0.00000000000E+00 -0.43649128706E+01  0.43649128706E+01  0.00000000000E+00 0.  1.
         23    2    1    2    0    0  0.80711763351E+01 -0.96603996455E+01  0.65639957735E+03  0.66295482164E+03  0.92142407018E+02 0.  0.
         11    1    3    3    0    0  0.22352273440E+02  0.14284766978E+01  0.63293997174E+03  0.63333614495E+03  0.00000000000E+00 0. -1.
        -11    1    3    3    0    0 -0.14281097105E+02 -0.11088876343E+02  0.23459605615E+02  0.29618676687E+02  0.00000000000E+00 0.  1.
         22    1    1    2    0    0 -0.80711763351E+01  0.96603996455E+01  0.35348964181E+02  0.37523545640E+02  0.00000000000E+00 0. -1.
<mgrwt>
<rscale>  0 0.56409053E+02</rscale>
<asrwt>0</asrwt>
<pdfrwt beam="1">  1        1 0.10709429E+00 0.92998335E+02</pdfrwt>
<pdfrwt beam="2">  1       -1 0.67152561E-03 0.92998335E+02</pdfrwt>
<totfact> 0.83748550E+04</totfact>
</mgrwt>
</event>
<event>
 6    1  0.3075717E-002  0.9614588E+02  0.7546771E-02  0.1382605E+00
          2   -1    0    0  501    0  0.00000000000E+00  0.00000000000E+00  0.10055418917E+04  0.10055418917E+04  0.00000000000E+00 0. -1.
         -2   -1    0    0    0  501 -0.00000000000E+00 -0.00000000000E+00 -0.36454702787E+01  0.36454702787E+01  0.00000000000E+00 0.  1.
         23    2    1    2    0    0 -0.54534820264E+01  0.17806870943E+02  0.92851742248E+03  0.93348199490E+03  0.94325001110E+02 0.  0.
         11    1    3    3    0    0  0.22073780295E+02  0.42460538809E+02  0.29223573893E+03  0.29612814158E+03  0.00000000000E+00 0.  1.
        -11    1    3    3    0    0 -0.27527262321E+02 -0.24653667866E+02  0.63628168355E+03  0.63735385331E+03  0.00000000000E+00 0. -1.
         22    1    1    2    0    0  0.54534820264E+01 -0.17806870943E+02  0.73378998959E+02  0.75705367097E+02  0.00000000000E+00 0.  1.
<mgrwt>
<rscale>  0 0.63784013E+02</rscale>
<asrwt>0</asrwt>
<pdfrwt beam="1">  1        2 0.15469853E+00 0.96145884E+02</pdfrwt>
<pdfrwt beam="2">  1       -2 0.56084238E-03 0.96145884E+02</pdfrwt>
<totfact> 0.11388214E+05</totfact>
</mgrwt>
</event>
<event>
 6    1  0.3075717E-002  0.9525745E+02  0.7546771E-02  0.1358048E+00
         -1   -1    0    0    0  501 -0.00000000000E+00  0.00000000000E+00  0.12837589853E+02  0.12837589853E+02  0.00000000000E+00 0. -1.
          1   -1    0    0  501    0  0.00000000000E+00 -0.00000000000E+00 -0.50546311662E+03  0.50546311662E+03  0.00000000000E+00 0.  1.
         23    2    1    2    0    0 -0.31104390181E+00  0.28748546785E+02 -0.47526132979E+03  0.48471364011E+03  0.90815227905E+02 0.  0.
         13    1    3    3    0    0 -0.31771146663E+02  0.54974455461E+00 -0.36894025859E+03  0.37030611984E+03  0.00000000000E+00 0.  1.
        -13    1    3    3    0    0  0.31460102761E+02  0.28198802230E+02 -0.10632107120E+03  0.11440752027E+03  0.00000000000E+00 0. -1.
         22    1    1    2    0    0  0.31104390181E+00 -0.28748546785E+02 -0.17364196979E+02  0.33587066369E+02  0.00000000000E+00 0. -1.
<mgrwt>
<rscale>  0 0.70604850E+02</rscale>
<asrwt>0</asrwt>
<pdfrwt beam="1">  1        1 0.77763562E-01 0.95257448E+02</pdfrwt>
<pdfrwt beam="2">  1       -1 0.19750137E-02 0.95257448E+02</pdfrwt>
<totfact> 0.28026428E+04</totfact>
</mgrwt>
</event>
<event>
 6    1  0.3075717E-002  0.9008674E+02  0.7546771E-02  0.1423090E+00
         -2   -1    0    0    0  501 -0.00000000000E+00  0.00000000000E+00  0.13036084951E+01  0.13036084951E+01  0.00000000000E+00 0.  1.
          2   -1    0    0  501    0  0.00000000000E+00 -0.00000000000E+00 -0.30736246104E+04  0.30736246104E+04  0.00000000000E+00 0. -1.
         23    2    1    2    0    0 -0.11557116063E+02  0.30572265777E+01 -0.30163410882E+04  0.30176860639E+04  0.89290013686E+02 0.  0.
         11    1    3    3    0    0  0.28324143596E+01 -0.36106335493E+02 -0.21836470275E+04  0.21839473507E+04  0.00000000000E+00 0. -1.
        -11    1    3    3    0    0 -0.14389530423E+02  0.39163562071E+02 -0.83269406065E+03  0.83373871316E+03  0.00000000000E+00 0.  1.
         22    1    1    2    0    0  0.11557116063E+02 -0.30572265777E+01 -0.55979913744E+02  0.57242154998E+02  0.00000000000E+00 0. -1.
<mgrwt>
<rscale>  0 0.54372565E+02</rscale>
<asrwt>0</asrwt>
<pdfrwt beam="1">  1        2 0.47286514E+00 0.90086737E+02</pdfrwt>
<pdfrwt beam="2">  1       -2 0.20055523E-03 0.90086737E+02</pdfrwt>
<totfact> 0.38596259E+04</totfact>
</mgrwt>
</event>
<event>
 6    1  0.3075717E-002  0.9335458E+02  0.7546771E-02  0.1418216E+00
          2   -1    0    0  501    0  0.00000000000E+00  0.00000000000E+00  0.76684251305E+02  0.76684251305E+02  0.00000000000E+00 0. -1.
         -2   -1    0    0    0  501 -0.00000000000E+00 -0.00000000000E+00 -0.41920224396E+02  0.41920224396E+02  0.00000000000E+00 0.  1.
         23    2    1    2    0    0 -0.38724779333E+00  0.11571573772E+02  0.44554674796E+02  0.10344175607E+03  0.92633830608E+02 0.  0.
         11    1    3    3    0    0 -0.18893555350E+02  0.26800441988E+02  0.64437749111E+02  0.72301131630E+02  0.00000000000E+00 0. -1.
        -11    1    3    3    0    0  0.18506307557E+02 -0.15228868216E+02 -0.19883074315E+02  0.31140624444E+02  0.00000000000E+00 0.  1.
         22    1    1    2    0    0  0.38724779333E+00 -0.11571573772E+02 -0.97906478871E+01  0.15162719626E+02  0.00000000000E+00 0.  1.
<mgrwt>
<rscale>  0 0.55400106E+02</rscale>
<asrwt>0</asrwt>
<pdfrwt beam="1">  1        2 0.11797577E-01 0.93354581E+02</pdfrwt>
<pdfrwt beam="2">  1       -2 0.64492653E-02 0.93354581E+02</pdfrwt>
<totfact> 0.59472254E+04</totfact>
</mgrwt>
</event>
<event>
 6    1  0.3075717E-002  0.9248732E+02  0.7546771E-02  0.1426215E+00
         -2   -1    0    0    0  501 -0.00000000000E+00  0.00000000000E+00  0.13347885715E+03  0.13347885715E+03  0.00000000000E+00 0.  1.
          2   -1    0    0  501    0  0.00000000000E+00 -0.00000000000E+00 -0.20613564654E+02  0.20613564654E+02  0.00000000000E+00 0. -1.
         23    2    1    2    0    0  0.19930157664E+01  0.10342340280E+02  0.90637275145E+02  0.12949524982E+03  0.91885624370E+02 0.  0.
         11    1    3    3    0    0 -0.44259744118E+02 -0.23012577484E+01  0.47983949135E+02  0.65319829387E+02  0.00000000000E+00 0. -1.
        -11    1    3    3    0    0  0.46252759884E+02  0.12643598028E+02  0.42653326010E+02  0.64175420433E+02  0.00000000000E+00 0.  1.
         22    1    1    2    0    0 -0.19930157664E+01 -0.10342340280E+02  0.22228017353E+02  0.24597171987E+02  0.00000000000E+00 0.  1.
<mgrwt>
<rscale>  0 0.53727392E+02</rscale>
<asrwt>0</asrwt>
<pdfrwt beam="1">  1        2 0.31713177E-02 0.92487318E+02</pdfrwt>
<pdfrwt beam="2">  1       -2 0.20535208E-01 0.92487318E+02</pdfrwt>
<totfact> 0.50185777E+04</totfact>
</mgrwt>
</event>
<event>
 6    1  0.3075717E-002  0.9163597E+02  0.7546771E-02  0.1423169E+00
         -2   -1    0    0    0  501 -0.00000000000E+00  0.00000000000E+00  0.61506394484E+02  0.61506394484E+02  0.00000000000E+00 0.  1.
          2   -1    0    0  501    0  0.00000000000E+00 -0.00000000000E+00 -0.46594660491E+02  0.46594660491E+02  0.00000000000E+00 0. -1.
         23    2    1    2    0    0  0.98635029896E+01 -0.56048853442E+01  0.30488378568E+01  0.91686679091E+02  0.90931008349E+02 0.  0.
         13    1    3    3    0    0  0.11863667582E+02 -0.80081291280E+01  0.46228629548E+02  0.48393831534E+02  0.00000000000E+00 0.  1.
        -13    1    3    3    0    0 -0.20001645929E+01  0.24032437838E+01 -0.43179791691E+02  0.43292847557E+02  0.00000000000E+00 0. -1.
         22    1    1    2    0    0 -0.98635029896E+01  0.56048853442E+01  0.11862896136E+02  0.16414375884E+02  0.00000000000E+00 0. -1.
<mgrwt>
<rscale>  0 0.54356097E+02</rscale>
<asrwt>0</asrwt>
<pdfrwt beam="1">  1        2 0.71684093E-02 0.91635974E+02</pdfrwt>
<pdfrwt beam="2">  1       -2 0.94625223E-02 0.91635974E+02</pdfrwt>
<totfact> 0.60746705E+04</totfact>
</mgrwt>
</event>
<event>
 6    1  0.3075717E-002  0.9194241E+02  0.7546771E-02  0.1424335E+00
         -2   -1    0    0    0  501 -0.00000000000E+00  0.00000000000E+00  0.25361349810E+01  0.25361349810E+01  0.00000000000E+00 0.  1.
          2   -1    0    0  501    0  0.00000000000E+00 -0.00000000000E+00 -0.11493075138E+04  0.11493075138E+04  0.00000000000E+00 0. -1.
         23    2    1    2    0    0 -0.67120785332E+01  0.87565474412E+01 -0.10978649301E+04  0.11017081339E+04  0.91278028821E+02 0.  0.
         13    1    3    3    0    0  0.22762846413E+02  0.12511644425E+02 -0.97458233698E+02  0.10086027830E+03  0.00000000000E+00 0.  1.
        -13    1    3    3    0    0 -0.29474924946E+02 -0.37550969839E+01 -0.10004066964E+04  0.10008478556E+04  0.00000000000E+00 0. -1.
         22    1    1    2    0    0  0.67120785332E+01 -0.87565474412E+01 -0.48906448805E+02  0.50135514918E+02  0.00000000000E+00 0.  1.
<mgrwt>
<rscale>  0 0.54114200E+02</rscale>
<asrwt>0</asrwt>
<pdfrwt beam="1">  1        2 0.17681663E+00 0.91942415E+02</pdfrwt>
<pdfrwt beam="2">  1       -2 0.39017441E-03 0.91942415E+02</pdfrwt>
<totfact> 0.15596146E+05</totfact>
</mgrwt>
</event>
<event>
 6    1  0.3075717E-002  0.9095924E+02  0.7546771E-02  0.1424258E+00
         -2   -1    0    0    0  501 -0.00000000000E+00  0.00000000000E+00  0.10929138732E+02  0.10929138732E+02  0.00000000000E+00 0.  1.
          2   -1    0    0  501    0  0.00000000000E+00 -0.00000000000E+00 -0.27374086095E+03  0.27374086095E+03  0.00000000000E+00 0. -1.
         23    2    1    2    0    0  0.11306694077E+02  0.15181311175E+01 -0.25527744482E+03  0.27099844568E+03  0.90240997737E+02 0.  0.
         11    1    3    3    0    0  0.14548163616E+02 -0.37380146841E+02 -0.19573254172E+03  0.19980028111E+03  0.00000000000E+00 0. -1.
        -11    1    3    3    0    0 -0.32414695387E+01  0.38898277958E+02 -0.59544903097E+02  0.71198164567E+02  0.00000000000E+00 0.  1.
         22    1    1    2    0    0 -0.11306694077E+02 -0.15181311175E+01 -0.75342774025E+01  0.13671554009E+02  0.00000000000E+00 0.  1.
<mgrwt>
<rscale>  0 0.54130121E+02</rscale>
<asrwt>0</asrwt>
<pdfrwt beam="1">  1        2 0.42113975E-01 0.90959242E+02</pdfrwt>
<pdfrwt beam="2">  1       -2 0.16814061E-02 0.90959242E+02</pdfrwt>
<totfact> 0.10328771E+05</totfact>
</mgrwt>
</event>
<event>
 6    1  0.3075717E-002  0.9269493E+02  0.7546771E-02  0.1365571E+00
          2   -1    0    0  501    0  0.00000000000E+00  0.00000000000E+00  0.22733543053E+04  0.22733543053E+04  0.00000000000E+00 0. -1.
         -2   -1    0    0    0  501 -0.00000000000E+00 -0.00000000000E+00 -0.22777367171E+01  0.22777367171E+01  0.00000000000E+00 0.  1.
         23    2    1    2    0    0  0.19409179181E+02  0.19488798250E+02  0.21229964702E+04  0.21250191441E+04  0.88520170860E+02 0.  0.
         11    1    3    3    0    0  0.48187836151E+01 -0.15288260029E+02  0.17592065440E+04  0.17592795730E+04  0.00000000000E+00 0. -1.
        -11    1    3    3    0    0  0.14590395566E+02  0.34777058278E+02  0.36378992623E+03  0.36573957108E+03  0.00000000000E+00 0.  1.
         22    1    1    2    0    0 -0.19409179181E+02 -0.19488798250E+02  0.14808009838E+03  0.15061289795E+03  0.00000000000E+00 0.  1.
<mgrwt>
<rscale>  0 0.68414037E+02</rscale>
<asrwt>0</asrwt>
<pdfrwt beam="1">  1        2 0.34974500E+00 0.92694931E+02</pdfrwt>
<pdfrwt beam="2">  1       -2 0.35042285E-03 0.92694931E+02</pdfrwt>
<totfact> 0.48170106E+04</totfact>
</mgrwt>
</event>
<event>
 6    1  0.3075717E-002  0.9271932E+02  0.7546771E-02  0.1401125E+00
         -2   -1    0    0    0  501 -0.00000000000E+00  0.00000000000E+00  0.51279763897E+01  0.51279763897E+01  0.00000000000E+00 0.  1.
          2   -1    0    0  501    0  0.00000000000E+00 -0.00000000000E+00 -0.57027267031E+03  0.57027267031E+03  0.00000000000E+00 0. -1.
         23    2    1    2    0    0  0.15282479696E+02 -0.21436872383E+01 -0.48599283159E+03  0.49475843139E+03  0.91426054757E+02 0.  0.
         11    1    3    3    0    0  0.85499621252E+01 -0.25639491213E+02 -0.41073432171E+02  0.49168203062E+02  0.00000000000E+00 0.  1.
        -11    1    3    3    0    0  0.67325175706E+01  0.23495803975E+02 -0.44491939942E+03  0.44559022833E+03  0.00000000000E+00 0. -1.
         22    1    1    2    0    0 -0.15282479696E+02  0.21436872383E+01 -0.79151862331E+02  0.80642215316E+02  0.00000000000E+00 0. -1.
<mgrwt>
<rscale>  0 0.59222116E+02</rscale>
<asrwt>0</asrwt>
<pdfrwt beam="1">  1        2 0.87734256E-01 0.92719324E+02</pdfrwt>
<pdfrwt beam="2">  1       -2 0.78891945E-03 0.92719324E+02</pdfrwt>
<totfact> 0.13921399E+05</totfact>
</mgrwt>
</event>
<event>
 6    1  0.3075717E-002  0.9100863E+02  0.7546771E-02  0.1415168E+00
          2   -1    0    0  501    0  0.00000000000E+00  0.00000000000E+00  0.13582162879E+02  0.13582162879E+02  0.00000000000E+00 0. -1.
         -2   -1    0    0    0  501 -0.00000000000E+00 -0.00000000000E+00 -0.21809141809E+03  0.21809141809E+03  0.00000000000E+00 0.  1.
         23    2    1    2    0    0  0.54925868055E+01  0.11892261252E+02 -0.14863282992E+03  0.17428221149E+03  0.90060961157E+02 0.  0.
         13    1    3    3    0    0 -0.38475309308E+01  0.50684560764E+02 -0.76465145456E+02  0.91818552938E+02  0.00000000000E+00 0.  1.
        -13    1    3    3    0    0  0.93401177363E+01 -0.38792299513E+02 -0.72167684469E+02  0.82463658556E+02  0.00000000000E+00 0. -1.
         22    1    1    2    0    0 -0.54925868055E+01 -0.11892261252E+02 -0.55876425283E+02  0.57391369472E+02  0.00000000000E+00 0. -1.
<mgrwt>
<rscale>  0 0.56056351E+02</rscale>
<asrwt>0</asrwt>
<pdfrwt beam="1">  1        2 0.20895636E-02 0.91008632E+02</pdfrwt>
<pdfrwt beam="2">  1       -2 0.33552525E-01 0.91008632E+02</pdfrwt>
<totfact> 0.37107574E+04</totfact>
</mgrwt>
</event>
<event>
 6    1  0.3075717E-002  0.2091625E+03  0.7546771E-02  0.1146733E+00
          2   -1    0    0  501    0  0.00000000000E+00  0.00000000000E+00  0.99853890190E+03  0.99853890190E+03  0.00000000000E+00 0. -1.
         -2   -1    0    0    0  501 -0.00000000000E+00 -0.00000000000E+00 -0.11146987788E+03  0.11146987788E+03  0.00000000000E+00 0.  1.
         23    2    1    2    0    0 -0.18422126750E+03 -0.36485141535E+02  0.89785855303E+03  0.92189962295E+03  0.92088504084E+02 0.  0.
         13    1    3    3    0    0 -0.17312481058E+03 -0.29093411524E+02  0.88833375161E+03  0.90551393191E+03  0.00000000000E+00 0. -1.
        -13    1    3    3    0    0 -0.11096456916E+02 -0.73917300110E+01  0.95248014246E+01  0.16385691039E+02  0.00000000000E+00 0.  1.
         22    1    1    2    0    0  0.18422126750E+03  0.36485141535E+02 -0.10789529008E+02  0.18810915684E+03  0.00000000000E+00 0.  1.
<mgrwt>
<rscale>  0 0.20360404E+03</rscale>
<asrwt>0</asrwt>
<pdfrwt beam="1">  1        2 0.15362136E+00 0.20916246E+03</pdfrwt>
<pdfrwt beam="2">  1       -2 0.17149213E-01 0.20916246E+03</pdfrwt>
<totfact> 0.72453899E+02</totfact>
</mgrwt>
</event>
<event>
 6    1  0.3075717E-002  0.9001518E+02  0.7546771E-02  0.1421401E+00
         -2   -1    0    0    0  501 -0.00000000000E+00  0.00000000000E+00  0.11704689939E+03  0.11704689939E+03  0.00000000000E+00 0.  1.
          2   -1    0    0  501    0  0.00000000000E+00 -0.00000000000E+00 -0.22648821626E+02  0.22648821626E+02  0.00000000000E+00 0. -1.
         23    2    1    2    0    0 -0.35728514451E+01  0.11766966949E+02  0.77402022436E+02  0.11871733511E+03  0.89171216203E+02 0.  0.
         13    1    3    3    0    0 -0.73616914062E+01  0.50485261241E+02  0.46574483015E+02  0.69080667129E+02  0.00000000000E+00 0. -1.
        -13    1    3    3    0    0  0.37888399611E+01 -0.38718294293E+02  0.30827539422E+02  0.49636667978E+02  0.00000000000E+00 0.  1.
         22    1    1    2    0    0  0.35728514451E+01 -0.11766966949E+02  0.16996055323E+02  0.20978385905E+02  0.00000000000E+00 0.  1.
<mgrwt>
<rscale>  0 0.54725584E+02</rscale>
<asrwt>0</asrwt>
<pdfrwt beam="1">  1        2 0.34844342E-02 0.90015180E+02</pdfrwt>
<pdfrwt beam="2">  1       -2 0.18007215E-01 0.90015180E+02</pdfrwt>
<totfact> 0.54945051E+04</totfact>
</mgrwt>
</event>
<event>
 6    1  0.3075717E-002  0.1270508E+03  0.7546771E-02  0.1251715E+00
         -2   -1    0    0    0  501 -0.00000000000E+00  0.00000000000E+00  0.44340164543E+02  0.44340164543E+02  0.00000000000E+00 0.  1.
          2   -1    0    0  501    0  0.00000000000E+00 -0.00000000000E+00 -0.40192911346E+03  0.40192911346E+03  0.00000000000E+00 0. -1.
         23    2    1    2    0    0  0.51396180372E+02 -0.67769978483E+02 -0.33497434033E+03  0.35825929072E+03  0.94379941537E+02 0.  0.
         11    1    3    3    0    0  0.28138803363E+02 -0.39495396847E+02 -0.45560484908E+02  0.66538984151E+02  0.00000000000E+00 0.  1.
        -11    1    3    3    0    0  0.23257377009E+02 -0.28274581636E+02 -0.28941385543E+03  0.29172030657E+03  0.00000000000E+00 0. -1.
         22    1    1    2    0    0 -0.51396180372E+02  0.67769978483E+02 -0.22614608586E+02  0.88009987286E+02  0.00000000000E+00 0. -1.
<mgrwt>
<rscale>  0 0.11492326E+03</rscale>
<asrwt>0</asrwt>
<pdfrwt beam="1">  1        2 0.61835248E-01 0.12705082E+03</pdfrwt>
<pdfrwt beam="2">  1       -2 0.68215638E-02 0.12705082E+03</pdfrwt>
<totfact> 0.91178696E+03</totfact>
</mgrwt>
</event>
<event>
 6    1  0.3075717E-002  0.1077474E+03  0.7546771E-02  0.1294689E+00
         -1   -1    0    0    0  501 -0.00000000000E+00  0.00000000000E+00  0.62680626835E+02  0.62680626835E+02  0.00000000000E+00 0.  1.
          1   -1    0    0  501    0  0.00000000000E+00 -0.00000000000E+00 -0.16854046839E+03  0.16854046839E+03  0.00000000000E+00 0. -1.
         23    2    1    2    0    0 -0.25718660863E+02  0.55298636963E+02  0.14892490280E+01  0.10775767548E+03  0.88826291126E+02 0.  0.
         13    1    3    3    0    0  0.20514426109E+02  0.46376250320E+02  0.23368810861E+02  0.55836364435E+02  0.00000000000E+00 0. -1.
        -13    1    3    3    0    0 -0.46233086972E+02  0.89223866435E+01 -0.21879561833E+02  0.51921311043E+02  0.00000000000E+00 0.  1.
         22    1    1    2    0    0  0.25718660863E+02 -0.55298636963E+02 -0.10734909058E+03  0.12346341975E+03  0.00000000000E+00 0. -1.
<mgrwt>
<rscale>  0 0.93457465E+02</rscale>
<asrwt>0</asrwt>
<pdfrwt beam="1">  1        1 0.25929303E-01 0.10774738E+03</pdfrwt>
<pdfrwt beam="2">  1       -1 0.96431733E-02 0.10774738E+03</pdfrwt>
<totfact> 0.10849424E+04</totfact>
</mgrwt>
</event>
<event>
 6    1  0.3075717E-002  0.9199661E+02  0.7546771E-02  0.1399891E+00
         -2   -1    0    0    0  501 -0.00000000000E+00  0.00000000000E+00  0.68966858440E+02  0.68966858440E+02  0.00000000000E+00 0.  1.
          2   -1    0    0  501    0  0.00000000000E+00 -0.00000000000E+00 -0.56509084269E+02  0.56509084269E+02  0.00000000000E+00 0. -1.
         23    2    1    2    0    0 -0.15702772346E+02  0.36004357062E+01 -0.15418041927E+02  0.93279649138E+02  0.90575033700E+02 0.  0.
         11    1    3    3    0    0 -0.39541735706E+02  0.34584233639E+02 -0.46901096524E+01  0.52741020161E+02  0.00000000000E+00 0.  1.
        -11    1    3    3    0    0  0.23838963361E+02 -0.30983797933E+02 -0.10727932275E+02  0.40538628977E+02  0.00000000000E+00 0. -1.
         22    1    1    2    0    0  0.15702772346E+02 -0.36004357062E+01  0.27875816099E+02  0.32196293572E+02  0.00000000000E+00 0. -1.
<mgrwt>
<rscale>  0 0.59511988E+02</rscale>
<asrwt>0</asrwt>
<pdfrwt beam="1">  1        2 0.86937052E-02 0.91996614E+02</pdfrwt>
<pdfrwt beam="2">  1       -2 0.10610286E-01 0.91996614E+02</pdfrwt>
<totfact> 0.40026595E+04</totfact>
</mgrwt>
</event>
<event>
 6    1  0.3075717E-002  0.9703331E+02  0.7546771E-02  0.1343547E+00
         -2   -1    0    0    0  501 -0.00000000000E+00  0.00000000000E+00  0.92052884927E+01  0.92052884927E+01  0.00000000000E+00 0. -1.
          2   -1    0    0  501    0  0.00000000000E+00 -0.00000000000E+00 -0.55643588216E+03  0.55643588216E+03  0.00000000000E+00 0.  1.
         23    2    1    2    0    0  0.34647641026E+02 -0.35224980785E+01 -0.48226233109E+03  0.49192724955E+03  0.90568183400E+02 0.  0.
         13    1    3    3    0    0  0.37571788266E+02  0.18839888277E+01 -0.68750711772E+02  0.78369949959E+02  0.00000000000E+00 0. -1.
        -13    1    3    3    0    0 -0.29241472399E+01 -0.54064869061E+01 -0.41351161932E+03  0.41355729959E+03  0.00000000000E+00 0.  1.
         22    1    1    2    0    0 -0.34647641026E+02  0.35224980785E+01 -0.64968262578E+02  0.73713921098E+02  0.00000000000E+00 0. -1.
<mgrwt>
<rscale>  0 0.75104728E+02</rscale>
<asrwt>0</asrwt>
<pdfrwt beam="1">  1        2 0.85605512E-01 0.97033308E+02</pdfrwt>
<pdfrwt beam="2">  1       -2 0.14161984E-02 0.97033308E+02</pdfrwt>
<totfact> 0.62765279E+04</totfact>
</mgrwt>
</event>
<event>
 6    1  0.3075717E-002  0.1117746E+03  0.7546771E-02  0.1283762E+00
         -4   -1    0    0    0  501 -0.00000000000E+00  0.00000000000E+00  0.78829877058E+02  0.78829877058E+02  0.00000000000E+00 0.  1.
          4   -1    0    0  501    0  0.00000000000E+00 -0.00000000000E+00 -0.11072576915E+03  0.11072576915E+03  0.00000000000E+00 0. -1.
         23    2    1    2    0    0 -0.65094322716E+02 -0.16088624277E+02 -0.46280441615E+02  0.12097700561E+03  0.89428417912E+02 0.  0.
         13    1    3    3    0    0 -0.44705701754E+02 -0.49006122660E+02 -0.84958156168E+01  0.66875845494E+02  0.00000000000E+00 0.  1.
        -13    1    3    3    0    0 -0.20388620961E+02  0.32917498383E+02 -0.37784625998E+02  0.54101160120E+02  0.00000000000E+00 0. -1.
         22    1    1    2    0    0  0.65094322716E+02  0.16088624277E+02  0.14384549522E+02  0.68578640595E+02  0.00000000000E+00 0. -1.
<mgrwt>
<rscale>  0 0.98369838E+02</rscale>
<asrwt>0</asrwt>
<pdfrwt beam="1">  1        4 0.17034734E-01 0.11177458E+03</pdfrwt>
<pdfrwt beam="2">  1       -4 0.12127673E-01 0.11177458E+03</pdfrwt>
<totfact> 0.25708428E+03</totfact>
</mgrwt>
</event>
<event>
 6    1  0.3075717E-002  0.9806834E+02  0.7546771E-02  0.1411692E+00
         -1   -1    0    0    0  501 -0.00000000000E+00  0.00000000000E+00  0.10723875245E+02  0.10723875245E+02  0.00000000000E+00 0.  1.
          1   -1    0    0  501    0  0.00000000000E+00 -0.00000000000E+00 -0.30184301034E+03  0.30184301034E+03  0.00000000000E+00 0. -1.
         23    2    1    2    0    0  0.30918595070E+01  0.10608439817E+02 -0.28085905870E+03  0.29748816687E+03  0.97443829874E+02 0.  0.
         13    1    3    3    0    0  0.35695357871E+02 -0.81469447613E+01 -0.42139440073E+02  0.55823504836E+02  0.00000000000E+00 0.  1.
        -13    1    3    3    0    0 -0.32603498365E+02  0.18755384579E+02 -0.23871961863E+03  0.24166466203E+03  0.00000000000E+00 0. -1.
         22    1    1    2    0    0 -0.30918595070E+01 -0.10608439817E+02 -0.10260076391E+02  0.15078718716E+02  0.00000000000E+00 0.  1.
<mgrwt>
<rscale>  0 0.56817934E+02</rscale>
<asrwt>0</asrwt>
<pdfrwt beam="1">  1        1 0.46437379E-01 0.98068336E+02</pdfrwt>
<pdfrwt beam="2">  1       -1 0.16498272E-02 0.98068336E+02</pdfrwt>
<totfact> 0.69175654E+04</totfact>
</mgrwt>
</event>
<event>
 6    1  0.3075717E-002  0.9255521E+02  0.7546771E-02  0.1374631E+00
          2   -1    0    0  501    0  0.00000000000E+00  0.00000000000E+00  0.24586353275E+03  0.24586353275E+03  0.00000000000E+00 0. -1.
         -2   -1    0    0    0  501 -0.00000000000E+00 -0.00000000000E+00 -0.16859757296E+02  0.16859757296E+02  0.00000000000E+00 0.  1.
         23    2    1    2    0    0  0.10888549571E+02  0.21142470443E+02  0.21735773791E+03  0.23624320775E+03  0.89447763564E+02 0.  0.
         11    1    3    3    0    0  0.17675918799E+02  0.38466037313E+02  0.21295733876E+03  0.21712416324E+03  0.00000000000E+00 0. -1.
        -11    1    3    3    0    0 -0.67873692283E+01 -0.17323566870E+02  0.44003991591E+01  0.19119044508E+02  0.00000000000E+00 0.  1.
         22    1    1    2    0    0 -0.10888549571E+02 -0.21142470443E+02  0.11646037537E+02  0.26480082297E+02  0.00000000000E+00 0.  1.
<mgrwt>
<rscale>  0 0.65896285E+02</rscale>
<asrwt>0</asrwt>
<pdfrwt beam="1">  1        2 0.37825156E-01 0.92555210E+02</pdfrwt>
<pdfrwt beam="2">  1       -2 0.25938090E-02 0.92555210E+02</pdfrwt>
<totfact> 0.62121062E+04</totfact>
</mgrwt>
</event>
<event>
 6    1  0.3075717E-002  0.1029909E+03  0.7546771E-02  0.1325367E+00
         -1   -1    0    0    0  501 -0.00000000000E+00  0.00000000000E+00  0.70073936090E+01  0.70073936090E+01  0.00000000000E+00 0.  1.
          1   -1    0    0  501    0  0.00000000000E+00 -0.00000000000E+00 -0.16600243234E+04  0.16600243234E+04  0.00000000000E+00 0. -1.
         23    2    1    2    0    0  0.53361520962E+01  0.39658534888E+02 -0.15833054558E+04  0.15866515981E+04  0.94899175374E+02 0.  0.
         13    1    3    3    0    0 -0.25002733169E+02  0.17941718179E+01 -0.12033082360E+04  0.12035693028E+04  0.00000000000E+00 0. -1.
        -13    1    3    3    0    0  0.30338885265E+02  0.37864363070E+02 -0.37999721978E+03  0.38308229533E+03  0.00000000000E+00 0.  1.
         22    1    1    2    0    0 -0.53361520962E+01 -0.39658534888E+02 -0.69711473954E+02  0.80380118869E+02  0.00000000000E+00 0.  1.
<mgrwt>
<rscale>  0 0.81312511E+02</rscale>
<asrwt>0</asrwt>
<pdfrwt beam="1">  1        1 0.25538840E+00 0.10299091E+03</pdfrwt>
<pdfrwt beam="2">  1       -1 0.10780604E-02 0.10299091E+03</pdfrwt>
<totfact> 0.91245070E+03</totfact>
</mgrwt>
</event>
<event>
 6    1  0.3075717E-002  0.9217879E+02  0.7546771E-02  0.1414798E+00
         -2   -1    0    0    0  501 -0.00000000000E+00  0.00000000000E+00  0.10195723299E+03  0.10195723299E+03  0.00000000000E+00 0. -1.
          2   -1    0    0  501    0  0.00000000000E+00 -0.00000000000E+00 -0.34963354749E+02  0.34963354749E+02  0.00000000000E+00 0.  1.
         23    2    1    2    0    0  0.12407921489E+02 -0.26099275998E+01  0.28640524409E+02  0.96525687221E+02  0.91302576181E+02 0.  0.
         13    1    3    3    0    0 -0.34873188336E+02  0.18940569089E+02  0.17561321099E+02  0.43396825010E+02  0.00000000000E+00 0. -1.
        -13    1    3    3    0    0  0.47281109826E+02 -0.21550496689E+02  0.11079203310E+02  0.53128862211E+02  0.00000000000E+00 0.  1.
         22    1    1    2    0    0 -0.12407921489E+02  0.26099275998E+01  0.38353353828E+02  0.40394900515E+02  0.00000000000E+00 0. -1.
<mgrwt>
<rscale>  0 0.56136880E+02</rscale>
<asrwt>0</asrwt>
<pdfrwt beam="1">  1        2 0.53789777E-02 0.92178786E+02</pdfrwt>
<pdfrwt beam="2">  1       -2 0.15685728E-01 0.92178786E+02</pdfrwt>
<totfact> 0.39285741E+04</totfact>
</mgrwt>
</event>
<event>
 6    1  0.3075717E-002  0.9237373E+02  0.7546771E-02  0.1413008E+00
          2   -1    0    0  501    0  0.00000000000E+00  0.00000000000E+00  0.18416401531E+03  0.18416401531E+03  0.00000000000E+00 0. -1.
         -2   -1    0    0    0  501 -0.00000000000E+00 -0.00000000000E+00 -0.15371479375E+02  0.15371479375E+02  0.00000000000E+00 0.  1.
         23    2    1    2    0    0 -0.12925592089E+02 -0.85863675659E+00  0.15619721038E+03  0.18146755585E+03  0.91460904804E+02 0.  0.
         11    1    3    3    0    0 -0.21429037386E+02 -0.27995684803E+02  0.14760896295E+03  0.15176089073E+03  0.00000000000E+00 0. -1.
        -11    1    3    3    0    0  0.85034452969E+01  0.27137048046E+02  0.85882474239E+01  0.29706665118E+02  0.00000000000E+00 0.  1.
         22    1    1    2    0    0  0.12925592089E+02  0.85863675659E+00  0.12595325555E+02  0.18067938836E+02  0.00000000000E+00 0. -1.
<mgrwt>
<rscale>  0 0.56527918E+02</rscale>
<asrwt>0</asrwt>
<pdfrwt beam="1">  1        2 0.28332924E-01 0.92373726E+02</pdfrwt>
<pdfrwt beam="2">  1       -2 0.23648431E-02 0.92373726E+02</pdfrwt>
<totfact> 0.96503973E+04</totfact>
</mgrwt>
</event>
<event>
 6    1  0.3075717E-002  0.8904519E+02  0.7546771E-02  0.1408890E+00
          2   -1    0    0  501    0  0.00000000000E+00  0.00000000000E+00  0.55806574112E+03  0.55806574112E+03  0.00000000000E+00 0. -1.
         -2   -1    0    0    0  501 -0.00000000000E+00 -0.00000000000E+00 -0.55143374331E+01  0.55143374331E+01  0.00000000000E+00 0.  1.
         23    2    1    2    0    0  0.88932031513E+01  0.12597617930E+02  0.51990058343E+03  0.52747100624E+03  0.87699810341E+02 0.  0.
         13    1    3    3    0    0 -0.48796274790E-01  0.47499322315E+02  0.20073421918E+03  0.20627751877E+03  0.00000000000E+00 0. -1.
        -13    1    3    3    0    0  0.89419994261E+01 -0.34901704385E+02  0.31916636425E+03  0.32119348747E+03  0.00000000000E+00 0.  1.
         22    1    1    2    0    0 -0.88932031513E+01 -0.12597617930E+02  0.32650820255E+02  0.36109072311E+02  0.00000000000E+00 0.  1.
<mgrwt>
<rscale>  0 0.57442301E+02</rscale>
<asrwt>0</asrwt>
<pdfrwt beam="1">  1        2 0.85856223E-01 0.89045190E+02</pdfrwt>
<pdfrwt beam="2">  1       -2 0.84836005E-03 0.89045190E+02</pdfrwt>
<totfact> 0.12791010E+05</totfact>
</mgrwt>
</event>
<event>
 6    1  0.3075717E-002  0.9134684E+02  0.7546771E-02  0.1424909E+00
          2   -1    0    0  501    0  0.00000000000E+00  0.00000000000E+00  0.31333934705E+03  0.31333934705E+03  0.00000000000E+00 0. -1.
         -2   -1    0    0    0  501 -0.00000000000E+00 -0.00000000000E+00 -0.11675233974E+02  0.11675233974E+02  0.00000000000E+00 0.  1.
         23    2    1    2    0    0 -0.36545937979E+01 -0.10536318803E+02  0.30017159578E+03  0.31376301768E+03  0.90663522321E+02 0.  0.
         11    1    3    3    0    0  0.27213588940E+02 -0.15874923951E+02  0.26416248047E+03  0.26603460061E+03  0.00000000000E+00 0. -1.
        -11    1    3    3    0    0 -0.30868182738E+02  0.53386051477E+01  0.36009115310E+02  0.47728417069E+02  0.00000000000E+00 0.  1.
         22    1    1    2    0    0  0.36545937979E+01  0.10536318803E+02  0.14925172901E+01  0.11251563341E+02  0.00000000000E+00 0. -1.
<mgrwt>
<rscale>  0 0.53995755E+02</rscale>
<asrwt>0</asrwt>
<pdfrwt beam="1">  1        2 0.48206047E-01 0.91346835E+02</pdfrwt>
<pdfrwt beam="2">  1       -2 0.17961901E-02 0.91346835E+02</pdfrwt>
<totfact> 0.81647367E+04</totfact>
</mgrwt>
</event>
<event>
 6    1  0.3075717E-002  0.9858455E+02  0.7546771E-02  0.1336883E+00
          2   -1    0    0  501    0  0.00000000000E+00  0.00000000000E+00  0.37403893242E+03  0.37403893242E+03  0.00000000000E+00 0. -1.
         -2   -1    0    0    0  501 -0.00000000000E+00 -0.00000000000E+00 -0.12349501581E+02  0.12349501581E+02  0.00000000000E+00 0.  1.
         23    2    1    2    0    0  0.22689283427E+02  0.29568236260E+02  0.25667262229E+03  0.27495408447E+03  0.91267898819E+02 0.  0.
         13    1    3    3    0    0 -0.13373410226E+02 -0.27038015689E+02  0.60218822389E+02  0.67351384272E+02  0.00000000000E+00 0.  1.
        -13    1    3    3    0    0  0.36062693653E+02  0.56606251950E+02  0.19645379990E+03  0.20760270020E+03  0.00000000000E+00 0. -1.
         22    1    1    2    0    0 -0.22689283427E+02 -0.29568236260E+02  0.10501680855E+03  0.11143434953E+03  0.00000000000E+00 0.  1.
<mgrwt>
<rscale>  0 0.77303243E+02</rscale>
<asrwt>0</asrwt>
<pdfrwt beam="1">  1        2 0.57544442E-01 0.98584550E+02</pdfrwt>
<pdfrwt beam="2">  1       -2 0.18999236E-02 0.98584550E+02</pdfrwt>
<totfact> 0.63218373E+04</totfact>
</mgrwt>
</event>
<event>
 6    1  0.3075717E-002  0.9756353E+02  0.7546771E-02  0.1393315E+00
         -2   -1    0    0    0  501 -0.00000000000E+00  0.00000000000E+00  0.39396458895E+01  0.39396458895E+01  0.00000000000E+00 0.  1.
          2   -1    0    0  501    0  0.00000000000E+00 -0.00000000000E+00 -0.82185431456E+03  0.82185431456E+03  0.00000000000E+00 0. -1.
         23    2    1    2    0    0 -0.14397615942E+02  0.41980906746E+01 -0.74430384023E+03  0.75067093220E+03  0.96403975822E+02 0.  0.
         11    1    3    3    0    0 -0.54182332829E+02  0.95538663797E+01 -0.50929452005E+03  0.51225765949E+03  0.00000000000E+00 0. -1.
        -11    1    3    3    0    0  0.39784716888E+02 -0.53557757051E+01 -0.23500932018E+03  0.23841327271E+03  0.00000000000E+00 0.  1.
         22    1    1    2    0    0  0.14397615942E+02 -0.41980906746E+01 -0.73610828441E+02  0.75123028253E+02  0.00000000000E+00 0. -1.
<mgrwt>
<rscale>  0 0.61089701E+02</rscale>
<asrwt>0</asrwt>
<pdfrwt beam="1">  1        2 0.12643915E+00 0.97563527E+02</pdfrwt>
<pdfrwt beam="2">  1       -2 0.60609924E-03 0.97563527E+02</pdfrwt>
<totfact> 0.13283217E+05</totfact>
</mgrwt>
</event>
<event>
 6    1  0.3075717E-002  0.9081025E+02  0.7546771E-02  0.1380334E+00
          1   -1    0    0  501    0  0.00000000000E+00  0.00000000000E+00  0.47937332808E+03  0.47937332808E+03  0.00000000000E+00 0. -1.
         -1   -1    0    0    0  501 -0.00000000000E+00 -0.00000000000E+00 -0.69409479255E+01  0.69409479255E+01  0.00000000000E+00 0.  1.
         23    2    1    2    0    0 -0.22218556438E+02 -0.56871403374E+01  0.40608119166E+03  0.41611108498E+03  0.87866336039E+02 0.  0.
         13    1    3    3    0    0 -0.18925627965E+02  0.31351678404E+02  0.80802681874E+02  0.88714037957E+02  0.00000000000E+00 0. -1.
        -13    1    3    3    0    0 -0.32929284728E+01 -0.37038818741E+02  0.32527850978E+03  0.32739704702E+03  0.00000000000E+00 0.  1.
         22    1    1    2    0    0  0.22218556438E+02  0.56871403374E+01  0.66351188502E+02  0.70203191032E+02  0.00000000000E+00 0.  1.
<mgrwt>
<rscale>  0 0.64376174E+02</rscale>
<asrwt>0</asrwt>
<pdfrwt beam="1">  1        1 0.73749717E-01 0.90810246E+02</pdfrwt>
<pdfrwt beam="2">  1       -1 0.10678385E-02 0.90810246E+02</pdfrwt>
<totfact> 0.71393340E+04</totfact>
</mgrwt>
</event>
<event>
 6    1  0.3075717E-002  0.9244841E+02  0.7546771E-02  0.1419776E+00
         -2   -1    0    0    0  501 -0.00000000000E+00  0.00000000000E+00  0.26074177260E+03  0.26074177260E+03  0.00000000000E+00 0. -1.
          2   -1    0    0  501    0  0.00000000000E+00 -0.00000000000E+00 -0.10394036932E+02  0.10394036932E+02  0.00000000000E+00 0.  1.
         23    2    1    2    0    0 -0.10057536791E+02  0.58572641286E+01  0.22020442284E+03  0.23882356886E+03  0.91712854129E+02 0.  0.
         11    1    3    3    0    0  0.28505427668E+02  0.25768750540E+02  0.16035215502E+03  0.16489209057E+03  0.00000000000E+00 0. -1.
        -11    1    3    3    0    0 -0.38562964459E+02 -0.19911486411E+02  0.59852267821E+02  0.73931478291E+02  0.00000000000E+00 0.  1.
         22    1    1    2    0    0  0.10057536791E+02 -0.58572641286E+01  0.30143312822E+02  0.32312240672E+02  0.00000000000E+00 0. -1.
<mgrwt>
<rscale>  0 0.55068294E+02</rscale>
<asrwt>0</asrwt>
<pdfrwt beam="1">  1        2 0.15990828E-02 0.92448414E+02</pdfrwt>
<pdfrwt beam="2">  1       -2 0.40114114E-01 0.92448414E+02</pdfrwt>
<totfact> 0.38397112E+04</totfact>
</mgrwt>
</event>
<event>
 6    1  0.3075717E-002  0.9295166E+02  0.7546771E-02  0.1384021E+00
         -1   -1    0    0    0  501 -0.00000000000E+00  0.00000000000E+00  0.12611456431E+03  0.12611456431E+03  0.00000000000E+00 0.  1.
          1   -1    0    0  501    0  0.00000000000E+00 -0.00000000000E+00 -0.25915006795E+02  0.25915006795E+02  0.00000000000E+00 0. -1.
         23    2    1    2    0    0  0.20130700881E+02 -0.66290561158E+00  0.73033627475E+02  0.11821134648E+03  0.90743193313E+02 0.  0.
         13    1    3    3    0    0  0.26228670266E+02  0.37606608082E+02  0.14642822703E+02  0.48131199571E+02  0.00000000000E+00 0. -1.
        -13    1    3    3    0    0 -0.60979693850E+01 -0.38269513694E+02  0.58390804771E+02  0.70080146909E+02  0.00000000000E+00 0.  1.
         22    1    1    2    0    0 -0.20130700881E+02  0.66290561158E+00  0.27165930041E+02  0.33818224626E+02  0.00000000000E+00 0.  1.
<mgrwt>
<rscale>  0 0.63418568E+02</rscale>
<asrwt>0</asrwt>
<pdfrwt beam="1">  1        1 0.39869242E-02 0.92951663E+02</pdfrwt>
<pdfrwt beam="2">  1       -1 0.19402240E-01 0.92951663E+02</pdfrwt>
<totfact> 0.41965185E+04</totfact>
</mgrwt>
</event>
<event>
 6    1  0.3075717E-002  0.9355636E+02  0.7546771E-02  0.1390682E+00
          2   -1    0    0  501    0  0.00000000000E+00  0.00000000000E+00  0.12887803991E+03  0.12887803991E+03  0.00000000000E+00 0. -1.
         -2   -1    0    0    0  501 -0.00000000000E+00 -0.00000000000E+00 -0.25078586856E+02  0.25078586856E+02  0.00000000000E+00 0.  1.
         23    2    1    2    0    0 -0.16940439874E+02  0.52687435157E+01  0.97511687963E+02  0.13513445497E+03  0.91858878006E+02 0.  0.
         11    1    3    3    0    0 -0.17765760072E+02  0.44480954787E+02  0.28441530673E+02  0.55705459668E+02  0.00000000000E+00 0.  1.
        -11    1    3    3    0    0  0.82532019810E+00 -0.39212211272E+02  0.69070157289E+02  0.79428995299E+02  0.00000000000E+00 0. -1.
         22    1    1    2    0    0  0.16940439874E+02 -0.52687435157E+01  0.62877650902E+01  0.18822171798E+02  0.00000000000E+00 0. -1.
<mgrwt>
<rscale>  0 0.61737444E+02</rscale>
<asrwt>0</asrwt>
<pdfrwt beam="1">  1        2 0.19827390E-01 0.93556355E+02</pdfrwt>
<pdfrwt beam="2">  1       -2 0.38582442E-02 0.93556355E+02</pdfrwt>
<totfact> 0.70129036E+04</totfact>
</mgrwt>
</event>
<event>
 6    1  0.3075717E-002  0.8885763E+02  0.7546771E-02  0.1409855E+00
          1   -1    0    0  501    0  0.00000000000E+00  0.00000000000E+00  0.59284536509E+02  0.59284536509E+02  0.00000000000E+00 0. -1.
         -1   -1    0    0    0  501 -0.00000000000E+00 -0.00000000000E+00 -0.47558311991E+02  0.47558311991E+02  0.00000000000E+00 0.  1.
         23    2    1    2    0    0 -0.15270144856E+02 -0.69637782972E+00  0.17386270042E+02  0.90542591406E+02  0.87532943550E+02 0.  0.
         13    1    3    3    0    0 -0.13314987659E+02 -0.33637348227E+02 -0.19460898160E+02  0.41079029313E+02  0.00000000000E+00 0.  1.
        -13    1    3    3    0    0 -0.19551571969E+01  0.32940970397E+02  0.36847168202E+02  0.49463562093E+02  0.00000000000E+00 0. -1.
         22    1    1    2    0    0  0.15270144856E+02  0.69637782972E+00 -0.56600455233E+01  0.16300257094E+02  0.00000000000E+00 0. -1.
<mgrwt>
<rscale>  0 0.57226162E+02</rscale>
<asrwt>0</asrwt>
<pdfrwt beam="1">  1        1 0.91206978E-02 0.88857630E+02</pdfrwt>
<pdfrwt beam="2">  1       -1 0.73166634E-02 0.88857630E+02</pdfrwt>
<totfact> 0.61080189E+04</totfact>
</mgrwt>
</event>
<event>
 6    1  0.3075717E-002  0.9364879E+02  0.7546771E-02  0.1375136E+00
         -2   -1    0    0    0  501 -0.00000000000E+00  0.00000000000E+00  0.13403002643E+02  0.13403002643E+02  0.00000000000E+00 0.  1.
          2   -1    0    0  501    0  0.00000000000E+00 -0.00000000000E+00 -0.90346126924E+03  0.90346126924E+03  0.00000000000E+00 0. -1.
         23    2    1    2    0    0  0.20136335825E+02  0.10627365590E+02 -0.88915979452E+03  0.89407786866E+03  0.90838769861E+02 0.  0.
         11    1    3    3    0    0 -0.66630882887E+01  0.27975858937E+02 -0.77513413091E+03  0.77566743282E+03  0.00000000000E+00 0. -1.
        -11    1    3    3    0    0  0.26799424114E+02 -0.17348493347E+02 -0.11402566361E+03  0.11841043584E+03  0.00000000000E+00 0.  1.
         22    1    1    2    0    0 -0.20136335825E+02 -0.10627365590E+02 -0.89847207477E+00  0.22786403225E+02  0.00000000000E+00 0.  1.
<mgrwt>
<rscale>  0 0.65759892E+02</rscale>
<asrwt>0</asrwt>
<pdfrwt beam="1">  1        2 0.13899403E+00 0.93648786E+02</pdfrwt>
<pdfrwt beam="2">  1       -2 0.20620006E-02 0.93648786E+02</pdfrwt>
<totfact> 0.20592317E+04</totfact>
</mgrwt>
</event>
<event>
 6    1  0.3075717E-002  0.9153714E+02  0.7546771E-02  0.1422859E+00
         -2   -1    0    0    0  501 -0.00000000000E+00  0.00000000000E+00  0.17174987255E+02  0.17174987255E+02  0.00000000000E+00 0.  1.
          2   -1    0    0  501    0  0.00000000000E+00 -0.00000000000E+00 -0.94614926003E+03  0.94614926003E+03  0.00000000000E+00 0. -1.
         23    2    1    2    0    0 -0.81293359010E+01  0.80429972774E+01 -0.94174411678E+03  0.94618234473E+03  0.90819998309E+02 0.  0.
         11    1    3    3    0    0  0.30953497854E+02  0.10542124809E+02 -0.15246043434E+03  0.15592767383E+03  0.00000000000E+00 0.  1.
        -11    1    3    3    0    0 -0.39082833755E+02 -0.24991275316E+01 -0.78928368243E+03  0.79025467091E+03  0.00000000000E+00 0. -1.
         22    1    1    2    0    0  0.81293359010E+01 -0.80429972774E+01  0.12769844000E+02  0.17141902554E+02  0.00000000000E+00 0.  1.
<mgrwt>
<rscale>  0 0.54420681E+02</rscale>
<asrwt>0</asrwt>
<pdfrwt beam="1">  1        2 0.14556142E+00 0.91537140E+02</pdfrwt>
<pdfrwt beam="2">  1       -2 0.26423058E-02 0.91537140E+02</pdfrwt>
<totfact> 0.13533366E+04</totfact>
</mgrwt>
</event>
<event>
 6    1  0.3075717E-002  0.9696312E+02  0.7546771E-02  0.1400107E+00
          1   -1    0    0  501    0  0.00000000000E+00  0.00000000000E+00  0.26125441319E+03  0.26125441319E+03  0.00000000000E+00 0. -1.
         -1   -1    0    0    0  501 -0.00000000000E+00 -0.00000000000E+00 -0.15588586357E+02  0.15588586357E+02  0.00000000000E+00 0.  1.
         23    2    1    2    0    0  0.10270071729E+02  0.90861138177E+01  0.24456628497E+03  0.26308651635E+03  0.95988621742E+02 0.  0.
         13    1    3    3    0    0 -0.41123396544E+01  0.48955305657E+02  0.86929776737E+02  0.99851486584E+02  0.00000000000E+00 0.  1.
        -13    1    3    3    0    0  0.14382411383E+02 -0.39869191840E+02  0.15763650823E+03  0.16323502977E+03  0.00000000000E+00 0. -1.
         22    1    1    2    0    0 -0.10270071729E+02 -0.90861138177E+01  0.10995418634E+01  0.13756483196E+02  0.00000000000E+00 0.  1.
<mgrwt>
<rscale>  0 0.59461228E+02</rscale>
<asrwt>0</asrwt>
<pdfrwt beam="1">  1        1 0.40192983E-01 0.96963124E+02</pdfrwt>
<pdfrwt beam="2">  1       -1 0.23982443E-02 0.96963124E+02</pdfrwt>
<totfact> 0.48274776E+04</totfact>
</mgrwt>
</event>
<event>
 6    1  0.3075717E-002  0.1051415E+03  0.7546771E-02  0.1302172E+00
         -4   -1    0    0    0  501 -0.00000000000E+00  0.00000000000E+00  0.27723791998E+03  0.27723791998E+03  0.00000000000E+00 0.  1.
          4   -1    0    0  501    0  0.00000000000E+00 -0.00000000000E+00 -0.49324161049E+02  0.49324161049E+02  0.00000000000E+00 0. -1.
         23    2    1    2    0    0 -0.52118599643E+02 -0.23463529581E+02  0.15116710527E+02  0.10622263958E+03  0.88248787939E+02 0.  0.
         11    1    3    3    0    0 -0.41165261078E+02  0.19415512805E+02 -0.20011993988E+02  0.49719420355E+02  0.00000000000E+00 0. -1.
        -11    1    3    3    0    0 -0.10953338566E+02 -0.42879042386E+02  0.35128704515E+02  0.56503219223E+02  0.00000000000E+00 0.  1.
         22    1    1    2    0    0  0.52118599643E+02  0.23463529581E+02  0.21279704841E+03  0.22033944145E+03  0.00000000000E+00 0.  1.
<mgrwt>
<rscale>  0 0.90281207E+02</rscale>
<asrwt>0</asrwt>
<pdfrwt beam="1">  1        4 0.75883326E-02 0.10514150E+03</pdfrwt>
<pdfrwt beam="2">  1       -4 0.42651987E-01 0.10514150E+03</pdfrwt>
<totfact> 0.10068715E+03</totfact>
</mgrwt>
</event>
<event>
 6    1  0.3075717E-002  0.9108272E+02  0.7546771E-02  0.1399259E+00
          4   -1    0    0  501    0  0.00000000000E+00  0.00000000000E+00  0.15971324143E+03  0.15971324143E+03  0.00000000000E+00 0. -1.
         -4   -1    0    0    0  501 -0.00000000000E+00 -0.00000000000E+00 -0.18212773497E+02  0.18212773497E+02  0.00000000000E+00 0.  1.
         23    2    1    2    0    0 -0.56217974441E+01 -0.15796694824E+02  0.12063162053E+03  0.15115571486E+03  0.89526097247E+02 0.  0.
         13    1    3    3    0    0 -0.18229471203E+02 -0.50749284835E+02  0.71878766853E+02  0.89857446303E+02  0.00000000000E+00 0.  1.
        -13    1    3    3    0    0  0.12607673759E+02  0.34952590011E+02  0.48752853676E+02  0.61298268554E+02  0.00000000000E+00 0. -1.
         22    1    1    2    0    0  0.56217974441E+01  0.15796694824E+02  0.20868847400E+02  0.26770300067E+02  0.00000000000E+00 0. -1.
<mgrwt>
<rscale>  0 0.59661252E+02</rscale>
<asrwt>0</asrwt>
<pdfrwt beam="1">  1        4 0.24571267E-01 0.91082722E+02</pdfrwt>
<pdfrwt beam="2">  1       -4 0.28019653E-02 0.91082722E+02</pdfrwt>
<totfact> 0.13462449E+04</totfact>
</mgrwt>
</event>
<event>
 6    1  0.3075717E-002  0.1068052E+03  0.7546771E-02  0.1312766E+00
          1   -1    0    0  501    0  0.00000000000E+00  0.00000000000E+00  0.22040697425E+02  0.22040697425E+02  0.00000000000E+00 0. -1.
         -1   -1    0    0    0  501 -0.00000000000E+00 -0.00000000000E+00 -0.26135015385E+03  0.26135015385E+03  0.00000000000E+00 0.  1.
         23    2    1    2    0    0  0.28451243327E+02  0.34806702657E+02 -0.17111009342E+03  0.20170772627E+03  0.96883244006E+02 0.  0.
         13    1    3    3    0    0 -0.25993920573E+02  0.23905469653E+02 -0.12386896600E+03  0.12880479853E+03  0.00000000000E+00 0.  1.
        -13    1    3    3    0    0  0.54445163900E+02  0.10901233003E+02 -0.47241127423E+02  0.72902927742E+02  0.00000000000E+00 0. -1.
         22    1    1    2    0    0 -0.28451243327E+02 -0.34806702657E+02 -0.68199363003E+02  0.81683125006E+02  0.00000000000E+00 0. -1.
<mgrwt>
<rscale>  0 0.86027922E+02</rscale>
<asrwt>0</asrwt>
<pdfrwt beam="1">  1        1 0.33908763E-02 0.10680516E+03</pdfrwt>
<pdfrwt beam="2">  1       -1 0.40207719E-01 0.10680516E+03</pdfrwt>
<totfact> 0.15945770E+04</totfact>
</mgrwt>
</event>
<event>
 6    1  0.3075717E-002  0.9626639E+02  0.7546771E-02  0.1386936E+00
          2   -1    0    0  501    0  0.00000000000E+00  0.00000000000E+00  0.37021688910E+03  0.37021688910E+03  0.00000000000E+00 0. -1.
         -2   -1    0    0    0  501 -0.00000000000E+00 -0.00000000000E+00 -0.15370722896E+02  0.15370722896E+02  0.00000000000E+00 0.  1.
         23    2    1    2    0    0 -0.16794150046E+02 -0.41381044726E+01  0.35547535967E+03  0.36827971586E+03  0.94699790896E+02 0.  0.
         13    1    3    3    0    0 -0.26645867871E+02 -0.16319882377E+02  0.35043020064E+03  0.35182050304E+03  0.00000000000E+00 0. -1.
        -13    1    3    3    0    0  0.98517178245E+01  0.12181777904E+02  0.50451590245E+01  0.16459212818E+02  0.00000000000E+00 0.  1.
         22    1    1    2    0    0  0.16794150046E+02  0.41381044726E+01 -0.62919346191E+00  0.17307896141E+02  0.00000000000E+00 0.  1.
<mgrwt>
<rscale>  0 0.62675137E+02</rscale>
<asrwt>0</asrwt>
<pdfrwt beam="1">  1        2 0.56956438E-01 0.96266390E+02</pdfrwt>
<pdfrwt beam="2">  1       -2 0.23647269E-02 0.96266390E+02</pdfrwt>
<totfact> 0.46474946E+04</totfact>
</mgrwt>
</event>
<event>
 6    1  0.3075717E-002  0.1034833E+03  0.7546771E-02  0.1312718E+00
         -2   -1    0    0    0  501 -0.00000000000E+00  0.00000000000E+00  0.42128241787E+02  0.42128241787E+02  0.00000000000E+00 0.  1.
          2   -1    0    0  501    0  0.00000000000E+00 -0.00000000000E+00 -0.14609945125E+03  0.14609945125E+03  0.00000000000E+00 0. -1.
         23    2    1    2    0    0  0.15883282090E+02  0.46848527729E+02 -0.89145662444E+02  0.13658604274E+03  0.90894085284E+02 0.  0.
         13    1    3    3    0    0  0.34629374377E+02  0.54725617595E+02 -0.25211246019E+02  0.69495997846E+02  0.00000000000E+00 0. -1.
        -13    1    3    3    0    0 -0.18746092287E+02 -0.78770898655E+01 -0.63934416425E+02  0.67090044898E+02  0.00000000000E+00 0.  1.
         22    1    1    2    0    0 -0.15883282090E+02 -0.46848527729E+02 -0.14825547017E+02  0.51641650290E+02  0.00000000000E+00 0.  1.
<mgrwt>
<rscale>  0 0.86046542E+02</rscale>
<asrwt>0</asrwt>
<pdfrwt beam="1">  1        2 0.22476839E-01 0.10348332E+03</pdfrwt>
<pdfrwt beam="2">  1       -2 0.64812679E-02 0.10348332E+03</pdfrwt>
<totfact> 0.28536943E+04</totfact>
</mgrwt>
</event>
<event>
 6    1  0.3075717E-002  0.9600077E+02  0.7546771E-02  0.1364704E+00
          1   -1    0    0  501    0  0.00000000000E+00  0.00000000000E+00  0.37819194459E+03  0.37819194459E+03  0.00000000000E+00 0. -1.
         -1   -1    0    0    0  501 -0.00000000000E+00 -0.00000000000E+00 -0.14980755005E+02  0.14980755005E+02  0.00000000000E+00 0.  1.
         23    2    1    2    0    0 -0.60744537063E+01 -0.24375450453E+02  0.35339437203E+03  0.36620176191E+03  0.92655742783E+02 0.  0.
         11    1    3    3    0    0  0.13801965619E+02 -0.10276534424E+02  0.64100163653E+01  0.18362726500E+02  0.00000000000E+00 0.  1.
        -11    1    3    3    0    0 -0.19876419325E+02 -0.14098916029E+02  0.34698435567E+03  0.34783903541E+03  0.00000000000E+00 0. -1.
         22    1    1    2    0    0  0.60744537063E+01  0.24375450453E+02  0.98168175524E+01  0.26970937683E+02  0.00000000000E+00 0.  1.
<mgrwt>
<rscale>  0 0.68661773E+02</rscale>
<asrwt>0</asrwt>
<pdfrwt beam="1">  1        1 0.58183369E-01 0.96000772E+02</pdfrwt>
<pdfrwt beam="2">  1       -1 0.23047318E-02 0.96000772E+02</pdfrwt>
<totfact> 0.32418969E+04</totfact>
</mgrwt>
</event>
<event>
 6    1  0.3075717E-002  0.9425963E+02  0.7546771E-02  0.1394591E+00
          2   -1    0    0  501    0  0.00000000000E+00  0.00000000000E+00  0.20348379073E+03  0.20348379073E+03  0.00000000000E+00 0. -1.
         -2   -1    0    0    0  501 -0.00000000000E+00 -0.00000000000E+00 -0.15082968990E+02  0.15082968990E+02  0.00000000000E+00 0.  1.
         23    2    1    2    0    0 -0.15282243619E+02  0.56536159283E+01  0.16550488596E+03  0.19046454951E+03  0.92840546112E+02 0.  0.
         11    1    3    3    0    0  0.10409224321E+02 -0.31647803257E+02  0.12610914943E+03  0.13043562769E+03  0.00000000000E+00 0. -1.
        -11    1    3    3    0    0 -0.25691467940E+02  0.37301419186E+02  0.39395736527E+02  0.60028921818E+02  0.00000000000E+00 0.  1.
         22    1    1    2    0    0  0.15282243619E+02 -0.56536159283E+01  0.22895935782E+02  0.28102210205E+02  0.00000000000E+00 0. -1.
<mgrwt>
<rscale>  0 0.60779129E+02</rscale>
<asrwt>0</asrwt>
<pdfrwt beam="1">  1        2 0.31305197E-01 0.94259627E+02</pdfrwt>
<pdfrwt beam="2">  1       -2 0.23204569E-02 0.94259627E+02</pdfrwt>
<totfact> 0.89398663E+04</totfact>
</mgrwt>
</event>
<event>
 6    1  0.3075717E-002  0.9721862E+02  0.7546771E-02  0.1351934E+00
         -2   -1    0    0    0  501 -0.00000000000E+00  0.00000000000E+00  0.57610845237E+01  0.57610845237E+01  0.00000000000E+00 0.  1.
          2   -1    0    0  501    0  0.00000000000E+00 -0.00000000000E+00 -0.71364352829E+03  0.71364352829E+03  0.00000000000E+00 0. -1.
         23    2    1    2    0    0  0.23415441011E+02 -0.18746563330E+02 -0.57666186864E+03  0.58479942773E+03  0.92475636888E+02 0.  0.
         11    1    3    3    0    0 -0.20671445664E+02  0.60725583166E+00 -0.42874724886E+03  0.42924571149E+03  0.00000000000E+00 0. -1.
        -11    1    3    3    0    0  0.44086886674E+02 -0.19353819162E+02 -0.14791461978E+03  0.15555371625E+03  0.00000000000E+00 0.  1.
         22    1    1    2    0    0 -0.23415441011E+02  0.18746563330E+02 -0.13122057513E+03  0.13460518509E+03  0.00000000000E+00 0.  1.
<mgrwt>
<rscale>  0 0.72456157E+02</rscale>
<asrwt>0</asrwt>
<pdfrwt beam="1">  1        2 0.10979135E+00 0.97218619E+02</pdfrwt>
<pdfrwt beam="2">  1       -2 0.88632039E-03 0.97218619E+02</pdfrwt>
<totfact> 0.92074923E+04</totfact>
</mgrwt>
</event>
<event>
 6    1  0.3075717E-002  0.9409735E+02  0.7546771E-02  0.1377690E+00
         -2   -1    0    0    0  501 -0.00000000000E+00  0.00000000000E+00  0.90186495269E+01  0.90186495269E+01  0.00000000000E+00 0.  1.
          2   -1    0    0  501    0  0.00000000000E+00 -0.00000000000E+00 -0.37599343576E+03  0.37599343576E+03  0.00000000000E+00 0. -1.
         23    2    1    2    0    0  0.20226903722E+02  0.73592929170E+01 -0.27892347504E+03  0.29436816530E+03  0.91602538129E+02 0.  0.
         11    1    3    3    0    0  0.15823326224E+02  0.45054226858E-01 -0.51805297847E+00  0.15831868543E+02  0.00000000000E+00 0.  1.
        -11    1    3    3    0    0  0.44035774985E+01  0.73142386901E+01 -0.27840542206E+03  0.27853629676E+03  0.00000000000E+00 0. -1.
         22    1    1    2    0    0 -0.20226903722E+02 -0.73592929170E+01 -0.88051311201E+02  0.90643919987E+02  0.00000000000E+00 0.  1.
<mgrwt>
<rscale>  0 0.65075018E+02</rscale>
<asrwt>0</asrwt>
<pdfrwt beam="1">  1        2 0.57845150E-01 0.94097353E+02</pdfrwt>
<pdfrwt beam="2">  1       -2 0.13874844E-02 0.94097353E+02</pdfrwt>
<totfact> 0.97966401E+04</totfact>
</mgrwt>
</event>
<event>
 6    1  0.3075717E-002  0.8823133E+02  0.7546771E-02  0.1403120E+00
         -1   -1    0    0    0  501 -0.00000000000E+00  0.00000000000E+00  0.62482858761E+01  0.62482858761E+01  0.00000000000E+00 0.  1.
          1   -1    0    0  501    0  0.00000000000E+00 -0.00000000000E+00 -0.54873298432E+03  0.54873298432E+03  0.00000000000E+00 0. -1.
         23    2    1    2    0    0 -0.15546130884E+02  0.77119097039E+01 -0.51480656335E+03  0.52231270887E+03  0.86507875044E+02 0.  0.
         13    1    3    3    0    0  0.15024512687E+02  0.38703607360E+02 -0.32121866972E+03  0.32389062811E+03  0.00000000000E+00 0. -1.
        -13    1    3    3    0    0 -0.30570643570E+02 -0.30991697656E+02 -0.19358789363E+03  0.19842208075E+03  0.00000000000E+00 0.  1.
         22    1    1    2    0    0  0.15546130884E+02 -0.77119097039E+01 -0.27678135098E+02  0.32668561328E+02  0.00000000000E+00 0.  1.
<mgrwt>
<rscale>  0 0.58757867E+02</rscale>
<asrwt>0</asrwt>
<pdfrwt beam="1">  1        1 0.84420515E-01 0.88231333E+02</pdfrwt>
<pdfrwt beam="2">  1       -1 0.96127412E-03 0.88231333E+02</pdfrwt>
<totfact> 0.69273702E+04</totfact>
</mgrwt>
</event>
<event>
 6    1  0.3075717E-002  0.9238389E+02  0.7546771E-02  0.1390216E+00
          1   -1    0    0  501    0  0.00000000000E+00  0.00000000000E+00  0.89421846973E+02  0.89421846973E+02  0.00000000000E+00 0. -1.
         -1   -1    0    0    0  501 -0.00000000000E+00 -0.00000000000E+00 -0.48652874679E+02  0.48652874679E+02  0.00000000000E+00 0.  1.
         23    2    1    2    0    0 -0.56368587702E+01 -0.17686767785E+02  0.60931483924E+02  0.11066810189E+03  0.90499652549E+02 0.  0.
         11    1    3    3    0    0 -0.23775413530E+02 -0.23224975204E+02  0.78230658282E+02  0.84998268552E+02  0.00000000000E+00 0. -1.
        -11    1    3    3    0    0  0.18138554760E+02  0.55382074193E+01 -0.17299174357E+02  0.25669833339E+02  0.00000000000E+00 0.  1.
         22    1    1    2    0    0  0.56368587702E+01  0.17686767785E+02 -0.20162511630E+02  0.27406619761E+02  0.00000000000E+00 0.  1.
<mgrwt>
<rscale>  0 0.61853026E+02</rscale>
<asrwt>0</asrwt>
<pdfrwt beam="1">  1        1 0.13757207E-01 0.92383890E+02</pdfrwt>
<pdfrwt beam="2">  1       -1 0.74850577E-02 0.92383890E+02</pdfrwt>
<totfact> 0.34778011E+04</totfact>
</mgrwt>
</event>
<event>
 6    1  0.3075717E-002  0.1127375E+03  0.7546771E-02  0.1279355E+00
          2   -1    0    0  501    0  0.00000000000E+00  0.00000000000E+00  0.31407442535E+03  0.31407442535E+03  0.00000000000E+00 0. -1.
         -2   -1    0    0    0  501 -0.00000000000E+00 -0.00000000000E+00 -0.40827236341E+02  0.40827236341E+02  0.00000000000E+00 0.  1.
         23    2    1    2    0    0  0.33970653875E+02  0.62404830727E+02  0.25894849055E+03  0.28242531382E+03  0.87529245997E+02 0.  0.
         11    1    3    3    0    0 -0.11152403767E+02  0.36578060247E+02  0.20085981154E+03  0.20446758788E+03  0.00000000000E+00 0. -1.
        -11    1    3    3    0    0  0.45123057643E+02  0.25826770480E+02  0.58088679006E+02  0.77957725936E+02  0.00000000000E+00 0.  1.
         22    1    1    2    0    0 -0.33970653875E+02 -0.62404830727E+02  0.14298698455E+02  0.72476347868E+02  0.00000000000E+00 0.  1.
<mgrwt>
<rscale>  0 0.10044888E+03</rscale>
<asrwt>0</asrwt>
<pdfrwt beam="1">  1        2 0.48319141E-01 0.11273747E+03</pdfrwt>
<pdfrwt beam="2">  1       -2 0.62811135E-02 0.11273747E+03</pdfrwt>
<totfact> 0.13294270E+04</totfact>
</mgrwt>
</event>
<event>
 6    1  0.3075717E-002  0.1058071E+03  0.7546771E-02  0.1339369E+00
          2   -1    0    0  501    0  0.00000000000E+00  0.00000000000E+00  0.15761542559E+03  0.15761542559E+03  0.00000000000E+00 0. -1.
         -2   -1    0    0    0  501 -0.00000000000E+00 -0.00000000000E+00 -0.28820568622E+02  0.28820568622E+02  0.00000000000E+00 0.  1.
         23    2    1    2    0    0 -0.28111816700E+02 -0.65856786771E+01  0.10430904901E+03  0.14857836363E+03  0.10179148802E+03 0.  0.
         13    1    3    3    0    0  0.17701056958E+02  0.32375025156E+02  0.70537609685E+02  0.79605427273E+02  0.00000000000E+00 0. -1.
        -13    1    3    3    0    0 -0.45812873658E+02 -0.38960703833E+02  0.33771439328E+02  0.68972936361E+02  0.00000000000E+00 0.  1.
         22    1    1    2    0    0  0.28111816700E+02  0.65856786771E+01  0.24485807955E+02  0.37857630579E+02  0.00000000000E+00 0. -1.
<mgrwt>
<rscale>  0 0.76473140E+02</rscale>
<asrwt>0</asrwt>
<pdfrwt beam="1">  1        2 0.24248527E-01 0.10580715E+03</pdfrwt>
<pdfrwt beam="2">  1       -2 0.44339337E-02 0.10580715E+03</pdfrwt>
<totfact> 0.46460766E+04</totfact>
</mgrwt>
</event>
<event>
 6    1  0.3075717E-002  0.1045082E+03  0.7546771E-02  0.1306466E+00
         -2   -1    0    0    0  501 -0.00000000000E+00  0.00000000000E+00  0.80635632276E+01  0.80635632276E+01  0.00000000000E+00 0. -1.
          2   -1    0    0  501    0  0.00000000000E+00 -0.00000000000E+00 -0.11666831098E+04  0.11666831098E+04  0.00000000000E+00 0.  1.
         23    2    1    2    0    0  0.41764240052E+01 -0.53639044906E+02 -0.10305452486E+04  0.10358308155E+04  0.89595643852E+02 0.  0.
         13    1    3    3    0    0 -0.17082625166E+02  0.19452432018E+02 -0.17479772709E+03  0.17670443851E+03  0.00000000000E+00 0. -1.
        -13    1    3    3    0    0  0.21259049171E+02 -0.73091476924E+02 -0.85574752149E+03  0.85912637703E+03  0.00000000000E+00 0.  1.
         22    1    1    2    0    0 -0.41764240052E+01  0.53639044906E+02 -0.12807429803E+03  0.13891585753E+03  0.00000000000E+00 0.  1.
<mgrwt>
<rscale>  0 0.88524041E+02</rscale>
<asrwt>0</asrwt>
<pdfrwt beam="1">  1        2 0.17948981E+00 0.10450822E+03</pdfrwt>
<pdfrwt beam="2">  1       -2 0.12405475E-02 0.10450822E+03</pdfrwt>
<totfact> 0.30260969E+04</totfact>
</mgrwt>
</event>
<event>
 6    1  0.3075717E-002  0.9267998E+02  0.7546771E-02  0.1397454E+00
         -1   -1    0    0    0  501 -0.00000000000E+00  0.00000000000E+00  0.57008638610E+02  0.57008638610E+02  0.00000000000E+00 0.  1.
          1   -1    0    0  501    0  0.00000000000E+00 -0.00000000000E+00 -0.58197022062E+02  0.58197022062E+02  0.00000000000E+00 0. -1.
         23    2    1    2    0    0 -0.16244953028E+02 -0.20818825821E+01 -0.14869744660E+02  0.93865267552E+02  0.91221414221E+02 0.  0.
         13    1    3    3    0    0 -0.50893035106E+02 -0.11304884606E+02 -0.23189029815E+02  0.57058150531E+02  0.00000000000E+00 0. -1.
        -13    1    3    3    0    0  0.34648082077E+02  0.92230020235E+01  0.83192851555E+01  0.36807117022E+02  0.00000000000E+00 0.  1.
         22    1    1    2    0    0  0.16244953028E+02  0.20818825821E+01  0.13681361208E+02  0.21340393119E+02  0.00000000000E+00 0.  1.
<mgrwt>
<rscale>  0 0.60090170E+02</rscale>
<asrwt>0</asrwt>
<pdfrwt beam="1">  1        1 0.89533881E-02 0.92679982E+02</pdfrwt>
<pdfrwt beam="2">  1       -1 0.87705597E-02 0.92679982E+02</pdfrwt>
<totfact> 0.48045799E+04</totfact>
</mgrwt>
</event>
<event>
 6    1  0.3075717E-002  0.8774188E+02  0.7546771E-02  0.1407329E+00
         -2   -1    0    0    0  501 -0.00000000000E+00  0.00000000000E+00  0.26380697118E+02  0.26380697118E+02  0.00000000000E+00 0.  1.
          2   -1    0    0  501    0  0.00000000000E+00 -0.00000000000E+00 -0.10819098254E+03  0.10819098254E+03  0.00000000000E+00 0. -1.
         23    2    1    2    0    0 -0.15104907897E+02 -0.66807767583E+01 -0.78488426153E+02  0.11772455024E+03  0.86173346624E+02 0.  0.
         13    1    3    3    0    0 -0.37138770969E+02 -0.80282711535E+01 -0.86311023114E+02  0.94304475810E+02  0.00000000000E+00 0. -1.
        -13    1    3    3    0    0  0.22033863072E+02  0.13474943952E+01  0.78225969615E+01  0.23420074429E+02  0.00000000000E+00 0.  1.
         22    1    1    2    0    0  0.15104907897E+02  0.66807767583E+01 -0.33218592693E+01  0.16847129419E+02  0.00000000000E+00 0. -1.
<mgrwt>
<rscale>  0 0.57794158E+02</rscale>
<asrwt>0</asrwt>
<pdfrwt beam="1">  1        2 0.16644767E-01 0.87741875E+02</pdfrwt>
<pdfrwt beam="2">  1       -2 0.40585688E-02 0.87741875E+02</pdfrwt>
<totfact> 0.78583538E+04</totfact>
</mgrwt>
</event>
<event>
 6    1  0.3075717E-002  0.9520579E+02  0.7546771E-02  0.1361796E+00
         -2   -1    0    0    0  501 -0.00000000000E+00  0.00000000000E+00  0.46423311993E+01  0.46423311993E+01  0.00000000000E+00 0.  1.
          2   -1    0    0  501    0  0.00000000000E+00 -0.00000000000E+00 -0.81966595992E+03  0.81966595992E+03  0.00000000000E+00 0. -1.
         23    2    1    2    0    0 -0.20578284323E+02 -0.17539623929E+02 -0.67694957606E+03  0.68361163796E+03  0.91285479830E+02 0.  0.
         13    1    3    3    0    0  0.17675336043E+02 -0.41969540077E+02 -0.23768708675E+03  0.24201035310E+03  0.00000000000E+00 0.  1.
        -13    1    3    3    0    0 -0.38253620366E+02  0.24429916148E+02 -0.43926248931E+03  0.44160128486E+03  0.00000000000E+00 0. -1.
         22    1    1    2    0    0  0.20578284323E+02  0.17539623929E+02 -0.13807405266E+03  0.14069665317E+03  0.00000000000E+00 0. -1.
<mgrwt>
<rscale>  0 0.69501622E+02</rscale>
<asrwt>0</asrwt>
<pdfrwt beam="1">  1        2 0.12610239E+00 0.95205793E+02</pdfrwt>
<pdfrwt beam="2">  1       -2 0.71420517E-03 0.95205793E+02</pdfrwt>
<totfact> 0.10540917E+05</totfact>
</mgrwt>
</event>
<event>
 6    1  0.3075717E-002  0.9329099E+02  0.7546771E-02  0.1377735E+00
          2   -1    0    0  501    0  0.00000000000E+00  0.00000000000E+00  0.26337095264E+03  0.26337095264E+03  0.00000000000E+00 0. -1.
         -2   -1    0    0    0  501 -0.00000000000E+00 -0.00000000000E+00 -0.15388118325E+02  0.15388118325E+02  0.00000000000E+00 0.  1.
         23    2    1    2    0    0 -0.12603488285E+02 -0.18118212202E+02  0.23572178784E+03  0.25351128312E+03  0.90642660361E+02 0.  0.
         13    1    3    3    0    0 -0.30254882173E+02  0.10058840847E+02  0.20739518986E+03  0.20983160618E+03  0.00000000000E+00 0. -1.
        -13    1    3    3    0    0  0.17651393888E+02 -0.28177053049E+02  0.28326597977E+02  0.43679676941E+02  0.00000000000E+00 0.  1.
         22    1    1    2    0    0  0.12603488285E+02  0.18118212202E+02  0.12261046476E+02  0.25247787844E+02  0.00000000000E+00 0.  1.
<mgrwt>
<rscale>  0 0.65062988E+02</rscale>
<asrwt>0</asrwt>
<pdfrwt beam="1">  1        2 0.40518605E-01 0.93290993E+02</pdfrwt>
<pdfrwt beam="2">  1       -2 0.23674030E-02 0.93290993E+02</pdfrwt>
<totfact> 0.66018442E+04</totfact>
</mgrwt>
</event>
<event>
 6    1  0.3075717E-002  0.9200592E+02  0.7546771E-02  0.1394543E+00
          2   -1    0    0  501    0  0.00000000000E+00  0.00000000000E+00  0.64571225820E+03  0.64571225820E+03  0.00000000000E+00 0. -1.
         -2   -1    0    0    0  501 -0.00000000000E+00 -0.00000000000E+00 -0.50554081540E+01  0.50554081540E+01  0.00000000000E+00 0.  1.
         23    2    1    2    0    0 -0.12127224530E+02  0.12664971473E+02  0.59070997134E+03  0.59783221727E+03  0.90319536582E+02 0.  0.
         13    1    3    3    0    0  0.84005245064E+01 -0.25583711329E+00  0.20213141449E+01  0.86440716959E+01  0.00000000000E+00 0.  1.
        -13    1    3    3    0    0 -0.20527749036E+02  0.12920808586E+02  0.58868865719E+03  0.58918814557E+03  0.00000000000E+00 0. -1.
         22    1    1    2    0    0  0.12127224530E+02 -0.12664971473E+02  0.49946878702E+02  0.52935449080E+02  0.00000000000E+00 0.  1.
<mgrwt>
<rscale>  0 0.60790732E+02</rscale>
<asrwt>0</asrwt>
<pdfrwt beam="1">  1        2 0.99340282E-01 0.92005922E+02</pdfrwt>
<pdfrwt beam="2">  1       -2 0.77775561E-03 0.92005922E+02</pdfrwt>
<totfact> 0.12340183E+05</totfact>
</mgrwt>
</event>
<event>
 6    1  0.3075717E-002  0.9726105E+02  0.7546771E-02  0.1349459E+00
         -2   -1    0    0    0  501 -0.00000000000E+00  0.00000000000E+00  0.37666445920E+02  0.37666445920E+02  0.00000000000E+00 0. -1.
          2   -1    0    0  501    0  0.00000000000E+00 -0.00000000000E+00 -0.10969062378E+03  0.10969062378E+03  0.00000000000E+00 0.  1.
         23    2    1    2    0    0  0.27673020159E+02  0.14511814119E+02 -0.52776478653E+02  0.11065744138E+03  0.92104961000E+02 0.  0.
         13    1    3    3    0    0 -0.26907780936E+02  0.27702789256E+01  0.79236380207E+01  0.28186648608E+02  0.00000000000E+00 0. -1.
        -13    1    3    3    0    0  0.54580801096E+02  0.11741535194E+02 -0.60700116673E+02  0.82470792776E+02  0.00000000000E+00 0.  1.
         22    1    1    2    0    0 -0.27673020159E+02 -0.14511814119E+02 -0.19247699207E+02  0.36699628316E+02  0.00000000000E+00 0.  1.
<mgrwt>
<rscale>  0 0.73224612E+02</rscale>
<asrwt>0</asrwt>
<pdfrwt beam="1">  1        2 0.16875480E-01 0.97261054E+02</pdfrwt>
<pdfrwt beam="2">  1       -2 0.57948379E-02 0.97261054E+02</pdfrwt>
<totfact> 0.46263547E+04</totfact>
</mgrwt>
</event>
<event>
 6    1  0.3075717E-002  0.1036293E+03  0.7546771E-02  0.1315249E+00
          2   -1    0    0  501    0  0.00000000000E+00  0.00000000000E+00  0.23420505959E+04  0.23420505959E+04  0.00000000000E+00 0. -1.
         -2   -1    0    0    0  501 -0.00000000000E+00 -0.00000000000E+00 -0.34033663846E+01  0.34033663846E+01  0.00000000000E+00 0.  1.
         23    2    1    2    0    0 -0.45528609379E+02  0.11912907080E+02  0.20786681639E+04  0.20812497114E+04  0.92326886470E+02 0.  0.
         11    1    3    3    0    0 -0.42698931319E+02 -0.28311049661E+02  0.16207673428E+04  0.16215768541E+04  0.00000000000E+00 0. -1.
        -11    1    3    3    0    0 -0.28296780599E+01  0.40223956741E+02  0.45790082113E+03  0.45967285733E+03  0.00000000000E+00 0.  1.
         22    1    1    2    0    0  0.45528609379E+02 -0.11912907080E+02  0.25997906562E+03  0.26420425089E+03  0.00000000000E+00 0.  1.
<mgrwt>
<rscale>  0 0.85070297E+02</rscale>
<asrwt>0</asrwt>
<pdfrwt beam="1">  1        2 0.36031419E+00 0.10362927E+03</pdfrwt>
<pdfrwt beam="2">  1       -2 0.52359670E-03 0.10362927E+03</pdfrwt>
<totfact> 0.25478716E+04</totfact>
</mgrwt>
</event>
<event>
 6    1  0.3075717E-002  0.9479028E+02  0.7546771E-02  0.1377799E+00
         -2   -1    0    0    0  501 -0.00000000000E+00  0.00000000000E+00  0.66702737362E+02  0.66702737362E+02  0.00000000000E+00 0.  1.
          2   -1    0    0  501    0  0.00000000000E+00 -0.00000000000E+00 -0.12661667671E+03  0.12661667671E+03  0.00000000000E+00 0. -1.
         23    2    1    2    0    0 -0.20430238332E+02  0.49345188145E+01 -0.10628120344E+03  0.14241099341E+03  0.92430799652E+02 0.  0.
         13    1    3    3    0    0  0.75373909267E+01 -0.38399711831E+02 -0.66957609728E+02  0.77554314072E+02  0.00000000000E+00 0. -1.
        -13    1    3    3    0    0 -0.27967629259E+02  0.43334230645E+02 -0.39323593714E+02  0.64856679336E+02  0.00000000000E+00 0.  1.
         22    1    1    2    0    0  0.20430238332E+02 -0.49345188145E+01  0.46367264097E+02  0.50908420660E+02  0.00000000000E+00 0.  1.
<mgrwt>
<rscale>  0 0.65045790E+02</rscale>
<asrwt>0</asrwt>
<pdfrwt beam="1">  1        2 0.19479489E-01 0.94790278E+02</pdfrwt>
<pdfrwt beam="2">  1       -2 0.10261960E-01 0.94790278E+02</pdfrwt>
<totfact> 0.16374673E+04</totfact>
</mgrwt>
</event>
<event>
 6    1  0.3075717E-002  0.9310301E+02  0.7546771E-02  0.1420295E+00
         -2   -1    0    0    0  501 -0.00000000000E+00  0.00000000000E+00  0.49694169183E+02  0.49694169183E+02  0.00000000000E+00 0.  1.
          2   -1    0    0  501    0  0.00000000000E+00 -0.00000000000E+00 -0.57059776567E+02  0.57059776567E+02  0.00000000000E+00 0. -1.
         23    2    1    2    0    0  0.10354325403E+02  0.45362472335E+01  0.28595155973E+00  0.93103453166E+02  0.92414185218E+02 0.  0.
         11    1    3    3    0    0  0.11830248397E+02  0.32157181041E+02 -0.34524631400E+02  0.48641435453E+02  0.00000000000E+00 0. -1.
        -11    1    3    3    0    0 -0.14759229943E+01 -0.27620933807E+02  0.34810582960E+02  0.44462017713E+02  0.00000000000E+00 0.  1.
         22    1    1    2    0    0 -0.10354325403E+02 -0.45362472335E+01 -0.76515589440E+01  0.13650492584E+02  0.00000000000E+00 0.  1.
<mgrwt>
<rscale>  0 0.54958484E+02</rscale>
<asrwt>0</asrwt>
<pdfrwt beam="1">  1        2 0.87784272E-02 0.93103014E+02</pdfrwt>
<pdfrwt beam="2">  1       -2 0.76452568E-02 0.93103014E+02</pdfrwt>
<totfact> 0.65694645E+04</totfact>
</mgrwt>
</event>
<event>
 6    1  0.3075717E-002  0.8962569E+02  0.7546771E-02  0.1409962E+00
          2   -1    0    0  501    0  0.00000000000E+00  0.00000000000E+00  0.11173705254E+04  0.11173705254E+04  0.00000000000E+00 0. -1.
         -2   -1    0    0    0  501 -0.00000000000E+00 -0.00000000000E+00 -0.26952943283E+01  0.26952943283E+01  0.00000000000E+00 0.  1.
         23    2    1    2    0    0 -0.12864829171E+02  0.74606251503E+01  0.10441590300E+04  0.10479984945E+04  0.88383254689E+02 0.  0.
         13    1    3    3    0    0  0.10278870057E+02  0.14268640663E+02  0.41791404286E+02  0.45340608158E+02  0.00000000000E+00 0.  1.
        -13    1    3    3    0    0 -0.23143699228E+02 -0.68080155124E+01  0.10023676257E+04  0.10026578863E+04  0.00000000000E+00 0. -1.
         22    1    1    2    0    0  0.12864829171E+02 -0.74606251503E+01  0.70516201054E+02  0.72067325247E+02  0.00000000000E+00 0.  1.
<mgrwt>
<rscale>  0 0.57202351E+02</rscale>
<asrwt>0</asrwt>
<pdfrwt beam="1">  1        2 0.17190279E+00 0.89625691E+02</pdfrwt>
<pdfrwt beam="2">  1       -2 0.41466156E-03 0.89625691E+02</pdfrwt>
<totfact> 0.14868835E+05</totfact>
</mgrwt>
</event>
<event>
 6    1  0.3075717E-002  0.9414177E+02  0.7546771E-02  0.1374492E+00
          2   -1    0    0  501    0  0.00000000000E+00  0.00000000000E+00  0.11941735800E+04  0.11941735800E+04  0.00000000000E+00 0. -1.
         -2   -1    0    0    0  501 -0.00000000000E+00 -0.00000000000E+00 -0.61387832489E+01  0.61387832489E+01  0.00000000000E+00 0.  1.
         23    2    1    2    0    0 -0.22327132319E+02 -0.38171738096E+01  0.11619830523E+04  0.11657904131E+04  0.91376155566E+02 0.  0.
         11    1    3    3    0    0  0.13949177826E+02 -0.35385844664E+02  0.75826523275E+03  0.75921861197E+03  0.00000000000E+00 0. -1.
        -11    1    3    3    0    0 -0.36276310145E+02  0.31568670855E+02  0.40371781954E+03  0.40657180113E+03  0.00000000000E+00 0.  1.
         22    1    1    2    0    0  0.22327132319E+02  0.38171738096E+01  0.26051744499E+02  0.34521950190E+02  0.00000000000E+00 0.  1.
<mgrwt>
<rscale>  0 0.65933941E+02</rscale>
<asrwt>0</asrwt>
<pdfrwt beam="1">  1        2 0.18371883E+00 0.94141773E+02</pdfrwt>
<pdfrwt beam="2">  1       -2 0.94442914E-03 0.94141773E+02</pdfrwt>
<totfact> 0.42645146E+04</totfact>
</mgrwt>
</event>
<event>
 6    1  0.3075717E-002  0.9216556E+02  0.7546771E-02  0.1415304E+00
          4   -1    0    0  501    0  0.00000000000E+00  0.00000000000E+00  0.75216365312E+02  0.75216365312E+02  0.00000000000E+00 0. -1.
         -4   -1    0    0    0  501 -0.00000000000E+00 -0.00000000000E+00 -0.36537341611E+02  0.36537341611E+02  0.00000000000E+00 0.  1.
         23    2    1    2    0    0  0.53005922808E+01  0.11415178491E+02  0.32454280454E+02  0.97712695315E+02  0.91302179204E+02 0.  0.
         13    1    3    3    0    0  0.38075789855E+00 -0.13501012740E+01  0.63641449866E+02  0.63656907646E+02  0.00000000000E+00 0. -1.
        -13    1    3    3    0    0  0.49198343823E+01  0.12765279765E+02 -0.31187169412E+02  0.34055787669E+02  0.00000000000E+00 0.  1.
         22    1    1    2    0    0 -0.53005922808E+01 -0.11415178491E+02  0.62247432467E+01  0.14041011608E+02  0.00000000000E+00 0.  1.
<mgrwt>
<rscale>  0 0.56026924E+02</rscale>
<asrwt>0</asrwt>
<pdfrwt beam="1">  1        4 0.11571748E-01 0.92165560E+02</pdfrwt>
<pdfrwt beam="2">  1       -4 0.56211295E-02 0.92165560E+02</pdfrwt>
<totfact> 0.16902801E+04</totfact>
</mgrwt>
</event>
<event>
 6    1  0.3075717E-002  0.9559298E+02  0.7546771E-02  0.1394364E+00
         -2   -1    0    0    0  501 -0.00000000000E+00  0.00000000000E+00  0.38531148643E+01  0.38531148643E+01  0.00000000000E+00 0.  1.
          2   -1    0    0  501    0  0.00000000000E+00 -0.00000000000E+00 -0.93247165599E+03  0.93247165599E+03  0.00000000000E+00 0. -1.
         23    2    1    2    0    0  0.68156710829E+01 -0.14119915672E+02 -0.88145675362E+03  0.88662507677E+03  0.94298424549E+02 0.  0.
         11    1    3    3    0    0  0.17021073083E+02 -0.52699721965E+02 -0.54680936414E+03  0.54960663964E+03  0.00000000000E+00 0. -1.
        -11    1    3    3    0    0 -0.10205402000E+02  0.38579806293E+02 -0.33464738947E+03  0.33701843713E+03  0.00000000000E+00 0.  1.
         22    1    1    2    0    0 -0.68156710829E+01  0.14119915672E+02 -0.47161787509E+02  0.49699694083E+02  0.00000000000E+00 0.  1.
<mgrwt>
<rscale>  0 0.60834207E+02</rscale>
<asrwt>0</asrwt>
<pdfrwt beam="1">  1        2 0.14345728E+00 0.95592982E+02</pdfrwt>
<pdfrwt beam="2">  1       -2 0.59278649E-03 0.95592982E+02</pdfrwt>
<totfact> 0.11639562E+05</totfact>
</mgrwt>
</event>
<event>
 6    1  0.3075717E-002  0.9273784E+02  0.7546771E-02  0.1397248E+00
          1   -1    0    0  501    0  0.00000000000E+00  0.00000000000E+00  0.87550595799E+02  0.87550595799E+02  0.00000000000E+00 0. -1.
         -1   -1    0    0    0  501 -0.00000000000E+00 -0.00000000000E+00 -0.56067609287E+02  0.56067609287E+02  0.00000000000E+00 0.  1.
         23    2    1    2    0    0 -0.45284849703E+01  0.15763015666E+02  0.60188750657E+02  0.11055764347E+03  0.91276103038E+02 0.  0.
         13    1    3    3    0    0  0.11610834252E+02  0.49958554790E+02  0.49458574140E+02  0.71251801554E+02  0.00000000000E+00 0. -1.
        -13    1    3    3    0    0 -0.16139319222E+02 -0.34195539124E+02  0.10730176517E+02  0.39305841920E+02  0.00000000000E+00 0.  1.
         22    1    1    2    0    0  0.45284849703E+01 -0.15763015666E+02 -0.28705764145E+02  0.33060561612E+02  0.00000000000E+00 0.  1.
<mgrwt>
<rscale>  0 0.60139207E+02</rscale>
<asrwt>0</asrwt>
<pdfrwt beam="1">  1        1 0.13469322E-01 0.92737839E+02</pdfrwt>
<pdfrwt beam="2">  1       -1 0.86257861E-02 0.92737839E+02</pdfrwt>
<totfact> 0.28928924E+04</totfact>
</mgrwt>
</event>
<event>
 6    1  0.3075717E-002  0.9779804E+02  0.7546771E-02  0.1339072E+00
         -3   -1    0    0    0  501 -0.00000000000E+00  0.00000000000E+00  0.84292263258E+02  0.84292263258E+02  0.00000000000E+00 0.  1.
          3   -1    0    0  501    0  0.00000000000E+00 -0.00000000000E+00 -0.53734376907E+02  0.53734376907E+02  0.00000000000E+00 0. -1.
         23    2    1    2    0    0 -0.18149367315E+02 -0.31958016055E+02  0.23905590214E+02  0.10067737822E+03  0.90629702181E+02 0.  0.
         11    1    3    3    0    0  0.34108116921E+02 -0.19164733249E+02 -0.52669735166E+01  0.39476469579E+02  0.00000000000E+00 0. -1.
        -11    1    3    3    0    0 -0.52257484236E+02 -0.12793282806E+02  0.29172563730E+02  0.61200908639E+02  0.00000000000E+00 0.  1.
         22    1    1    2    0    0  0.18149367315E+02  0.31958016055E+02  0.66522961373E+01  0.37349261947E+02  0.00000000000E+00 0.  1.
<mgrwt>
<rscale>  0 0.76571660E+02</rscale>
<asrwt>0</asrwt>
<pdfrwt beam="1">  1        3 0.82668273E-02 0.97798043E+02</pdfrwt>
<pdfrwt beam="2">  1       -3 0.12968040E-01 0.97798043E+02</pdfrwt>
<totfact> 0.10114883E+04</totfact>
</mgrwt>
</event>
<event>
 6    1  0.3075717E-002  0.9442606E+02  0.7546771E-02  0.1358775E+00
         -2   -1    0    0    0  501 -0.00000000000E+00  0.00000000000E+00  0.51954727479E+01  0.51954727479E+01  0.00000000000E+00 0.  1.
          2   -1    0    0  501    0  0.00000000000E+00 -0.00000000000E+00 -0.98815825025E+03  0.98815825025E+03  0.00000000000E+00 0. -1.
         23    2    1    2    0    0 -0.24590682813E+02  0.15666867346E+02 -0.90837229623E+03  0.91326694312E+03  0.89811627516E+02 0.  0.
         11    1    3    3    0    0 -0.54696120124E+02  0.18231690839E+02 -0.41703152267E+03  0.42099804157E+03  0.00000000000E+00 0.  1.
        -11    1    3    3    0    0  0.30105437311E+02 -0.25648234932E+01 -0.49134077356E+03  0.49226890155E+03  0.00000000000E+00 0. -1.
         22    1    1    2    0    0  0.24590682813E+02 -0.15666867346E+02 -0.74590481274E+02  0.80086779873E+02  0.00000000000E+00 0.  1.
<mgrwt>
<rscale>  0 0.70389195E+02</rscale>
<asrwt>0</asrwt>
<pdfrwt beam="1">  1        2 0.15202440E+00 0.94426060E+02</pdfrwt>
<pdfrwt beam="2">  1       -2 0.79930324E-03 0.94426060E+02</pdfrwt>
<totfact> 0.70626615E+04</totfact>
</mgrwt>
</event>
<event>
 6    1  0.3075717E-002  0.8628328E+02  0.7546771E-02  0.1422161E+00
          3   -1    0    0  501    0  0.00000000000E+00  0.00000000000E+00  0.46273393697E+02  0.46273393697E+02  0.00000000000E+00 0. -1.
         -3   -1    0    0    0  501 -0.00000000000E+00 -0.00000000000E+00 -0.98942693065E+02  0.98942693065E+02  0.00000000000E+00 0.  1.
         23    2    1    2    0    0  0.13782172579E+02 -0.72428621281E+00  0.45038671015E+01  0.86400750023E+02  0.85172365907E+02 0.  0.
         13    1    3    3    0    0  0.37138380349E+02  0.81955735154E+01  0.31662244726E+02  0.49486608909E+02  0.00000000000E+00 0. -1.
        -13    1    3    3    0    0 -0.23356207770E+02 -0.89198597282E+01 -0.27158377625E+02  0.36914141114E+02  0.00000000000E+00 0.  1.
         22    1    1    2    0    0 -0.13782172579E+02  0.72428621281E+00 -0.57173166470E+02  0.58815336739E+02  0.00000000000E+00 0.  1.
<mgrwt>
<rscale>  0 0.54566253E+02</rscale>
<asrwt>0</asrwt>
<pdfrwt beam="1">  1        3 0.71189837E-02 0.86283282E+02</pdfrwt>
<pdfrwt beam="2">  1       -3 0.15221953E-01 0.86283282E+02</pdfrwt>
<totfact> 0.95281158E+03</totfact>
</mgrwt>
</event>
<event>
 6    1  0.3075717E-002  0.8862511E+02  0.7546771E-02  0.1421409E+00
          1   -1    0    0  501    0  0.00000000000E+00  0.00000000000E+00  0.29069846185E+02  0.29069846185E+02  0.00000000000E+00 0. -1.
         -1   -1    0    0    0  501 -0.00000000000E+00 -0.00000000000E+00 -0.94615943528E+02  0.94615943528E+02  0.00000000000E+00 0.  1.
         23    2    1    2    0    0 -0.29466006259E+01  0.12542154147E+02 -0.44900945478E+02  0.99350416665E+02  0.87683648993E+02 0.  0.
         13    1    3    3    0    0  0.40065896522E+02  0.18244202539E+02 -0.30796737570E+02  0.53726772054E+02  0.00000000000E+00 0. -1.
        -13    1    3    3    0    0 -0.43012497148E+02 -0.57020483928E+01 -0.14104207908E+02  0.45623644610E+02  0.00000000000E+00 0.  1.
         22    1    1    2    0    0  0.29466006259E+01 -0.12542154147E+02 -0.20645151865E+02  0.24335373048E+02  0.00000000000E+00 0.  1.
<mgrwt>
<rscale>  0 0.54723921E+02</rscale>
<asrwt>0</asrwt>
<pdfrwt beam="1">  1        1 0.44722840E-02 0.88625111E+02</pdfrwt>
<pdfrwt beam="2">  1       -1 0.14556299E-01 0.88625111E+02</pdfrwt>
<totfact> 0.55900526E+04</totfact>
</mgrwt>
</event>
<event>
 6    1  0.3075717E-002  0.9393537E+02  0.7546771E-02  0.1380286E+00
         -2   -1    0    0    0  501 -0.00000000000E+00  0.00000000000E+00  0.22804276515E+02  0.22804276515E+02  0.00000000000E+00 0.  1.
          2   -1    0    0  501    0  0.00000000000E+00 -0.00000000000E+00 -0.15613775658E+03  0.15613775658E+03  0.00000000000E+00 0. -1.
         23    2    1    2    0    0  0.18256502383E+02 -0.98352173125E+01 -0.12552971869E+03  0.15678509129E+03  0.91617810472E+02 0.  0.
         11    1    3    3    0    0 -0.33953375222E+02 -0.57200901392E+01 -0.22277566698E+02  0.41010256012E+02  0.00000000000E+00 0. -1.
        -11    1    3    3    0    0  0.52209877605E+02 -0.41151271733E+01 -0.10325215199E+03  0.11577483527E+03  0.00000000000E+00 0.  1.
         22    1    1    2    0    0 -0.18256502383E+02  0.98352173125E+01 -0.78037613748E+01  0.22156941811E+02  0.00000000000E+00 0. -1.
<mgrwt>
<rscale>  0 0.64388661E+02</rscale>
<asrwt>0</asrwt>
<pdfrwt beam="1">  1        2 0.24021193E-01 0.93935374E+02</pdfrwt>
<pdfrwt beam="2">  1       -2 0.35083503E-02 0.93935374E+02</pdfrwt>
<totfact> 0.65232998E+04</totfact>
</mgrwt>
</event>
<event>
 6    1  0.3075717E-002  0.9316543E+02  0.7546771E-02  0.1422045E+00
         -2   -1    0    0    0  501 -0.00000000000E+00  0.00000000000E+00  0.11599328035E+02  0.11599328035E+02  0.00000000000E+00 0.  1.
          2   -1    0    0  501    0  0.00000000000E+00 -0.00000000000E+00 -0.24544977953E+03  0.24544977953E+03  0.00000000000E+00 0. -1.
         23    2    1    2    0    0 -0.10951978912E+02 -0.82110264276E+00 -0.22268003456E+03  0.24138391474E+03  0.92515817313E+02 0.  0.
         11    1    3    3    0    0  0.28987648167E+02  0.17082763585E+02 -0.34538870998E+02  0.48218649585E+02  0.00000000000E+00 0.  1.
        -11    1    3    3    0    0 -0.39939627079E+02 -0.17903866227E+02 -0.18814116356E+03  0.19316526516E+03  0.00000000000E+00 0. -1.
         22    1    1    2    0    0  0.10951978912E+02  0.82110264276E+00 -0.11170416934E+02  0.15665192821E+02  0.00000000000E+00 0.  1.
<mgrwt>
<rscale>  0 0.54590682E+02</rscale>
<asrwt>0</asrwt>
<pdfrwt beam="1">  1        2 0.37761503E-01 0.93165425E+02</pdfrwt>
<pdfrwt beam="2">  1       -2 0.17845121E-02 0.93165425E+02</pdfrwt>
<totfact> 0.10674014E+05</totfact>
</mgrwt>
</event>
<event>
 6    1  0.3075717E-002  0.9664984E+02  0.7546771E-02  0.1413465E+00
          2   -1    0    0  501    0  0.00000000000E+00  0.00000000000E+00  0.34933603686E+03  0.34933603686E+03  0.00000000000E+00 0. -1.
         -2   -1    0    0    0  501 -0.00000000000E+00 -0.00000000000E+00 -0.13036404897E+02  0.13036404897E+02  0.00000000000E+00 0.  1.
         23    2    1    2    0    0  0.96418904828E+01  0.57568607023E+01  0.33751175834E+03  0.35107745403E+03  0.95995230163E+02 0.  0.
         11    1    3    3    0    0  0.48240017002E+02  0.20771730569E+02  0.22862289804E+03  0.23457833135E+03  0.00000000000E+00 0. -1.
        -11    1    3    3    0    0 -0.38598126519E+02 -0.15014869867E+02  0.10888886030E+03  0.11649912268E+03  0.00000000000E+00 0.  1.
         22    1    1    2    0    0 -0.96418904828E+01 -0.57568607023E+01 -0.12121263834E+01  0.11294987720E+02  0.00000000000E+00 0.  1.
<mgrwt>
<rscale>  0 0.56427846E+02</rscale>
<asrwt>0</asrwt>
<pdfrwt beam="1">  1        2 0.53743999E-01 0.96649841E+02</pdfrwt>
<pdfrwt beam="2">  1       -2 0.20056010E-02 0.96649841E+02</pdfrwt>
<totfact> 0.62675090E+04</totfact>
</mgrwt>
</event>
<event>
 6    1  0.3075717E-002  0.1207325E+03  0.7546771E-02  0.1264376E+00
          2   -1    0    0  501    0  0.00000000000E+00  0.00000000000E+00  0.88602184956E+03  0.88602184956E+03  0.00000000000E+00 0. -1.
         -2   -1    0    0    0  501 -0.00000000000E+00 -0.00000000000E+00 -0.11991787869E+02  0.11991787869E+02  0.00000000000E+00 0.  1.
         23    2    1    2    0    0 -0.24836293481E+02 -0.73119380250E+02  0.64813514677E+03  0.65928408788E+03  0.92806545072E+02 0.  0.
         11    1    3    3    0    0 -0.15132499601E+02 -0.39111514212E+02  0.58819927641E+03  0.58969237052E+03  0.00000000000E+00 0. -1.
        -11    1    3    3    0    0 -0.97037938800E+01 -0.34007866038E+02  0.59935870363E+02  0.69591717354E+02  0.00000000000E+00 0.  1.
         22    1    1    2    0    0  0.24836293481E+02  0.73119380250E+02  0.22589491492E+03  0.23872954955E+03  0.00000000000E+00 0. -1.
<mgrwt>
<rscale>  0 0.10797019E+03</rscale>
<asrwt>0</asrwt>
<pdfrwt beam="1">  1        2 0.13631100E+00 0.12073251E+03</pdfrwt>
<pdfrwt beam="2">  1       -2 0.18448911E-02 0.12073251E+03</pdfrwt>
<totfact> 0.25339205E+04</totfact>
</mgrwt>
</event>
<event>
 6    1  0.3075717E-002  0.1052109E+03  0.7546771E-02  0.1305555E+00
         -4   -1    0    0    0  501 -0.00000000000E+00  0.00000000000E+00  0.27274032044E+03  0.27274032044E+03  0.00000000000E+00 0.  1.
          4   -1    0    0  501    0  0.00000000000E+00 -0.00000000000E+00 -0.23584855630E+02  0.23584855630E+02  0.00000000000E+00 0. -1.
         23    2    1    2    0    0  0.48866247517E+02 -0.22060676562E+02  0.18389758633E+03  0.21186705450E+03  0.90524819383E+02 0.  0.
         13    1    3    3    0    0  0.44387217865E+02 -0.33518693263E+02  0.42666221806E+02  0.70100887235E+02  0.00000000000E+00 0. -1.
        -13    1    3    3    0    0  0.44790296513E+01  0.11458016701E+02  0.14123136453E+03  0.14176616726E+03  0.00000000000E+00 0.  1.
         22    1    1    2    0    0 -0.48866247517E+02  0.22060676562E+02  0.65257878471E+02  0.84458121570E+02  0.00000000000E+00 0.  1.
<mgrwt>
<rscale>  0 0.88892950E+02</rscale>
<asrwt>0</asrwt>
<pdfrwt beam="1">  1        4 0.36284395E-02 0.10521087E+03</pdfrwt>
<pdfrwt beam="2">  1       -4 0.41960047E-01 0.10521087E+03</pdfrwt>
<totfact> 0.33975379E+03</totfact>
</mgrwt>
</event>
<event>
 6    1  0.3075717E-002  0.9341482E+02  0.7546771E-02  0.1386788E+00
          2   -1    0    0  501    0  0.00000000000E+00  0.00000000000E+00  0.11277555264E+02  0.11277555264E+02  0.00000000000E+00 0. -1.
         -2   -1    0    0    0  501 -0.00000000000E+00 -0.00000000000E+00 -0.28209675909E+03  0.28209675909E+03  0.00000000000E+00 0.  1.
         23    2    1    2    0    0 -0.13687085011E+02 -0.13141621854E+02 -0.23390904936E+03  0.25187253097E+03  0.91467425704E+02 0.  0.
         11    1    3    3    0    0  0.70190796418E+01 -0.30605200769E+02 -0.21842809113E+03  0.22067346190E+03  0.00000000000E+00 0.  1.
        -11    1    3    3    0    0 -0.20706164653E+02  0.17463578915E+02 -0.15480958230E+02  0.31199069071E+02  0.00000000000E+00 0. -1.
         22    1    1    2    0    0  0.13687085011E+02  0.13141621854E+02 -0.36910154466E+02  0.41501783381E+02  0.00000000000E+00 0.  1.
<mgrwt>
<rscale>  0 0.62712694E+02</rscale>
<asrwt>0</asrwt>
<pdfrwt beam="1">  1        2 0.17350084E-02 0.93414819E+02</pdfrwt>
<pdfrwt beam="2">  1       -2 0.43399503E-01 0.93414819E+02</pdfrwt>
<totfact> 0.29660476E+04</totfact>
</mgrwt>
</event>
<event>
 6    1  0.3075717E-002  0.9901063E+02  0.7546771E-02  0.1412376E+00
          2   -1    0    0  501    0  0.00000000000E+00  0.00000000000E+00  0.24287502676E+03  0.24287502676E+03  0.00000000000E+00 0. -1.
         -2   -1    0    0    0  501 -0.00000000000E+00 -0.00000000000E+00 -0.14717201774E+02  0.14717201774E+02  0.00000000000E+00 0.  1.
         23    2    1    2    0    0  0.48988073764E+01  0.94268776201E+01  0.22602037700E+03  0.24675557687E+03  0.98439014432E+02 0.  0.
         11    1    3    3    0    0 -0.36610278329E+02 -0.20593442902E+01  0.34139363815E+02  0.50100394609E+02  0.00000000000E+00 0.  1.
        -11    1    3    3    0    0  0.41509085705E+02  0.11486221910E+02  0.19188101318E+03  0.19665518226E+03  0.00000000000E+00 0. -1.
         22    1    1    2    0    0 -0.48988073764E+01 -0.94268776201E+01  0.21374479874E+01  0.10836651663E+02  0.00000000000E+00 0.  1.
<mgrwt>
<rscale>  0 0.56667094E+02</rscale>
<asrwt>0</asrwt>
<pdfrwt beam="1">  1        2 0.37365386E-01 0.99010625E+02</pdfrwt>
<pdfrwt beam="2">  1       -2 0.22641851E-02 0.99010625E+02</pdfrwt>
<totfact> 0.77311940E+04</totfact>
</mgrwt>
</event>
<event>
 6    1  0.3075717E-002  0.9132550E+02  0.7546771E-02  0.1370335E+00
         -2   -1    0    0    0  501 -0.00000000000E+00  0.00000000000E+00  0.25255959774E+02  0.25255959774E+02  0.00000000000E+00 0.  1.
          2   -1    0    0  501    0  0.00000000000E+00 -0.00000000000E+00 -0.18297686087E+03  0.18297686087E+03  0.00000000000E+00 0. -1.
         23    2    1    2    0    0 -0.22336554115E+02 -0.14394894176E+02 -0.15702405793E+03  0.18165049158E+03  0.87373976070E+02 0.  0.
         11    1    3    3    0    0  0.26823438129E+02  0.15993771526E+02 -0.36864583103E+02  0.48314542822E+02  0.00000000000E+00 0.  1.
        -11    1    3    3    0    0 -0.49159992244E+02 -0.30388665702E+02 -0.12015947483E+03  0.13333594876E+03  0.00000000000E+00 0. -1.
         22    1    1    2    0    0  0.22336554115E+02  0.14394894176E+02 -0.69684316536E+00  0.26582329064E+02  0.00000000000E+00 0.  1.
<mgrwt>
<rscale>  0 0.67074118E+02</rscale>
<asrwt>0</asrwt>
<pdfrwt beam="1">  1        2 0.28150286E-01 0.91325497E+02</pdfrwt>
<pdfrwt beam="2">  1       -2 0.38855323E-02 0.91325497E+02</pdfrwt>
<totfact> 0.47100434E+04</totfact>
</mgrwt>
</event>
<event>
 6    1  0.3075717E-002  0.9270158E+02  0.7546771E-02  0.1380444E+00
         -2   -1    0    0    0  501 -0.00000000000E+00  0.00000000000E+00  0.90801006352E+02  0.90801006352E+02  0.00000000000E+00 0.  1.
          2   -1    0    0  501    0  0.00000000000E+00 -0.00000000000E+00 -0.53639584205E+02  0.53639584205E+02  0.00000000000E+00 0. -1.
         23    2    1    2    0    0 -0.94241978075E+01  0.19347410293E+02 -0.93696132220E+01  0.93173885554E+02  0.90168983070E+02 0.  0.
         13    1    3    3    0    0 -0.46768527291E+02  0.29148579453E+01 -0.20097423181E+02  0.50987233308E+02  0.00000000000E+00 0. -1.
        -13    1    3    3    0    0  0.37344329484E+02  0.16432552347E+02  0.10727809959E+02  0.42186652246E+02  0.00000000000E+00 0.  1.
         22    1    1    2    0    0  0.94241978075E+01 -0.19347410293E+02  0.46531035369E+02  0.51266705003E+02  0.00000000000E+00 0. -1.
<mgrwt>
<rscale>  0 0.64347123E+02</rscale>
<asrwt>0</asrwt>
<pdfrwt beam="1">  1        2 0.82522437E-02 0.92701582E+02</pdfrwt>
<pdfrwt beam="2">  1       -2 0.13969386E-01 0.92701582E+02</pdfrwt>
<totfact> 0.27636660E+04</totfact>
</mgrwt>
</event>
<event>
 6    1  0.3075717E-002  0.9294117E+02  0.7546771E-02  0.1372897E+00
         -2   -1    0    0    0  501 -0.00000000000E+00  0.00000000000E+00  0.15187395942E+03  0.15187395942E+03  0.00000000000E+00 0.  1.
          2   -1    0    0  501    0  0.00000000000E+00 -0.00000000000E+00 -0.79857440084E+02  0.79857440084E+02  0.00000000000E+00 0. -1.
         23    2    1    2    0    0 -0.13628019045E+02  0.19957979312E+02 -0.51238567520E+02  0.10612940797E+03  0.89744173033E+02 0.  0.
         11    1    3    3    0    0  0.34028826682E+02  0.26413392651E+02 -0.13965390709E+02  0.45284219043E+02  0.00000000000E+00 0. -1.
        -11    1    3    3    0    0 -0.47656845728E+02 -0.64554133383E+01 -0.37273176811E+02  0.60845188928E+02  0.00000000000E+00 0.  1.
         22    1    1    2    0    0  0.13628019045E+02 -0.19957979312E+02  0.12325508686E+03  0.12560199153E+03  0.00000000000E+00 0.  1.
<mgrwt>
<rscale>  0 0.66368465E+02</rscale>
<asrwt>0</asrwt>
<pdfrwt beam="1">  1        2 0.12285760E-01 0.92941167E+02</pdfrwt>
<pdfrwt beam="2">  1       -2 0.23365224E-01 0.92941167E+02</pdfrwt>
<totfact> 0.72805371E+03</totfact>
</mgrwt>
</event>
<event>
 6    1  0.3075717E-002  0.1027928E+03  0.7546771E-02  0.1312125E+00
          1   -1    0    0  501    0  0.00000000000E+00  0.00000000000E+00  0.21307800008E+03  0.21307800008E+03  0.00000000000E+00 0. -1.
         -1   -1    0    0    0  501 -0.00000000000E+00 -0.00000000000E+00 -0.31875768779E+02  0.31875768779E+02  0.00000000000E+00 0.  1.
         23    2    1    2    0    0  0.35122788920E+02 -0.37000054203E+02  0.15895926042E+03  0.18929980165E+03  0.89239868435E+02 0.  0.
         13    1    3    3    0    0  0.72775538027E+01 -0.16074745148E+02 -0.75453730187E+01  0.19190958155E+02  0.00000000000E+00 0.  1.
        -13    1    3    3    0    0  0.27845235118E+02 -0.20925309055E+02  0.16650463344E+03  0.17010884350E+03  0.00000000000E+00 0. -1.
         22    1    1    2    0    0 -0.35122788920E+02  0.37000054203E+02  0.22242970879E+02  0.55653967209E+02  0.00000000000E+00 0.  1.
<mgrwt>
<rscale>  0 0.86277665E+02</rscale>
<asrwt>0</asrwt>
<pdfrwt beam="1">  1        1 0.32781230E-01 0.10279284E+03</pdfrwt>
<pdfrwt beam="2">  1       -1 0.49039646E-02 0.10279284E+03</pdfrwt>
<totfact> 0.22119229E+04</totfact>
</mgrwt>
</event>
<event>
 6    1  0.3075717E-002  0.9190142E+02  0.7546771E-02  0.1394292E+00
         -2   -1    0    0    0  501 -0.00000000000E+00  0.00000000000E+00  0.34103565592E+02  0.34103565592E+02  0.00000000000E+00 0.  1.
          2   -1    0    0  501    0  0.00000000000E+00 -0.00000000000E+00 -0.88222668373E+02  0.88222668373E+02  0.00000000000E+00 0. -1.
         23    2    1    2    0    0  0.43194818393E+01  0.17129278267E+02 -0.47593163236E+02  0.10349386863E+03  0.90187590938E+02 0.  0.
         11    1    3    3    0    0 -0.10881722961E+02  0.26540567254E+02  0.19089439761E+02  0.34456063547E+02  0.00000000000E+00 0.  1.
        -11    1    3    3    0    0  0.15201204800E+02 -0.94112889871E+01 -0.66682602997E+02  0.69037805080E+02  0.00000000000E+00 0. -1.
         22    1    1    2    0    0 -0.43194818393E+01 -0.17129278267E+02 -0.65259395441E+01  0.18832365339E+02  0.00000000000E+00 0.  1.
<mgrwt>
<rscale>  0 0.60851768E+02</rscale>
<asrwt>0</asrwt>
<pdfrwt beam="1">  1        2 0.13572718E-01 0.91901424E+02</pdfrwt>
<pdfrwt beam="2">  1       -2 0.52467025E-02 0.91901424E+02</pdfrwt>
<totfact> 0.68512225E+04</totfact>
</mgrwt>
</event>
<event>
 6    1  0.3075717E-002  0.9112321E+02  0.7546771E-02  0.1408073E+00
         -2   -1    0    0    0  501 -0.00000000000E+00  0.00000000000E+00  0.13320205182E+03  0.13320205182E+03  0.00000000000E+00 0.  1.
          2   -1    0    0  501    0  0.00000000000E+00 -0.00000000000E+00 -0.21913629841E+02  0.21913629841E+02  0.00000000000E+00 0. -1.
         23    2    1    2    0    0 -0.65645652335E+01  0.13012189509E+02  0.82833794530E+02  0.12314575179E+03  0.89950142168E+02 0.  0.
         13    1    3    3    0    0 -0.43357909417E+01 -0.21303397085E+02 -0.10160326693E+02  0.23997209191E+02  0.00000000000E+00 0. -1.
        -13    1    3    3    0    0 -0.22287742917E+01  0.34315586594E+02  0.92994121224E+02  0.99148542603E+02  0.00000000000E+00 0.  1.
         22    1    1    2    0    0  0.65645652335E+01 -0.13012189509E+02  0.28454627453E+02  0.31969929872E+02  0.00000000000E+00 0.  1.
<mgrwt>
<rscale>  0 0.57626038E+02</rscale>
<asrwt>0</asrwt>
<pdfrwt beam="1">  1        2 0.33713277E-02 0.91123206E+02</pdfrwt>
<pdfrwt beam="2">  1       -2 0.20492623E-01 0.91123206E+02</pdfrwt>
<totfact> 0.46347696E+04</totfact>
</mgrwt>
</event>
<event>
 6    1  0.3075717E-002  0.7855886E+02  0.7546771E-02  0.1393929E+00
          2   -1    0    0  501    0  0.00000000000E+00  0.00000000000E+00  0.13124328437E+03  0.13124328437E+03  0.00000000000E+00 0. -1.
         -2   -1    0    0    0  501 -0.00000000000E+00 -0.00000000000E+00 -0.40381320124E+02  0.40381320124E+02  0.00000000000E+00 0.  1.
         23    2    1    2    0    0 -0.20470411713E+00 -0.28445414184E+02  0.11156041365E+03  0.13644493281E+03  0.73227797357E+02 0.  0.
         11    1    3    3    0    0  0.42531281881E+01 -0.33668242645E+02  0.12049153554E+03  0.12517927064E+03  0.00000000000E+00 0. -1.
        -11    1    3    3    0    0 -0.44578323052E+01  0.52228284613E+01 -0.89311218896E+01  0.11265662173E+02  0.00000000000E+00 0.  1.
         22    1    1    2    0    0  0.20470411713E+00  0.28445414184E+02 -0.20698449401E+02  0.35179671680E+02  0.00000000000E+00 0.  1.
<mgrwt>
<rscale>  0 0.60939970E+02</rscale>
<asrwt>0</asrwt>
<pdfrwt beam="1">  1        2 0.20191274E-01 0.78558856E+02</pdfrwt>
<pdfrwt beam="2">  1       -2 0.62125109E-02 0.78558856E+02</pdfrwt>
<totfact> 0.33116023E+04</totfact>
</mgrwt>
</event>
<event>
 6    1  0.3075717E-002  0.9165913E+02  0.7546771E-02  0.1418645E+00
         -2   -1    0    0    0  501 -0.00000000000E+00  0.00000000000E+00  0.88408947792E+01  0.88408947792E+01  0.00000000000E+00 0.  1.
          2   -1    0    0  501    0  0.00000000000E+00 -0.00000000000E+00 -0.31024601181E+03  0.31024601181E+03  0.00000000000E+00 0. -1.
         23    2    1    2    0    0 -0.10677177434E+02 -0.58023514927E+01 -0.27791077259E+03  0.29263594022E+03  0.90850022509E+02 0.  0.
         11    1    3    3    0    0  0.30639182858E+02 -0.91167669040E+01 -0.21457326803E+03  0.21694137991E+03  0.00000000000E+00 0. -1.
        -11    1    3    3    0    0 -0.41316360292E+02  0.33144154113E+01 -0.63337504558E+02  0.75694560313E+02  0.00000000000E+00 0.  1.
         22    1    1    2    0    0  0.10677177434E+02  0.58023514927E+01 -0.23494344439E+02  0.26450966360E+02  0.00000000000E+00 0. -1.
<mgrwt>
<rscale>  0 0.55308657E+02</rscale>
<asrwt>0</asrwt>
<pdfrwt beam="1">  1        2 0.47730156E-01 0.91659129E+02</pdfrwt>
<pdfrwt beam="2">  1       -2 0.13601376E-02 0.91659129E+02</pdfrwt>
<totfact> 0.12278376E+05</totfact>
</mgrwt>
</event>
<event>
 6    1  0.3075717E-002  0.9819819E+02  0.7546771E-02  0.1342079E+00
         -2   -1    0    0    0  501 -0.00000000000E+00  0.00000000000E+00  0.32109609640E+03  0.32109609640E+03  0.00000000000E+00 0. -1.
          2   -1    0    0  501    0  0.00000000000E+00 -0.00000000000E+00 -0.15433726573E+02  0.15433726573E+02  0.00000000000E+00 0.  1.
         23    2    1    2    0    0 -0.15440456533E+02 -0.30810573218E+02  0.16776582653E+03  0.19439201740E+03  0.91952078593E+02 0.  0.
         13    1    3    3    0    0  0.14747175751E+02  0.27606197529E+02  0.40937931092E+02  0.51531500431E+02  0.00000000000E+00 0. -1.
        -13    1    3    3    0    0 -0.30187632283E+02 -0.58416770747E+02  0.12682789544E+03  0.14286051697E+03  0.00000000000E+00 0.  1.
         22    1    1    2    0    0  0.15440456533E+02  0.30810573218E+02  0.13789654329E+03  0.14213780557E+03  0.00000000000E+00 0.  1.
<mgrwt>
<rscale>  0 0.75581569E+02</rscale>
<asrwt>0</asrwt>
<pdfrwt beam="1">  1        2 0.23744197E-02 0.98198187E+02</pdfrwt>
<pdfrwt beam="2">  1       -2 0.49399394E-01 0.98198187E+02</pdfrwt>
<totfact> 0.15217791E+04</totfact>
</mgrwt>
</event>
<event>
 6    1  0.3075717E-002  0.9319579E+02  0.7546771E-02  0.1378732E+00
         -4   -1    0    0    0  501 -0.00000000000E+00  0.00000000000E+00  0.10313928372E+03  0.10313928372E+03  0.00000000000E+00 0.  1.
          4   -1    0    0  501    0  0.00000000000E+00 -0.00000000000E+00 -0.38841105642E+02  0.38841105642E+02  0.00000000000E+00 0. -1.
         23    2    1    2    0    0 -0.18234444266E+02 -0.11911559232E+02  0.73144824660E+02  0.11847202156E+03  0.90614978439E+02 0.  0.
         13    1    3    3    0    0 -0.24335612652E+02  0.83240309850E+01 -0.13666197495E+02  0.29125186505E+02  0.00000000000E+00 0. -1.
        -13    1    3    3    0    0  0.61011683855E+01 -0.20235590217E+02  0.86811022155E+02  0.89346835057E+02  0.00000000000E+00 0.  1.
         22    1    1    2    0    0  0.18234444266E+02  0.11911559232E+02 -0.88466465795E+01  0.23508367803E+02  0.00000000000E+00 0. -1.
<mgrwt>
<rscale>  0 0.64798213E+02</rscale>
<asrwt>0</asrwt>
<pdfrwt beam="1">  1        4 0.59755548E-02 0.93195786E+02</pdfrwt>
<pdfrwt beam="2">  1       -4 0.15867582E-01 0.93195786E+02</pdfrwt>
<totfact> 0.89438117E+03</totfact>
</mgrwt>
</event>
<event>
 6    1  0.3075717E-002  0.9995863E+02  0.7546771E-02  0.1330728E+00
         -2   -1    0    0    0  501 -0.00000000000E+00  0.00000000000E+00  0.20791422115E+02  0.20791422115E+02  0.00000000000E+00 0.  1.
          2   -1    0    0  501    0  0.00000000000E+00 -0.00000000000E+00 -0.24102332586E+03  0.24102332586E+03  0.00000000000E+00 0. -1.
         23    2    1    2    0    0 -0.31481829551E+02  0.24380524876E+02 -0.13744358834E+03  0.16994842796E+03  0.91685400180E+02 0.  0.
         11    1    3    3    0    0 -0.24878987856E+02 -0.29748355363E+02 -0.88704930178E+02  0.96811638358E+02  0.00000000000E+00 0. -1.
        -11    1    3    3    0    0 -0.66028416957E+01  0.54128880239E+02 -0.48738658162E+02  0.73136789605E+02  0.00000000000E+00 0.  1.
         22    1    1    2    0    0  0.31481829551E+02 -0.24380524876E+02 -0.82788315402E+02  0.91866320010E+02  0.00000000000E+00 0. -1.
<mgrwt>
<rscale>  0 0.79412075E+02</rscale>
<asrwt>0</asrwt>
<pdfrwt beam="1">  1        2 0.37080512E-01 0.99958632E+02</pdfrwt>
<pdfrwt beam="2">  1       -2 0.31986803E-02 0.99958632E+02</pdfrwt>
<totfact> 0.47243559E+04</totfact>
</mgrwt>
</event>
<event>
 6    1  0.3075717E-002  0.7784137E+02  0.7546771E-02  0.1395691E+00
         -2   -1    0    0    0  501 -0.00000000000E+00  0.00000000000E+00  0.38739311521E+01  0.38739311521E+01  0.00000000000E+00 0.  1.
          2   -1    0    0  501    0  0.00000000000E+00 -0.00000000000E+00 -0.74715555976E+03  0.74715555976E+03  0.00000000000E+00 0. -1.
         23    2    1    2    0    0  0.11268951945E+02 -0.26100550326E+02 -0.59246590989E+03  0.59755764002E+03  0.72464134257E+02 0.  0.
         11    1    3    3    0    0  0.76915178995E+01  0.24827564969E+02 -0.16148107315E+03  0.16355948281E+03  0.00000000000E+00 0.  1.
        -11    1    3    3    0    0  0.35774340451E+01 -0.50928115295E+02 -0.43098483674E+03  0.43399815721E+03  0.00000000000E+00 0. -1.
         22    1    1    2    0    0 -0.11268951945E+02  0.26100550326E+02 -0.15081571871E+03  0.15347185089E+03  0.00000000000E+00 0.  1.
<mgrwt>
<rscale>  0 0.60513126E+02</rscale>
<asrwt>0</asrwt>
<pdfrwt beam="1">  1        2 0.11494692E+00 0.77841369E+02</pdfrwt>
<pdfrwt beam="2">  1       -2 0.59598987E-03 0.77841369E+02</pdfrwt>
<totfact> 0.14764014E+05</totfact>
</mgrwt>
</event>
<event>
 6    1  0.3075717E-002  0.9175473E+02  0.7546771E-02  0.1410949E+00
          4   -1    0    0  501    0  0.00000000000E+00  0.00000000000E+00  0.51388462892E+03  0.51388462892E+03  0.00000000000E+00 0. -1.
         -4   -1    0    0    0  501 -0.00000000000E+00 -0.00000000000E+00 -0.57118275886E+01  0.57118275886E+01  0.00000000000E+00 0.  1.
         23    2    1    2    0    0 -0.10071424052E+01 -0.13611353125E+02  0.47399614711E+03  0.48279527495E+03  0.90733933993E+02 0.  0.
         11    1    3    3    0    0 -0.33219904150E+02 -0.35018797708E+01  0.71861185780E+02  0.79245537510E+02  0.00000000000E+00 0.  1.
        -11    1    3    3    0    0  0.32212761745E+02 -0.10109473354E+02  0.40213496133E+03  0.40354973744E+03  0.00000000000E+00 0. -1.
         22    1    1    2    0    0  0.10071424052E+01  0.13611353125E+02  0.34176654229E+02  0.36801181557E+02  0.00000000000E+00 0. -1.
<mgrwt>
<rscale>  0 0.56982706E+02</rscale>
<asrwt>0</asrwt>
<pdfrwt beam="1">  1        4 0.79059137E-01 0.91754728E+02</pdfrwt>
<pdfrwt beam="2">  1       -4 0.87874311E-03 0.91754728E+02</pdfrwt>
<totfact> 0.76574288E+03</totfact>
</mgrwt>
</event>
<event>
 6    1  0.3075717E-002  0.9329587E+02  0.7546771E-02  0.1354320E+00
          2   -1    0    0  501    0  0.00000000000E+00  0.00000000000E+00  0.59022109713E+03  0.59022109713E+03  0.00000000000E+00 0. -1.
         -2   -1    0    0    0  501 -0.00000000000E+00 -0.00000000000E+00 -0.86469808862E+01  0.86469808862E+01  0.00000000000E+00 0.  1.
         23    2    1    2    0    0  0.74355451763E+01  0.31733468486E+02  0.52784127897E+03  0.53602288603E+03  0.87417493727E+02 0.  0.
         11    1    3    3    0    0 -0.19910219284E+02  0.32665057384E+02  0.47481379109E+03  0.47635234755E+03  0.00000000000E+00 0. -1.
        -11    1    3    3    0    0  0.27345764460E+02 -0.93158889744E+00  0.53027487875E+02  0.59670538477E+02  0.00000000000E+00 0.  1.
         22    1    1    2    0    0 -0.74355451763E+01 -0.31733468486E+02  0.53732837276E+02  0.62845191988E+02  0.00000000000E+00 0.  1.
<mgrwt>
<rscale>  0 0.71726182E+02</rscale>
<asrwt>0</asrwt>
<pdfrwt beam="1">  1        2 0.90803214E-01 0.93295866E+02</pdfrwt>
<pdfrwt beam="2">  1       -2 0.13303052E-02 0.93295866E+02</pdfrwt>
<totfact> 0.63957546E+04</totfact>
</mgrwt>
</event>
<event>
 6    1  0.3075717E-002  0.9540344E+02  0.7546771E-02  0.1367105E+00
          2   -1    0    0  501    0  0.00000000000E+00  0.00000000000E+00  0.23106941666E+03  0.23106941666E+03  0.00000000000E+00 0. -1.
         -2   -1    0    0    0  501 -0.00000000000E+00 -0.00000000000E+00 -0.15591375027E+02  0.15591375027E+02  0.00000000000E+00 0.  1.
         23    2    1    2    0    0  0.68975402036E+01 -0.23605162253E+02  0.17411384443E+03  0.19853827559E+03  0.92179370271E+02 0.  0.
         11    1    3    3    0    0  0.19327538294E+02 -0.23533232892E+02  0.73700975354E+01  0.31331854789E+02  0.00000000000E+00 0.  1.
        -11    1    3    3    0    0 -0.12429998090E+02 -0.71929361572E-01  0.16674374690E+03  0.16720642080E+03  0.00000000000E+00 0. -1.
         22    1    1    2    0    0 -0.68975402036E+01  0.23605162253E+02  0.41364197203E+02  0.48122516103E+02  0.00000000000E+00 0.  1.
<mgrwt>
<rscale>  0 0.67978672E+02</rscale>
<asrwt>0</asrwt>
<pdfrwt beam="1">  1        2 0.35549139E-01 0.95403438E+02</pdfrwt>
<pdfrwt beam="2">  1       -2 0.23986732E-02 0.95403438E+02</pdfrwt>
<totfact> 0.74583504E+04</totfact>
</mgrwt>
</event>
<event>
 6    1  0.3075717E-002  0.8364795E+02  0.7546771E-02  0.1419211E+00
          2   -1    0    0  501    0  0.00000000000E+00  0.00000000000E+00  0.10772253880E+04  0.10772253880E+04  0.00000000000E+00 0. -1.
         -2   -1    0    0    0  501 -0.00000000000E+00 -0.00000000000E+00 -0.12603732425E+02  0.12603732425E+02  0.00000000000E+00 0.  1.
         23    2    1    2    0    0  0.14811416248E+02  0.56416922272E+01  0.10698686465E+04  0.10731336822E+04  0.82132650844E+02 0.  0.
         11    1    3    3    0    0  0.75507016450E+01  0.31546929039E+02  0.93737934427E+03  0.93794043355E+03  0.00000000000E+00 0. -1.
        -11    1    3    3    0    0  0.72607146035E+01 -0.25905236812E+02  0.13248930225E+03  0.13519324866E+03  0.00000000000E+00 0.  1.
         22    1    1    2    0    0 -0.14811416248E+02 -0.56416922272E+01 -0.52469909660E+01  0.16695438199E+02  0.00000000000E+00 0.  1.
<mgrwt>
<rscale>  0 0.55188092E+02</rscale>
<asrwt>0</asrwt>
<pdfrwt beam="1">  1        2 0.16572691E+00 0.83647947E+02</pdfrwt>
<pdfrwt beam="2">  1       -2 0.19390366E-02 0.83647947E+02</pdfrwt>
<totfact> 0.17598152E+04</totfact>
</mgrwt>
</event>
<event>
 6    1  0.3075717E-002  0.1099915E+03  0.7546771E-02  0.1318985E+00
         -1   -1    0    0    0  501 -0.00000000000E+00  0.00000000000E+00  0.11153248931E+02  0.11153248931E+02  0.00000000000E+00 0.  1.
          1   -1    0    0  501    0  0.00000000000E+00 -0.00000000000E+00 -0.49708022571E+03  0.49708022571E+03  0.00000000000E+00 0. -1.
         23    2    1    2    0    0  0.13960802226E+02 -0.34054501022E+02 -0.39788244960E+03  0.41280574384E+03  0.10365097884E+03 0.  0.
         13    1    3    3    0    0 -0.18109713696E+02  0.12678718209E+02 -0.29088001671E+03  0.29171886423E+03  0.00000000000E+00 0. -1.
        -13    1    3    3    0    0  0.32070515922E+02 -0.46733219231E+02 -0.10700243288E+03  0.12108687961E+03  0.00000000000E+00 0.  1.
         22    1    1    2    0    0 -0.13960802226E+02  0.34054501022E+02 -0.88044527186E+02  0.95427730802E+02  0.00000000000E+00 0. -1.
<mgrwt>
<rscale>  0 0.83655859E+02</rscale>
<asrwt>0</asrwt>
<pdfrwt beam="1">  1        1 0.76473893E-01 0.10999154E+03</pdfrwt>
<pdfrwt beam="2">  1       -1 0.17158842E-02 0.10999154E+03</pdfrwt>
<totfact> 0.35572358E+04</totfact>
</mgrwt>
</event>
<event>
 6    1  0.3075717E-002  0.8971006E+02  0.7546771E-02  0.1409930E+00
          3   -1    0    0  501    0  0.00000000000E+00  0.00000000000E+00  0.37233322242E+03  0.37233322242E+03  0.00000000000E+00 0. -1.
         -3   -1    0    0    0  501 -0.00000000000E+00 -0.00000000000E+00 -0.74109489683E+01  0.74109489683E+01  0.00000000000E+00 0.  1.
         23    2    1    2    0    0 -0.10946047685E+02  0.10016184540E+02  0.29873327770E+03  0.31191259267E+03  0.88474597195E+02 0.  0.
         11    1    3    3    0    0  0.13793106333E+02  0.23938099971E+02  0.26762879304E+02  0.38464712675E+02  0.00000000000E+00 0.  1.
        -11    1    3    3    0    0 -0.24739154018E+02 -0.13921915432E+02  0.27197039840E+03  0.27344788000E+03  0.00000000000E+00 0. -1.
         22    1    1    2    0    0  0.10946047685E+02 -0.10016184540E+02  0.66188995749E+02  0.67831578714E+02  0.00000000000E+00 0. -1.
<mgrwt>
<rscale>  0 0.57209506E+02</rscale>
<asrwt>0</asrwt>
<pdfrwt beam="1">  1        3 0.57282020E-01 0.89710057E+02</pdfrwt>
<pdfrwt beam="2">  1       -3 0.11401463E-02 0.89710057E+02</pdfrwt>
<totfact> 0.13944340E+04</totfact>
</mgrwt>
</event>
<event>
 6    1  0.3075717E-002  0.9220792E+02  0.7546771E-02  0.1411713E+00
         -2   -1    0    0    0  501 -0.00000000000E+00  0.00000000000E+00  0.40058516654E+02  0.40058516654E+02  0.00000000000E+00 0.  1.
          2   -1    0    0  501    0  0.00000000000E+00 -0.00000000000E+00 -0.12331929099E+03  0.12331929099E+03  0.00000000000E+00 0. -1.
         23    2    1    2    0    0  0.11106915592E+02  0.72963110324E+01 -0.10384640593E+03  0.13887540049E+03  0.91245279925E+02 0.  0.
         11    1    3    3    0    0  0.39192931473E+02  0.33192865505E+02 -0.42776275673E+02  0.66840571200E+02  0.00000000000E+00 0. -1.
        -11    1    3    3    0    0 -0.28086015881E+02 -0.25896554472E+02 -0.61070130256E+02  0.72034829291E+02  0.00000000000E+00 0.  1.
         22    1    1    2    0    0 -0.11106915592E+02 -0.72963110324E+01  0.20585631588E+02  0.24502407158E+02  0.00000000000E+00 0.  1.
<mgrwt>
<rscale>  0 0.56813289E+02</rscale>
<asrwt>0</asrwt>
<pdfrwt beam="1">  1        2 0.18972199E-01 0.92207922E+02</pdfrwt>
<pdfrwt beam="2">  1       -2 0.61628487E-02 0.92207922E+02</pdfrwt>
<totfact> 0.36682812E+04</totfact>
</mgrwt>
</event>
<event>
 6    1  0.3075717E-002  0.8854468E+02  0.7546771E-02  0.1423372E+00
         -2   -1    0    0    0  501 -0.00000000000E+00  0.00000000000E+00  0.12449369817E+02  0.12449369817E+02  0.00000000000E+00 0.  1.
          2   -1    0    0  501    0  0.00000000000E+00 -0.00000000000E+00 -0.21238227845E+03  0.21238227845E+03  0.00000000000E+00 0. -1.
         23    2    1    2    0    0 -0.10728135735E+02  0.64849580100E+01 -0.18653503538E+03  0.20648360792E+03  0.87652799960E+02 0.  0.
         13    1    3    3    0    0 -0.32331771602E+02 -0.30030889312E+02 -0.73257325819E+02  0.85520953888E+02  0.00000000000E+00 0.  1.
        -13    1    3    3    0    0  0.21603635867E+02  0.36515847322E+02 -0.11327770956E+03  0.12096265403E+03  0.00000000000E+00 0. -1.
         22    1    1    2    0    0  0.10728135735E+02 -0.64849580100E+01 -0.13397873259E+02  0.18348040348E+02  0.00000000000E+00 0.  1.
<mgrwt>
<rscale>  0 0.54313817E+02</rscale>
<asrwt>0</asrwt>
<pdfrwt beam="1">  1        2 0.32674194E-01 0.88544683E+02</pdfrwt>
<pdfrwt beam="2">  1       -2 0.19152878E-02 0.88544683E+02</pdfrwt>
<totfact> 0.11150957E+05</totfact>
</mgrwt>
</event>
<event>
 6    1  0.3075717E-002  0.9203451E+02  0.7546771E-02  0.1416456E+00
          2   -1    0    0  501    0  0.00000000000E+00  0.00000000000E+00  0.15373464959E+03  0.15373464959E+03  0.00000000000E+00 0. -1.
         -2   -1    0    0    0  501 -0.00000000000E+00 -0.00000000000E+00 -0.17790879482E+02  0.17790879482E+02  0.00000000000E+00 0.  1.
         23    2    1    2    0    0  0.22051728981E+01 -0.12218925454E+02  0.12256836627E+03  0.15327542347E+03  0.91193125302E+02 0.  0.
         11    1    3    3    0    0 -0.78741312258E+01  0.26635580698E+02  0.39565285194E+01  0.28055484662E+02  0.00000000000E+00 0.  1.
        -11    1    3    3    0    0  0.10079304124E+02 -0.38854506153E+02  0.11861183775E+03  0.12521993880E+03  0.00000000000E+00 0. -1.
         22    1    1    2    0    0 -0.22051728981E+01  0.12218925454E+02  0.13375403842E+02  0.18250105608E+02  0.00000000000E+00 0. -1.
<mgrwt>
<rscale>  0 0.55777780E+02</rscale>
<asrwt>0</asrwt>
<pdfrwt beam="1">  1        2 0.23651484E-01 0.92034510E+02</pdfrwt>
<pdfrwt beam="2">  1       -2 0.27370585E-02 0.92034510E+02</pdfrwt>
<totfact> 0.94978573E+04</totfact>
</mgrwt>
</event>
<event>
 6    1  0.3075717E-002  0.9338225E+02  0.7546771E-02  0.1421680E+00
         -1   -1    0    0    0  501 -0.00000000000E+00  0.00000000000E+00  0.24012967017E+03  0.24012967017E+03  0.00000000000E+00 0.  1.
          1   -1    0    0  501    0  0.00000000000E+00 -0.00000000000E+00 -0.13029780227E+02  0.13029780227E+02  0.00000000000E+00 0. -1.
         23    2    1    2    0    0  0.61386542864E+01  0.90887165858E+01  0.22243365040E+03  0.24124048916E+03  0.92735952742E+02 0.  0.
         13    1    3    3    0    0 -0.38275070696E+02 -0.16118592647E+02  0.84444856345E+02  0.94104855501E+02  0.00000000000E+00 0.  1.
        -13    1    3    3    0    0  0.44413724982E+02  0.25207309233E+02  0.13798879406E+03  0.14713563366E+03  0.00000000000E+00 0. -1.
         22    1    1    2    0    0 -0.61386542864E+01 -0.90887165858E+01  0.46662395400E+01  0.11918961241E+02  0.00000000000E+00 0. -1.
<mgrwt>
<rscale>  0 0.54667092E+02</rscale>
<asrwt>0</asrwt>
<pdfrwt beam="1">  1        1 0.20045817E-02 0.93382251E+02</pdfrwt>
<pdfrwt beam="2">  1       -1 0.36943023E-01 0.93382251E+02</pdfrwt>
<totfact> 0.37428257E+04</totfact>
</mgrwt>
</event>
<event>
 6    1  0.3075717E-002  0.9539628E+02  0.7546771E-02  0.1361185E+00
         -2   -1    0    0    0  501 -0.00000000000E+00  0.00000000000E+00  0.87904801007E+01  0.87904801007E+01  0.00000000000E+00 0.  1.
          2   -1    0    0  501    0  0.00000000000E+00 -0.00000000000E+00 -0.87301606517E+03  0.87301606517E+03  0.00000000000E+00 0. -1.
         23    2    1    2    0    0 -0.13680576751E+02 -0.23455949776E+02 -0.84005223759E+03  0.84545148389E+03  0.91450040781E+02 0.  0.
         13    1    3    3    0    0 -0.52971381745E+02 -0.11249407114E+02 -0.49644581319E+03  0.49939059050E+03  0.00000000000E+00 0.  1.
        -13    1    3    3    0    0  0.39290804994E+02 -0.12206542662E+02 -0.34360642440E+03  0.34606089339E+03  0.00000000000E+00 0. -1.
         22    1    1    2    0    0  0.13680576751E+02  0.23455949776E+02 -0.24173347476E+02  0.36355061385E+02  0.00000000000E+00 0.  1.
<mgrwt>
<rscale>  0 0.69679821E+02</rscale>
<asrwt>0</asrwt>
<pdfrwt beam="1">  1        2 0.13431016E+00 0.95396277E+02</pdfrwt>
<pdfrwt beam="2">  1       -2 0.13523816E-02 0.95396277E+02</pdfrwt>
<totfact> 0.39424379E+04</totfact>
</mgrwt>
</event>
<event>
 6    1  0.3075717E-002  0.1039207E+03  0.7546771E-02  0.1313595E+00
         -2   -1    0    0    0  501 -0.00000000000E+00  0.00000000000E+00  0.16170668593E+03  0.16170668593E+03  0.00000000000E+00 0.  1.
          2   -1    0    0  501    0  0.00000000000E+00 -0.00000000000E+00 -0.35728428696E+02  0.35728428696E+02  0.00000000000E+00 0. -1.
         23    2    1    2    0    0  0.42190080039E+02  0.23054956963E+02  0.87649878921E+02  0.13594854310E+03  0.92130186156E+02 0.  0.
         13    1    3    3    0    0  0.34334259951E+02  0.29165883936E+02 -0.26253821503E+01  0.45126298580E+02  0.00000000000E+00 0. -1.
        -13    1    3    3    0    0  0.78558200884E+01 -0.61109269723E+01  0.90275261071E+02  0.90822244518E+02  0.00000000000E+00 0.  1.
         22    1    1    2    0    0 -0.42190080039E+02 -0.23054956963E+02  0.38328378313E+02  0.61486571529E+02  0.00000000000E+00 0. -1.
<mgrwt>
<rscale>  0 0.85706543E+02</rscale>
<asrwt>0</asrwt>
<pdfrwt beam="1">  1        2 0.54966814E-02 0.10392067E+03</pdfrwt>
<pdfrwt beam="2">  1       -2 0.24877951E-01 0.10392067E+03</pdfrwt>
<totfact> 0.17888976E+04</totfact>
</mgrwt>
</event>
<event>
 6    1  0.3075717E-002  0.9543947E+02  0.7546771E-02  0.1366446E+00
          2   -1    0    0  501    0  0.00000000000E+00  0.00000000000E+00  0.22769642764E+04  0.22769642764E+04  0.00000000000E+00 0. -1.
         -2   -1    0    0    0  501 -0.00000000000E+00 -0.00000000000E+00 -0.26179195805E+01  0.26179195805E+01  0.00000000000E+00 0.  1.
         23    2    1    2    0    0 -0.18255583422E+02 -0.16837809429E+02  0.21778828798E+04  0.21799730571E+04  0.92151578119E+02 0.  0.
         11    1    3    3    0    0  0.12026697891E+02 -0.47742401429E+02  0.14227443479E+04  0.14235959601E+04  0.00000000000E+00 0. -1.
        -11    1    3    3    0    0 -0.30282281313E+02  0.30904591999E+02  0.75513853195E+03  0.75637709696E+03  0.00000000000E+00 0.  1.
         22    1    1    2    0    0  0.18255583422E+02  0.16837809429E+02  0.96463477051E+02  0.99609138924E+02  0.00000000000E+00 0.  1.
<mgrwt>
<rscale>  0 0.68165107E+02</rscale>
<asrwt>0</asrwt>
<pdfrwt beam="1">  1        2 0.35030061E+00 0.95439465E+02</pdfrwt>
<pdfrwt beam="2">  1       -2 0.40275868E-03 0.95439465E+02</pdfrwt>
<totfact> 0.39572321E+04</totfact>
</mgrwt>
</event>
<event>
 6    1  0.3075717E-002  0.8872497E+02  0.7546771E-02  0.1432689E+00
          2   -1    0    0  501    0  0.00000000000E+00  0.00000000000E+00  0.67306561432E+03  0.67306561432E+03  0.00000000000E+00 0.  1.
         -2   -1    0    0    0  501 -0.00000000000E+00 -0.00000000000E+00 -0.59725293256E+01  0.59725293256E+01  0.00000000000E+00 0. -1.
         23    2    1    2    0    0  0.51258925644E+01  0.95218193077E+01  0.66037217575E+03  0.66630588389E+03  0.88063503129E+02 0.  0.
         13    1    3    3    0    0 -0.26281364819E+02  0.13834229552E+02  0.84605132287E+02  0.89666741066E+02  0.00000000000E+00 0. -1.
        -13    1    3    3    0    0  0.31407257383E+02 -0.43124102442E+01  0.57576704346E+03  0.57663914282E+03  0.00000000000E+00 0.  1.
         22    1    1    2    0    0 -0.51258925644E+01 -0.95218193077E+01  0.67209092512E+01  0.12732259763E+02  0.00000000000E+00 0. -1.
<mgrwt>
<rscale>  0 0.52423945E+02</rscale>
<asrwt>0</asrwt>
<pdfrwt beam="1">  1        2 0.10354850E+00 0.88724971E+02</pdfrwt>
<pdfrwt beam="2">  1       -2 0.91885120E-03 0.88724971E+02</pdfrwt>
<totfact> 0.92522548E+04</totfact>
</mgrwt>
</event>
<event>
 6    1  0.3075717E-002  0.9197280E+02  0.7546771E-02  0.1407543E+00
          3   -1    0    0  501    0  0.00000000000E+00  0.00000000000E+00  0.13738422927E+03  0.13738422927E+03  0.00000000000E+00 0. -1.
         -3   -1    0    0    0  501 -0.00000000000E+00 -0.00000000000E+00 -0.23301717658E+02  0.23301717658E+02  0.00000000000E+00 0.  1.
         23    2    1    2    0    0  0.39258166031E+01 -0.13742460728E+02  0.11389365847E+03  0.14639248939E+03  0.90855535048E+02 0.  0.
         13    1    3    3    0    0 -0.34161876421E+01 -0.42025349153E+02  0.17472299516E+02  0.45640788335E+02  0.00000000000E+00 0.  1.
        -13    1    3    3    0    0  0.73420042452E+01  0.28282888425E+02  0.96421358952E+02  0.10075170106E+03  0.00000000000E+00 0. -1.
         22    1    1    2    0    0 -0.39258166031E+01  0.13742460728E+02  0.18885314672E+00  0.14293457537E+02  0.00000000000E+00 0. -1.
<mgrwt>
<rscale>  0 0.57745666E+02</rscale>
<asrwt>0</asrwt>
<pdfrwt beam="1">  1        3 0.21136035E-01 0.91972798E+02</pdfrwt>
<pdfrwt beam="2">  1       -3 0.35848797E-02 0.91972798E+02</pdfrwt>
<totfact> 0.16124237E+04</totfact>
</mgrwt>
</event>
<event>
 6    1  0.3075717E-002  0.1002070E+03  0.7546771E-02  0.1326857E+00
         -1   -1    0    0    0  501 -0.00000000000E+00  0.00000000000E+00  0.84606970894E+01  0.84606970894E+01  0.00000000000E+00 0.  1.
          1   -1    0    0  501    0  0.00000000000E+00 -0.00000000000E+00 -0.60130848639E+03  0.60130848639E+03  0.00000000000E+00 0. -1.
         23    2    1    2    0    0  0.34174325937E+02  0.24952044435E+02 -0.42860039215E+03  0.44015875766E+03  0.90834722007E+02 0.  0.
         13    1    3    3    0    0  0.46366353094E+02  0.33781059901E+02 -0.14181723632E+03  0.15298080672E+03  0.00000000000E+00 0.  1.
        -13    1    3    3    0    0 -0.12192027157E+02 -0.88290154667E+01 -0.28678315583E+03  0.28717795094E+03  0.00000000000E+00 0. -1.
         22    1    1    2    0    0 -0.34174325937E+02 -0.24952044435E+02 -0.16424739716E+03  0.16961042582E+03  0.00000000000E+00 0. -1.
<mgrwt>
<rscale>  0 0.80778334E+02</rscale>
<asrwt>0</asrwt>
<pdfrwt beam="1">  1        1 0.92508990E-01 0.10020696E+03</pdfrwt>
<pdfrwt beam="2">  1       -1 0.13016458E-02 0.10020696E+03</pdfrwt>
<totfact> 0.40607292E+04</totfact>
</mgrwt>
</event>
<event>
 6    1  0.3075717E-002  0.9272965E+02  0.7546771E-02  0.1414041E+00
         -2   -1    0    0    0  501 -0.00000000000E+00  0.00000000000E+00  0.20116409400E+02  0.20116409400E+02  0.00000000000E+00 0.  1.
          2   -1    0    0  501    0  0.00000000000E+00 -0.00000000000E+00 -0.15099651417E+03  0.15099651417E+03  0.00000000000E+00 0. -1.
         23    2    1    2    0    0 -0.82333981027E+01  0.95403226854E+01 -0.12821290400E+03  0.15823190803E+03  0.91869371208E+02 0.  0.
         11    1    3    3    0    0 -0.32521943355E+02  0.35234296037E+02 -0.10635496217E+03  0.11666409214E+03  0.00000000000E+00 0.  1.
        -11    1    3    3    0    0  0.24288545252E+02 -0.25693973352E+02 -0.21857941833E+02  0.41567815895E+02  0.00000000000E+00 0. -1.
         22    1    1    2    0    0  0.82333981027E+01 -0.95403226854E+01 -0.26672007658E+01  0.12881015534E+02  0.00000000000E+00 0. -1.
<mgrwt>
<rscale>  0 0.56301833E+02</rscale>
<asrwt>0</asrwt>
<pdfrwt beam="1">  1        2 0.23230233E-01 0.92729650E+02</pdfrwt>
<pdfrwt beam="2">  1       -2 0.30948322E-02 0.92729650E+02</pdfrwt>
<totfact> 0.81122632E+04</totfact>
</mgrwt>
</event>
<event>
 6    1  0.3075717E-002  0.9287347E+02  0.7546771E-02  0.1397387E+00
         -2   -1    0    0    0  501 -0.00000000000E+00  0.00000000000E+00  0.17332352529E+01  0.17332352529E+01  0.00000000000E+00 0.  1.
          2   -1    0    0  501    0  0.00000000000E+00 -0.00000000000E+00 -0.24116314987E+04  0.24116314987E+04  0.00000000000E+00 0. -1.
         23    2    1    2    0    0 -0.14772773163E+02  0.68722563913E+01 -0.23285227885E+04  0.23303741884E+04  0.91433136629E+02 0.  0.
         11    1    3    3    0    0  0.34533167669E+01  0.38066700256E+02 -0.48723170246E+03  0.48872868848E+03  0.00000000000E+00 0.  1.
        -11    1    3    3    0    0 -0.18226089930E+02 -0.31194443864E+02 -0.18412910861E+04  0.18416454999E+04  0.00000000000E+00 0. -1.
         22    1    1    2    0    0  0.14772773163E+02 -0.68722563913E+01 -0.81375474888E+02  0.82990545534E+02  0.00000000000E+00 0.  1.
<mgrwt>
<rscale>  0 0.60106189E+02</rscale>
<asrwt>0</asrwt>
<pdfrwt beam="1">  1        2 0.37102220E+00 0.92873469E+02</pdfrwt>
<pdfrwt beam="2">  1       -2 0.26665016E-03 0.92873469E+02</pdfrwt>
<totfact> 0.59818323E+04</totfact>
</mgrwt>
</event>
<event>
 6    1  0.3075717E-002  0.9274209E+02  0.7546771E-02  0.1407094E+00
         -2   -1    0    0    0  501 -0.00000000000E+00  0.00000000000E+00  0.69862521863E+01  0.69862521863E+01  0.00000000000E+00 0.  1.
          2   -1    0    0  501    0  0.00000000000E+00 -0.00000000000E+00 -0.51706810130E+03  0.51706810130E+03  0.00000000000E+00 0. -1.
         23    2    1    2    0    0  0.13696398213E+02 -0.30781705610E+01 -0.49433159827E+03  0.50295608674E+03  0.91673494993E+02 0.  0.
         11    1    3    3    0    0 -0.13023050875E+02 -0.77432535563E+01 -0.10662183321E+02  0.18526736974E+02  0.00000000000E+00 0.  1.
        -11    1    3    3    0    0  0.26719449089E+02  0.46650829953E+01 -0.48366941495E+03  0.48442934977E+03  0.00000000000E+00 0. -1.
         22    1    1    2    0    0 -0.13696398213E+02  0.30781705610E+01 -0.15750250847E+02  0.21098266748E+02  0.00000000000E+00 0.  1.
<mgrwt>
<rscale>  0 0.57847456E+02</rscale>
<asrwt>0</asrwt>
<pdfrwt beam="1">  1        2 0.79548923E-01 0.92742095E+02</pdfrwt>
<pdfrwt beam="2">  1       -2 0.10748082E-02 0.92742095E+02</pdfrwt>
<totfact> 0.10009438E+05</totfact>
</mgrwt>
</event>
<event>
 6    1  0.3075717E-002  0.1051600E+03  0.7546771E-02  0.1306009E+00
         -2   -1    0    0    0  501 -0.00000000000E+00  0.00000000000E+00  0.10883644628E+02  0.10883644628E+02  0.00000000000E+00 0.  1.
          2   -1    0    0  501    0  0.00000000000E+00 -0.00000000000E+00 -0.17425600861E+04  0.17425600861E+04  0.00000000000E+00 0. -1.
         23    2    1    2    0    0 -0.18145317133E+02 -0.50062440845E+02 -0.16640483142E+04  0.16673678101E+04  0.90681429268E+02 0.  0.
         11    1    3    3    0    0 -0.96180644744E+01 -0.38468589877E+02 -0.24051753294E+03  0.24376427799E+03  0.00000000000E+00 0.  1.
        -11    1    3    3    0    0 -0.85272526588E+01 -0.11593850968E+02 -0.14235307813E+04  0.14236035321E+04  0.00000000000E+00 0. -1.
         22    1    1    2    0    0  0.18145317133E+02  0.50062440845E+02 -0.67628127316E+02  0.86075920683E+02  0.00000000000E+00 0.  1.
<mgrwt>
<rscale>  0 0.88708778E+02</rscale>
<asrwt>0</asrwt>
<pdfrwt beam="1">  1        2 0.26808624E+00 0.10515998E+03</pdfrwt>
<pdfrwt beam="2">  1       -2 0.16744064E-02 0.10515998E+03</pdfrwt>
<totfact> 0.98727169E+03</totfact>
</mgrwt>
</event>
<event>
 6    1  0.3075717E-002  0.9299770E+02  0.7546771E-02  0.1401192E+00
          3   -1    0    0  501    0  0.00000000000E+00  0.00000000000E+00  0.11945749233E+03  0.11945749233E+03  0.00000000000E+00 0. -1.
         -3   -1    0    0    0  501 -0.00000000000E+00 -0.00000000000E+00 -0.24558858117E+02  0.24558858117E+02  0.00000000000E+00 0.  1.
         23    2    1    2    0    0  0.72282438354E+01 -0.13459895824E+02  0.83034566130E+02  0.12467281365E+03  0.91734153866E+02 0.  0.
         11    1    3    3    0    0 -0.38707504988E+02 -0.15887374353E+02  0.19314847972E+02  0.46084085739E+02  0.00000000000E+00 0.  1.
        -11    1    3    3    0    0  0.45935748823E+02  0.24274785289E+01  0.63719718158E+02  0.78588727907E+02  0.00000000000E+00 0. -1.
         22    1    1    2    0    0 -0.72282438354E+01  0.13459895824E+02  0.11864068085E+02  0.19343536804E+02  0.00000000000E+00 0.  1.
<mgrwt>
<rscale>  0 0.59206657E+02</rscale>
<asrwt>0</asrwt>
<pdfrwt beam="1">  1        3 0.18378075E-01 0.92997695E+02</pdfrwt>
<pdfrwt beam="2">  1       -3 0.37782859E-02 0.92997695E+02</pdfrwt>
<totfact> 0.19020471E+04</totfact>
</mgrwt>
</event>
<event>
 6    1  0.3075717E-002  0.9383312E+02  0.7546771E-02  0.1399112E+00
         -2   -1    0    0    0  501 -0.00000000000E+00  0.00000000000E+00  0.12974552481E+03  0.12974552481E+03  0.00000000000E+00 0.  1.
          2   -1    0    0  501    0  0.00000000000E+00 -0.00000000000E+00 -0.42470600703E+02  0.42470600703E+02  0.00000000000E+00 0. -1.
         23    2    1    2    0    0  0.72035198881E+01  0.13578841258E+02  0.11078651221E+02  0.94484872915E+02  0.92565539312E+02 0.  0.
         13    1    3    3    0    0  0.41574648510E+01  0.21542065871E+02 -0.38427729324E+02  0.44249694880E+02  0.00000000000E+00 0. -1.
        -13    1    3    3    0    0  0.30460550371E+01 -0.79632246134E+01  0.49506380545E+02  0.50235178035E+02  0.00000000000E+00 0.  1.
         22    1    1    2    0    0 -0.72035198881E+01 -0.13578841258E+02  0.76196272887E+02  0.77731252599E+02  0.00000000000E+00 0.  1.
<mgrwt>
<rscale>  0 0.59695898E+02</rscale>
<asrwt>0</asrwt>
<pdfrwt beam="1">  1        2 0.65339386E-02 0.93833122E+02</pdfrwt>
<pdfrwt beam="2">  1       -2 0.19960850E-01 0.93833122E+02</pdfrwt>
<totfact> 0.20643819E+04</totfact>
</mgrwt>
</event>
<event>
 6    1  0.3075717E-002  0.9324697E+02  0.7546771E-02  0.1377589E+00
          2   -1    0    0  501    0  0.00000000000E+00  0.00000000000E+00  0.97711801509E+03  0.97711801509E+03  0.00000000000E+00 0. -1.
         -2   -1    0    0    0  501 -0.00000000000E+00 -0.00000000000E+00 -0.50648119516E+01  0.50648119516E+01  0.00000000000E+00 0.  1.
         23    2    1    2    0    0 -0.20906494886E+02 -0.73311420788E+01  0.92988822743E+03  0.93455182506E+03  0.90576879238E+02 0.  0.
         13    1    3    3    0    0 -0.18760480950E+02  0.21209907254E+02  0.83406154075E+03  0.83454207178E+03  0.00000000000E+00 0. -1.
        -13    1    3    3    0    0 -0.21460139362E+01 -0.28541049333E+02  0.95826686678E+02  0.10000975329E+03  0.00000000000E+00 0.  1.
         22    1    1    2    0    0  0.20906494886E+02  0.73311420788E+01  0.42164975717E+02  0.47631001982E+02  0.00000000000E+00 0.  1.
<mgrwt>
<rscale>  0 0.65101671E+02</rscale>
<asrwt>0</asrwt>
<pdfrwt beam="1">  1        2 0.15032570E+00 0.93246974E+02</pdfrwt>
<pdfrwt beam="2">  1       -2 0.77920262E-03 0.93246974E+02</pdfrwt>
<totfact> 0.74210686E+04</totfact>
</mgrwt>
</event>
<event>
 6    1  0.3075717E-002  0.9285622E+02  0.7546771E-02  0.1390382E+00
          2   -1    0    0  501    0  0.00000000000E+00  0.00000000000E+00  0.76173849939E+02  0.76173849939E+02  0.00000000000E+00 0. -1.
         -2   -1    0    0    0  501 -0.00000000000E+00 -0.00000000000E+00 -0.41230725141E+02  0.41230725141E+02  0.00000000000E+00 0.  1.
         23    2    1    2    0    0 -0.17896898385E+02  0.34835011849E+01  0.23177352267E+02  0.95705101456E+02  0.91048575136E+02 0.  0.
         11    1    3    3    0    0  0.32129306394E+01  0.21565248691E+02 -0.29180711766E+02  0.36426594866E+02  0.00000000000E+00 0.  1.
        -11    1    3    3    0    0 -0.21109829025E+02 -0.18081747506E+02  0.52358064033E+02  0.59278506590E+02  0.00000000000E+00 0. -1.
         22    1    1    2    0    0  0.17896898385E+02 -0.34835011849E+01  0.11765772530E+02  0.21699473623E+02  0.00000000000E+00 0.  1.
<mgrwt>
<rscale>  0 0.61811798E+02</rscale>
<asrwt>0</asrwt>
<pdfrwt beam="1">  1        2 0.11719054E-01 0.92856216E+02</pdfrwt>
<pdfrwt beam="2">  1       -2 0.63431885E-02 0.92856216E+02</pdfrwt>
<totfact> 0.61418233E+04</totfact>
</mgrwt>
</event>
<event>
 6    1  0.3075717E-002  0.9150624E+02  0.7546771E-02  0.1421538E+00
          2   -1    0    0  501    0  0.00000000000E+00  0.00000000000E+00  0.19500545357E+03  0.19500545357E+03  0.00000000000E+00 0. -1.
         -2   -1    0    0    0  501 -0.00000000000E+00 -0.00000000000E+00 -0.15534483240E+02  0.15534483240E+02  0.00000000000E+00 0.  1.
         23    2    1    2    0    0 -0.76218668553E+00  0.11656631984E+02  0.17597811565E+03  0.19834739681E+03  0.90757559670E+02 0.  0.
         11    1    3    3    0    0 -0.19427934214E+02 -0.95724880744E+01  0.16741590734E+03  0.16881102804E+03  0.00000000000E+00 0. -1.
        -11    1    3    3    0    0  0.18665747529E+02  0.21229120058E+02  0.85622083044E+01  0.29536368773E+02  0.00000000000E+00 0.  1.
         22    1    1    2    0    0  0.76218668553E+00 -0.11656631984E+02  0.34928546790E+01  0.12192539996E+02  0.00000000000E+00 0.  1.
<mgrwt>
<rscale>  0 0.54696926E+02</rscale>
<asrwt>0</asrwt>
<pdfrwt beam="1">  1        2 0.30000837E-01 0.91506244E+02</pdfrwt>
<pdfrwt beam="2">  1       -2 0.23899206E-02 0.91506244E+02</pdfrwt>
<totfact> 0.89265838E+04</totfact>
</mgrwt>
</event>
<event>
 6    1  0.3075717E-002  0.9149591E+02  0.7546771E-02  0.1375939E+00
         -2   -1    0    0    0  501 -0.00000000000E+00  0.00000000000E+00  0.21672974937E+02  0.21672974937E+02  0.00000000000E+00 0.  1.
          2   -1    0    0  501    0  0.00000000000E+00 -0.00000000000E+00 -0.15470829101E+03  0.15470829101E+03  0.00000000000E+00 0. -1.
         23    2    1    2    0    0 -0.13610023521E+01 -0.24055735973E+02 -0.10957476501E+03  0.14275198976E+03  0.88266475479E+02 0.  0.
         13    1    3    3    0    0  0.12067336730E+02 -0.55480983956E+02 -0.60713547973E+02  0.83125778817E+02  0.00000000000E+00 0. -1.
        -13    1    3    3    0    0 -0.13428339082E+02  0.31425247984E+02 -0.48861217033E+02  0.59626210942E+02  0.00000000000E+00 0.  1.
         22    1    1    2    0    0  0.13610023521E+01  0.24055735973E+02 -0.23460551070E+02  0.33629276191E+02  0.00000000000E+00 0.  1.
<mgrwt>
<rscale>  0 0.65543467E+02</rscale>
<asrwt>0</asrwt>
<pdfrwt beam="1">  1        2 0.23801275E-01 0.91495909E+02</pdfrwt>
<pdfrwt beam="2">  1       -2 0.33343039E-02 0.91495909E+02</pdfrwt>
<totfact> 0.70719195E+04</totfact>
</mgrwt>
</event>
<event>
 6    1  0.3075717E-002  0.1156234E+03  0.7546771E-02  0.1274943E+00
         -1   -1    0    0    0  501 -0.00000000000E+00  0.00000000000E+00  0.16930761964E+03  0.16930761964E+03  0.00000000000E+00 0.  1.
          1   -1    0    0  501    0  0.00000000000E+00 -0.00000000000E+00 -0.52736731267E+02  0.52736731267E+02  0.00000000000E+00 0. -1.
         23    2    1    2    0    0  0.71641745497E+02  0.15671679544E+01  0.57265474955E+02  0.12902753644E+03  0.90740150014E+02 0.  0.
         13    1    3    3    0    0 -0.16109338134E+02  0.19084034740E+02  0.20406345505E+02  0.32251047951E+02  0.00000000000E+00 0.  1.
        -13    1    3    3    0    0  0.87751083631E+02 -0.17516866785E+02  0.36859129450E+02  0.96776488489E+02  0.00000000000E+00 0. -1.
         22    1    1    2    0    0 -0.71641745497E+02 -0.15671679544E+01  0.59305413420E+02  0.93016814470E+02  0.00000000000E+00 0.  1.
<mgrwt>
<rscale>  0 0.10258924E+03</rscale>
<asrwt>0</asrwt>
<pdfrwt beam="1">  1        1 0.81133433E-02 0.11562340E+03</pdfrwt>
<pdfrwt beam="2">  1       -1 0.26047326E-01 0.11562340E+03</pdfrwt>
<totfact> 0.10259377E+04</totfact>
</mgrwt>
</event>
<event>
 6    1  0.3075717E-002  0.9199427E+02  0.7546771E-02  0.1373775E+00
         -3   -1    0    0    0  501 -0.00000000000E+00  0.00000000000E+00  0.13093665799E+03  0.13093665799E+03  0.00000000000E+00 0. -1.
          3   -1    0    0  501    0  0.00000000000E+00 -0.00000000000E+00 -0.28385410838E+02  0.28385410838E+02  0.00000000000E+00 0.  1.
         23    2    1    2    0    0 -0.10540497916E+02  0.22186182209E+02  0.58899589364E+02  0.10923418601E+03  0.88654480931E+02 0.  0.
         11    1    3    3    0    0  0.27992582369E+02 -0.72663640340E+01  0.52999548801E+02  0.60376625337E+02  0.00000000000E+00 0.  1.
        -11    1    3    3    0    0 -0.38533080285E+02  0.29452546243E+02  0.59000405631E+01  0.48857560675E+02  0.00000000000E+00 0. -1.
         22    1    1    2    0    0  0.10540497916E+02 -0.22186182209E+02  0.43651657784E+02  0.50087882813E+02  0.00000000000E+00 0.  1.
<mgrwt>
<rscale>  0 0.66128678E+02</rscale>
<asrwt>0</asrwt>
<pdfrwt beam="1">  1        3 0.43669864E-02 0.91994270E+02</pdfrwt>
<pdfrwt beam="2">  1       -3 0.20144101E-01 0.91994270E+02</pdfrwt>
<totfact> 0.12918487E+04</totfact>
</mgrwt>
</event>
<event>
 6    1  0.3075717E-002  0.9323875E+02  0.7546771E-02  0.1405701E+00
         -2   -1    0    0    0  501 -0.00000000000E+00  0.00000000000E+00  0.97069536873E+01  0.97069536873E+01  0.00000000000E+00 0.  1.
          2   -1    0    0  501    0  0.00000000000E+00 -0.00000000000E+00 -0.36834620983E+03  0.36834620983E+03  0.00000000000E+00 0. -1.
         23    2    1    2    0    0 -0.10179132757E+02  0.97855751549E+01 -0.34826952200E+03  0.36053449887E+03  0.92163402151E+02 0.  0.
         13    1    3    3    0    0 -0.90598773033E+01 -0.41186070185E+02 -0.16530823973E+03  0.17060242635E+03  0.00000000000E+00 0. -1.
        -13    1    3    3    0    0 -0.11192554538E+01  0.50971645340E+02 -0.18296128228E+03  0.18993207252E+03  0.00000000000E+00 0.  1.
         22    1    1    2    0    0  0.10179132757E+02 -0.97855751549E+01 -0.10369734138E+02  0.17518664644E+02  0.00000000000E+00 0. -1.
<mgrwt>
<rscale>  0 0.58164155E+02</rscale>
<asrwt>0</asrwt>
<pdfrwt beam="1">  1        2 0.56668644E-01 0.93238752E+02</pdfrwt>
<pdfrwt beam="2">  1       -2 0.14933776E-02 0.93238752E+02</pdfrwt>
<totfact> 0.90014426E+04</totfact>
</mgrwt>
</event>
<event>
 6    1  0.3075717E-002  0.9211014E+02  0.7546771E-02  0.1424737E+00
         -2   -1    0    0    0  501 -0.00000000000E+00  0.00000000000E+00  0.43741551668E+02  0.43741551668E+02  0.00000000000E+00 0.  1.
          2   -1    0    0  501    0  0.00000000000E+00 -0.00000000000E+00 -0.60678275499E+02  0.60678275499E+02  0.00000000000E+00 0. -1.
         23    2    1    2    0    0 -0.10751310333E+02 -0.18290241693E+01 -0.15792875375E+02  0.93454226747E+02  0.91462241285E+02 0.  0.
         13    1    3    3    0    0 -0.31616315863E+02 -0.31448116231E+02 -0.30844839499E+02  0.54221578425E+02  0.00000000000E+00 0. -1.
        -13    1    3    3    0    0  0.20865005530E+02  0.29619092061E+02  0.15051964124E+02  0.39232648321E+02  0.00000000000E+00 0.  1.
         22    1    1    2    0    0  0.10751310333E+02  0.18290241693E+01 -0.11438484552E+01  0.10965600420E+02  0.00000000000E+00 0. -1.
<mgrwt>
<rscale>  0 0.54031216E+02</rscale>
<asrwt>0</asrwt>
<pdfrwt beam="1">  1        2 0.93351193E-02 0.92110138E+02</pdfrwt>
<pdfrwt beam="2">  1       -2 0.67294695E-02 0.92110138E+02</pdfrwt>
<totfact> 0.73829810E+04</totfact>
</mgrwt>
</event>
<event>
 6    1  0.3075717E-002  0.9298845E+02  0.7546771E-02  0.1417343E+00
          1   -1    0    0  501    0  0.00000000000E+00  0.00000000000E+00  0.52739351429E+03  0.52739351429E+03  0.00000000000E+00 0. -1.
         -1   -1    0    0    0  501 -0.00000000000E+00 -0.00000000000E+00 -0.54984833351E+01  0.54984833351E+01  0.00000000000E+00 0.  1.
         23    2    1    2    0    0 -0.97294079088E+01 -0.68070064653E+01  0.49227400041E+03  0.50097958364E+03  0.92227192507E+02 0.  0.
         11    1    3    3    0    0  0.20828886835E+02 -0.21670237892E+02  0.42044567559E+03  0.42151869218E+03  0.00000000000E+00 0. -1.
        -11    1    3    3    0    0 -0.30558294743E+02  0.14863231427E+02  0.71828324818E+02  0.79460891463E+02  0.00000000000E+00 0.  1.
         22    1    1    2    0    0  0.97294079088E+01  0.68070064653E+01  0.29621030547E+02  0.31912413978E+02  0.00000000000E+00 0.  1.
<mgrwt>
<rscale>  0 0.55586954E+02</rscale>
<asrwt>0</asrwt>
<pdfrwt beam="1">  1        1 0.81137424E-01 0.92988450E+02</pdfrwt>
<pdfrwt beam="2">  1       -1 0.84592093E-03 0.92988450E+02</pdfrwt>
<totfact> 0.87981895E+04</totfact>
</mgrwt>
</event>
<event>
 6    1  0.3075717E-002  0.9172432E+02  0.7546771E-02  0.1408040E+00
          2   -1    0    0  501    0  0.00000000000E+00  0.00000000000E+00  0.46774362720E+03  0.46774362720E+03  0.00000000000E+00 0. -1.
         -2   -1    0    0    0  501 -0.00000000000E+00 -0.00000000000E+00 -0.12110142907E+02  0.12110142907E+02  0.00000000000E+00 0.  1.
         23    2    1    2    0    0 -0.14210160133E+02 -0.15740818618E+01  0.45640997608E+03  0.46553562343E+03  0.90603223091E+02 0.  0.
         11    1    3    3    0    0 -0.32764910820E+02 -0.36959783138E+02  0.19870558003E+03  0.20475222218E+03  0.00000000000E+00 0. -1.
        -11    1    3    3    0    0  0.18554750686E+02  0.35385701276E+02  0.25770439604E+03  0.26078340125E+03  0.00000000000E+00 0.  1.
         22    1    1    2    0    0  0.14210160133E+02  0.15740818618E+01 -0.77649178638E+00  0.14318146676E+02  0.00000000000E+00 0.  1.
<mgrwt>
<rscale>  0 0.57633524E+02</rscale>
<asrwt>0</asrwt>
<pdfrwt beam="1">  1        2 0.71960544E-01 0.91724317E+02</pdfrwt>
<pdfrwt beam="2">  1       -2 0.18630993E-02 0.91724317E+02</pdfrwt>
<totfact> 0.50835901E+04</totfact>
</mgrwt>
</event>
<event>
 6    1  0.3075717E-002  0.1043294E+03  0.7546771E-02  0.1312072E+00
         -2   -1    0    0    0  501 -0.00000000000E+00  0.00000000000E+00  0.16733464332E+02  0.16733464332E+02  0.00000000000E+00 0.  1.
          2   -1    0    0  501    0  0.00000000000E+00 -0.00000000000E+00 -0.69370607721E+03  0.69370607721E+03  0.00000000000E+00 0. -1.
         23    2    1    2    0    0  0.47662651213E+02 -0.10666550792E+02 -0.64186672750E+03  0.65029033694E+03  0.92190687273E+02 0.  0.
         13    1    3    3    0    0  0.45398321592E+02 -0.12141162931E+02 -0.64467942702E+03  0.64638995898E+03  0.00000000000E+00 0. -1.
        -13    1    3    3    0    0  0.22643296212E+01  0.14746121395E+01  0.28126995266E+01  0.39003779589E+01  0.00000000000E+00 0.  1.
         22    1    1    2    0    0 -0.47662651213E+02  0.10666550792E+02 -0.35105885388E+02  0.60149204610E+02  0.00000000000E+00 0.  1.
<mgrwt>
<rscale>  0 0.86298368E+02</rscale>
<asrwt>0</asrwt>
<pdfrwt beam="1">  1        2 0.10672401E+00 0.10432941E+03</pdfrwt>
<pdfrwt beam="2">  1       -2 0.25743792E-02 0.10432941E+03</pdfrwt>
<totfact> 0.20843947E+04</totfact>
</mgrwt>
</event>
<event>
 6    1  0.3075717E-002  0.9292334E+02  0.7546771E-02  0.1411568E+00
          1   -1    0    0  501    0  0.00000000000E+00  0.00000000000E+00  0.17896195480E+03  0.17896195480E+03  0.00000000000E+00 0. -1.
         -1   -1    0    0    0  501 -0.00000000000E+00 -0.00000000000E+00 -0.18355858222E+02  0.18355858222E+02  0.00000000000E+00 0.  1.
         23    2    1    2    0    0  0.37998061859E+01 -0.12446906923E+02  0.15905760444E+03  0.18421201862E+03  0.92007511954E+02 0.  0.
         11    1    3    3    0    0  0.10843170646E+02 -0.33556638216E+02  0.15804890134E+03  0.16193541160E+03  0.00000000000E+00 0. -1.
        -11    1    3    3    0    0 -0.70433644604E+01  0.21109731293E+02  0.10087031007E+01  0.22276607016E+02  0.00000000000E+00 0.  1.
         22    1    1    2    0    0 -0.37998061859E+01  0.12446906923E+02  0.15484921411E+01  0.13105794402E+02  0.00000000000E+00 0.  1.
<mgrwt>
<rscale>  0 0.56845519E+02</rscale>
<asrwt>0</asrwt>
<pdfrwt beam="1">  1        1 0.27532607E-01 0.92923335E+02</pdfrwt>
<pdfrwt beam="2">  1       -1 0.28239783E-02 0.92923335E+02</pdfrwt>
<totfact> 0.60363489E+04</totfact>
</mgrwt>
</event>
<event>
 6    1  0.3075717E-002  0.9459310E+02  0.7546771E-02  0.1371460E+00
         -2   -1    0    0    0  501 -0.00000000000E+00  0.00000000000E+00  0.18267909449E+02  0.18267909449E+02  0.00000000000E+00 0.  1.
          2   -1    0    0  501    0  0.00000000000E+00 -0.00000000000E+00 -0.22746095258E+03  0.22746095258E+03  0.00000000000E+00 0. -1.
         23    2    1    2    0    0  0.20716895329E+02 -0.11035277025E+02 -0.19859946423E+03  0.21997636690E+03  0.91634533410E+02 0.  0.
         11    1    3    3    0    0  0.35967858232E+02  0.21923393413E+02 -0.42995971175E+02  0.60191158336E+02  0.00000000000E+00 0.  1.
        -11    1    3    3    0    0 -0.15250962903E+02 -0.32958670439E+02 -0.15560349305E+03  0.15978520857E+03  0.00000000000E+00 0. -1.
         22    1    1    2    0    0 -0.20716895329E+02  0.11035277025E+02 -0.10593578898E+02  0.25752495121E+02  0.00000000000E+00 0.  1.
<mgrwt>
<rscale>  0 0.66762917E+02</rscale>
<asrwt>0</asrwt>
<pdfrwt beam="1">  1        2 0.34993988E-01 0.94593101E+02</pdfrwt>
<pdfrwt beam="2">  1       -2 0.28104480E-02 0.94593101E+02</pdfrwt>
<totfact> 0.60211061E+04</totfact>
</mgrwt>
</event>
<event>
 6    1  0.3075717E-002  0.1002584E+03  0.7546771E-02  0.1327504E+00
         -1   -1    0    0    0  501 -0.00000000000E+00  0.00000000000E+00  0.65226338111E+03  0.65226338111E+03  0.00000000000E+00 0.  1.
          1   -1    0    0  501    0  0.00000000000E+00 -0.00000000000E+00 -0.77434519937E+01  0.77434519937E+01  0.00000000000E+00 0. -1.
         23    2    1    2    0    0  0.35424087216E+02  0.22130214167E+02  0.44290412749E+03  0.45410990792E+03  0.91143458298E+02 0.  0.
         11    1    3    3    0    0 -0.20139741517E+02  0.34988279445E+02  0.13264197210E+03  0.13864949206E+03  0.00000000000E+00 0. -1.
        -11    1    3    3    0    0  0.55563828732E+02 -0.12858065278E+02  0.31026215539E+03  0.31546041586E+03  0.00000000000E+00 0.  1.
         22    1    1    2    0    0 -0.35424087216E+02 -0.22130214167E+02  0.20161580163E+03  0.20589692518E+03  0.00000000000E+00 0.  1.
<mgrwt>
<rscale>  0 0.80547650E+02</rscale>
<asrwt>0</asrwt>
<pdfrwt beam="1">  1        1 0.11913008E-02 0.10025838E+03</pdfrwt>
<pdfrwt beam="2">  1       -1 0.10034817E+00 0.10025838E+03</pdfrwt>
<totfact> 0.11523450E+04</totfact>
</mgrwt>
</event>
<event>
 6    1  0.3075717E-002  0.9416433E+02  0.7546771E-02  0.1384135E+00
          4   -1    0    0  501    0  0.00000000000E+00  0.00000000000E+00  0.16788892236E+03  0.16788892236E+03  0.00000000000E+00 0. -1.
         -4   -1    0    0    0  501 -0.00000000000E+00 -0.00000000000E+00 -0.20513617630E+02  0.20513617630E+02  0.00000000000E+00 0.  1.
         23    2    1    2    0    0  0.10154565578E+02  0.16456692230E+02  0.13759827448E+03  0.16673393963E+03  0.92157384741E+02 0.  0.
         11    1    3    3    0    0 -0.17154787684E+02 -0.33238083716E+02  0.51889600291E+02  0.63965518586E+02  0.00000000000E+00 0. -1.
        -11    1    3    3    0    0  0.27309353262E+02  0.49694775946E+02  0.85708674192E+02  0.10276842104E+03  0.00000000000E+00 0.  1.
         22    1    1    2    0    0 -0.10154565578E+02 -0.16456692230E+02  0.97770302508E+01  0.21668600365E+02  0.00000000000E+00 0.  1.
<mgrwt>
<rscale>  0 0.63389126E+02</rscale>
<asrwt>0</asrwt>
<pdfrwt beam="1">  1        4 0.25829064E-01 0.94164332E+02</pdfrwt>
<pdfrwt beam="2">  1       -4 0.31559413E-02 0.94164332E+02</pdfrwt>
<totfact> 0.10314489E+04</totfact>
</mgrwt>
</event>
<event>
 6    1  0.3075717E-002  0.9385389E+02  0.7546771E-02  0.1419150E+00
          1   -1    0    0  501    0  0.00000000000E+00  0.00000000000E+00  0.30284340034E+02  0.30284340034E+02  0.00000000000E+00 0. -1.
         -1   -1    0    0    0  501 -0.00000000000E+00 -0.00000000000E+00 -0.13872264177E+03  0.13872264177E+03  0.00000000000E+00 0.  1.
         23    2    1    2    0    0  0.11118815357E+02 -0.15872479743E+01 -0.44104876912E+02  0.10370049698E+03  0.93179426348E+02 0.  0.
         11    1    3    3    0    0  0.13518176300E+02 -0.86711915340E+01 -0.72540828958E+02  0.74297392411E+02  0.00000000000E+00 0.  1.
        -11    1    3    3    0    0 -0.23993609427E+01  0.70839435597E+01  0.28435952046E+02  0.29403104565E+02  0.00000000000E+00 0. -1.
         22    1    1    2    0    0 -0.11118815357E+02  0.15872479743E+01 -0.64333424826E+02  0.65306484831E+02  0.00000000000E+00 0.  1.
<mgrwt>
<rscale>  0 0.55201262E+02</rscale>
<asrwt>0</asrwt>
<pdfrwt beam="1">  1        1 0.46591293E-02 0.93853891E+02</pdfrwt>
<pdfrwt beam="2">  1       -1 0.21341945E-01 0.93853891E+02</pdfrwt>
<totfact> 0.29218464E+04</totfact>
</mgrwt>
</event>
<event>
 6    1  0.3075717E-002  0.1380848E+03  0.7546771E-02  0.1228728E+00
         -2   -1    0    0    0  501 -0.00000000000E+00  0.00000000000E+00  0.14242074958E+03  0.14242074958E+03  0.00000000000E+00 0.  1.
          2   -1    0    0  501    0  0.00000000000E+00 -0.00000000000E+00 -0.15583664803E+03  0.15583664803E+03  0.00000000000E+00 0. -1.
         23    2    1    2    0    0  0.89950493220E+02  0.55426591308E+02 -0.92567789997E+02  0.16624141301E+03  0.88905643247E+02 0.  0.
         11    1    3    3    0    0  0.63690160400E+02 -0.25734150989E+01 -0.14261129803E+02  0.65317982365E+02  0.00000000000E+00 0. -1.
        -11    1    3    3    0    0  0.26260332820E+02  0.58000006407E+02 -0.78306660194E+02  0.10092343065E+03  0.00000000000E+00 0.  1.
         22    1    1    2    0    0 -0.89950493220E+02 -0.55426591308E+02  0.79151891541E+02  0.13201598460E+03  0.00000000000E+00 0.  1.
<mgrwt>
<rscale>  0 0.12914660E+03</rscale>
<asrwt>0</asrwt>
<pdfrwt beam="1">  1        2 0.23974869E-01 0.13808480E+03</pdfrwt>
<pdfrwt beam="2">  1       -2 0.21910885E-01 0.13808480E+03</pdfrwt>
<totfact> 0.38869013E+03</totfact>
</mgrwt>
</event>
<event>
 6    1  0.3075717E-002  0.1120999E+03  0.7546771E-02  0.1391867E+00
          1   -1    0    0  501    0  0.00000000000E+00  0.00000000000E+00  0.10591271251E+04  0.10591271251E+04  0.00000000000E+00 0. -1.
         -1   -1    0    0    0  501 -0.00000000000E+00 -0.00000000000E+00 -0.40573822679E+01  0.40573822679E+01  0.00000000000E+00 0.  1.
         23    2    1    2    0    0  0.10110459768E+02 -0.40807766237E+00  0.10309720250E+04  0.10370485564E+04  0.11164230488E+03 0.  0.
         11    1    3    3    0    0  0.33848320252E+02 -0.48033954207E+02  0.56533588225E+03  0.56838158776E+03  0.00000000000E+00 0. -1.
        -11    1    3    3    0    0 -0.23737860483E+02  0.47625876544E+02  0.46563614271E+03  0.46866696868E+03  0.00000000000E+00 0.  1.
         22    1    1    2    0    0 -0.10110459768E+02  0.40807766237E+00  0.24097717825E+02  0.26135950882E+02  0.00000000000E+00 0.  1.
<mgrwt>
<rscale>  0 0.61444791E+02</rscale>
<asrwt>0</asrwt>
<pdfrwt beam="1">  1        1 0.16294241E+00 0.11209992E+03</pdfrwt>
<pdfrwt beam="2">  1       -1 0.62421350E-03 0.11209992E+03</pdfrwt>
<totfact> 0.49569862E+04</totfact>
</mgrwt>
</event>
<event>
 6    1  0.3075717E-002  0.9294664E+02  0.7546771E-02  0.1391370E+00
         -2   -1    0    0    0  501 -0.00000000000E+00  0.00000000000E+00  0.28805262508E+02  0.28805262508E+02  0.00000000000E+00 0.  1.
          2   -1    0    0  501    0  0.00000000000E+00 -0.00000000000E+00 -0.10707342111E+03  0.10707342111E+03  0.00000000000E+00 0. -1.
         23    2    1    2    0    0 -0.17891172025E+02 -0.29984455162E+00 -0.62285232463E+02  0.11188622915E+03  0.91207971956E+02 0.  0.
         13    1    3    3    0    0 -0.34973896731E+01  0.33553763783E+02 -0.66788534774E+02  0.74825097232E+02  0.00000000000E+00 0. -1.
        -13    1    3    3    0    0 -0.14393782352E+02 -0.33853608335E+02  0.45033023117E+01  0.37061131922E+02  0.00000000000E+00 0.  1.
         22    1    1    2    0    0  0.17891172025E+02  0.29984455162E+00 -0.15982926140E+02  0.23992454463E+02  0.00000000000E+00 0.  1.
<mgrwt>
<rscale>  0 0.61567316E+02</rscale>
<asrwt>0</asrwt>
<pdfrwt beam="1">  1        2 0.16472834E-01 0.92946641E+02</pdfrwt>
<pdfrwt beam="2">  1       -2 0.44315790E-02 0.92946641E+02</pdfrwt>
<totfact> 0.70457739E+04</totfact>
</mgrwt>
</event>
<event>
 6    1  0.3075717E-002  0.9464028E+02  0.7546771E-02  0.1423072E+00
          4   -1    0    0  501    0  0.00000000000E+00  0.00000000000E+00  0.24450405351E+03  0.24450405351E+03  0.00000000000E+00 0. -1.
         -4   -1    0    0    0  501 -0.00000000000E+00 -0.00000000000E+00 -0.13776093778E+02  0.13776093778E+02  0.00000000000E+00 0.  1.
         23    2    1    2    0    0  0.99977895055E+01 -0.25322326253E+01  0.22904880096E+03  0.24783086161E+03  0.94076642931E+02 0.  0.
         11    1    3    3    0    0 -0.20144460044E+02 -0.39067700662E+02  0.78030189476E+02  0.89558891101E+02  0.00000000000E+00 0.  1.
        -11    1    3    3    0    0  0.30142249549E+02  0.36535468037E+02  0.15101861149E+03  0.15827197051E+03  0.00000000000E+00 0. -1.
         22    1    1    2    0    0 -0.99977895055E+01  0.25322326253E+01  0.16791587681E+01  0.10449285681E+02  0.00000000000E+00 0.  1.
<mgrwt>
<rscale>  0 0.54376142E+02</rscale>
<asrwt>0</asrwt>
<pdfrwt beam="1">  1        4 0.37616005E-01 0.94640281E+02</pdfrwt>
<pdfrwt beam="2">  1       -4 0.21193992E-02 0.94640281E+02</pdfrwt>
<totfact> 0.94047548E+03</totfact>
</mgrwt>
</event>
<event>
 6    1  0.3075717E-002  0.8983913E+02  0.7546771E-02  0.1398364E+00
         -2   -1    0    0    0  501 -0.00000000000E+00  0.00000000000E+00  0.89275142399E+02  0.89275142399E+02  0.00000000000E+00 0. -1.
          2   -1    0    0  501    0  0.00000000000E+00 -0.00000000000E+00 -0.33562476440E+02  0.33562476440E+02  0.00000000000E+00 0.  1.
         23    2    1    2    0    0 -0.12507981755E+02 -0.12556231666E+02  0.37280866522E+02  0.97267327646E+02  0.88073613855E+02 0.  0.
         11    1    3    3    0    0 -0.97290327248E+00 -0.19717923938E+02 -0.25943932251E+02  0.32601084121E+02  0.00000000000E+00 0.  1.
        -11    1    3    3    0    0 -0.11535078483E+02  0.71616922716E+01  0.63224798773E+02  0.64666243525E+02  0.00000000000E+00 0. -1.
         22    1    1    2    0    0  0.12507981755E+02  0.12556231666E+02  0.18431799437E+02  0.25570291193E+02  0.00000000000E+00 0. -1.
<mgrwt>
<rscale>  0 0.59873430E+02</rscale>
<asrwt>0</asrwt>
<pdfrwt beam="1">  1        2 0.51634579E-02 0.89839134E+02</pdfrwt>
<pdfrwt beam="2">  1       -2 0.13734637E-01 0.89839134E+02</pdfrwt>
<totfact> 0.51119577E+04</totfact>
</mgrwt>
</event>
<event>
 6    1  0.3075717E-002  0.9375234E+02  0.7546771E-02  0.1392722E+00
         -2   -1    0    0    0  501 -0.00000000000E+00  0.00000000000E+00  0.71872161090E+01  0.71872161090E+01  0.00000000000E+00 0.  1.
          2   -1    0    0  501    0  0.00000000000E+00 -0.00000000000E+00 -0.43238126067E+03  0.43238126067E+03  0.00000000000E+00 0. -1.
         23    2    1    2    0    0 -0.17062690835E+02  0.19240695915E-01 -0.34039001274E+03  0.35306495314E+03  0.92186574806E+02 0.  0.
         13    1    3    3    0    0 -0.39306893777E+02 -0.16457410800E+02 -0.75203236256E+02  0.86437289477E+02  0.00000000000E+00 0.  1.
        -13    1    3    3    0    0  0.22244202942E+02  0.16476651496E+02 -0.26518677649E+03  0.26662766367E+03  0.00000000000E+00 0. -1.
         22    1    1    2    0    0  0.17062690835E+02 -0.19240695915E-01 -0.84804031816E+02  0.86503523633E+02  0.00000000000E+00 0.  1.
<mgrwt>
<rscale>  0 0.61234831E+02</rscale>
<asrwt>0</asrwt>
<pdfrwt beam="1">  1        2 0.66520205E-01 0.93752335E+02</pdfrwt>
<pdfrwt beam="2">  1       -2 0.11057254E-02 0.93752335E+02</pdfrwt>
<totfact> 0.11668539E+05</totfact>
</mgrwt>
</event>
<event>
 6    1  0.3075717E-002  0.9014023E+02  0.7546771E-02  0.1387524E+00
         -2   -1    0    0    0  501 -0.00000000000E+00  0.00000000000E+00  0.22096005646E+01  0.22096005646E+01  0.00000000000E+00 0. -1.
          2   -1    0    0  501    0  0.00000000000E+00 -0.00000000000E+00 -0.18787886367E+04  0.18787886367E+04  0.00000000000E+00 0.  1.
         23    2    1    2    0    0 -0.17978809667E+02 -0.10596730306E+02 -0.17755309640E+04  0.17778176133E+04  0.87691125899E+02 0.  0.
         11    1    3    3    0    0  0.14040676512E+02 -0.62515579215E+01 -0.15404052954E+04  0.15404819690E+04  0.00000000000E+00 0.  1.
        -11    1    3    3    0    0 -0.32019486179E+02 -0.43451723850E+01 -0.23512566860E+03  0.23733564430E+03  0.00000000000E+00 0. -1.
         22    1    1    2    0    0  0.17978809667E+02  0.10596730306E+02 -0.10104807214E+03  0.10318062402E+03  0.00000000000E+00 0. -1.
<mgrwt>
<rscale>  0 0.62526779E+02</rscale>
<asrwt>0</asrwt>
<pdfrwt beam="1">  1        2 0.28904390E+00 0.90140234E+02</pdfrwt>
<pdfrwt beam="2">  1       -2 0.33993915E-03 0.90140234E+02</pdfrwt>
<totfact> 0.79337310E+04</totfact>
</mgrwt>
</event>
<event>
 6    1  0.3075717E-002  0.9163204E+02  0.7546771E-02  0.1375844E+00
          2   -1    0    0  501    0  0.00000000000E+00  0.00000000000E+00  0.14240114402E+04  0.14240114402E+04  0.00000000000E+00 0. -1.
         -2   -1    0    0    0  501 -0.00000000000E+00 -0.00000000000E+00 -0.28630310236E+01  0.28630310236E+01  0.00000000000E+00 0.  1.
         23    2    1    2    0    0 -0.44616586496E+00  0.24020250990E+02  0.13078942448E+04  0.13111002199E+04  0.88426576949E+02 0.  0.
         11    1    3    3    0    0 -0.33921443713E+02  0.26648098885E+02  0.35450404667E+03  0.35711889424E+03  0.00000000000E+00 0.  1.
        -11    1    3    3    0    0  0.33475277848E+02 -0.26278478948E+01  0.95339019812E+03  0.95398132565E+03  0.00000000000E+00 0. -1.
         22    1    1    2    0    0  0.44616586496E+00 -0.24020250990E+02  0.11325416436E+03  0.11577425131E+03  0.00000000000E+00 0.  1.
<mgrwt>
<rscale>  0 0.65569011E+02</rscale>
<asrwt>0</asrwt>
<pdfrwt beam="1">  1        2 0.21907812E+00 0.91632042E+02</pdfrwt>
<pdfrwt beam="2">  1       -2 0.44046745E-03 0.91632042E+02</pdfrwt>
<totfact> 0.93984205E+04</totfact>
</mgrwt>
</event>
<event>
 6    1  0.3075717E-002  0.9118692E+02  0.7546771E-02  0.1400545E+00
          2   -1    0    0  501    0  0.00000000000E+00  0.00000000000E+00  0.11040834426E+04  0.11040834426E+04  0.00000000000E+00 0.  1.
         -2   -1    0    0    0  501 -0.00000000000E+00 -0.00000000000E+00 -0.29921718766E+01  0.29921718766E+01  0.00000000000E+00 0. -1.
         23    2    1    2    0    0 -0.16249330664E+02  0.20080081218E+01  0.10340964590E+04  0.10381091179E+04  0.89704968865E+02 0.  0.
         11    1    3    3    0    0  0.10812464285E+02  0.30459911585E+02  0.16556545116E+03  0.16869094290E+03  0.00000000000E+00 0. -1.
        -11    1    3    3    0    0 -0.27061794949E+02 -0.28451903463E+02  0.86853100781E+03  0.86941817503E+03  0.00000000000E+00 0.  1.
         22    1    1    2    0    0  0.16249330664E+02 -0.20080081218E+01  0.66994811778E+02  0.68966496568E+02  0.00000000000E+00 0. -1.
<mgrwt>
<rscale>  0 0.59358239E+02</rscale>
<asrwt>0</asrwt>
<pdfrwt beam="1">  1        2 0.16985867E+00 0.91186919E+02</pdfrwt>
<pdfrwt beam="2">  1       -2 0.46033502E-03 0.91186919E+02</pdfrwt>
<totfact> 0.13099539E+05</totfact>
</mgrwt>
</event>
<event>
 6    1  0.3075717E-002  0.9136310E+02  0.7546771E-02  0.1420955E+00
          2   -1    0    0  501    0  0.00000000000E+00  0.00000000000E+00  0.18100141736E+04  0.18100141736E+04  0.00000000000E+00 0. -1.
         -2   -1    0    0    0  501 -0.00000000000E+00 -0.00000000000E+00 -0.17681356426E+01  0.17681356426E+01  0.00000000000E+00 0.  1.
         23    2    1    2    0    0 -0.61842755834E+01 -0.10098771918E+02  0.17478541299E+04  0.17502403479E+04  0.90592412584E+02 0.  0.
         13    1    3    3    0    0  0.12617461828E+02 -0.35717875840E+02  0.14834243698E+04  0.14839079580E+04  0.00000000000E+00 0. -1.
        -13    1    3    3    0    0 -0.18801737411E+02  0.25619103922E+02  0.26442976019E+03  0.26633238986E+03  0.00000000000E+00 0.  1.
         22    1    1    2    0    0  0.61842755834E+01  0.10098771918E+02  0.60391908045E+02  0.61541961425E+02  0.00000000000E+00 0.  1.
<mgrwt>
<rscale>  0 0.54819290E+02</rscale>
<asrwt>0</asrwt>
<pdfrwt beam="1">  1        2 0.27846224E+00 0.91363098E+02</pdfrwt>
<pdfrwt beam="2">  1       -2 0.27202232E-03 0.91363098E+02</pdfrwt>
<totfact> 0.11731991E+05</totfact>
</mgrwt>
</event>
<event>
 6    1  0.3075717E-002  0.8420634E+02  0.7546771E-02  0.1403287E+00
         -2   -1    0    0    0  501 -0.00000000000E+00  0.00000000000E+00  0.41596252201E+01  0.41596252201E+01  0.00000000000E+00 0.  1.
          2   -1    0    0  501    0  0.00000000000E+00 -0.00000000000E+00 -0.13772930214E+04  0.13772930214E+04  0.00000000000E+00 0. -1.
         23    2    1    2    0    0 -0.15070989036E+02 -0.13011576853E+02 -0.13410636670E+04  0.13437047543E+04  0.81818530951E+02 0.  0.
         11    1    3    3    0    0  0.92655764214E+01 -0.24496617178E+02 -0.11883244857E+04  0.11886130651E+04  0.00000000000E+00 0. -1.
        -11    1    3    3    0    0 -0.24336565457E+02  0.11485040325E+02 -0.15273918129E+03  0.15509168924E+03  0.00000000000E+00 0.  1.
         22    1    1    2    0    0  0.15070989036E+02  0.13011576853E+02 -0.32069729154E+02  0.37747892269E+02  0.00000000000E+00 0.  1.
<mgrwt>
<rscale>  0 0.58719211E+02</rscale>
<asrwt>0</asrwt>
<pdfrwt beam="1">  1        2 0.21189186E+00 0.84206341E+02</pdfrwt>
<pdfrwt beam="2">  1       -2 0.63994045E-03 0.84206341E+02</pdfrwt>
<totfact> 0.58324920E+04</totfact>
</mgrwt>
</event>
<event>
 6    1  0.3075717E-002  0.9404542E+02  0.7546771E-02  0.1422628E+00
          1   -1    0    0  501    0  0.00000000000E+00  0.00000000000E+00  0.10629235422E+03  0.10629235422E+03  0.00000000000E+00 0. -1.
         -1   -1    0    0    0  501 -0.00000000000E+00 -0.00000000000E+00 -0.55045532628E+02  0.55045532628E+02  0.00000000000E+00 0.  1.
         23    2    1    2    0    0 -0.33573894004E+01  0.10035462490E+02  0.84506503257E+02  0.12643532254E+03  0.93448162749E+02 0.  0.
         11    1    3    3    0    0 -0.13781558778E+02  0.17479197561E+02  0.10219782033E+03  0.10459372921E+03  0.00000000000E+00 0. -1.
        -11    1    3    3    0    0  0.10424169377E+02 -0.74437350711E+01 -0.17691317076E+02  0.21841593324E+02  0.00000000000E+00 0.  1.
         22    1    1    2    0    0  0.33573894004E+01 -0.10035462490E+02 -0.33259681666E+02  0.34902564311E+02  0.00000000000E+00 0. -1.
<mgrwt>
<rscale>  0 0.54468706E+02</rscale>
<asrwt>0</asrwt>
<pdfrwt beam="1">  1        1 0.16352670E-01 0.94045424E+02</pdfrwt>
<pdfrwt beam="2">  1       -1 0.84685435E-02 0.94045424E+02</pdfrwt>
<totfact> 0.23235022E+04</totfact>
</mgrwt>
</event>
<event>
 6    1  0.3075717E-002  0.9054995E+02  0.7546771E-02  0.1418832E+00
          2   -1    0    0  501    0  0.00000000000E+00  0.00000000000E+00  0.10053990633E+03  0.10053990633E+03  0.00000000000E+00 0. -1.
         -2   -1    0    0    0  501 -0.00000000000E+00 -0.00000000000E+00 -0.26478186926E+02  0.26478186926E+02  0.00000000000E+00 0.  1.
         23    2    1    2    0    0  0.11819695456E+02 -0.42709281032E+01  0.63422946432E+02  0.11055208227E+03  0.89673556479E+02 0.  0.
         11    1    3    3    0    0  0.46469931936E+02 -0.21937048953E+02  0.31861212734E+02  0.60463423388E+02  0.00000000000E+00 0. -1.
        -11    1    3    3    0    0 -0.34650236481E+02  0.17666120850E+02  0.31561733699E+02  0.50088658877E+02  0.00000000000E+00 0.  1.
         22    1    1    2    0    0 -0.11819695456E+02  0.42709281032E+01  0.10638772967E+02  0.16466010985E+02  0.00000000000E+00 0.  1.
<mgrwt>
<rscale>  0 0.55268762E+02</rscale>
<asrwt>0</asrwt>
<pdfrwt beam="1">  1        2 0.15467678E-01 0.90549946E+02</pdfrwt>
<pdfrwt beam="2">  1       -2 0.40735673E-02 0.90549946E+02</pdfrwt>
<totfact> 0.85426904E+04</totfact>
</mgrwt>
</event>
<event>
 6    1  0.3075717E-002  0.9628309E+02  0.7546771E-02  0.1420566E+00
         -2   -1    0    0    0  501 -0.00000000000E+00  0.00000000000E+00  0.64028571645E+01  0.64028571645E+01  0.00000000000E+00 0. -1.
          2   -1    0    0  501    0  0.00000000000E+00 -0.00000000000E+00 -0.32146322167E+04  0.32146322167E+04  0.00000000000E+00 0.  1.
         23    2    1    2    0    0  0.98771295263E+01 -0.24584091465E+01 -0.32093510172E+04  0.32107949772E+04  0.95743577906E+02 0.  0.
         11    1    3    3    0    0  0.40835504267E+02  0.24255032853E+02 -0.10704973977E+04  0.10715505231E+04  0.00000000000E+00 0. -1.
        -11    1    3    3    0    0 -0.30958374741E+02 -0.26713441999E+02 -0.21388536195E+04  0.21392444542E+04  0.00000000000E+00 0.  1.
         22    1    1    2    0    0 -0.98771295263E+01  0.24584091465E+01  0.11216576668E+01  0.10240096637E+02  0.00000000000E+00 0. -1.
<mgrwt>
<rscale>  0 0.54901380E+02</rscale>
<asrwt>0</asrwt>
<pdfrwt beam="1">  1        2 0.49455899E+00 0.96283094E+02</pdfrwt>
<pdfrwt beam="2">  1       -2 0.98505458E-03 0.96283094E+02</pdfrwt>
<totfact> 0.34384929E+03</totfact>
</mgrwt>
</event>
<event>
 6    1  0.3075717E-002  0.9013020E+02  0.7546771E-02  0.1426111E+00
         -4   -1    0    0    0  501 -0.00000000000E+00  0.00000000000E+00  0.97949520329E+01  0.97949520329E+01  0.00000000000E+00 0. -1.
          4   -1    0    0  501    0  0.00000000000E+00 -0.00000000000E+00 -0.28744310479E+03  0.28744310479E+03  0.00000000000E+00 0.  1.
         23    2    1    2    0    0  0.10899043040E+02  0.33383374915E+01 -0.26635956746E+03  0.28119543252E+03  0.89406478834E+02 0.  0.
         11    1    3    3    0    0  0.27002632029E+02 -0.37448198226E+02 -0.14358663014E+03  0.15082648985E+03  0.00000000000E+00 0. -1.
        -11    1    3    3    0    0 -0.16103588989E+02  0.40786535717E+02 -0.12277293732E+03  0.13036894267E+03  0.00000000000E+00 0.  1.
         22    1    1    2    0    0 -0.10899043040E+02 -0.33383374915E+01 -0.11288585293E+02  0.16042624297E+02  0.00000000000E+00 0. -1.
<mgrwt>
<rscale>  0 0.53748696E+02</rscale>
<asrwt>0</asrwt>
<pdfrwt beam="1">  1        4 0.44222018E-01 0.90130195E+02</pdfrwt>
<pdfrwt beam="2">  1       -4 0.15069156E-02 0.90130195E+02</pdfrwt>
<totfact> 0.11348688E+04</totfact>
</mgrwt>
</event>
<event>
 6    1  0.3075717E-002  0.9795681E+02  0.7546771E-02  0.1397149E+00
         -2   -1    0    0    0  501 -0.00000000000E+00  0.00000000000E+00  0.19615166025E+02  0.19615166025E+02  0.00000000000E+00 0.  1.
          2   -1    0    0  501    0  0.00000000000E+00 -0.00000000000E+00 -0.15443410378E+04  0.15443410378E+04  0.00000000000E+00 0. -1.
         23    2    1    2    0    0  0.74383653898E+01 -0.11787816928E+02 -0.15400954629E+04  0.15432075595E+04  0.96960068870E+02 0.  0.
         11    1    3    3    0    0 -0.33247027789E+02 -0.27383827832E+02 -0.11265243678E+04  0.11273475019E+04  0.00000000000E+00 0. -1.
        -11    1    3    3    0    0  0.40685393179E+02  0.15596010904E+02 -0.41357109511E+03  0.41586005758E+03  0.00000000000E+00 0.  1.
         22    1    1    2    0    0 -0.74383653898E+01  0.11787816928E+02  0.15369591156E+02  0.20748644291E+02  0.00000000000E+00 0.  1.
<mgrwt>
<rscale>  0 0.60163075E+02</rscale>
<asrwt>0</asrwt>
<pdfrwt beam="1">  1        2 0.23759092E+00 0.97956811E+02</pdfrwt>
<pdfrwt beam="2">  1       -2 0.30177179E-02 0.97956811E+02</pdfrwt>
<totfact> 0.52967791E+03</totfact>
</mgrwt>
</event>
<event>
 6    1  0.3075717E-002  0.9314540E+02  0.7546771E-02  0.1408142E+00
          2   -1    0    0  501    0  0.00000000000E+00  0.00000000000E+00  0.33431884604E+02  0.33431884604E+02  0.00000000000E+00 0. -1.
         -2   -1    0    0    0  501 -0.00000000000E+00 -0.00000000000E+00 -0.99065056151E+02  0.99065056151E+02  0.00000000000E+00 0.  1.
         23    2    1    2    0    0 -0.12588432409E+02 -0.52277788558E+01 -0.35965566610E+02  0.99847820017E+02  0.92142644190E+02 0.  0.
         11    1    3    3    0    0 -0.16481531309E+02  0.11521123291E+02 -0.63930850501E+02  0.67018883921E+02  0.00000000000E+00 0.  1.
        -11    1    3    3    0    0  0.38930988997E+01 -0.16748902147E+02  0.27965283891E+02  0.32828936097E+02  0.00000000000E+00 0. -1.
         22    1    1    2    0    0  0.12588432409E+02  0.52277788558E+01 -0.29667604937E+02  0.32649120738E+02  0.00000000000E+00 0.  1.
<mgrwt>
<rscale>  0 0.57610450E+02</rscale>
<asrwt>0</asrwt>
<pdfrwt beam="1">  1        2 0.51433670E-02 0.93145398E+02</pdfrwt>
<pdfrwt beam="2">  1       -2 0.15240778E-01 0.93145398E+02</pdfrwt>
<totfact> 0.43667396E+04</totfact>
</mgrwt>
</event>
<event>
 6    1  0.3075717E-002  0.9261578E+02  0.7546771E-02  0.1384526E+00
          2   -1    0    0  501    0  0.00000000000E+00  0.00000000000E+00  0.14242426586E+04  0.14242426586E+04  0.00000000000E+00 0. -1.
         -2   -1    0    0    0  501 -0.00000000000E+00 -0.00000000000E+00 -0.35031242586E+01  0.35031242586E+01  0.00000000000E+00 0.  1.
         23    2    1    2    0    0 -0.11397801505E+01  0.20163367523E+02  0.13701136571E+04  0.13732403709E+04  0.90387069584E+02 0.  0.
         11    1    3    3    0    0  0.98792359042E+01  0.52745016986E+02  0.10286763538E+04  0.10300750832E+04  0.00000000000E+00 0. -1.
        -11    1    3    3    0    0 -0.11019016055E+02 -0.32581649463E+02  0.34143730325E+03  0.34316528765E+03  0.00000000000E+00 0.  1.
         22    1    1    2    0    0  0.11397801505E+01 -0.20163367523E+02  0.50625877232E+02  0.54505411971E+02  0.00000000000E+00 0.  1.
<mgrwt>
<rscale>  0 0.63288922E+02</rscale>
<asrwt>0</asrwt>
<pdfrwt beam="1">  1        2 0.21911379E+00 0.92615781E+02</pdfrwt>
<pdfrwt beam="2">  1       -2 0.53894333E-03 0.92615781E+02</pdfrwt>
<totfact> 0.70902227E+04</totfact>
</mgrwt>
</event>
<event>
 6    1  0.3075717E-002  0.9241282E+02  0.7546771E-02  0.1421385E+00
          4   -1    0    0  501    0  0.00000000000E+00  0.00000000000E+00  0.11747692667E+02  0.11747692667E+02  0.00000000000E+00 0. -1.
         -4   -1    0    0    0  501 -0.00000000000E+00 -0.00000000000E+00 -0.25819746432E+03  0.25819746432E+03  0.00000000000E+00 0.  1.
         23    2    1    2    0    0  0.10530727650E+02  0.42809232653E+01 -0.17801677108E+03  0.20057442759E+03  0.91711000923E+02 0.  0.
         11    1    3    3    0    0  0.22827297602E+02  0.18561074728E+02 -0.93686432170E+01  0.30876698117E+02  0.00000000000E+00 0. -1.
        -11    1    3    3    0    0 -0.12296569951E+02 -0.14280151463E+02 -0.16864812786E+03  0.16969772947E+03  0.00000000000E+00 0.  1.
         22    1    1    2    0    0 -0.10530727650E+02 -0.42809232653E+01 -0.68433000583E+02  0.69370729401E+02  0.00000000000E+00 0.  1.
<mgrwt>
<rscale>  0 0.54728868E+02</rscale>
<asrwt>0</asrwt>
<pdfrwt beam="1">  1        4 0.18073375E-02 0.92412825E+02</pdfrwt>
<pdfrwt beam="2">  1       -4 0.39722683E-01 0.92412825E+02</pdfrwt>
<totfact> 0.10715010E+04</totfact>
</mgrwt>
</event>
<event>
 6    1  0.3075717E-002  0.9428440E+02  0.7546771E-02  0.1417678E+00
         -1   -1    0    0    0  501 -0.00000000000E+00  0.00000000000E+00  0.59951301521E+01  0.59951301521E+01  0.00000000000E+00 0.  1.
          1   -1    0    0  501    0  0.00000000000E+00 -0.00000000000E+00 -0.49168036067E+03  0.49168036067E+03  0.00000000000E+00 0. -1.
         23    2    1    2    0    0  0.10762303846E+02  0.35497998554E+01 -0.46057438934E+03  0.47012585184E+03  0.93600855738E+02 0.  0.
         11    1    3    3    0    0  0.10598015640E+02 -0.21158832613E+02 -0.27224045830E+02  0.36071634347E+02  0.00000000000E+00 0.  1.
        -11    1    3    3    0    0  0.16428820576E+00  0.24708632469E+02 -0.43335034351E+03  0.43405421750E+03  0.00000000000E+00 0. -1.
         22    1    1    2    0    0 -0.10762303846E+02 -0.35497998554E+01 -0.25110841184E+02  0.27549638982E+02  0.00000000000E+00 0. -1.
<mgrwt>
<rscale>  0 0.55515271E+02</rscale>
<asrwt>0</asrwt>
<pdfrwt beam="1">  1        1 0.75643113E-01 0.94284402E+02</pdfrwt>
<pdfrwt beam="2">  1       -1 0.92232795E-03 0.94284402E+02</pdfrwt>
<totfact> 0.85430907E+04</totfact>
</mgrwt>
</event>
<event>
 6    1  0.3075717E-002  0.1292537E+03  0.7546771E-02  0.1245657E+00
          2   -1    0    0  501    0  0.00000000000E+00  0.00000000000E+00  0.39837517494E+03  0.39837517494E+03  0.00000000000E+00 0.  1.
         -2   -1    0    0    0  501 -0.00000000000E+00 -0.00000000000E+00 -0.32281203416E+02  0.32281203416E+02  0.00000000000E+00 0. -1.
         23    2    1    2    0    0  0.89661347831E+02  0.16659472616E+02  0.26279783768E+03  0.29286382925E+03  0.91595980641E+02 0.  0.
         13    1    3    3    0    0  0.24417088802E+02  0.17433399260E+02  0.97612091541E+01  0.31549941988E+02  0.00000000000E+00 0. -1.
        -13    1    3    3    0    0  0.65244259029E+02 -0.77392664389E+00  0.25303662853E+03  0.26131388726E+03  0.00000000000E+00 0.  1.
         22    1    1    2    0    0 -0.89661347831E+02 -0.16659472616E+02  0.10329613384E+03  0.13779254911E+03  0.00000000000E+00 0. -1.
<mgrwt>
<rscale>  0 0.11846119E+03</rscale>
<asrwt>0</asrwt>
<pdfrwt beam="1">  1        2 0.61288485E-01 0.12925370E+03</pdfrwt>
<pdfrwt beam="2">  1       -2 0.49663393E-02 0.12925370E+03</pdfrwt>
<totfact> 0.14892682E+04</totfact>
</mgrwt>
</event>
<event>
 6    1  0.3075717E-002  0.9077342E+02  0.7546771E-02  0.1407192E+00
          2   -1    0    0  501    0  0.00000000000E+00  0.00000000000E+00  0.29560591055E+03  0.29560591055E+03  0.00000000000E+00 0. -1.
         -2   -1    0    0    0  501 -0.00000000000E+00 -0.00000000000E+00 -0.94612971630E+01  0.94612971630E+01  0.00000000000E+00 0.  1.
         23    2    1    2    0    0  0.14461489037E+02  0.37835424216E+01  0.24238263428E+03  0.25882263318E+03  0.89534150954E+02 0.  0.
         13    1    3    3    0    0  0.36602292904E+02  0.34079330437E+02  0.10333713597E+03  0.11480284091E+03  0.00000000000E+00 0. -1.
        -13    1    3    3    0    0 -0.22140803867E+02 -0.30295788015E+02  0.13904549830E+03  0.14401979227E+03  0.00000000000E+00 0.  1.
         22    1    1    2    0    0 -0.14461489037E+02 -0.37835424216E+01  0.43761979112E+02  0.46244574538E+02  0.00000000000E+00 0.  1.
<mgrwt>
<rscale>  0 0.57825120E+02</rscale>
<asrwt>0</asrwt>
<pdfrwt beam="1">  1        2 0.45477825E-01 0.90773421E+02</pdfrwt>
<pdfrwt beam="2">  1       -2 0.14555844E-02 0.90773421E+02</pdfrwt>
<totfact> 0.11707384E+05</totfact>
</mgrwt>
</event>
<event>
 6    1  0.3075717E-002  0.9402296E+02  0.7546771E-02  0.1367340E+00
         -1   -1    0    0    0  501 -0.00000000000E+00  0.00000000000E+00  0.14860201174E+02  0.14860201174E+02  0.00000000000E+00 0.  1.
          1   -1    0    0  501    0  0.00000000000E+00 -0.00000000000E+00 -0.24255606337E+03  0.24255606337E+03  0.00000000000E+00 0. -1.
         23    2    1    2    0    0  0.54356871352E+01 -0.25007423723E+02 -0.16923921579E+03  0.19360327648E+03  0.90473192541E+02 0.  0.
         13    1    3    3    0    0  0.21490806208E+02 -0.51407748119E+02 -0.68879150433E+02  0.88594292607E+02  0.00000000000E+00 0.  1.
        -13    1    3    3    0    0 -0.16055119073E+02  0.26400324396E+02 -0.10036006536E+03  0.10500898388E+03  0.00000000000E+00 0. -1.
         22    1    1    2    0    0 -0.54356871352E+01  0.25007423723E+02 -0.58456646403E+02  0.63812988055E+02  0.00000000000E+00 0. -1.
<mgrwt>
<rscale>  0 0.67912355E+02</rscale>
<asrwt>0</asrwt>
<pdfrwt beam="1">  1        1 0.37316314E-01 0.94022957E+02</pdfrwt>
<pdfrwt beam="2">  1       -1 0.22861850E-02 0.94022957E+02</pdfrwt>
<totfact> 0.56385726E+04</totfact>
</mgrwt>
</event>
<event>
 6    1  0.3075717E-002  0.9227927E+02  0.7546771E-02  0.1416740E+00
         -2   -1    0    0    0  501 -0.00000000000E+00  0.00000000000E+00  0.41381479818E+01  0.41381479818E+01  0.00000000000E+00 0. -1.
          2   -1    0    0  501    0  0.00000000000E+00 -0.00000000000E+00 -0.67288842292E+03  0.67288842292E+03  0.00000000000E+00 0.  1.
         23    2    1    2    0    0 -0.12062221653E+02 -0.22142624865E+01 -0.61572411935E+03  0.62260071927E+03  0.91460725640E+02 0.  0.
         11    1    3    3    0    0  0.33589663169E+02 -0.97586824754E+01 -0.12821498187E+03  0.13290063556E+03  0.00000000000E+00 0. -1.
        -11    1    3    3    0    0 -0.45651884822E+02  0.75444199889E+01 -0.48750913748E+03  0.48970008371E+03  0.00000000000E+00 0.  1.
         22    1    1    2    0    0  0.12062221653E+02  0.22142624865E+01 -0.53026155589E+02  0.54425851634E+02  0.00000000000E+00 0.  1.
<mgrwt>
<rscale>  0 0.55716543E+02</rscale>
<asrwt>0</asrwt>
<pdfrwt beam="1">  1        2 0.10352129E+00 0.92279274E+02</pdfrwt>
<pdfrwt beam="2">  1       -2 0.63663821E-03 0.92279274E+02</pdfrwt>
<totfact> 0.15610743E+05</totfact>
</mgrwt>
</event>
<event>
 6    1  0.3075717E-002  0.8792770E+02  0.7546771E-02  0.1436127E+00
          2   -1    0    0  501    0  0.00000000000E+00  0.00000000000E+00  0.52380721819E+03  0.52380721819E+03  0.00000000000E+00 0.  1.
         -2   -1    0    0    0  501 -0.00000000000E+00 -0.00000000000E+00 -0.47103688717E+01  0.47103688717E+01  0.00000000000E+00 0. -1.
         23    2    1    2    0    0  0.26021507671E+01 -0.10223945553E+02  0.48178815299E+03  0.48974595990E+03  0.87292500380E+02 0.  0.
         13    1    3    3    0    0 -0.30874569215E+02 -0.23874507897E+02  0.12071550866E+03  0.12686790446E+03  0.00000000000E+00 0. -1.
        -13    1    3    3    0    0  0.33476719982E+02  0.13650562344E+02  0.36107264433E+03  0.36287805543E+03  0.00000000000E+00 0.  1.
         22    1    1    2    0    0 -0.26021507671E+01  0.10223945553E+02  0.37308696328E+02  0.38771627165E+02  0.00000000000E+00 0.  1.
<mgrwt>
<rscale>  0 0.51749518E+02</rscale>
<asrwt>0</asrwt>
<pdfrwt beam="1">  1        2 0.80585680E-01 0.87927703E+02</pdfrwt>
<pdfrwt beam="2">  1       -2 0.72467255E-03 0.87927703E+02</pdfrwt>
<totfact> 0.17083075E+05</totfact>
</mgrwt>
</event>
<event>
 6    1  0.3075717E-002  0.8949878E+02  0.7546771E-02  0.1414712E+00
         -2   -1    0    0    0  501 -0.00000000000E+00  0.00000000000E+00  0.50238084875E+01  0.50238084875E+01  0.00000000000E+00 0.  1.
          2   -1    0    0  501    0  0.00000000000E+00 -0.00000000000E+00 -0.55606236928E+03  0.55606236928E+03  0.00000000000E+00 0. -1.
         23    2    1    2    0    0 -0.12325941103E+02 -0.63628888417E+01 -0.50927198476E+03  0.51707638281E+03  0.88417283506E+02 0.  0.
         13    1    3    3    0    0  0.10192993795E+02 -0.93246521916E+01 -0.47915913853E+03  0.47935824421E+03  0.00000000000E+00 0. -1.
        -13    1    3    3    0    0 -0.22518934898E+02  0.29617633499E+01 -0.30112846229E+02  0.37718138595E+02  0.00000000000E+00 0.  1.
         22    1    1    2    0    0  0.12325941103E+02  0.63628888417E+01 -0.41766576033E+02  0.44009794955E+02  0.00000000000E+00 0.  1.
<mgrwt>
<rscale>  0 0.56155558E+02</rscale>
<asrwt>0</asrwt>
<pdfrwt beam="1">  1        2 0.85548039E-01 0.89498778E+02</pdfrwt>
<pdfrwt beam="2">  1       -2 0.77289378E-03 0.89498778E+02</pdfrwt>
<totfact> 0.14655727E+05</totfact>
</mgrwt>
</event>
<event>
 6    1  0.3075717E-002  0.1548896E+03  0.7546771E-02  0.1204123E+00
         -4   -1    0    0    0  501 -0.00000000000E+00  0.00000000000E+00  0.51025655937E+03  0.51025655937E+03  0.00000000000E+00 0.  1.
          4   -1    0    0  501    0  0.00000000000E+00 -0.00000000000E+00 -0.56865601107E+02  0.56865601107E+02  0.00000000000E+00 0. -1.
         23    2    1    2    0    0 -0.50264809488E+02 -0.11542328925E+03  0.82591304558E+02  0.17553376693E+03  0.90231330306E+02 0.  0.
         11    1    3    3    0    0  0.14273018926E+02 -0.10481926827E+02  0.42393318942E+02  0.45943262293E+02  0.00000000000E+00 0.  1.
        -11    1    3    3    0    0 -0.64537828414E+02 -0.10494136242E+03  0.40197985616E+02  0.12959050463E+03  0.00000000000E+00 0. -1.
         22    1    1    2    0    0  0.50264809488E+02  0.11542328925E+03  0.37079965371E+03  0.39158839355E+03  0.00000000000E+00 0.  1.
<mgrwt>
<rscale>  0 0.14706765E+03</rscale>
<asrwt>0</asrwt>
<pdfrwt beam="1">  1        4 0.87485544E-02 0.15488957E+03</pdfrwt>
<pdfrwt beam="2">  1       -4 0.78501006E-01 0.15488957E+03</pdfrwt>
<totfact> 0.24064806E+02</totfact>
</mgrwt>
</event>
<event>
 6    1  0.3075717E-002  0.9159730E+02  0.7546771E-02  0.1427017E+00
         -2   -1    0    0    0  501 -0.00000000000E+00  0.00000000000E+00  0.54290039060E+01  0.54290039060E+01  0.00000000000E+00 0.  1.
          2   -1    0    0  501    0  0.00000000000E+00 -0.00000000000E+00 -0.13831740213E+04  0.13831740213E+04  0.00000000000E+00 0. -1.
         23    2    1    2    0    0 -0.94370709076E+01  0.50661398519E+01 -0.13743037582E+04  0.13773528543E+04  0.90968903627E+02 0.  0.
         11    1    3    3    0    0  0.12564400964E+02 -0.20957154001E+02 -0.11403844723E+03  0.11662690051E+03  0.00000000000E+00 0.  1.
        -11    1    3    3    0    0 -0.22001471872E+02  0.26023293853E+02 -0.12602653110E+04  0.12607259538E+04  0.00000000000E+00 0. -1.
         22    1    1    2    0    0  0.94370709076E+01 -0.50661398519E+01 -0.34412592097E+01  0.11250170899E+02  0.00000000000E+00 0.  1.
<mgrwt>
<rscale>  0 0.53563486E+02</rscale>
<asrwt>0</asrwt>
<pdfrwt beam="1">  1        2 0.21279583E+00 0.91597301E+02</pdfrwt>
<pdfrwt beam="2">  1       -2 0.83523207E-03 0.91597301E+02</pdfrwt>
<totfact> 0.40151678E+04</totfact>
</mgrwt>
</event>
<event>
 6    1  0.3075717E-002  0.9245538E+02  0.7546771E-02  0.1420208E+00
          2   -1    0    0  501    0  0.00000000000E+00  0.00000000000E+00  0.10329895874E+03  0.10329895874E+03  0.00000000000E+00 0. -1.
         -2   -1    0    0    0  501 -0.00000000000E+00 -0.00000000000E+00 -0.26789045227E+02  0.26789045227E+02  0.00000000000E+00 0.  1.
         23    2    1    2    0    0  0.92644381396E+01  0.69126424774E+01  0.73586155587E+02  0.11816479968E+03  0.91729946847E+02 0.  0.
         13    1    3    3    0    0  0.24443310133E+02  0.44128251031E+02  0.29207799057E+02  0.58291281296E+02  0.00000000000E+00 0. -1.
        -13    1    3    3    0    0 -0.15178871993E+02 -0.37215608554E+02  0.44378356530E+02  0.59873518381E+02  0.00000000000E+00 0.  1.
         22    1    1    2    0    0 -0.92644381396E+01 -0.69126424774E+01  0.29237579210E+01  0.11923204286E+02  0.00000000000E+00 0.  1.
<mgrwt>
<rscale>  0 0.54976973E+02</rscale>
<asrwt>0</asrwt>
<pdfrwt beam="1">  1        2 0.15892147E-01 0.92455382E+02</pdfrwt>
<pdfrwt beam="2">  1       -2 0.41213916E-02 0.92455382E+02</pdfrwt>
<totfact> 0.81651071E+04</totfact>
</mgrwt>
</event>
<event>
 6    1  0.3075717E-002  0.9420049E+02  0.7546771E-02  0.1360978E+00
          2   -1    0    0  501    0  0.00000000000E+00  0.00000000000E+00  0.18528091510E+04  0.18528091510E+04  0.00000000000E+00 0. -1.
         -2   -1    0    0    0  501 -0.00000000000E+00 -0.00000000000E+00 -0.70117405215E+01  0.70117405215E+01  0.00000000000E+00 0.  1.
         23    2    1    2    0    0  0.23783269616E+02 -0.15337128923E+02  0.18170189061E+04  0.18194591057E+04  0.89849100323E+02 0.  0.
         11    1    3    3    0    0  0.47459280417E+02 -0.24898313165E+02  0.16070423067E+04  0.16079357216E+04  0.00000000000E+00 0. -1.
        -11    1    3    3    0    0 -0.23676010801E+02  0.95611842417E+01  0.20997659945E+03  0.21152338416E+03  0.00000000000E+00 0.  1.
         22    1    1    2    0    0 -0.23783269616E+02  0.15337128923E+02  0.28778504312E+02  0.40361785734E+02  0.00000000000E+00 0.  1.
<mgrwt>
<rscale>  0 0.69740526E+02</rscale>
<asrwt>0</asrwt>
<pdfrwt beam="1">  1        2 0.28504717E+00 0.94200490E+02</pdfrwt>
<pdfrwt beam="2">  1       -2 0.10787308E-02 0.94200490E+02</pdfrwt>
<totfact> 0.16182261E+04</totfact>
</mgrwt>
</event>
<event>
 6    1  0.3075717E-002  0.9407497E+02  0.7546771E-02  0.1422024E+00
          2   -1    0    0  501    0  0.00000000000E+00  0.00000000000E+00  0.12969630872E+03  0.12969630872E+03  0.00000000000E+00 0. -1.
         -2   -1    0    0    0  501 -0.00000000000E+00 -0.00000000000E+00 -0.21152351917E+02  0.21152351917E+02  0.00000000000E+00 0.  1.
         23    2    1    2    0    0 -0.76841547191E+01 -0.74036717236E+01  0.98080106320E+02  0.13590366965E+03  0.93467853187E+02 0.  0.
         11    1    3    3    0    0 -0.32542864309E+02  0.32675580127E+02  0.39679185646E+02  0.60837236358E+02  0.00000000000E+00 0.  1.
        -11    1    3    3    0    0  0.24858709590E+02 -0.40079251851E+02  0.58400920674E+02  0.75066433291E+02  0.00000000000E+00 0. -1.
         22    1    1    2    0    0  0.76841547191E+01  0.74036717236E+01  0.10463850487E+02  0.14944990992E+02  0.00000000000E+00 0. -1.
<mgrwt>
<rscale>  0 0.54594922E+02</rscale>
<asrwt>0</asrwt>
<pdfrwt beam="1">  1        2 0.19953278E-01 0.94074971E+02</pdfrwt>
<pdfrwt beam="2">  1       -2 0.32542081E-02 0.94074971E+02</pdfrwt>
<totfact> 0.89423527E+04</totfact>
</mgrwt>
</event>
<event>
 6    1  0.3075717E-002  0.9630805E+02  0.7546771E-02  0.1370700E+00
          2   -1    0    0  501    0  0.00000000000E+00  0.00000000000E+00  0.93152296533E+01  0.93152296533E+01  0.00000000000E+00 0. -1.
         -2   -1    0    0    0  501 -0.00000000000E+00 -0.00000000000E+00 -0.37901446467E+03  0.37901446467E+03  0.00000000000E+00 0.  1.
         23    2    1    2    0    0  0.18766551673E+02 -0.12452461162E+02 -0.30133780579E+03  0.31635377990E+03  0.93637565165E+02 0.  0.
         13    1    3    3    0    0  0.28116851137E+02 -0.15549028777E+02 -0.30435972075E+03  0.30605092588E+03  0.00000000000E+00 0.  1.
        -13    1    3    3    0    0 -0.93502994634E+01  0.30965676150E+01  0.30219149622E+01  0.10302854026E+02  0.00000000000E+00 0. -1.
         22    1    1    2    0    0 -0.18766551673E+02  0.12452461162E+02 -0.68361429230E+02  0.71975914423E+02  0.00000000000E+00 0.  1.
<mgrwt>
<rscale>  0 0.66972947E+02</rscale>
<asrwt>0</asrwt>
<pdfrwt beam="1">  1        2 0.14331121E-02 0.96308052E+02</pdfrwt>
<pdfrwt beam="2">  1       -2 0.58309923E-01 0.96308052E+02</pdfrwt>
<totfact> 0.21606753E+04</totfact>
</mgrwt>
</event>
<event>
 6    1  0.3075717E-002  0.9499847E+02  0.7546771E-02  0.1360553E+00
         -2   -1    0    0    0  501 -0.00000000000E+00  0.00000000000E+00  0.42819796110E+01  0.42819796110E+01  0.00000000000E+00 0. -1.
          2   -1    0    0  501    0  0.00000000000E+00 -0.00000000000E+00 -0.10596693495E+04  0.10596693495E+04  0.00000000000E+00 0.  1.
         23    2    1    2    0    0 -0.16340881256E+02 -0.22477744420E+02 -0.95733629805E+03  0.96203819903E+03  0.90842916261E+02 0.  0.
         11    1    3    3    0    0  0.31488305416E+02  0.13004875061E+02 -0.43071430778E+03  0.43205955038E+03  0.00000000000E+00 0.  1.
        -11    1    3    3    0    0 -0.47829186672E+02 -0.35482619481E+02 -0.52662199028E+03  0.52997864865E+03  0.00000000000E+00 0. -1.
         22    1    1    2    0    0  0.16340881256E+02  0.22477744420E+02 -0.98051071884E+02  0.10191313013E+03  0.00000000000E+00 0. -1.
<mgrwt>
<rscale>  0 0.69864867E+02</rscale>
<asrwt>0</asrwt>
<pdfrwt beam="1">  1        2 0.16302617E+00 0.94998468E+02</pdfrwt>
<pdfrwt beam="2">  1       -2 0.65876561E-03 0.94998468E+02</pdfrwt>
<totfact> 0.84361127E+04</totfact>
</mgrwt>
</event>
<event>
 6    1  0.3075717E-002  0.8976482E+02  0.7546771E-02  0.1433769E+00
          2   -1    0    0  501    0  0.00000000000E+00  0.00000000000E+00  0.54175178292E+03  0.54175178292E+03  0.00000000000E+00 0. -1.
         -2   -1    0    0    0  501 -0.00000000000E+00 -0.00000000000E+00 -0.50112169821E+01  0.50112169821E+01  0.00000000000E+00 0.  1.
         23    2    1    2    0    0  0.68360390873E+00 -0.10250843383E+02  0.51439983267E+03  0.52217325677E+03  0.89174969191E+02 0.  0.
         11    1    3    3    0    0  0.63898694350E+01  0.13251719711E+02  0.47942494562E+03  0.47965061971E+03  0.00000000000E+00 0. -1.
        -11    1    3    3    0    0 -0.57062655263E+01 -0.23502563095E+02  0.34974887053E+02  0.42522637061E+02  0.00000000000E+00 0.  1.
         22    1    1    2    0    0 -0.68360390873E+00  0.10250843383E+02  0.22340733269E+02  0.24589743134E+02  0.00000000000E+00 0.  1.
<mgrwt>
<rscale>  0 0.52210806E+02</rscale>
<asrwt>0</asrwt>
<pdfrwt beam="1">  1        2 0.83346382E-01 0.89764816E+02</pdfrwt>
<pdfrwt beam="2">  1       -2 0.77095689E-03 0.89764816E+02</pdfrwt>
<totfact> 0.15141325E+05</totfact>
</mgrwt>
</event>
<event>
 6    1  0.3075717E-002  0.9560323E+02  0.7546771E-02  0.1355844E+00
         -1   -1    0    0    0  501 -0.00000000000E+00  0.00000000000E+00  0.25892415641E+02  0.25892415641E+02  0.00000000000E+00 0.  1.
          1   -1    0    0  501    0  0.00000000000E+00 -0.00000000000E+00 -0.15223252513E+03  0.15223252513E+03  0.00000000000E+00 0. -1.
         23    2    1    2    0    0 -0.10922732156E+02  0.27422524306E+02 -0.10266451120E+03  0.14028534681E+03  0.90932259139E+02 0.  0.
         11    1    3    3    0    0  0.15827439696E+02  0.28069796107E+02  0.19689523797E+01  0.32284641461E+02  0.00000000000E+00 0.  1.
        -11    1    3    3    0    0 -0.26750171853E+02 -0.64727180112E+00 -0.10463346358E+03  0.10800070534E+03  0.00000000000E+00 0. -1.
         22    1    1    2    0    0  0.10922732156E+02 -0.27422524306E+02 -0.23675598295E+02  0.37839593968E+02  0.00000000000E+00 0.  1.
<mgrwt>
<rscale>  0 0.71264859E+02</rscale>
<asrwt>0</asrwt>
<pdfrwt beam="1">  1        1 0.23420388E-01 0.95603225E+02</pdfrwt>
<pdfrwt beam="2">  1       -1 0.39834486E-02 0.95603225E+02</pdfrwt>
<totfact> 0.45027095E+04</totfact>
</mgrwt>
</event>
<event>
 6    1  0.3075717E-002  0.9025735E+02  0.7546771E-02  0.1411738E+00
          1   -1    0    0  501    0  0.00000000000E+00  0.00000000000E+00  0.11452889182E+02  0.11452889182E+02  0.00000000000E+00 0. -1.
         -1   -1    0    0    0  501 -0.00000000000E+00 -0.00000000000E+00 -0.26665741536E+03  0.26665741536E+03  0.00000000000E+00 0.  1.
         23    2    1    2    0    0 -0.11442304229E+02  0.83480853626E+01 -0.17754627023E+03  0.19917095078E+03  0.89139063867E+02 0.  0.
         11    1    3    3    0    0 -0.29153038648E+02  0.28818331702E+02 -0.34477173204E+02  0.53563713245E+02  0.00000000000E+00 0. -1.
        -11    1    3    3    0    0  0.17710734418E+02 -0.20470246339E+02 -0.14306909703E+03  0.14560723754E+03  0.00000000000E+00 0.  1.
         22    1    1    2    0    0  0.11442304229E+02 -0.83480853626E+01 -0.77658255948E+02  0.78939353761E+02  0.00000000000E+00 0.  1.
<mgrwt>
<rscale>  0 0.56807787E+02</rscale>
<asrwt>0</asrwt>
<pdfrwt beam="1">  1        1 0.17619831E-02 0.90257352E+02</pdfrwt>
<pdfrwt beam="2">  1       -1 0.41024215E-01 0.90257352E+02</pdfrwt>
<totfact> 0.37139873E+04</totfact>
</mgrwt>
</event>
<event>
 6    1  0.3075717E-002  0.9489359E+02  0.7546771E-02  0.1394566E+00
          2   -1    0    0  501    0  0.00000000000E+00  0.00000000000E+00  0.23969394549E+02  0.23969394549E+02  0.00000000000E+00 0. -1.
         -2   -1    0    0    0  501 -0.00000000000E+00 -0.00000000000E+00 -0.13911105573E+03  0.13911105573E+03  0.00000000000E+00 0.  1.
         23    2    1    2    0    0 -0.99629513288E+01 -0.12489404890E+02 -0.78669849843E+02  0.12326288310E+03  0.93539015615E+02 0.  0.
         11    1    3    3    0    0 -0.30076978158E+01 -0.38942039603E+02  0.95658856454E+00  0.39069729412E+02  0.00000000000E+00 0. -1.
        -11    1    3    3    0    0 -0.69552535129E+01  0.26452634713E+02 -0.79626438407E+02  0.84193153689E+02  0.00000000000E+00 0.  1.
         22    1    1    2    0    0  0.99629513288E+01  0.12489404890E+02 -0.36471811337E+02  0.39817567177E+02  0.00000000000E+00 0.  1.
<mgrwt>
<rscale>  0 0.60785143E+02</rscale>
<asrwt>0</asrwt>
<pdfrwt beam="1">  1        2 0.36875991E-02 0.94893588E+02</pdfrwt>
<pdfrwt beam="2">  1       -2 0.21401701E-01 0.94893588E+02</pdfrwt>
<totfact> 0.38489540E+04</totfact>
</mgrwt>
</event>
<event>
 6    1  0.3075717E-002  0.9275828E+02  0.7546771E-02  0.1389175E+00
         -2   -1    0    0    0  501 -0.00000000000E+00  0.00000000000E+00  0.67951351674E+02  0.67951351674E+02  0.00000000000E+00 0.  1.
          2   -1    0    0  501    0  0.00000000000E+00 -0.00000000000E+00 -0.42757807379E+03  0.42757807379E+03  0.00000000000E+00 0. -1.
         23    2    1    2    0    0 -0.17612049556E+02  0.61314680221E+01 -0.42114886576E+03  0.43124293118E+03  0.90864290984E+02 0.  0.
         13    1    3    3    0    0  0.23679976181E+02  0.28271680318E+02 -0.28237734241E+03  0.28477533722E+03  0.00000000000E+00 0. -1.
        -13    1    3    3    0    0 -0.41292025737E+02 -0.22140212296E+02 -0.13877152334E+03  0.14646759396E+03  0.00000000000E+00 0.  1.
         22    1    1    2    0    0  0.17612049556E+02 -0.61314680221E+01  0.61522143638E+02  0.64286494285E+02  0.00000000000E+00 0.  1.
<mgrwt>
<rscale>  0 0.62112279E+02</rscale>
<asrwt>0</asrwt>
<pdfrwt beam="1">  1        2 0.65781242E-01 0.92758280E+02</pdfrwt>
<pdfrwt beam="2">  1       -2 0.10454054E-01 0.92758280E+02</pdfrwt>
<totfact> 0.43301055E+03</totfact>
</mgrwt>
</event>
<event>
 6    1  0.3075717E-002  0.9890203E+02  0.7546771E-02  0.1404652E+00
         -1   -1    0    0    0  501 -0.00000000000E+00  0.00000000000E+00  0.11777492391E+03  0.11777492391E+03  0.00000000000E+00 0.  1.
          1   -1    0    0  501    0  0.00000000000E+00 -0.00000000000E+00 -0.44949732033E+02  0.44949732033E+02  0.00000000000E+00 0. -1.
         23    2    1    2    0    0 -0.11961069322E+02  0.12602459864E+01  0.10737987939E+02  0.99483243150E+02  0.98167998265E+02 0.  0.
         13    1    3    3    0    0  0.35465337147E+02  0.18971384691E+02  0.24404381214E+02  0.47045482233E+02  0.00000000000E+00 0.  1.
        -13    1    3    3    0    0 -0.47426406469E+02 -0.17711138705E+02 -0.13666393275E+02  0.52437760917E+02  0.00000000000E+00 0. -1.
         22    1    1    2    0    0  0.11961069322E+02 -0.12602459864E+01  0.62087203934E+02  0.63241412790E+02  0.00000000000E+00 0.  1.
<mgrwt>
<rscale>  0 0.58404422E+02</rscale>
<asrwt>0</asrwt>
<pdfrwt beam="1">  1        1 0.69153434E-02 0.98902029E+02</pdfrwt>
<pdfrwt beam="2">  1       -1 0.18119219E-01 0.98902029E+02</pdfrwt>
<totfact> 0.22408438E+04</totfact>
</mgrwt>
</event>
<event>
 6    1  0.3075717E-002  0.9346266E+02  0.7546771E-02  0.1407616E+00
          2   -1    0    0  501    0  0.00000000000E+00  0.00000000000E+00  0.52266547144E+02  0.52266547144E+02  0.00000000000E+00 0. -1.
         -2   -1    0    0    0  501 -0.00000000000E+00 -0.00000000000E+00 -0.56956467694E+02  0.56956467694E+02  0.00000000000E+00 0.  1.
         23    2    1    2    0    0 -0.12989832833E+02 -0.40415632061E+01  0.31610152922E+01  0.93516099680E+02  0.92467285520E+02 0.  0.
         13    1    3    3    0    0 -0.45660085632E+02  0.22677781383E+02  0.53031430563E+01  0.51256692389E+02  0.00000000000E+00 0. -1.
        -13    1    3    3    0    0  0.32670252799E+02 -0.26719344589E+02 -0.21421277641E+01  0.42259407291E+02  0.00000000000E+00 0.  1.
         22    1    1    2    0    0  0.12989832833E+02  0.40415632061E+01 -0.78509358426E+01  0.15706915158E+02  0.00000000000E+00 0. -1.
<mgrwt>
<rscale>  0 0.57729209E+02</rscale>
<asrwt>0</asrwt>
<pdfrwt beam="1">  1        2 0.80410073E-02 0.93462660E+02</pdfrwt>
<pdfrwt beam="2">  1       -2 0.87625335E-02 0.93462660E+02</pdfrwt>
<totfact> 0.59441236E+04</totfact>
</mgrwt>
</event>
<event>
 6    1  0.3075717E-002  0.8857167E+02  0.7546771E-02  0.1435795E+00
          1   -1    0    0  501    0  0.00000000000E+00  0.00000000000E+00  0.27154046248E+03  0.27154046248E+03  0.00000000000E+00 0. -1.
         -1   -1    0    0    0  501 -0.00000000000E+00 -0.00000000000E+00 -0.16553446205E+02  0.16553446205E+02  0.00000000000E+00 0.  1.
         23    2    1    2    0    0 -0.10175770957E+02 -0.20138336769E+01  0.26133234336E+03  0.27593393268E+03  0.87962149104E+02 0.  0.
         13    1    3    3    0    0 -0.63502929268E+01 -0.24216886437E+02  0.16314071677E+02  0.29881980249E+02  0.00000000000E+00 0.  1.
        -13    1    3    3    0    0 -0.38254780306E+01  0.22203052760E+02  0.24501827168E+03  0.24605195243E+03  0.00000000000E+00 0. -1.
         22    1    1    2    0    0  0.10175770957E+02  0.20138336769E+01 -0.63453270876E+01  0.12159976008E+02  0.00000000000E+00 0.  1.
<mgrwt>
<rscale>  0 0.51814177E+02</rscale>
<asrwt>0</asrwt>
<pdfrwt beam="1">  1        1 0.41775452E-01 0.88571674E+02</pdfrwt>
<pdfrwt beam="2">  1       -1 0.25466842E-02 0.88571674E+02</pdfrwt>
<totfact> 0.41760852E+04</totfact>
</mgrwt>
</event>
<event>
 6    1  0.3075717E-002  0.9179309E+02  0.7546771E-02  0.1401975E+00
         -2   -1    0    0    0  501 -0.00000000000E+00  0.00000000000E+00  0.73223333982E+01  0.73223333982E+01  0.00000000000E+00 0.  1.
          2   -1    0    0  501    0  0.00000000000E+00 -0.00000000000E+00 -0.39861326712E+03  0.39861326712E+03  0.00000000000E+00 0. -1.
         23    2    1    2    0    0 -0.11245480881E+02 -0.10944058338E+02 -0.34745287440E+03  0.35937372020E+03  0.90441901751E+02 0.  0.
         11    1    3    3    0    0  0.31588434288E+02 -0.89835394518E+01 -0.25902061728E+03  0.26109426140E+03  0.00000000000E+00 0. -1.
        -11    1    3    3    0    0 -0.42833915169E+02 -0.19605188860E+01 -0.88432257120E+02  0.98279458802E+02  0.00000000000E+00 0.  1.
         22    1    1    2    0    0  0.11245480881E+02  0.10944058338E+02 -0.43838059322E+02  0.46561880313E+02  0.00000000000E+00 0. -1.
<mgrwt>
<rscale>  0 0.59023617E+02</rscale>
<asrwt>0</asrwt>
<pdfrwt beam="1">  1        2 0.61325137E-01 0.91793087E+02</pdfrwt>
<pdfrwt beam="2">  1       -2 0.11265125E-02 0.91793087E+02</pdfrwt>
<totfact> 0.12345236E+05</totfact>
</mgrwt>
</event>
<event>
 6    1  0.3075717E-002  0.9426601E+02  0.7546771E-02  0.1373086E+00
          2   -1    0    0  501    0  0.00000000000E+00  0.00000000000E+00  0.24411094889E+04  0.24411094889E+04  0.00000000000E+00 0.  1.
         -2   -1    0    0    0  501 -0.00000000000E+00 -0.00000000000E+00 -0.47431994008E+01  0.47431994008E+01  0.00000000000E+00 0. -1.
         23    2    1    2    0    0  0.11934235666E+02 -0.19766879804E+02  0.24052934820E+04  0.24071399658E+04  0.91394336959E+02 0.  0.
         13    1    3    3    0    0 -0.34944146884E+00  0.13154583147E+02  0.53870371803E+02  0.55454324676E+02  0.00000000000E+00 0. -1.
        -13    1    3    3    0    0  0.12283677135E+02 -0.32921462951E+02  0.23514231102E+04  0.23516856411E+04  0.00000000000E+00 0.  1.
         22    1    1    2    0    0 -0.11934235666E+02  0.19766879804E+02  0.31072807480E+02  0.38712722493E+02  0.00000000000E+00 0. -1.
<mgrwt>
<rscale>  0 0.66316726E+02</rscale>
<asrwt>0</asrwt>
<pdfrwt beam="1">  1        2 0.37555430E+00 0.94266008E+02</pdfrwt>
<pdfrwt beam="2">  1       -2 0.72972493E-03 0.94266008E+02</pdfrwt>
<totfact> 0.14114195E+04</totfact>
</mgrwt>
</event>
<event>
 6    1  0.3075717E-002  0.9397102E+02  0.7546771E-02  0.1382087E+00
          1   -1    0    0  501    0  0.00000000000E+00  0.00000000000E+00  0.95698563622E+02  0.95698563622E+02  0.00000000000E+00 0.  1.
         -1   -1    0    0    0  501 -0.00000000000E+00 -0.00000000000E+00 -0.34844555549E+02  0.34844555549E+02  0.00000000000E+00 0. -1.
         23    2    1    2    0    0 -0.16536947645E+02  0.11451812178E+02  0.57452886818E+02  0.11014257346E+03  0.91792906288E+02 0.  0.
         13    1    3    3    0    0  0.14290905201E+02 -0.14778423497E+02 -0.16150671787E+02  0.26143373380E+02  0.00000000000E+00 0. -1.
        -13    1    3    3    0    0 -0.30827852845E+02  0.26230235674E+02  0.73603558605E+02  0.83999200079E+02  0.00000000000E+00 0.  1.
         22    1    1    2    0    0  0.16536947645E+02 -0.11451812178E+02  0.34011212539E+01  0.20400545712E+02  0.00000000000E+00 0. -1.
<mgrwt>
<rscale>  0 0.63918364E+02</rscale>
<asrwt>0</asrwt>
<pdfrwt beam="1">  1        1 0.14722856E-01 0.93971018E+02</pdfrwt>
<pdfrwt beam="2">  1       -1 0.53607009E-02 0.93971018E+02</pdfrwt>
<totfact> 0.52327331E+04</totfact>
</mgrwt>
</event>
<event>
 6    1  0.3075717E-002  0.9305411E+02  0.7546771E-02  0.1418240E+00
          3   -1    0    0  501    0  0.00000000000E+00  0.00000000000E+00  0.38478928475E+03  0.38478928475E+03  0.00000000000E+00 0.  1.
         -3   -1    0    0    0  501 -0.00000000000E+00 -0.00000000000E+00 -0.95566073334E+01  0.95566073334E+01  0.00000000000E+00 0. -1.
         23    2    1    2    0    0 -0.53008718831E+01 -0.10414902700E+02  0.37003475383E+03  0.38155574546E+03  0.92317378697E+02 0.  0.
         11    1    3    3    0    0 -0.40364689951E+02 -0.21819086319E+02  0.28777856462E+03  0.29141359436E+03  0.00000000000E+00 0.  1.
        -11    1    3    3    0    0  0.35063818068E+02  0.11404183619E+02  0.82256189215E+02  0.90142151104E+02  0.00000000000E+00 0. -1.
         22    1    1    2    0    0  0.53008718831E+01  0.10414902700E+02  0.51979235800E+01  0.12790146618E+02  0.00000000000E+00 0. -1.
<mgrwt>
<rscale>  0 0.55395039E+02</rscale>
<asrwt>0</asrwt>
<pdfrwt beam="1">  1        3 0.59198340E-01 0.93054112E+02</pdfrwt>
<pdfrwt beam="2">  1       -3 0.14702476E-02 0.93054112E+02</pdfrwt>
<totfact> 0.90090969E+03</totfact>
</mgrwt>
</event>
<event>
 6    1  0.3075717E-002  0.9656028E+02  0.7546771E-02  0.1343513E+00
          2   -1    0    0  501    0  0.00000000000E+00  0.00000000000E+00  0.17091473072E+04  0.17091473072E+04  0.00000000000E+00 0. -1.
         -2   -1    0    0    0  501 -0.00000000000E+00 -0.00000000000E+00 -0.33342056567E+01  0.33342056567E+01  0.00000000000E+00 0.  1.
         23    2    1    2    0    0  0.35133336114E+02 -0.40072900380E+01  0.15356645690E+04  0.15386973571E+04  0.89852537258E+02 0.  0.
         11    1    3    3    0    0  0.16441162364E+01  0.34671909016E+02  0.99815087611E+03  0.99875423196E+03  0.00000000000E+00 0. -1.
        -11    1    3    3    0    0  0.33489219878E+02 -0.38679199054E+02  0.53751369292E+03  0.53994312512E+03  0.00000000000E+00 0.  1.
         22    1    1    2    0    0 -0.35133336114E+02  0.40072900380E+01  0.17014853248E+03  0.17378415573E+03  0.00000000000E+00 0.  1.
<mgrwt>
<rscale>  0 0.75115651E+02</rscale>
<asrwt>0</asrwt>
<pdfrwt beam="1">  1        2 0.26294504E+00 0.96560282E+02</pdfrwt>
<pdfrwt beam="2">  1       -2 0.51295608E-03 0.96560282E+02</pdfrwt>
<totfact> 0.54647411E+04</totfact>
</mgrwt>
</event>
<event>
 6    1  0.3075717E-002  0.1005933E+03  0.7546771E-02  0.1329448E+00
         -1   -1    0    0    0  501 -0.00000000000E+00  0.00000000000E+00  0.12269554732E+02  0.12269554732E+02  0.00000000000E+00 0.  1.
          1   -1    0    0  501    0  0.00000000000E+00 -0.00000000000E+00 -0.71765104401E+03  0.71765104401E+03  0.00000000000E+00 0. -1.
         23    2    1    2    0    0 -0.33957551595E+02  0.21062532485E+02 -0.66690274061E+03  0.67444664373E+03  0.92316110337E+02 0.  0.
         13    1    3    3    0    0  0.18986967529E+02  0.18711385415E+02 -0.46308008943E+03  0.46384673127E+03  0.00000000000E+00 0. -1.
        -13    1    3    3    0    0 -0.52944519124E+02  0.23511470700E+01 -0.20382265118E+03  0.21059991246E+03  0.00000000000E+00 0.  1.
         22    1    1    2    0    0  0.33957551595E+02 -0.21062532485E+02 -0.38478748670E+02  0.55473955008E+02  0.00000000000E+00 0.  1.
<mgrwt>
<rscale>  0 0.79860352E+02</rscale>
<asrwt>0</asrwt>
<pdfrwt beam="1">  1        1 0.11040788E+00 0.10059329E+03</pdfrwt>
<pdfrwt beam="2">  1       -1 0.18876234E-02 0.10059329E+03</pdfrwt>
<totfact> 0.18731800E+04</totfact>
</mgrwt>
</event>
<event>
 6    1  0.3075717E-002  0.9126463E+02  0.7546771E-02  0.1431632E+00
          4   -1    0    0  501    0  0.00000000000E+00  0.00000000000E+00  0.84824941704E+02  0.84824941704E+02  0.00000000000E+00 0. -1.
         -4   -1    0    0    0  501 -0.00000000000E+00 -0.00000000000E+00 -0.44459263865E+02  0.44459263865E+02  0.00000000000E+00 0.  1.
         23    2    1    2    0    0 -0.71105496850E+01 -0.71673764338E+01  0.58588106643E+02  0.10845182421E+03  0.90704469194E+02 0.  0.
         13    1    3    3    0    0 -0.39122670139E+02  0.23237918590E+02  0.39861881349E+02  0.60494245709E+02  0.00000000000E+00 0. -1.
        -13    1    3    3    0    0  0.32012120454E+02 -0.30405295024E+02  0.18726225294E+02  0.47957578497E+02  0.00000000000E+00 0.  1.
         22    1    1    2    0    0  0.71105496850E+01  0.71673764338E+01 -0.18222428803E+02  0.20832381363E+02  0.00000000000E+00 0.  1.
<mgrwt>
<rscale>  0 0.52633864E+02</rscale>
<asrwt>0</asrwt>
<pdfrwt beam="1">  1        4 0.13049991E-01 0.91264626E+02</pdfrwt>
<pdfrwt beam="2">  1       -4 0.68398867E-02 0.91264626E+02</pdfrwt>
<totfact> 0.10008060E+04</totfact>
</mgrwt>
</event>
<event>
 6    1  0.3075717E-002  0.9033968E+02  0.7546771E-02  0.1408057E+00
          1   -1    0    0  501    0  0.00000000000E+00  0.00000000000E+00  0.52142207571E+03  0.52142207571E+03  0.00000000000E+00 0. -1.
         -1   -1    0    0    0  501 -0.00000000000E+00 -0.00000000000E+00 -0.59345209347E+01  0.59345209347E+01  0.00000000000E+00 0.  1.
         23    2    1    2    0    0  0.57069591090E+00  0.14949801366E+02  0.48562173010E+03  0.49395315763E+03  0.89092283219E+02 0.  0.
         13    1    3    3    0    0  0.16669976925E+02 -0.23475940040E+02  0.62822804056E+02  0.69106530812E+02  0.00000000000E+00 0.  1.
        -13    1    3    3    0    0 -0.16099281014E+02  0.38425741406E+02  0.42279892604E+03  0.42484662681E+03  0.00000000000E+00 0. -1.
         22    1    1    2    0    0 -0.57069591090E+00 -0.14949801366E+02  0.29865824677E+02  0.33403439020E+02  0.00000000000E+00 0.  1.
<mgrwt>
<rscale>  0 0.57629760E+02</rscale>
<asrwt>0</asrwt>
<pdfrwt beam="1">  1        1 0.80218745E-01 0.90339677E+02</pdfrwt>
<pdfrwt beam="2">  1       -1 0.91300363E-03 0.90339677E+02</pdfrwt>
<totfact> 0.79867907E+04</totfact>
</mgrwt>
</event>
<event>
 6    1  0.3075717E-002  0.9161401E+02  0.7546771E-02  0.1379642E+00
          2   -1    0    0  501    0  0.00000000000E+00  0.00000000000E+00  0.15624382693E+04  0.15624382693E+04  0.00000000000E+00 0. -1.
         -2   -1    0    0    0  501 -0.00000000000E+00 -0.00000000000E+00 -0.27058289605E+01  0.27058289605E+01  0.00000000000E+00 0.  1.
         23    2    1    2    0    0 -0.21896910231E+02 -0.55520794363E+01  0.14606018228E+04  0.14634721769E+04  0.88785288575E+02 0.  0.
         13    1    3    3    0    0 -0.10343897519E+02  0.40685511325E+02  0.83683716078E+03  0.83788945614E+03  0.00000000000E+00 0. -1.
        -13    1    3    3    0    0 -0.11553012712E+02 -0.46237590762E+02  0.62376466202E+03  0.62558272074E+03  0.00000000000E+00 0.  1.
         22    1    1    2    0    0  0.21896910231E+02  0.55520794363E+01  0.99130617535E+02  0.10167192138E+03  0.00000000000E+00 0.  1.
<mgrwt>
<rscale>  0 0.64557940E+02</rscale>
<asrwt>0</asrwt>
<pdfrwt beam="1">  1        2 0.24037440E+00 0.91614015E+02</pdfrwt>
<pdfrwt beam="2">  1       -2 0.41628263E-03 0.91614015E+02</pdfrwt>
<totfact> 0.86397071E+04</totfact>
</mgrwt>
</event>
<event>
 6    1  0.3075717E-002  0.9007571E+02  0.7546771E-02  0.1422658E+00
          2   -1    0    0  501    0  0.00000000000E+00  0.00000000000E+00  0.53813904410E+03  0.53813904410E+03  0.00000000000E+00 0. -1.
         -2   -1    0    0    0  501 -0.00000000000E+00 -0.00000000000E+00 -0.61932181610E+01  0.61932181610E+01  0.00000000000E+00 0.  1.
         23    2    1    2    0    0 -0.42225812357E+01  0.11273503875E+02  0.51857786256E+03  0.52634269509E+03  0.89267637266E+02 0.  0.
         13    1    3    3    0    0 -0.16108224646E+02 -0.36787723145E+02  0.25734610658E+03  0.26046080329E+03  0.00000000000E+00 0. -1.
        -13    1    3    3    0    0  0.11885643410E+02  0.48061227019E+02  0.26123175597E+03  0.26588189181E+03  0.00000000000E+00 0.  1.
         22    1    1    2    0    0  0.42225812357E+01 -0.11273503875E+02  0.13367963387E+02  0.17989567172E+02  0.00000000000E+00 0.  1.
<mgrwt>
<rscale>  0 0.54462501E+02</rscale>
<asrwt>0</asrwt>
<pdfrwt beam="1">  1        2 0.82790585E-01 0.90075708E+02</pdfrwt>
<pdfrwt beam="2">  1       -2 0.95280322E-03 0.90075708E+02</pdfrwt>
<totfact> 0.11317598E+05</totfact>
</mgrwt>
</event>
<event>
 6    1  0.3075717E-002  0.9497536E+02  0.7546771E-02  0.1383171E+00
         -2   -1    0    0    0  501 -0.00000000000E+00  0.00000000000E+00  0.93175823493E+01  0.93175823493E+01  0.00000000000E+00 0.  1.
          2   -1    0    0  501    0  0.00000000000E+00 -0.00000000000E+00 -0.34948331306E+03  0.34948331306E+03  0.00000000000E+00 0. -1.
         23    2    1    2    0    0 -0.18683322219E+02 -0.41722909083E+01 -0.28484089991E+03  0.30025765119E+03  0.93026040957E+02 0.  0.
         13    1    3    3    0    0 -0.24940054761E+02  0.40307470060E+02 -0.11077862631E+03  0.12049316380E+03  0.00000000000E+00 0.  1.
        -13    1    3    3    0    0  0.62567325424E+01 -0.44479760968E+02 -0.17406227359E+03  0.17976448739E+03  0.00000000000E+00 0. -1.
         22    1    1    2    0    0  0.18683322219E+02  0.41722909083E+01 -0.55324830803E+02  0.58543244221E+02  0.00000000000E+00 0.  1.
<mgrwt>
<rscale>  0 0.63637584E+02</rscale>
<asrwt>0</asrwt>
<pdfrwt beam="1">  1        2 0.53766664E-01 0.94975359E+02</pdfrwt>
<pdfrwt beam="2">  1       -2 0.14334742E-02 0.94975359E+02</pdfrwt>
<totfact> 0.10111314E+05</totfact>
</mgrwt>
</event>
<event>
 6    1  0.3075717E-002  0.9515826E+02  0.7546771E-02  0.1342156E+00
         -2   -1    0    0    0  501 -0.00000000000E+00  0.00000000000E+00  0.85324586865E+01  0.85324586865E+01  0.00000000000E+00 0.  1.
          2   -1    0    0  501    0  0.00000000000E+00 -0.00000000000E+00 -0.72278240092E+03  0.72278240092E+03  0.00000000000E+00 0. -1.
         23    2    1    2    0    0  0.23932435250E+02 -0.29288073528E+02 -0.64864599614E+03  0.65558883732E+03  0.87318626907E+02 0.  0.
         11    1    3    3    0    0  0.26939930653E+02 -0.33452963844E+01 -0.54670407441E+02  0.61039366980E+02  0.00000000000E+00 0.  1.
        -11    1    3    3    0    0 -0.30074954030E+01 -0.25942777143E+02 -0.59397558870E+03  0.59454947035E+03  0.00000000000E+00 0. -1.
         22    1    1    2    0    0 -0.23932435250E+02  0.29288073528E+02 -0.65603946093E+02  0.75726022284E+02  0.00000000000E+00 0.  1.
<mgrwt>
<rscale>  0 0.75556680E+02</rscale>
<asrwt>0</asrwt>
<pdfrwt beam="1">  1        2 0.11119729E+00 0.95158265E+02</pdfrwt>
<pdfrwt beam="2">  1       -2 0.13126860E-02 0.95158265E+02</pdfrwt>
<totfact> 0.51798554E+04</totfact>
</mgrwt>
</event>
<event>
 6    1  0.3075717E-002  0.9077954E+02  0.7546771E-02  0.1432549E+00
         -2   -1    0    0    0  501 -0.00000000000E+00  0.00000000000E+00  0.68809193881E+01  0.68809193881E+01  0.00000000000E+00 0. -1.
          2   -1    0    0  501    0  0.00000000000E+00 -0.00000000000E+00 -0.78689943880E+03  0.78689943880E+03  0.00000000000E+00 0.  1.
         23    2    1    2    0    0 -0.59061862284E+01  0.82147418053E+01 -0.77822897834E+03  0.78350575474E+03  0.90213967702E+02 0.  0.
         13    1    3    3    0    0 -0.46406043487E+02 -0.61509876119E+01 -0.34758965120E+03  0.35072770227E+03  0.00000000000E+00 0.  1.
        -13    1    3    3    0    0  0.40499857259E+02  0.14365729417E+02 -0.43063932714E+03  0.43277805247E+03  0.00000000000E+00 0. -1.
         22    1    1    2    0    0  0.59061862284E+01 -0.82147418053E+01 -0.17895410712E+01  0.10274603444E+02  0.00000000000E+00 0. -1.
<mgrwt>
<rscale>  0 0.52451744E+02</rscale>
<asrwt>0</asrwt>
<pdfrwt beam="1">  1        2 0.12106146E+00 0.90779541E+02</pdfrwt>
<pdfrwt beam="2">  1       -2 0.10586029E-02 0.90779541E+02</pdfrwt>
<totfact> 0.63154574E+04</totfact>
</mgrwt>
</event>
<event>
 6    1  0.3075717E-002  0.9333878E+02  0.7546771E-02  0.1399593E+00
          2   -1    0    0  501    0  0.00000000000E+00  0.00000000000E+00  0.25109775883E+02  0.25109775883E+02  0.00000000000E+00 0.  1.
         -2   -1    0    0    0  501 -0.00000000000E+00 -0.00000000000E+00 -0.16966013023E+03  0.16966013023E+03  0.00000000000E+00 0. -1.
         23    2    1    2    0    0  0.15481414340E+02 -0.72419574476E+00 -0.65042950815E+02  0.11376604284E+03  0.92043079058E+02 0.  0.
         11    1    3    3    0    0 -0.19237222846E+02 -0.20503974898E+02  0.90914116827E+01  0.29548900078E+02  0.00000000000E+00 0.  1.
        -11    1    3    3    0    0  0.34718637186E+02  0.19779779153E+02 -0.74134362498E+02  0.84217142758E+02  0.00000000000E+00 0. -1.
         22    1    1    2    0    0 -0.15481414340E+02  0.72419574476E+00 -0.79507403527E+02  0.81003863272E+02  0.00000000000E+00 0. -1.
<mgrwt>
<rscale>  0 0.59582387E+02</rscale>
<asrwt>0</asrwt>
<pdfrwt beam="1">  1        2 0.38630423E-02 0.93338776E+02</pdfrwt>
<pdfrwt beam="2">  1       -2 0.26101559E-01 0.93338776E+02</pdfrwt>
<totfact> 0.25691765E+04</totfact>
</mgrwt>
</event>
<event>
 6    1  0.3075717E-002  0.8940762E+02  0.7546771E-02  0.1427707E+00
         -2   -1    0    0    0  501 -0.00000000000E+00  0.00000000000E+00  0.11869197616E+01  0.11869197616E+01  0.00000000000E+00 0.  1.
          2   -1    0    0  501    0  0.00000000000E+00 -0.00000000000E+00 -0.28693764520E+04  0.28693764520E+04  0.00000000000E+00 0. -1.
         23    2    1    2    0    0 -0.10997137466E+02  0.29924416727E+01 -0.28000668437E+04  0.28014938964E+04  0.88678240695E+02 0.  0.
         11    1    3    3    0    0  0.11946935044E+02 -0.36030491746E+02 -0.18035082752E+04  0.18039077094E+04  0.00000000000E+00 0. -1.
        -11    1    3    3    0    0 -0.22944072510E+02  0.39022933419E+02 -0.99655856856E+03  0.99758618694E+03  0.00000000000E+00 0.  1.
         22    1    1    2    0    0  0.10997137466E+02 -0.29924416727E+01 -0.68122688554E+02  0.69069475424E+02  0.00000000000E+00 0.  1.
<mgrwt>
<rscale>  0 0.53423038E+02</rscale>
<asrwt>0</asrwt>
<pdfrwt beam="1">  1        2 0.44143373E+00 0.89407618E+02</pdfrwt>
<pdfrwt beam="2">  1       -2 0.18260668E-03 0.89407618E+02</pdfrwt>
<totfact> 0.57330927E+04</totfact>
</mgrwt>
</event>
<event>
 6    1  0.3075717E-002  0.7725685E+02  0.7546771E-02  0.1428345E+00
         -2   -1    0    0    0  501 -0.00000000000E+00  0.00000000000E+00  0.34924953474E+01  0.34924953474E+01  0.00000000000E+00 0.  1.
          2   -1    0    0  501    0  0.00000000000E+00 -0.00000000000E+00 -0.71150268313E+03  0.71150268313E+03  0.00000000000E+00 0. -1.
         23    2    1    2    0    0  0.67278053718E+01  0.16148733841E+02 -0.64469753219E+03  0.64931004068E+03  0.75250089311E+02 0.  0.
         11    1    3    3    0    0 -0.17153425256E+02  0.28523815503E+01 -0.35803750666E+02  0.39803073251E+02  0.00000000000E+00 0.  1.
        -11    1    3    3    0    0  0.23881230628E+02  0.13296352291E+02 -0.60889378153E+03  0.60950696743E+03  0.00000000000E+00 0. -1.
         22    1    1    2    0    0 -0.67278053718E+01 -0.16148733841E+02 -0.63312655594E+02  0.65685137802E+02  0.00000000000E+00 0.  1.
<mgrwt>
<rscale>  0 0.53293704E+02</rscale>
<asrwt>0</asrwt>
<pdfrwt beam="1">  1        2 0.10946199E+00 0.77256850E+02</pdfrwt>
<pdfrwt beam="2">  1       -2 0.53730680E-03 0.77256850E+02</pdfrwt>
<totfact> 0.18051010E+05</totfact>
</mgrwt>
</event>
<event>
 6    1  0.3075717E-002  0.8982008E+02  0.7546771E-02  0.1399305E+00
          3   -1    0    0  501    0  0.00000000000E+00  0.00000000000E+00  0.37916765926E+03  0.37916765926E+03  0.00000000000E+00 0. -1.
         -3   -1    0    0    0  501 -0.00000000000E+00 -0.00000000000E+00 -0.83459277908E+02  0.83459277908E+02  0.00000000000E+00 0.  1.
         23    2    1    2    0    0 -0.79928521279E+01 -0.15535907089E+02  0.37285782211E+03  0.38352392646E+03  0.88104463914E+02 0.  0.
         13    1    3    3    0    0  0.11383243739E+02 -0.29948476305E+02  0.34570392773E+03  0.34718539013E+03  0.00000000000E+00 0. -1.
        -13    1    3    3    0    0 -0.19376095867E+02  0.14412569216E+02  0.27153894382E+02  0.36338536330E+02  0.00000000000E+00 0.  1.
         22    1    1    2    0    0  0.79928521279E+01  0.15535907089E+02 -0.77149440758E+02  0.79103010711E+02  0.00000000000E+00 0.  1.
<mgrwt>
<rscale>  0 0.59650220E+02</rscale>
<asrwt>0</asrwt>
<pdfrwt beam="1">  1        3 0.58333485E-01 0.89820079E+02</pdfrwt>
<pdfrwt beam="2">  1       -3 0.12839889E-01 0.89820079E+02</pdfrwt>
<totfact> 0.31007289E+02</totfact>
</mgrwt>
</event>
<event>
 6    1  0.3075717E-002  0.9022697E+02  0.7546771E-02  0.1409091E+00
         -1   -1    0    0    0  501 -0.00000000000E+00  0.00000000000E+00  0.20471867991E+02  0.20471867991E+02  0.00000000000E+00 0.  1.
          1   -1    0    0  501    0  0.00000000000E+00 -0.00000000000E+00 -0.14486271031E+03  0.14486271031E+03  0.00000000000E+00 0. -1.
         23    2    1    2    0    0  0.37989005880E+00 -0.14770871413E+02 -0.11956884568E+03  0.14979190767E+03  0.89008897243E+02 0.  0.
         13    1    3    3    0    0 -0.18954780959E+01  0.22723534544E+02 -0.10815517608E+03  0.11053277330E+03  0.00000000000E+00 0. -1.
        -13    1    3    3    0    0  0.22753681547E+01 -0.37494405957E+02 -0.11413669598E+02  0.39259134377E+02  0.00000000000E+00 0.  1.
         22    1    1    2    0    0 -0.37989005880E+00  0.14770871413E+02 -0.48219966445E+01  0.15542670633E+02  0.00000000000E+00 0. -1.
<mgrwt>
<rscale>  0 0.57397069E+02</rscale>
<asrwt>0</asrwt>
<pdfrwt beam="1">  1        1 0.22286570E-01 0.90226974E+02</pdfrwt>
<pdfrwt beam="2">  1       -1 0.31495182E-02 0.90226974E+02</pdfrwt>
<totfact> 0.66770469E+04</totfact>
</mgrwt>
</event>
<event>
 6    1  0.3075717E-002  0.8937240E+02  0.7546771E-02  0.1422097E+00
         -1   -1    0    0    0  501 -0.00000000000E+00  0.00000000000E+00  0.14787624550E+02  0.14787624550E+02  0.00000000000E+00 0.  1.
          1   -1    0    0  501    0  0.00000000000E+00 -0.00000000000E+00 -0.22597393071E+03  0.22597393071E+03  0.00000000000E+00 0. -1.
         23    2    1    2    0    0 -0.12049629118E+02 -0.30568286651E+01 -0.21005687638E+03  0.22827903248E+03  0.88503602134E+02 0.  0.
         11    1    3    3    0    0 -0.31883254268E+02 -0.36717460519E+02 -0.13791819751E+03  0.14624001851E+03  0.00000000000E+00 0. -1.
        -11    1    3    3    0    0  0.19833625151E+02  0.33660631854E+02 -0.72138678873E+02  0.82039013968E+02  0.00000000000E+00 0.  1.
         22    1    1    2    0    0  0.12049629118E+02  0.30568286651E+01 -0.11294297770E+01  0.12482522781E+02  0.00000000000E+00 0.  1.
<mgrwt>
<rscale>  0 0.54579793E+02</rscale>
<asrwt>0</asrwt>
<pdfrwt beam="1">  1        1 0.34765220E-01 0.89372397E+02</pdfrwt>
<pdfrwt beam="2">  1       -1 0.22750192E-02 0.89372397E+02</pdfrwt>
<totfact> 0.61481710E+04</totfact>
</mgrwt>
</event>
<event>
 6    1  0.3075717E-002  0.9313986E+02  0.7546771E-02  0.1411357E+00
          2   -1    0    0  501    0  0.00000000000E+00  0.00000000000E+00  0.77842423869E+03  0.77842423869E+03  0.00000000000E+00 0. -1.
         -2   -1    0    0    0  501 -0.00000000000E+00 -0.00000000000E+00 -0.36910343930E+01  0.36910343930E+01  0.00000000000E+00 0.  1.
         23    2    1    2    0    0  0.63924265013E+01 -0.11280479879E+02  0.71116546734E+03  0.71723870162E+03  0.92232970367E+02 0.  0.
         13    1    3    3    0    0 -0.58461245464E+01  0.28244468302E+02  0.86048946523E+02  0.90754329702E+02  0.00000000000E+00 0.  1.
        -13    1    3    3    0    0  0.12238551048E+02 -0.39524948181E+02  0.62511652082E+03  0.62648437192E+03  0.00000000000E+00 0. -1.
         22    1    1    2    0    0 -0.63924265013E+01  0.11280479879E+02  0.63567736958E+02  0.64876571464E+02  0.00000000000E+00 0.  1.
<mgrwt>
<rscale>  0 0.56892056E+02</rscale>
<asrwt>0</asrwt>
<pdfrwt beam="1">  1        2 0.11975744E+00 0.93139858E+02</pdfrwt>
<pdfrwt beam="2">  1       -2 0.56785206E-03 0.93139858E+02</pdfrwt>
<totfact> 0.15455982E+05</totfact>
</mgrwt>
</event>
<event>
 6    1  0.3075717E-002  0.9273373E+02  0.7546771E-02  0.1420776E+00
          2   -1    0    0  501    0  0.00000000000E+00  0.00000000000E+00  0.34783386281E+03  0.34783386281E+03  0.00000000000E+00 0. -1.
         -2   -1    0    0    0  501 -0.00000000000E+00 -0.00000000000E+00 -0.79286949561E+01  0.79286949561E+01  0.00000000000E+00 0.  1.
         23    2    1    2    0    0 -0.52249105028E+01 -0.10082444543E+02  0.28542999101E+03  0.30011635151E+03  0.92035804458E+02 0.  0.
         11    1    3    3    0    0 -0.36532053299E+02  0.10309655435E+02  0.55928746923E+02  0.67593673120E+02  0.00000000000E+00 0.  1.
        -11    1    3    3    0    0  0.31307142797E+02 -0.20392099978E+02  0.22950124408E+03  0.23252267839E+03  0.00000000000E+00 0. -1.
         22    1    1    2    0    0  0.52249105028E+01  0.10082444543E+02  0.54475176848E+02  0.55646206253E+02  0.00000000000E+00 0.  1.
<mgrwt>
<rscale>  0 0.54857148E+02</rscale>
<asrwt>0</asrwt>
<pdfrwt beam="1">  1        2 0.53512890E-01 0.92733730E+02</pdfrwt>
<pdfrwt beam="2">  1       -2 0.12197995E-02 0.92733730E+02</pdfrwt>
<totfact> 0.12742030E+05</totfact>
</mgrwt>
</event>
<event>
 6    1  0.3075717E-002  0.9483898E+02  0.7546771E-02  0.1383730E+00
          2   -1    0    0  501    0  0.00000000000E+00  0.00000000000E+00  0.94430101283E+02  0.94430101283E+02  0.00000000000E+00 0. -1.
         -2   -1    0    0    0  501 -0.00000000000E+00 -0.00000000000E+00 -0.47783901742E+02  0.47783901742E+02  0.00000000000E+00 0.  1.
         23    2    1    2    0    0 -0.54834595182E+00  0.19044760994E+02  0.65618237897E+02  0.11532642515E+03  0.92905476634E+02 0.  0.
         11    1    3    3    0    0 -0.17270210089E+02  0.21709317324E+02  0.85104148335E+02  0.89511287997E+02  0.00000000000E+00 0. -1.
        -11    1    3    3    0    0  0.16721864137E+02 -0.26645563306E+01 -0.19485910437E+02  0.25815137153E+02  0.00000000000E+00 0.  1.
         22    1    1    2    0    0  0.54834595182E+00 -0.19044760994E+02 -0.18972038357E+02  0.26887577875E+02  0.00000000000E+00 0.  1.
<mgrwt>
<rscale>  0 0.63493462E+02</rscale>
<asrwt>0</asrwt>
<pdfrwt beam="1">  1        2 0.14527708E-01 0.94838975E+02</pdfrwt>
<pdfrwt beam="2">  1       -2 0.73513695E-02 0.94838975E+02</pdfrwt>
<totfact> 0.38260145E+04</totfact>
</mgrwt>
</event>
<event>
 6    1  0.3075717E-002  0.9423392E+02  0.7546771E-02  0.1362137E+00
          1   -1    0    0  501    0  0.00000000000E+00  0.00000000000E+00  0.12023870451E+04  0.12023870451E+04  0.00000000000E+00 0. -1.
         -1   -1    0    0    0  501 -0.00000000000E+00 -0.00000000000E+00 -0.33167302767E+01  0.33167302767E+01  0.00000000000E+00 0.  1.
         23    2    1    2    0    0  0.20693775339E+02  0.18451613267E+02  0.10376117917E+04  0.10418820764E+04  0.90062958292E+02 0.  0.
         11    1    3    3    0    0  0.13748256760E+02  0.53850542229E+02  0.50474976838E+03  0.50780037824E+03  0.00000000000E+00 0.  1.
        -11    1    3    3    0    0  0.69455185791E+01 -0.35398928962E+02  0.53286202332E+03  0.53408169815E+03  0.00000000000E+00 0. -1.
         22    1    1    2    0    0 -0.20693775339E+02 -0.18451613267E+02  0.16145852311E+03  0.16382169898E+03  0.00000000000E+00 0. -1.
<mgrwt>
<rscale>  0 0.69402424E+02</rscale>
<asrwt>0</asrwt>
<pdfrwt beam="1">  1        1 0.18498227E+00 0.94233915E+02</pdfrwt>
<pdfrwt beam="2">  1       -1 0.51026716E-03 0.94233915E+02</pdfrwt>
<totfact> 0.51443468E+04</totfact>
</mgrwt>
</event>
<event>
 6    1  0.3075717E-002  0.9405783E+02  0.7546771E-02  0.1386481E+00
          2   -1    0    0  501    0  0.00000000000E+00  0.00000000000E+00  0.63495214417E+03  0.63495214417E+03  0.00000000000E+00 0. -1.
         -2   -1    0    0    0  501 -0.00000000000E+00 -0.00000000000E+00 -0.58101180131E+01  0.58101180131E+01  0.00000000000E+00 0.  1.
         23    2    1    2    0    0  0.18125534835E+02  0.45197396630E+01  0.58929064038E+03  0.59674980931E+03  0.92184125592E+02 0.  0.
         13    1    3    3    0    0 -0.44975707809E+01 -0.41743530846E+02  0.23227500472E+03  0.23603903984E+03  0.00000000000E+00 0. -1.
        -13    1    3    3    0    0  0.22623105616E+02  0.46263270509E+02  0.35701563566E+03  0.36071076947E+03  0.00000000000E+00 0.  1.
         22    1    1    2    0    0 -0.18125534835E+02 -0.45197396630E+01  0.39851385778E+02  0.44012452875E+02  0.00000000000E+00 0.  1.
<mgrwt>
<rscale>  0 0.62790459E+02</rscale>
<asrwt>0</asrwt>
<pdfrwt beam="1">  1        2 0.97684891E-01 0.94057834E+02</pdfrwt>
<pdfrwt beam="2">  1       -2 0.89386481E-03 0.94057834E+02</pdfrwt>
<totfact> 0.10366926E+05</totfact>
</mgrwt>
</event>
<event>
 6    1  0.3075717E-002  0.8502676E+02  0.7546771E-02  0.1433966E+00
          2   -1    0    0  501    0  0.00000000000E+00  0.00000000000E+00  0.10666166029E+04  0.10666166029E+04  0.00000000000E+00 0.  1.
         -2   -1    0    0    0  501 -0.00000000000E+00 -0.00000000000E+00 -0.24619976060E+01  0.24619976060E+01  0.00000000000E+00 0. -1.
         23    2    1    2    0    0  0.89887045616E+01  0.80295261724E+01  0.10112571170E+04  0.10148253575E+04  0.84168162641E+02 0.  0.
         11    1    3    3    0    0  0.29114337245E+02  0.32309619114E+02  0.33200990665E+03  0.33484643381E+03  0.00000000000E+00 0. -1.
        -11    1    3    3    0    0 -0.20125632684E+02 -0.24280092942E+02  0.67924721031E+03  0.67997892373E+03  0.00000000000E+00 0.  1.
         22    1    1    2    0    0 -0.89887045616E+01 -0.80295261724E+01  0.52897488295E+02  0.54253242928E+02  0.00000000000E+00 0. -1.
<mgrwt>
<rscale>  0 0.52172152E+02</rscale>
<asrwt>0</asrwt>
<pdfrwt beam="1">  1        2 0.16409449E+00 0.85026759E+02</pdfrwt>
<pdfrwt beam="2">  1       -2 0.37876971E-03 0.85026759E+02</pdfrwt>
<totfact> 0.17882916E+05</totfact>
</mgrwt>
</event>
<event>
 6    1  0.3075717E-002  0.9246630E+02  0.7546771E-02  0.1408130E+00
         -2   -1    0    0    0  501 -0.00000000000E+00  0.00000000000E+00  0.18354891857E+02  0.18354891857E+02  0.00000000000E+00 0. -1.
          2   -1    0    0  501    0  0.00000000000E+00 -0.00000000000E+00 -0.17819851594E+03  0.17819851594E+03  0.00000000000E+00 0.  1.
         23    2    1    2    0    0  0.13880616713E+02  0.12414761727E+01 -0.10474402158E+03  0.13971874426E+03  0.91410090564E+02 0.  0.
         11    1    3    3    0    0  0.27446935168E+02  0.41172361967E+02 -0.47269775245E+02  0.68431931814E+02  0.00000000000E+00 0. -1.
        -11    1    3    3    0    0 -0.13566318455E+02 -0.39930885794E+02 -0.57474246332E+02  0.71286812442E+02  0.00000000000E+00 0.  1.
         22    1    1    2    0    0 -0.13880616713E+02 -0.12414761727E+01 -0.55099602503E+02  0.56834663537E+02  0.00000000000E+00 0.  1.
<mgrwt>
<rscale>  0 0.57613247E+02</rscale>
<asrwt>0</asrwt>
<pdfrwt beam="1">  1        2 0.27415156E-01 0.92466304E+02</pdfrwt>
<pdfrwt beam="2">  1       -2 0.28238295E-02 0.92466304E+02</pdfrwt>
<totfact> 0.77355920E+04</totfact>
</mgrwt>
</event>
<event>
 6    1  0.3075717E-002  0.9707134E+02  0.7546771E-02  0.1351673E+00
         -2   -1    0    0    0  501 -0.00000000000E+00  0.00000000000E+00  0.18390428428E+02  0.18390428428E+02  0.00000000000E+00 0.  1.
          2   -1    0    0  501    0  0.00000000000E+00 -0.00000000000E+00 -0.54026117991E+03  0.54026117991E+03  0.00000000000E+00 0. -1.
         23    2    1    2    0    0 -0.89473708580E+01 -0.28913838875E+02 -0.51927918891E+03  0.52827428587E+03  0.92232204517E+02 0.  0.
         13    1    3    3    0    0 -0.55263883217E+01 -0.61274363506E+02 -0.39702072017E+03  0.40175930709E+03  0.00000000000E+00 0. -1.
        -13    1    3    3    0    0 -0.34209825364E+01  0.32360524631E+02 -0.12225846875E+03  0.12651497878E+03  0.00000000000E+00 0.  1.
         22    1    1    2    0    0  0.89473708580E+01  0.28913838875E+02 -0.25915625690E+01  0.30377322468E+02  0.00000000000E+00 0.  1.
<mgrwt>
<rscale>  0 0.72536916E+02</rscale>
<asrwt>0</asrwt>
<pdfrwt beam="1">  1        2 0.83117095E-01 0.97071340E+02</pdfrwt>
<pdfrwt beam="2">  1       -2 0.28292970E-02 0.97071340E+02</pdfrwt>
<totfact> 0.23943325E+04</totfact>
</mgrwt>
</event>
<event>
 6    1  0.3075717E-002  0.1271069E+03  0.7546771E-02  0.1263255E+00
         -2   -1    0    0    0  501 -0.00000000000E+00  0.00000000000E+00  0.81736314779E+03  0.81736314779E+03  0.00000000000E+00 0.  1.
          2   -1    0    0  501    0  0.00000000000E+00 -0.00000000000E+00 -0.25877003436E+02  0.25877003436E+02  0.00000000000E+00 0. -1.
         23    2    1    2    0    0 -0.30664756628E+02  0.60290961834E+02  0.75646720182E+03  0.76707156378E+03  0.10761426090E+03 0.  0.
         13    1    3    3    0    0 -0.24147502157E+02 -0.44614344987E+01  0.55093666510E+03  0.55148364909E+03  0.00000000000E+00 0.  1.
        -13    1    3    3    0    0 -0.65172544712E+01  0.64752396332E+02  0.20553053671E+03  0.21558791469E+03  0.00000000000E+00 0. -1.
         22    1    1    2    0    0  0.30664756628E+02 -0.60290961834E+02  0.35018942537E+02  0.76168587451E+02  0.00000000000E+00 0. -1.
<mgrwt>
<rscale>  0 0.10856243E+03</rscale>
<asrwt>0</asrwt>
<pdfrwt beam="1">  1        2 0.39810781E-02 0.12710687E+03</pdfrwt>
<pdfrwt beam="2">  1       -2 0.12574816E+00 0.12710687E+03</pdfrwt>
<totfact> 0.10196590E+03</totfact>
</mgrwt>
</event>
<event>
 6    1  0.3075717E-002  0.1097537E+03  0.7546771E-02  0.1290705E+00
          2   -1    0    0  501    0  0.00000000000E+00  0.00000000000E+00  0.19591756787E+02  0.19591756787E+02  0.00000000000E+00 0. -1.
         -2   -1    0    0    0  501 -0.00000000000E+00 -0.00000000000E+00 -0.38100371899E+03  0.38100371899E+03  0.00000000000E+00 0.  1.
         23    2    1    2    0    0  0.55333905981E+02 -0.28303939394E+02 -0.21072701702E+03  0.23759576154E+03  0.90459471941E+02 0.  0.
         11    1    3    3    0    0  0.60675911978E+02  0.16461704934E+02 -0.10100781548E+03  0.11897534539E+03  0.00000000000E+00 0. -1.
        -11    1    3    3    0    0 -0.53420059970E+01 -0.44765644328E+02 -0.10971920154E+03  0.11862041615E+03  0.00000000000E+00 0.  1.
         22    1    1    2    0    0 -0.55333905981E+02  0.28303939394E+02 -0.15068494518E+03  0.16299971424E+03  0.00000000000E+00 0.  1.
<mgrwt>
<rscale>  0 0.95209276E+02</rscale>
<asrwt>0</asrwt>
<pdfrwt beam="1">  1        2 0.30141167E-02 0.10975368E+03</pdfrwt>
<pdfrwt beam="2">  1       -2 0.58615951E-01 0.10975368E+03</pdfrwt>
<totfact> 0.79532971E+03</totfact>
</mgrwt>
</event>
<event>
 6    1  0.3075717E-002  0.9070655E+02  0.7546771E-02  0.1433398E+00
          2   -1    0    0  501    0  0.00000000000E+00  0.00000000000E+00  0.54912724429E+03  0.54912724429E+03  0.00000000000E+00 0. -1.
         -2   -1    0    0    0  501 -0.00000000000E+00 -0.00000000000E+00 -0.48308220845E+01  0.48308220845E+01  0.00000000000E+00 0.  1.
         23    2    1    2    0    0  0.15259863881E+01  0.98958555187E+01  0.51669928005E+03  0.52460063382E+03  0.90152218009E+02 0.  0.
         11    1    3    3    0    0  0.24415614158E+02  0.17319103351E+02  0.47862152568E+03  0.47955671031E+03  0.00000000000E+00 0. -1.
        -11    1    3    3    0    0 -0.22889627770E+02 -0.74232478327E+01  0.38077754366E+02  0.45043923512E+02  0.00000000000E+00 0.  1.
         22    1    1    2    0    0 -0.15259863881E+01 -0.98958555187E+01  0.27597142160E+02  0.29357432556E+02  0.00000000000E+00 0.  1.
<mgrwt>
<rscale>  0 0.52283917E+02</rscale>
<asrwt>0</asrwt>
<pdfrwt beam="1">  1        2 0.84481065E-01 0.90706554E+02</pdfrwt>
<pdfrwt beam="2">  1       -2 0.74320383E-03 0.90706554E+02</pdfrwt>
<totfact> 0.15735133E+05</totfact>
</mgrwt>
</event>
<event>
 6    1  0.3075717E-002  0.9925779E+02  0.7546771E-02  0.1347498E+00
         -1   -1    0    0    0  501 -0.00000000000E+00  0.00000000000E+00  0.10001863420E+02  0.10001863420E+02  0.00000000000E+00 0.  1.
          1   -1    0    0  501    0  0.00000000000E+00 -0.00000000000E+00 -0.11382613108E+04  0.11382613108E+04  0.00000000000E+00 0. -1.
         23    2    1    2    0    0 -0.30035470622E+02 -0.47040099261E+01 -0.11063398631E+04  0.11107835080E+04  0.94487309850E+02 0.  0.
         11    1    3    3    0    0  0.30544738758E+02  0.16795847086E+02 -0.36357538282E+03  0.36524257767E+03  0.00000000000E+00 0. -1.
        -11    1    3    3    0    0 -0.60580209380E+02 -0.21499857012E+02 -0.74276448027E+03  0.74554093031E+03  0.00000000000E+00 0.  1.
         22    1    1    2    0    0  0.30035470622E+02  0.47040099261E+01 -0.21919584243E+02  0.37479666197E+02  0.00000000000E+00 0.  1.
<mgrwt>
<rscale>  0 0.73840998E+02</rscale>
<asrwt>0</asrwt>
<pdfrwt beam="1">  1        1 0.17511714E+00 0.99257790E+02</pdfrwt>
<pdfrwt beam="2">  1       -1 0.15387481E-02 0.99257790E+02</pdfrwt>
<totfact> 0.12036385E+04</totfact>
</mgrwt>
</event>
<event>
 6    1  0.3075717E-002  0.9698960E+02  0.7546771E-02  0.1410903E+00
         -1   -1    0    0    0  501 -0.00000000000E+00  0.00000000000E+00  0.12561492247E+02  0.12561492247E+02  0.00000000000E+00 0.  1.
          1   -1    0    0  501    0  0.00000000000E+00 -0.00000000000E+00 -0.25163819708E+03  0.25163819708E+03  0.00000000000E+00 0. -1.
         23    2    1    2    0    0  0.10258685295E+02  0.53369939770E+01 -0.22961235661E+03  0.24925652982E+03  0.96297763326E+02 0.  0.
         13    1    3    3    0    0  0.38621383872E+02  0.69367657616E+01 -0.34996775903E+02  0.52578553946E+02  0.00000000000E+00 0.  1.
        -13    1    3    3    0    0 -0.28362698577E+02 -0.15997717846E+01 -0.19461558070E+03  0.19667797587E+03  0.00000000000E+00 0. -1.
         22    1    1    2    0    0 -0.10258685295E+02 -0.53369939770E+01 -0.94643482219E+01  0.14943159504E+02  0.00000000000E+00 0.  1.
<mgrwt>
<rscale>  0 0.56992816E+02</rscale>
<asrwt>0</asrwt>
<pdfrwt beam="1">  1        1 0.38713567E-01 0.96989604E+02</pdfrwt>
<pdfrwt beam="2">  1       -1 0.19325374E-02 0.96989604E+02</pdfrwt>
<totfact> 0.68848089E+04</totfact>
</mgrwt>
</event>
<event>
 6    1  0.3075717E-002  0.9378279E+02  0.7546771E-02  0.1341800E+00
          2   -1    0    0  501    0  0.00000000000E+00  0.00000000000E+00  0.17696466451E+03  0.17696466451E+03  0.00000000000E+00 0. -1.
         -2   -1    0    0    0  501 -0.00000000000E+00 -0.00000000000E+00 -0.26073008550E+02  0.26073008550E+02  0.00000000000E+00 0.  1.
         23    2    1    2    0    0 -0.93386570395E+01 -0.38642236429E+02  0.12206269195E+03  0.15393021825E+03  0.84939851508E+02 0.  0.
         11    1    3    3    0    0 -0.39266518875E+02 -0.47738402002E+02  0.71941383712E+02  0.94849234159E+02  0.00000000000E+00 0.  1.
        -11    1    3    3    0    0  0.29927861835E+02  0.90961655725E+01  0.50121308236E+02  0.59080984093E+02  0.00000000000E+00 0. -1.
         22    1    1    2    0    0  0.93386570395E+01  0.38642236429E+02  0.28828964011E+02  0.49107454806E+02  0.00000000000E+00 0.  1.
<mgrwt>
<rscale>  0 0.75672723E+02</rscale>
<asrwt>0</asrwt>
<pdfrwt beam="1">  1        2 0.27225332E-01 0.93782788E+02</pdfrwt>
<pdfrwt beam="2">  1       -2 0.40112322E-02 0.93782788E+02</pdfrwt>
<totfact> 0.46755071E+04</totfact>
</mgrwt>
</event>
<event>
 6    1  0.3075717E-002  0.9502545E+02  0.7546771E-02  0.1380626E+00
         -2   -1    0    0    0  501 -0.00000000000E+00  0.00000000000E+00  0.13197742891E+02  0.13197742891E+02  0.00000000000E+00 0.  1.
          2   -1    0    0  501    0  0.00000000000E+00 -0.00000000000E+00 -0.29444134419E+03  0.29444134419E+03  0.00000000000E+00 0. -1.
         23    2    1    2    0    0 -0.69395978900E+01 -0.18673037821E+02 -0.26627025786E+03  0.28271838537E+03  0.92913910919E+02 0.  0.
         13    1    3    3    0    0 -0.48104779028E+02  0.88699032936E+00 -0.11302268354E+03  0.12283722364E+03  0.00000000000E+00 0. -1.
        -13    1    3    3    0    0  0.41165181138E+02 -0.19560028150E+02 -0.15324757432E+03  0.15988116173E+03  0.00000000000E+00 0.  1.
         22    1    1    2    0    0  0.69395978900E+01  0.18673037821E+02 -0.14973343440E+02  0.24920701718E+02  0.00000000000E+00 0.  1.
<mgrwt>
<rscale>  0 0.64299399E+02</rscale>
<asrwt>0</asrwt>
<pdfrwt beam="1">  1        2 0.45298668E-01 0.95025445E+02</pdfrwt>
<pdfrwt beam="2">  1       -2 0.20304220E-02 0.95025445E+02</pdfrwt>
<totfact> 0.73480615E+04</totfact>
</mgrwt>
</event>
<event>
 6    1  0.3075717E-002  0.9222914E+02  0.7546771E-02  0.1380454E+00
         -1   -1    0    0    0  501 -0.00000000000E+00  0.00000000000E+00  0.52475283126E+01  0.52475283126E+01  0.00000000000E+00 0.  1.
          1   -1    0    0  501    0  0.00000000000E+00 -0.00000000000E+00 -0.29543624550E+04  0.29543624550E+04  0.00000000000E+00 0. -1.
         23    2    1    2    0    0 -0.13374825382E+02 -0.17277722340E+02 -0.29272382125E+04  0.29286907940E+04  0.89603619944E+02 0.  0.
         11    1    3    3    0    0 -0.51677836090E+02 -0.10820057727E+02 -0.18467380230E+04  0.18474926246E+04  0.00000000000E+00 0.  1.
        -11    1    3    3    0    0  0.38303010708E+02 -0.64576646134E+01 -0.10805001895E+04  0.10811981694E+04  0.00000000000E+00 0. -1.
         22    1    1    2    0    0  0.13374825382E+02  0.17277722340E+02 -0.21876714264E+02  0.30919189353E+02  0.00000000000E+00 0.  1.
<mgrwt>
<rscale>  0 0.64344594E+02</rscale>
<asrwt>0</asrwt>
<pdfrwt beam="1">  1        1 0.45451760E+00 0.92229140E+02</pdfrwt>
<pdfrwt beam="2">  1       -1 0.80731152E-03 0.92229140E+02</pdfrwt>
<totfact> 0.20195648E+03</totfact>
</mgrwt>
</event>
<event>
 6    1  0.3075717E-002  0.9145615E+02  0.7546771E-02  0.1410320E+00
         -4   -1    0    0    0  501 -0.00000000000E+00  0.00000000000E+00  0.11963754356E+03  0.11963754356E+03  0.00000000000E+00 0.  1.
          4   -1    0    0  501    0  0.00000000000E+00 -0.00000000000E+00 -0.23339394093E+02  0.23339394093E+02  0.00000000000E+00 0. -1.
         23    2    1    2    0    0 -0.92779129400E+01 -0.10375142992E+02  0.79658300200E+02  0.12128343991E+03  0.90390844364E+02 0.  0.
         11    1    3    3    0    0  0.18801939010E+02  0.71921801483E+01 -0.12266447322E+02  0.23573419263E+02  0.00000000000E+00 0. -1.
        -11    1    3    3    0    0 -0.28079851950E+02 -0.17567323141E+02  0.91924747522E+02  0.97710020647E+02  0.00000000000E+00 0.  1.
         22    1    1    2    0    0  0.92779129400E+01  0.10375142992E+02  0.16639849263E+02  0.21693497738E+02  0.00000000000E+00 0. -1.
<mgrwt>
<rscale>  0 0.57122528E+02</rscale>
<asrwt>0</asrwt>
<pdfrwt beam="1">  1        4 0.35906761E-02 0.91456153E+02</pdfrwt>
<pdfrwt beam="2">  1       -4 0.18405776E-01 0.91456153E+02</pdfrwt>
<totfact> 0.15391980E+04</totfact>
</mgrwt>
</event>
<event>
 6    1  0.3075717E-002  0.9637899E+02  0.7546771E-02  0.1352174E+00
         -1   -1    0    0    0  501 -0.00000000000E+00  0.00000000000E+00  0.54357592035E+01  0.54357592035E+01  0.00000000000E+00 0.  1.
          1   -1    0    0  501    0  0.00000000000E+00 -0.00000000000E+00 -0.74459026449E+03  0.74459026449E+03  0.00000000000E+00 0. -1.
         23    2    1    2    0    0  0.29535717734E+02  0.82299468159E+01 -0.57810253803E+03  0.58608143914E+03  0.91371867569E+02 0.  0.
         11    1    3    3    0    0  0.14506348915E+02  0.46547153401E+02 -0.20511847992E+03  0.21083325747E+03  0.00000000000E+00 0.  1.
        -11    1    3    3    0    0  0.15029368820E+02 -0.38317206585E+02 -0.37298405810E+03  0.37524818167E+03  0.00000000000E+00 0. -1.
         22    1    1    2    0    0 -0.29535717734E+02 -0.82299468159E+01 -0.16105196726E+03  0.16394458456E+03  0.00000000000E+00 0. -1.
<mgrwt>
<rscale>  0 0.72382400E+02</rscale>
<asrwt>0</asrwt>
<pdfrwt beam="1">  1        1 0.11455236E+00 0.96378985E+02</pdfrwt>
<pdfrwt beam="2">  1       -1 0.83627056E-03 0.96378985E+02</pdfrwt>
<totfact> 0.56141733E+04</totfact>
</mgrwt>
</event>
<event>
 6    1  0.3075717E-002  0.9130248E+02  0.7546771E-02  0.1410280E+00
          2   -1    0    0  501    0  0.00000000000E+00  0.00000000000E+00  0.48764611782E+03  0.48764611782E+03  0.00000000000E+00 0. -1.
         -2   -1    0    0    0  501 -0.00000000000E+00 -0.00000000000E+00 -0.60942159961E+01  0.60942159961E+01  0.00000000000E+00 0.  1.
         23    2    1    2    0    0 -0.42400019070E+00 -0.13991077332E+02  0.45079427636E+03  0.45994741229E+03  0.90223125929E+02 0.  0.
         13    1    3    3    0    0 -0.28399964071E+02 -0.29666703909E+02  0.10620397115E+03  0.11386814642E+03  0.00000000000E+00 0.  1.
        -13    1    3    3    0    0  0.27975963880E+02  0.15675626577E+02  0.34459030521E+03  0.34607926587E+03  0.00000000000E+00 0. -1.
         22    1    1    2    0    0  0.42400019070E+00  0.13991077332E+02  0.30757625460E+02  0.33792921522E+02  0.00000000000E+00 0.  1.
<mgrwt>
<rscale>  0 0.57131358E+02</rscale>
<asrwt>0</asrwt>
<pdfrwt beam="1">  1        2 0.75022449E-01 0.91302478E+02</pdfrwt>
<pdfrwt beam="2">  1       -2 0.93757208E-03 0.91302478E+02</pdfrwt>
<totfact> 0.12911080E+05</totfact>
</mgrwt>
</event>
<event>
 6    1  0.3075717E-002  0.9302499E+02  0.7546771E-02  0.1378620E+00
          2   -1    0    0  501    0  0.00000000000E+00  0.00000000000E+00  0.28951936780E+03  0.28951936780E+03  0.00000000000E+00 0. -1.
         -2   -1    0    0    0  501 -0.00000000000E+00 -0.00000000000E+00 -0.11638098515E+02  0.11638098515E+02  0.00000000000E+00 0.  1.
         23    2    1    2    0    0 -0.21597260031E+02 -0.38671892970E+01  0.20662959843E+03  0.22660414719E+03  0.90400507628E+02 0.  0.
         11    1    3    3    0    0 -0.27771367210E+02 -0.37788397390E+02  0.60967825175E+02  0.76917407137E+02  0.00000000000E+00 0. -1.
        -11    1    3    3    0    0  0.61741071795E+01  0.33921208093E+02  0.14566177326E+03  0.14968674005E+03  0.00000000000E+00 0.  1.
         22    1    1    2    0    0  0.21597260031E+02  0.38671892970E+01  0.71251670853E+02  0.74553319130E+02  0.00000000000E+00 0. -1.
<mgrwt>
<rscale>  0 0.64827999E+02</rscale>
<asrwt>0</asrwt>
<pdfrwt beam="1">  1        2 0.44541436E-01 0.93024989E+02</pdfrwt>
<pdfrwt beam="2">  1       -2 0.17904769E-02 0.93024989E+02</pdfrwt>
<totfact> 0.89319913E+04</totfact>
</mgrwt>
</event>
<event>
 6    1  0.3075717E-002  0.9645482E+02  0.7546771E-02  0.1349520E+00
          2   -1    0    0  501    0  0.00000000000E+00  0.00000000000E+00  0.15455458355E+03  0.15455458355E+03  0.00000000000E+00 0. -1.
         -2   -1    0    0    0  501 -0.00000000000E+00 -0.00000000000E+00 -0.34462467757E+02  0.34462467757E+02  0.00000000000E+00 0.  1.
         23    2    1    2    0    0 -0.22942087621E+02 -0.22314149929E+02  0.12364413855E+03  0.15681646844E+03  0.90990500080E+02 0.  0.
         13    1    3    3    0    0  0.16628531937E+01  0.12516505357E+02 -0.10270251677E+02  0.16275934892E+02  0.00000000000E+00 0.  1.
        -13    1    3    3    0    0 -0.24604940815E+02 -0.34830655286E+02  0.13391439023E+03  0.14054053355E+03  0.00000000000E+00 0. -1.
         22    1    1    2    0    0  0.22942087621E+02  0.22314149929E+02 -0.35520227533E+01  0.32200582869E+02  0.00000000000E+00 0.  1.
<mgrwt>
<rscale>  0 0.73205592E+02</rscale>
<asrwt>0</asrwt>
<pdfrwt beam="1">  1        2 0.23777628E-01 0.96454817E+02</pdfrwt>
<pdfrwt beam="2">  1       -2 0.53019182E-02 0.96454817E+02</pdfrwt>
<totfact> 0.35965114E+04</totfact>
</mgrwt>
</event>
<event>
 6    1  0.3075717E-002  0.9587025E+02  0.7546771E-02  0.1357440E+00
          2   -1    0    0  501    0  0.00000000000E+00  0.00000000000E+00  0.11291798148E+03  0.11291798148E+03  0.00000000000E+00 0. -1.
         -2   -1    0    0    0  501 -0.00000000000E+00 -0.00000000000E+00 -0.10599279436E+03  0.10599279436E+03  0.00000000000E+00 0.  1.
         23    2    1    2    0    0 -0.27784629231E+02 -0.63156719261E+01  0.89748260945E+02  0.13132347716E+03  0.91538144928E+02 0.  0.
         13    1    3    3    0    0  0.24791148341E+02  0.19107065656E+02  0.10774592596E+02  0.33102459723E+02  0.00000000000E+00 0.  1.
        -13    1    3    3    0    0 -0.52575777573E+02 -0.25422737582E+02  0.78973668350E+02  0.98221017436E+02  0.00000000000E+00 0. -1.
         22    1    1    2    0    0  0.27784629231E+02  0.63156719261E+01 -0.82823073818E+02  0.87587298680E+02  0.00000000000E+00 0.  1.
<mgrwt>
<rscale>  0 0.70786255E+02</rscale>
<asrwt>0</asrwt>
<pdfrwt beam="1">  1        2 0.17371997E-01 0.95870252E+02</pdfrwt>
<pdfrwt beam="2">  1       -2 0.16306584E-01 0.95870252E+02</pdfrwt>
<totfact> 0.89106085E+03</totfact>
</mgrwt>
</event>
<event>
 6    1  0.3075717E-002  0.9136021E+02  0.7546771E-02  0.1410016E+00
         -2   -1    0    0    0  501 -0.00000000000E+00  0.00000000000E+00  0.14030487079E+01  0.14030487079E+01  0.00000000000E+00 0.  1.
          2   -1    0    0  501    0  0.00000000000E+00 -0.00000000000E+00 -0.30903135516E+04  0.30903135516E+04  0.00000000000E+00 0. -1.
         23    2    1    2    0    0 -0.55091847165E+01 -0.12901584188E+02 -0.30205582535E+04  0.30219395842E+04  0.90276715173E+02 0.  0.
         11    1    3    3    0    0 -0.38140374511E+02 -0.30172147164E+02 -0.22173790951E+04  0.22179123287E+04  0.00000000000E+00 0. -1.
        -11    1    3    3    0    0  0.32631189795E+02  0.17270562976E+02 -0.80317915846E+03  0.80402725543E+03  0.00000000000E+00 0.  1.
         22    1    1    2    0    0  0.55091847165E+01  0.12901584188E+02 -0.68352249348E+02  0.69777016142E+02  0.00000000000E+00 0.  1.
<mgrwt>
<rscale>  0 0.57190183E+02</rscale>
<asrwt>0</asrwt>
<pdfrwt beam="1">  1        2 0.47542532E+00 0.91360206E+02</pdfrwt>
<pdfrwt beam="2">  1       -2 0.21585707E-03 0.91360206E+02</pdfrwt>
<totfact> 0.34116319E+04</totfact>
</mgrwt>
</event>
<event>
 6    1  0.3075717E-002  0.7054655E+02  0.7546771E-02  0.1472438E+00
         -2   -1    0    0    0  501 -0.00000000000E+00  0.00000000000E+00  0.10409481297E+03  0.10409481297E+03  0.00000000000E+00 0.  1.
          2   -1    0    0  501    0  0.00000000000E+00 -0.00000000000E+00 -0.19773252221E+02  0.19773252221E+02  0.00000000000E+00 0. -1.
         23    2    1    2    0    0  0.89454502906E+01  0.79997735658E+01  0.47264158875E+02  0.84915934419E+02  0.69518326692E+02 0.  0.
         13    1    3    3    0    0  0.34763623428E+02 -0.28238539449E+01  0.65220828219E+01  0.35482689150E+02  0.00000000000E+00 0. -1.
        -13    1    3    3    0    0 -0.25818173138E+02  0.10823627511E+02  0.40742076053E+02  0.49433245269E+02  0.00000000000E+00 0.  1.
         22    1    1    2    0    0 -0.89454502906E+01 -0.79997735658E+01  0.37057401870E+02  0.38952130768E+02  0.00000000000E+00 0.  1.
<mgrwt>
<rscale>  0 0.45306312E+02</rscale>
<asrwt>0</asrwt>
<pdfrwt beam="1">  1        2 0.30420389E-02 0.70546546E+02</pdfrwt>
<pdfrwt beam="2">  1       -2 0.16014586E-01 0.70546546E+02</pdfrwt>
<totfact> 0.76524999E+04</totfact>
</mgrwt>
</event>
<event>
 6    1  0.3075717E-002  0.8958174E+02  0.7546771E-02  0.1427900E+00
          4   -1    0    0  501    0  0.00000000000E+00  0.00000000000E+00  0.15419786436E+03  0.15419786436E+03  0.00000000000E+00 0. -1.
         -4   -1    0    0    0  501 -0.00000000000E+00 -0.00000000000E+00 -0.16797912793E+02  0.16797912793E+02  0.00000000000E+00 0.  1.
         23    2    1    2    0    0 -0.89439051143E+01  0.69020362357E+01  0.11377847119E+03  0.14481170035E+03  0.88866509490E+02 0.  0.
         11    1    3    3    0    0  0.13424314546E+02  0.12826635960E+02  0.11953376795E+03  0.12096717114E+03  0.00000000000E+00 0. -1.
        -11    1    3    3    0    0 -0.22368219660E+02 -0.59245997240E+01 -0.57552967638E+01  0.23844529215E+02  0.00000000000E+00 0.  1.
         22    1    1    2    0    0  0.89439051143E+01 -0.69020362357E+01  0.23621480381E+02  0.26184076808E+02  0.00000000000E+00 0.  1.
<mgrwt>
<rscale>  0 0.53383786E+02</rscale>
<asrwt>0</asrwt>
<pdfrwt beam="1">  1        4 0.23722747E-01 0.89581739E+02</pdfrwt>
<pdfrwt beam="2">  1       -4 0.25842944E-02 0.89581739E+02</pdfrwt>
<totfact> 0.16178257E+04</totfact>
</mgrwt>
</event>
<event>
 6    1  0.3075717E-002  0.9344707E+02  0.7546771E-02  0.1374287E+00
          2   -1    0    0  501    0  0.00000000000E+00  0.00000000000E+00  0.33518837026E+03  0.33518837026E+03  0.00000000000E+00 0. -1.
         -2   -1    0    0    0  501 -0.00000000000E+00 -0.00000000000E+00 -0.10159111704E+02  0.10159111704E+02  0.00000000000E+00 0.  1.
         23    2    1    2    0    0 -0.44230124203E+01  0.22813442658E+02  0.25751328232E+03  0.27394423798E+03  0.90511539293E+02 0.  0.
         11    1    3    3    0    0 -0.47075206480E+02  0.15440903371E+02  0.12161182729E+03  0.13131615704E+03  0.00000000000E+00 0.  1.
        -11    1    3    3    0    0  0.42652194060E+02  0.73725392867E+01  0.13590145503E+03  0.14262808094E+03  0.00000000000E+00 0. -1.
         22    1    1    2    0    0  0.44230124203E+01 -0.22813442658E+02  0.67515976239E+02  0.71403243990E+02  0.00000000000E+00 0. -1.
<mgrwt>
<rscale>  0 0.65989542E+02</rscale>
<asrwt>0</asrwt>
<pdfrwt beam="1">  1        2 0.51567433E-01 0.93447070E+02</pdfrwt>
<pdfrwt beam="2">  1       -2 0.15629405E-02 0.93447070E+02</pdfrwt>
<totfact> 0.93147011E+04</totfact>
</mgrwt>
</event>
<event>
 6    1  0.3075717E-002  0.9220990E+02  0.7546771E-02  0.1377873E+00
         -3   -1    0    0    0  501 -0.00000000000E+00  0.00000000000E+00  0.92600195450E+01  0.92600195450E+01  0.00000000000E+00 0.  1.
          3   -1    0    0  501    0  0.00000000000E+00 -0.00000000000E+00 -0.38981851528E+03  0.38981851528E+03  0.00000000000E+00 0. -1.
         23    2    1    2    0    0  0.16559668738E+02 -0.15678818050E+02 -0.34264098139E+03  0.35483166083E+03  0.89345494773E+02 0.  0.
         13    1    3    3    0    0 -0.17197404538E+02 -0.26794366333E+02 -0.28731754959E+03  0.28907622367E+03  0.00000000000E+00 0. -1.
        -13    1    3    3    0    0  0.33757073276E+02  0.11115548283E+02 -0.55323431796E+02  0.65755437156E+02  0.00000000000E+00 0.  1.
         22    1    1    2    0    0 -0.16559668738E+02  0.15678818050E+02 -0.37917514347E+02  0.44246873996E+02  0.00000000000E+00 0. -1.
<mgrwt>
<rscale>  0 0.65026231E+02</rscale>
<asrwt>0</asrwt>
<pdfrwt beam="1">  1        3 0.59972080E-01 0.92209899E+02</pdfrwt>
<pdfrwt beam="2">  1       -3 0.14246184E-02 0.92209899E+02</pdfrwt>
<totfact> 0.91778929E+03</totfact>
</mgrwt>
</event>
<event>
 6    1  0.3075717E-002  0.9449785E+02  0.7546771E-02  0.1378475E+00
          2   -1    0    0  501    0  0.00000000000E+00  0.00000000000E+00  0.13840918265E+03  0.13840918265E+03  0.00000000000E+00 0.  1.
         -2   -1    0    0    0  501 -0.00000000000E+00 -0.00000000000E+00 -0.26326483714E+02  0.26326483714E+02  0.00000000000E+00 0. -1.
         23    2    1    2    0    0 -0.43797908572E+01  0.20518192121E+02  0.10774094400E+03  0.14331069001E+03  0.92139373133E+02 0.  0.
         11    1    3    3    0    0 -0.44549178002E+02 -0.78877725008E+01  0.54111491007E+02  0.70532968708E+02  0.00000000000E+00 0. -1.
        -11    1    3    3    0    0  0.40169387145E+02  0.28405964621E+02  0.53629452988E+02  0.72777721299E+02  0.00000000000E+00 0.  1.
         22    1    1    2    0    0  0.43797908572E+01 -0.20518192121E+02  0.43417549389E+01  0.21424976355E+02  0.00000000000E+00 0.  1.
<mgrwt>
<rscale>  0 0.64866441E+02</rscale>
<asrwt>0</asrwt>
<pdfrwt beam="1">  1        2 0.21293720E-01 0.94497846E+02</pdfrwt>
<pdfrwt beam="2">  1       -2 0.40502283E-02 0.94497846E+02</pdfrwt>
<totfact> 0.60389070E+04</totfact>
</mgrwt>
</event>
<event>
 6    1  0.3075717E-002  0.9688254E+02  0.7546771E-02  0.1349136E+00
         -1   -1    0    0    0  501 -0.00000000000E+00  0.00000000000E+00  0.47071849433E+03  0.47071849433E+03  0.00000000000E+00 0.  1.
          1   -1    0    0  501    0  0.00000000000E+00 -0.00000000000E+00 -0.95735462687E+01  0.95735462687E+01  0.00000000000E+00 0. -1.
         23    2    1    2    0    0 -0.69245972102E+01  0.31026029569E+02  0.27774241661E+03  0.29415485168E+03  0.91518644127E+02 0.  0.
         11    1    3    3    0    0  0.20293890543E+02  0.34514199035E+02  0.46808686541E+02  0.61596469575E+02  0.00000000000E+00 0. -1.
        -11    1    3    3    0    0 -0.27218487753E+02 -0.34881694666E+01  0.23093373007E+03  0.23255838210E+03  0.00000000000E+00 0.  1.
         22    1    1    2    0    0  0.69245972102E+01 -0.31026029569E+02  0.18340253145E+03  0.18613718892E+03  0.00000000000E+00 0. -1.
<mgrwt>
<rscale>  0 0.73325435E+02</rscale>
<asrwt>0</asrwt>
<pdfrwt beam="1">  1        1 0.14728536E-02 0.96882541E+02</pdfrwt>
<pdfrwt beam="2">  1       -1 0.72418212E-01 0.96882541E+02</pdfrwt>
<totfact> 0.16815140E+04</totfact>
</mgrwt>
</event>
<event>
 6    1  0.3075717E-002  0.9325387E+02  0.7546771E-02  0.1383658E+00
          2   -1    0    0  501    0  0.00000000000E+00  0.00000000000E+00  0.59260283787E+03  0.59260283787E+03  0.00000000000E+00 0. -1.
         -2   -1    0    0    0  501 -0.00000000000E+00 -0.00000000000E+00 -0.89652065059E+01  0.89652065059E+01  0.00000000000E+00 0.  1.
         23    2    1    2    0    0  0.11677941952E+02  0.16315473958E+02  0.56935041699E+03  0.57693689513E+03  0.91069833735E+02 0.  0.
         13    1    3    3    0    0 -0.13961716858E+02 -0.15320090564E+02  0.32518584918E+02  0.38562845818E+02  0.00000000000E+00 0.  1.
        -13    1    3    3    0    0  0.25639658810E+02  0.31635564522E+02  0.53683183207E+03  0.53837404931E+03  0.00000000000E+00 0. -1.
         22    1    1    2    0    0 -0.11677941952E+02 -0.16315473958E+02  0.14287214378E+02  0.24631149250E+02  0.00000000000E+00 0.  1.
<mgrwt>
<rscale>  0 0.63511911E+02</rscale>
<asrwt>0</asrwt>
<pdfrwt beam="1">  1        2 0.91169637E-01 0.93253867E+02</pdfrwt>
<pdfrwt beam="2">  1       -2 0.13792630E-02 0.93253867E+02</pdfrwt>
<totfact> 0.60472367E+04</totfact>
</mgrwt>
</event>
<event>
 6    1  0.3075717E-002  0.1226794E+03  0.7546771E-02  0.1319809E+00
          3   -1    0    0  501    0  0.00000000000E+00  0.00000000000E+00  0.68381101604E+02  0.68381101604E+02  0.00000000000E+00 0. -1.
         -3   -1    0    0    0  501 -0.00000000000E+00 -0.00000000000E+00 -0.83791318611E+02  0.83791318611E+02  0.00000000000E+00 0.  1.
         23    2    1    2    0    0  0.11047041894E+02  0.23688725825E+02 -0.17762601552E+01  0.12269229733E+03  0.11986263746E+03 0.  0.
         13    1    3    3    0    0 -0.12953949434E+02  0.37273794931E+02  0.50199759015E+02  0.63852614666E+02  0.00000000000E+00 0. -1.
        -13    1    3    3    0    0  0.24000991328E+02 -0.13585069106E+02 -0.51976019170E+02  0.58839682665E+02  0.00000000000E+00 0.  1.
         22    1    1    2    0    0 -0.11047041894E+02 -0.23688725825E+02 -0.13633956852E+02  0.29480122884E+02  0.00000000000E+00 0. -1.
<mgrwt>
<rscale>  0 0.83348301E+02</rscale>
<asrwt>0</asrwt>
<pdfrwt beam="1">  1        3 0.10520170E-01 0.12267944E+03</pdfrwt>
<pdfrwt beam="2">  1       -3 0.12890972E-01 0.12267944E+03</pdfrwt>
<totfact> 0.72428097E+03</totfact>
</mgrwt>
</event>
<event>
 6    1  0.3075717E-002  0.1178502E+03  0.7546771E-02  0.1267890E+00
          2   -1    0    0  501    0  0.00000000000E+00  0.00000000000E+00  0.18799342912E+04  0.18799342912E+04  0.00000000000E+00 0. -1.
         -2   -1    0    0    0  501 -0.00000000000E+00 -0.00000000000E+00 -0.81443611573E+01  0.81443611573E+01  0.00000000000E+00 0.  1.
         23    2    1    2    0    0  0.10351902950E+02 -0.76845715693E+02  0.16278782296E+04  0.16321385353E+04  0.88748194581E+02 0.  0.
         13    1    3    3    0    0  0.85835366387E+01 -0.21161123263E+02  0.12468199840E+04  0.12470290865E+04  0.00000000000E+00 0. -1.
        -13    1    3    3    0    0  0.17683663111E+01 -0.55684592429E+02  0.38105824564E+03  0.38510944876E+03  0.00000000000E+00 0.  1.
         22    1    1    2    0    0 -0.10351902950E+02  0.76845715693E+02  0.24391170048E+03  0.25594011711E+03  0.00000000000E+00 0.  1.
<mgrwt>
<rscale>  0 0.10613997E+03</rscale>
<asrwt>0</asrwt>
<pdfrwt beam="1">  1        2 0.28922031E+00 0.11785019E+03</pdfrwt>
<pdfrwt beam="2">  1       -2 0.12529801E-02 0.11785019E+03</pdfrwt>
<totfact> 0.12809088E+04</totfact>
</mgrwt>
</event>
<event>
 6    1  0.3075717E-002  0.9129150E+02  0.7546771E-02  0.1426116E+00
         -2   -1    0    0    0  501 -0.00000000000E+00  0.00000000000E+00  0.13475270016E+02  0.13475270016E+02  0.00000000000E+00 0.  1.
          2   -1    0    0  501    0  0.00000000000E+00 -0.00000000000E+00 -0.93873834695E+03  0.93873834695E+03  0.00000000000E+00 0. -1.
         23    2    1    2    0    0 -0.91081262219E+01  0.61114177485E+01 -0.93383886831E+03  0.93829055740E+03  0.90630186670E+02 0.  0.
         13    1    3    3    0    0 -0.21500326433E+02 -0.21453425078E+01 -0.90950765193E+03  0.90976427466E+03  0.00000000000E+00 0. -1.
        -13    1    3    3    0    0  0.12392200211E+02  0.82567602563E+01 -0.24331216388E+02  0.28526282739E+02  0.00000000000E+00 0.  1.
         22    1    1    2    0    0  0.91081262219E+01 -0.61114177485E+01  0.85757913759E+01  0.13923059574E+02  0.00000000000E+00 0.  1.
<mgrwt>
<rscale>  0 0.53747627E+02</rscale>
<asrwt>0</asrwt>
<pdfrwt beam="1">  1        2 0.14442128E+00 0.91291501E+02</pdfrwt>
<pdfrwt beam="2">  1       -2 0.20731186E-02 0.91291501E+02</pdfrwt>
<totfact> 0.19400488E+04</totfact>
</mgrwt>
</event>
<event>
 6    1  0.3075717E-002  0.9296819E+02  0.7546771E-02  0.1425305E+00
          1   -1    0    0  501    0  0.00000000000E+00  0.00000000000E+00  0.26985445263E+03  0.26985445263E+03  0.00000000000E+00 0. -1.
         -1   -1    0    0    0  501 -0.00000000000E+00 -0.00000000000E+00 -0.10303419288E+02  0.10303419288E+02  0.00000000000E+00 0.  1.
         23    2    1    2    0    0 -0.13568796281E+01  0.10427048259E+02  0.21251045814E+03  0.23195641786E+03  0.92371643437E+02 0.  0.
         11    1    3    3    0    0 -0.28550668587E+02  0.51380552104E+01  0.15275510905E+02  0.32785385792E+02  0.00000000000E+00 0.  1.
        -11    1    3    3    0    0  0.27193788959E+02  0.52889930481E+01  0.19723494724E+03  0.19917103207E+03  0.00000000000E+00 0. -1.
         22    1    1    2    0    0  0.13568796281E+01 -0.10427048259E+02  0.47040575200E+02  0.48201454053E+02  0.00000000000E+00 0. -1.
<mgrwt>
<rscale>  0 0.53914147E+02</rscale>
<asrwt>0</asrwt>
<pdfrwt beam="1">  1        1 0.41516064E-01 0.92968193E+02</pdfrwt>
<pdfrwt beam="2">  1       -1 0.15851416E-02 0.92968193E+02</pdfrwt>
<totfact> 0.83335414E+04</totfact>
</mgrwt>
</event>
<event>
 6    1  0.3075717E-002  0.9396639E+02  0.7546771E-02  0.1383276E+00
         -2   -1    0    0    0  501 -0.00000000000E+00  0.00000000000E+00  0.83474760436E+02  0.83474760436E+02  0.00000000000E+00 0.  1.
          2   -1    0    0  501    0  0.00000000000E+00 -0.00000000000E+00 -0.41485311382E+02  0.41485311382E+02  0.00000000000E+00 0. -1.
         23    2    1    2    0    0  0.18342030751E+02  0.72777905046E+01  0.21262747712E+02  0.96342027243E+02  0.91871026153E+02 0.  0.
         13    1    3    3    0    0 -0.35147770773E+02 -0.35787512894E+01 -0.51563890435E+01  0.35703803706E+02  0.00000000000E+00 0. -1.
        -13    1    3    3    0    0  0.53489801525E+02  0.10856541794E+02  0.26419136755E+02  0.60638223537E+02  0.00000000000E+00 0.  1.
         22    1    1    2    0    0 -0.18342030751E+02 -0.72777905046E+01  0.20726701342E+02  0.28618044574E+02  0.00000000000E+00 0. -1.
<mgrwt>
<rscale>  0 0.63610436E+02</rscale>
<asrwt>0</asrwt>
<pdfrwt beam="1">  1        2 0.63823556E-02 0.93966386E+02</pdfrwt>
<pdfrwt beam="2">  1       -2 0.12842271E-01 0.93966386E+02</pdfrwt>
<totfact> 0.43694253E+04</totfact>
</mgrwt>
</event>
<event>
 6    1  0.3075717E-002  0.9141832E+02  0.7546771E-02  0.1408810E+00
         -2   -1    0    0    0  501 -0.00000000000E+00  0.00000000000E+00  0.27471643519E+01  0.27471643519E+01  0.00000000000E+00 0.  1.
          2   -1    0    0  501    0  0.00000000000E+00 -0.00000000000E+00 -0.21932536410E+04  0.21932536410E+04  0.00000000000E+00 0. -1.
         23    2    1    2    0    0  0.13536057472E+02  0.45120209930E+01 -0.21637270818E+04  0.21656574507E+04  0.90297984078E+02 0.  0.
         11    1    3    3    0    0  0.57058864086E+01 -0.37327424757E+02 -0.15481540453E+04  0.15486144910E+04  0.00000000000E+00 0. -1.
        -11    1    3    3    0    0  0.78301710639E+01  0.41839445750E+02 -0.61557303647E+03  0.61704295963E+03  0.00000000000E+00 0.  1.
         22    1    1    2    0    0 -0.13536057472E+02 -0.45120209930E+01 -0.26779394880E+02  0.30343354717E+02  0.00000000000E+00 0. -1.
<mgrwt>
<rscale>  0 0.57460270E+02</rscale>
<asrwt>0</asrwt>
<pdfrwt beam="1">  1        2 0.33742336E+00 0.91418319E+02</pdfrwt>
<pdfrwt beam="2">  1       -2 0.42264101E-03 0.91418319E+02</pdfrwt>
<totfact> 0.40690367E+04</totfact>
</mgrwt>
</event>
<event>
 6    1  0.3075717E-002  0.9016261E+02  0.7546771E-02  0.1433343E+00
          2   -1    0    0  501    0  0.00000000000E+00  0.00000000000E+00  0.22639332384E+03  0.22639332384E+03  0.00000000000E+00 0. -1.
         -2   -1    0    0    0  501 -0.00000000000E+00 -0.00000000000E+00 -0.14628124087E+02  0.14628124087E+02  0.00000000000E+00 0.  1.
         23    2    1    2    0    0 -0.10145097131E+02 -0.10907260308E+01  0.21245438961E+03  0.23079463701E+03  0.89583392028E+02 0.  0.
         13    1    3    3    0    0  0.19373156393E+02 -0.93963667003E+01  0.19360801162E+03  0.19480162489E+03  0.00000000000E+00 0. -1.
        -13    1    3    3    0    0 -0.29518253524E+02  0.83056406695E+01  0.18846377992E+02  0.35993012120E+02  0.00000000000E+00 0.  1.
         22    1    1    2    0    0  0.10145097131E+02  0.10907260308E+01 -0.68918985171E+00  0.10226810927E+02  0.00000000000E+00 0.  1.
<mgrwt>
<rscale>  0 0.52294717E+02</rscale>
<asrwt>0</asrwt>
<pdfrwt beam="1">  1        2 0.34829740E-01 0.90162613E+02</pdfrwt>
<pdfrwt beam="2">  1       -2 0.22504808E-02 0.90162613E+02</pdfrwt>
<totfact> 0.82885933E+04</totfact>
</mgrwt>
</event>
<event>
 6    1  0.3075717E-002  0.9233142E+02  0.7546771E-02  0.1400671E+00
          1   -1    0    0  501    0  0.00000000000E+00  0.00000000000E+00  0.62215182943E+03  0.62215182943E+03  0.00000000000E+00 0. -1.
         -1   -1    0    0    0  501 -0.00000000000E+00 -0.00000000000E+00 -0.13271273043E+02  0.13271273043E+02  0.00000000000E+00 0.  1.
         23    2    1    2    0    0 -0.10570175725E+01 -0.15704645006E+02  0.61237759735E+03  0.61929913099E+03  0.90979881011E+02 0.  0.
         11    1    3    3    0    0 -0.46652093581E+01  0.72356689718E+00 -0.16801640415E+01  0.50110556389E+01  0.00000000000E+00 0.  1.
        -11    1    3    3    0    0  0.36081917857E+01 -0.16428211903E+02  0.61405776140E+03  0.61428807536E+03  0.00000000000E+00 0. -1.
         22    1    1    2    0    0  0.10570175725E+01  0.15704645006E+02 -0.34970409614E+01  0.16123971483E+02  0.00000000000E+00 0.  1.
<mgrwt>
<rscale>  0 0.59328662E+02</rscale>
<asrwt>0</asrwt>
<pdfrwt beam="1">  1        1 0.95715643E-01 0.92331424E+02</pdfrwt>
<pdfrwt beam="2">  1       -1 0.20417348E-02 0.92331424E+02</pdfrwt>
<totfact> 0.20254604E+04</totfact>
</mgrwt>
</event>
<event>
 6    1  0.3075717E-002  0.9124830E+02  0.7546771E-02  0.1396912E+00
          2   -1    0    0  501    0  0.00000000000E+00  0.00000000000E+00  0.75485909776E+02  0.75485909776E+02  0.00000000000E+00 0. -1.
         -2   -1    0    0    0  501 -0.00000000000E+00 -0.00000000000E+00 -0.39837889790E+02  0.39837889790E+02  0.00000000000E+00 0.  1.
         23    2    1    2    0    0 -0.67443581004E+01  0.15941287716E+02  0.23651497677E+02  0.94263705366E+02  0.89591527427E+02 0.  0.
         13    1    3    3    0    0 -0.45705610653E+02 -0.50022823490E+01  0.49680040470E+01  0.46246153765E+02  0.00000000000E+00 0. -1.
        -13    1    3    3    0    0  0.38961252552E+02  0.20943570065E+02  0.18683493630E+02  0.48017551601E+02  0.00000000000E+00 0.  1.
         22    1    1    2    0    0  0.67443581004E+01 -0.15941287716E+02  0.11996522309E+02  0.21060094201E+02  0.00000000000E+00 0.  1.
<mgrwt>
<rscale>  0 0.60219663E+02</rscale>
<asrwt>0</asrwt>
<pdfrwt beam="1">  1        2 0.11613217E-01 0.91248303E+02</pdfrwt>
<pdfrwt beam="2">  1       -2 0.61289061E-02 0.91248303E+02</pdfrwt>
<totfact> 0.65217834E+04</totfact>
</mgrwt>
</event>
<event>
 6    1  0.3075717E-002  0.9559384E+02  0.7546771E-02  0.1352562E+00
          1   -1    0    0  501    0  0.00000000000E+00  0.00000000000E+00  0.78104942527E+02  0.78104942527E+02  0.00000000000E+00 0. -1.
         -1   -1    0    0    0  501 -0.00000000000E+00 -0.00000000000E+00 -0.54349845220E+02  0.54349845220E+02  0.00000000000E+00 0.  1.
         23    2    1    2    0    0  0.29774014140E+02  0.93779730034E+01  0.30838926416E+02  0.10044511842E+03  0.90353440090E+02 0.  0.
         11    1    3    3    0    0 -0.61191193763E+01 -0.16812598220E+02 -0.23955538923E+02  0.29899413472E+02  0.00000000000E+00 0.  1.
        -11    1    3    3    0    0  0.35893133516E+02  0.26190571224E+02  0.54794465339E+02  0.70545704947E+02  0.00000000000E+00 0. -1.
         22    1    1    2    0    0 -0.29774014140E+02 -0.93779730034E+01 -0.70838291088E+01  0.32009669328E+02  0.00000000000E+00 0.  1.
<mgrwt>
<rscale>  0 0.72263123E+02</rscale>
<asrwt>0</asrwt>
<pdfrwt beam="1">  1        1 0.12016145E-01 0.95593841E+02</pdfrwt>
<pdfrwt beam="2">  1       -1 0.83615146E-02 0.95593841E+02</pdfrwt>
<totfact> 0.35263729E+04</totfact>
</mgrwt>
</event>
<event>
 6    1  0.3075717E-002  0.1002002E+03  0.7546771E-02  0.1350012E+00
          2   -1    0    0  501    0  0.00000000000E+00  0.00000000000E+00  0.16812700653E+03  0.16812700653E+03  0.00000000000E+00 0. -1.
         -2   -1    0    0    0  501 -0.00000000000E+00 -0.00000000000E+00 -0.26141462533E+02  0.26141462533E+02  0.00000000000E+00 0.  1.
         23    2    1    2    0    0  0.27665052058E+02 -0.60025142599E+01  0.12839595340E+03  0.16286684083E+03  0.96118165351E+02 0.  0.
         13    1    3    3    0    0 -0.45995527659E+01 -0.24945592001E+02 -0.36457110496E+01  0.25626737111E+02  0.00000000000E+00 0.  1.
        -13    1    3    3    0    0  0.32264604824E+02  0.18943077741E+02  0.13204166445E+03  0.13724010372E+03  0.00000000000E+00 0. -1.
         22    1    1    2    0    0 -0.27665052058E+02  0.60025142599E+01  0.13589590594E+02  0.31401628227E+02  0.00000000000E+00 0.  1.
<mgrwt>
<rscale>  0 0.73051935E+02</rscale>
<asrwt>0</asrwt>
<pdfrwt beam="1">  1        2 0.25865693E-01 0.10020023E+03</pdfrwt>
<pdfrwt beam="2">  1       -2 0.40217636E-02 0.10020023E+03</pdfrwt>
<totfact> 0.49662403E+04</totfact>
</mgrwt>
</event>
<event>
 6    1  0.3075717E-002  0.9213565E+02  0.7546771E-02  0.1403339E+00
         -2   -1    0    0    0  501 -0.00000000000E+00  0.00000000000E+00  0.13060781672E+03  0.13060781672E+03  0.00000000000E+00 0. -1.
          2   -1    0    0  501    0  0.00000000000E+00 -0.00000000000E+00 -0.22921724140E+02  0.22921724140E+02  0.00000000000E+00 0.  1.
         23    2    1    2    0    0 -0.14480679033E+02  0.45781039303E+01  0.80313993635E+02  0.12222649146E+03  0.90875346168E+02 0.  0.
         13    1    3    3    0    0 -0.22245737503E+02  0.45008539582E+02  0.51860147480E+02  0.72181135825E+02  0.00000000000E+00 0.  1.
        -13    1    3    3    0    0  0.77650584694E+01 -0.40430435652E+02  0.28453846155E+02  0.50045355639E+02  0.00000000000E+00 0. -1.
         22    1    1    2    0    0  0.14480679033E+02 -0.45781039303E+01  0.27372098948E+02  0.31303049399E+02  0.00000000000E+00 0. -1.
<mgrwt>
<rscale>  0 0.58706980E+02</rscale>
<asrwt>0</asrwt>
<pdfrwt beam="1">  1        2 0.35264192E-02 0.92135648E+02</pdfrwt>
<pdfrwt beam="2">  1       -2 0.20093510E-01 0.92135648E+02</pdfrwt>
<totfact> 0.45215845E+04</totfact>
</mgrwt>
</event>
<event>
 6    1  0.3075717E-002  0.9337187E+02  0.7546771E-02  0.1374314E+00
          1   -1    0    0  501    0  0.00000000000E+00  0.00000000000E+00  0.14017744194E+04  0.14017744194E+04  0.00000000000E+00 0. -1.
         -1   -1    0    0    0  501 -0.00000000000E+00 -0.00000000000E+00 -0.20640738420E+02  0.20640738420E+02  0.00000000000E+00 0.  1.
         23    2    1    2    0    0  0.17434254746E+02 -0.15433596781E+02  0.13931072341E+04  0.13962328141E+04  0.90422101156E+02 0.  0.
         11    1    3    3    0    0 -0.98330079242E+01 -0.46954651508E+02  0.54698576692E+03  0.54908547291E+03  0.00000000000E+00 0.  1.
        -11    1    3    3    0    0  0.27267262671E+02  0.31521054728E+02  0.84612146718E+03  0.84714734121E+03  0.00000000000E+00 0. -1.
         22    1    1    2    0    0 -0.17434254746E+02  0.15433596781E+02 -0.11973553108E+02  0.26182343711E+02  0.00000000000E+00 0.  1.
<mgrwt>
<rscale>  0 0.65982213E+02</rscale>
<asrwt>0</asrwt>
<pdfrwt beam="1">  1        1 0.21565753E+00 0.93371867E+02</pdfrwt>
<pdfrwt beam="2">  1       -1 0.31754993E-02 0.93371867E+02</pdfrwt>
<totfact> 0.28403176E+03</totfact>
</mgrwt>
</event>
<event>
 6    1  0.3075717E-002  0.1268605E+03  0.7546771E-02  0.1305793E+00
         -4   -1    0    0    0  501 -0.00000000000E+00  0.00000000000E+00  0.15825811899E+02  0.15825811899E+02  0.00000000000E+00 0.  1.
          4   -1    0    0  501    0  0.00000000000E+00 -0.00000000000E+00 -0.41367911491E+03  0.41367911491E+03  0.00000000000E+00 0. -1.
         23    2    1    2    0    0  0.27788247876E+02 -0.12453434029E+02 -0.35458457938E+03  0.37659502997E+03  0.12315160544E+03 0.  0.
         11    1    3    3    0    0  0.72881486193E+02  0.12137378321E+02 -0.23782245666E+03  0.24903523420E+03  0.00000000000E+00 0. -1.
        -11    1    3    3    0    0 -0.45093238317E+02 -0.24590812350E+02 -0.11676212272E+03  0.12755979577E+03  0.00000000000E+00 0.  1.
         22    1    1    2    0    0 -0.27788247876E+02  0.12453434029E+02 -0.43268723633E+02  0.52909896844E+02  0.00000000000E+00 0.  1.
<mgrwt>
<rscale>  0 0.88796517E+02</rscale>
<asrwt>0</asrwt>
<pdfrwt beam="1">  1        4 0.63642954E-01 0.12686052E+03</pdfrwt>
<pdfrwt beam="2">  1       -4 0.24347398E-02 0.12686052E+03</pdfrwt>
<totfact> 0.28334061E+03</totfact>
</mgrwt>
</event>
<event>
 6    1  0.3075717E-002  0.9411243E+02  0.7546771E-02  0.1384933E+00
         -2   -1    0    0    0  501 -0.00000000000E+00  0.00000000000E+00  0.73069393286E+01  0.73069393286E+01  0.00000000000E+00 0. -1.
          2   -1    0    0  501    0  0.00000000000E+00 -0.00000000000E+00 -0.50271039663E+03  0.50271039663E+03  0.00000000000E+00 0.  1.
         23    2    1    2    0    0  0.15642955438E+02 -0.10995494168E+02 -0.46235546841E+03  0.47183654869E+03  0.92149587966E+02 0.  0.
         13    1    3    3    0    0  0.42399919952E+02 -0.17623312559E+02 -0.12180339707E+03  0.13017066449E+03  0.00000000000E+00 0. -1.
        -13    1    3    3    0    0 -0.26756964515E+02  0.66278183914E+01 -0.34055207134E+03  0.34166588420E+03  0.00000000000E+00 0.  1.
         22    1    1    2    0    0 -0.15642955438E+02  0.10995494168E+02 -0.33047988889E+02  0.38180787268E+02  0.00000000000E+00 0. -1.
<mgrwt>
<rscale>  0 0.63184631E+02</rscale>
<asrwt>0</asrwt>
<pdfrwt beam="1">  1        2 0.77340098E-01 0.94112430E+02</pdfrwt>
<pdfrwt beam="2">  1       -2 0.11241440E-02 0.94112430E+02</pdfrwt>
<totfact> 0.97034856E+04</totfact>
</mgrwt>
</event>
<event>
 6    1  0.3075717E-002  0.9192285E+02  0.7546771E-02  0.1418934E+00
          2   -1    0    0  501    0  0.00000000000E+00  0.00000000000E+00  0.72147471229E+02  0.72147471229E+02  0.00000000000E+00 0. -1.
         -2   -1    0    0    0  501 -0.00000000000E+00 -0.00000000000E+00 -0.37481662376E+02  0.37481662376E+02  0.00000000000E+00 0.  1.
         23    2    1    2    0    0  0.69319072525E+01 -0.97879876606E+01  0.29207067055E+02  0.96451352965E+02  0.91137010496E+02 0.  0.
         11    1    3    3    0    0  0.46287648425E+02 -0.55073078008E+01  0.32348734181E+02  0.56739029240E+02  0.00000000000E+00 0. -1.
        -11    1    3    3    0    0 -0.39355741173E+02 -0.42806798597E+01 -0.31416671259E+01  0.39712323725E+02  0.00000000000E+00 0.  1.
         22    1    1    2    0    0 -0.69319072525E+01  0.97879876606E+01  0.54587417973E+01  0.13177780641E+02  0.00000000000E+00 0.  1.
<mgrwt>
<rscale>  0 0.55246991E+02</rscale>
<asrwt>0</asrwt>
<pdfrwt beam="1">  1        2 0.11099611E-01 0.91922852E+02</pdfrwt>
<pdfrwt beam="2">  1       -2 0.57664096E-02 0.91922852E+02</pdfrwt>
<totfact> 0.75512977E+04</totfact>
</mgrwt>
</event>
<event>
 6    1  0.3075717E-002  0.9971979E+02  0.7546771E-02  0.1332793E+00
         -4   -1    0    0    0  501 -0.00000000000E+00  0.00000000000E+00  0.30232990960E+02  0.30232990960E+02  0.00000000000E+00 0.  1.
          4   -1    0    0  501    0  0.00000000000E+00 -0.00000000000E+00 -0.18524681844E+03  0.18524681844E+03  0.00000000000E+00 0. -1.
         23    2    1    2    0    0  0.17741273990E+02  0.34369626222E+02 -0.14419360061E+03  0.17531637679E+03  0.91913075805E+02 0.  0.
         13    1    3    3    0    0 -0.22961707454E+02  0.59064598628E+01 -0.11559939453E+03  0.11800570449E+03  0.00000000000E+00 0. -1.
        -13    1    3    3    0    0  0.40702981444E+02  0.28463166359E+02 -0.28594206082E+02  0.57310672297E+02  0.00000000000E+00 0.  1.
         22    1    1    2    0    0 -0.17741273990E+02 -0.34369626222E+02 -0.10820226867E+02  0.40163432608E+02  0.00000000000E+00 0.  1.
<mgrwt>
<rscale>  0 0.78696126E+02</rscale>
<asrwt>0</asrwt>
<pdfrwt beam="1">  1        4 0.28499510E-01 0.99719795E+02</pdfrwt>
<pdfrwt beam="2">  1       -4 0.46512294E-02 0.99719795E+02</pdfrwt>
<totfact> 0.47458613E+03</totfact>
</mgrwt>
</event>
<event>
 6    1  0.3075717E-002  0.8902672E+02  0.7546771E-02  0.1433462E+00
         -2   -1    0    0    0  501 -0.00000000000E+00  0.00000000000E+00  0.37298855765E+01  0.37298855765E+01  0.00000000000E+00 0.  1.
          2   -1    0    0  501    0  0.00000000000E+00 -0.00000000000E+00 -0.19904345375E+04  0.19904345375E+04  0.00000000000E+00 0. -1.
         23    2    1    2    0    0 -0.79361432540E+01  0.69969600985E+01 -0.19791801865E+04  0.19811814573E+04  0.88395792875E+02 0.  0.
         13    1    3    3    0    0 -0.70197359107E+01 -0.25970188213E+02 -0.21284285882E+03  0.21453626715E+03  0.00000000000E+00 0.  1.
        -13    1    3    3    0    0 -0.91640734327E+00  0.32967148312E+02 -0.17663373277E+04  0.17666451902E+04  0.00000000000E+00 0. -1.
         22    1    1    2    0    0  0.79361432540E+01 -0.69969600985E+01 -0.75244653585E+01  0.12982965736E+02  0.00000000000E+00 0.  1.
<mgrwt>
<rscale>  0 0.52271304E+02</rscale>
<asrwt>0</asrwt>
<pdfrwt beam="1">  1        2 0.30622174E+00 0.89026715E+02</pdfrwt>
<pdfrwt beam="2">  1       -2 0.57382660E-03 0.89026715E+02</pdfrwt>
<totfact> 0.33498609E+04</totfact>
</mgrwt>
</event>
<event>
 6    1  0.3075717E-002  0.1002275E+03  0.7546771E-02  0.1347358E+00
          3   -1    0    0  501    0  0.00000000000E+00  0.00000000000E+00  0.39223219835E+02  0.39223219835E+02  0.00000000000E+00 0. -1.
         -3   -1    0    0    0  501 -0.00000000000E+00 -0.00000000000E+00 -0.12414920585E+03  0.12414920585E+03  0.00000000000E+00 0.  1.
         23    2    1    2    0    0  0.38389056593E+01  0.29348789221E+02 -0.36597296708E+02  0.10670011467E+03  0.95757316793E+02 0.  0.
         11    1    3    3    0    0  0.29751713745E+02  0.55025970661E+02 -0.15076888768E+02  0.64345431018E+02  0.00000000000E+00 0.  1.
        -11    1    3    3    0    0 -0.25912808086E+02 -0.25677181439E+02 -0.21520407941E+02  0.42354683655E+02  0.00000000000E+00 0. -1.
         22    1    1    2    0    0 -0.38389056593E+01 -0.29348789221E+02 -0.48328689304E+02  0.56672311011E+02  0.00000000000E+00 0.  1.
<mgrwt>
<rscale>  0 0.73885410E+02</rscale>
<asrwt>0</asrwt>
<pdfrwt beam="1">  1        3 0.60343417E-02 0.10022750E+03</pdfrwt>
<pdfrwt beam="2">  1       -3 0.19099877E-01 0.10022750E+03</pdfrwt>
<totfact> 0.87006402E+03</totfact>
</mgrwt>
</event>
<event>
 6    1  0.3075717E-002  0.9240110E+02  0.7546771E-02  0.1400525E+00
         -4   -1    0    0    0  501 -0.00000000000E+00  0.00000000000E+00  0.98660776989E+02  0.98660776989E+02  0.00000000000E+00 0.  1.
          4   -1    0    0  501    0  0.00000000000E+00 -0.00000000000E+00 -0.68571328597E+02  0.68571328597E+02  0.00000000000E+00 0. -1.
         23    2    1    2    0    0 -0.97777298249E+01  0.12335673605E+02 -0.36095525289E+02  0.99201056903E+02  0.91050479960E+02 0.  0.
         13    1    3    3    0    0 -0.50110829291E+02  0.60941307499E+01 -0.27529030282E+02  0.57498531722E+02  0.00000000000E+00 0.  1.
        -13    1    3    3    0    0  0.40333099466E+02  0.62415428546E+01 -0.85664950062E+01  0.41702525181E+02  0.00000000000E+00 0. -1.
         22    1    1    2    0    0  0.97777298249E+01 -0.12335673605E+02  0.66184973681E+02  0.68031048683E+02  0.00000000000E+00 0.  1.
<mgrwt>
<rscale>  0 0.59362825E+02</rscale>
<asrwt>0</asrwt>
<pdfrwt beam="1">  1        4 0.10549435E-01 0.92401097E+02</pdfrwt>
<pdfrwt beam="2">  1       -4 0.15178581E-01 0.92401097E+02</pdfrwt>
<totfact> 0.37880872E+03</totfact>
</mgrwt>
</event>
<event>
 6    1  0.3075717E-002  0.9677357E+02  0.7546771E-02  0.1347717E+00
         -2   -1    0    0    0  501 -0.00000000000E+00  0.00000000000E+00  0.45024284769E+02  0.45024284769E+02  0.00000000000E+00 0.  1.
          2   -1    0    0  501    0  0.00000000000E+00 -0.00000000000E+00 -0.93101255395E+02  0.93101255395E+02  0.00000000000E+00 0. -1.
         23    2    1    2    0    0 -0.31043645561E+02  0.10213848138E+02 -0.37312448977E+02  0.10371761157E+03  0.91088382786E+02 0.  0.
         13    1    3    3    0    0 -0.57819963763E+02  0.26945121340E+02 -0.33092352062E+02  0.71863005355E+02  0.00000000000E+00 0.  1.
        -13    1    3    3    0    0  0.26776318203E+02 -0.16731273202E+02 -0.42200969151E+01  0.31854606220E+02  0.00000000000E+00 0. -1.
         22    1    1    2    0    0  0.31043645561E+02 -0.10213848138E+02 -0.10764521649E+02  0.34407928589E+02  0.00000000000E+00 0. -1.
<mgrwt>
<rscale>  0 0.73771827E+02</rscale>
<asrwt>0</asrwt>
<pdfrwt beam="1">  1        2 0.14323270E-01 0.96773571E+02</pdfrwt>
<pdfrwt beam="2">  1       -2 0.69268130E-02 0.96773571E+02</pdfrwt>
<totfact> 0.42684431E+04</totfact>
</mgrwt>
</event>
<event>
 6    1  0.3075717E-002  0.9042866E+02  0.7546771E-02  0.1418603E+00
          2   -1    0    0  501    0  0.00000000000E+00  0.00000000000E+00  0.85110938920E+03  0.85110938920E+03  0.00000000000E+00 0. -1.
         -2   -1    0    0    0  501 -0.00000000000E+00 -0.00000000000E+00 -0.32763774729E+01  0.32763774729E+01  0.00000000000E+00 0.  1.
         23    2    1    2    0    0  0.49680134448E+01 -0.11647654635E+02  0.79139300091E+03  0.79654266996E+03  0.89537668972E+02 0.  0.
         13    1    3    3    0    0 -0.39733276574E+02 -0.37764045045E+01  0.50505084750E+03  0.50662545639E+03  0.00000000000E+00 0. -1.
        -13    1    3    3    0    0  0.44701290019E+02 -0.78712501300E+01  0.28634215341E+03  0.28991721357E+03  0.00000000000E+00 0.  1.
         22    1    1    2    0    0 -0.49680134448E+01  0.11647654635E+02  0.56440010817E+02  0.57843096711E+02  0.00000000000E+00 0.  1.
<mgrwt>
<rscale>  0 0.55317542E+02</rscale>
<asrwt>0</asrwt>
<pdfrwt beam="1">  1        2 0.13093973E+00 0.90428663E+02</pdfrwt>
<pdfrwt beam="2">  1       -2 0.50405875E-03 0.90428663E+02</pdfrwt>
<totfact> 0.16296905E+05</totfact>
</mgrwt>
</event>
<event>
 6    1  0.7210884E-002  0.1253246E+03  0.7546771E-02  0.1253367E+00
          2   -1    0    0  501    0  0.00000000000E+00  0.00000000000E+00  0.28291079221E+03  0.28291079221E+03  0.00000000000E+00 0.  1.
         -2   -1    0    0    0  501 -0.00000000000E+00 -0.00000000000E+00 -0.18409461335E+03  0.18409461335E+03  0.00000000000E+00 0. -1.
         23    2    1    2    0    0  0.85141214473E+02 -0.10225720234E+02 -0.15486521672E+03  0.19922220553E+03  0.91392888527E+02 0.  0.
         11    1    3    3    0    0 -0.11344030145E+02 -0.25211515797E+02 -0.32206688973E+02  0.42445003985E+02  0.00000000000E+00 0.  1.
        -11    1    3    3    0    0  0.96485244618E+02  0.14985795562E+02 -0.12265852774E+03  0.15677720155E+03  0.00000000000E+00 0. -1.
         22    1    1    2    0    0 -0.85141214473E+02  0.10225720234E+02  0.25368139558E+03  0.26778320003E+03  0.00000000000E+00 0.  1.
<mgrwt>
<rscale>  0 0.11398289E+03</rscale>
<asrwt>0</asrwt>
<pdfrwt beam="1">  1        2 0.43524737E-01 0.12532459E+03</pdfrwt>
<pdfrwt beam="2">  1       -2 0.28322248E-01 0.12532459E+03</pdfrwt>
<totfact> 0.13004373E+03</totfact>
</mgrwt>
</event>
<event>
 6    1  0.3075717E-002  0.9369896E+02  0.7546771E-02  0.1380979E+00
          1   -1    0    0  501    0  0.00000000000E+00  0.00000000000E+00  0.28916437639E+02  0.28916437639E+02  0.00000000000E+00 0. -1.
         -1   -1    0    0    0  501 -0.00000000000E+00 -0.00000000000E+00 -0.11307378521E+03  0.11307378521E+03  0.00000000000E+00 0.  1.
         23    2    1    2    0    0  0.20565623138E+02  0.19718552375E+01 -0.68522764006E+02  0.11608128093E+03  0.91392896479E+02 0.  0.
         13    1    3    3    0    0  0.19384020061E+02  0.62030402325E-02 -0.91225918492E+02  0.93262578116E+02  0.00000000000E+00 0.  1.
        -13    1    3    3    0    0  0.11816030769E+01  0.19656521973E+01  0.22703154486E+02  0.22818702812E+02  0.00000000000E+00 0. -1.
         22    1    1    2    0    0 -0.20565623138E+02 -0.19718552375E+01 -0.15634583563E+02  0.25908941918E+02  0.00000000000E+00 0.  1.
<mgrwt>
<rscale>  0 0.64207140E+02</rscale>
<asrwt>0</asrwt>
<pdfrwt beam="1">  1        1 0.44486826E-02 0.93698957E+02</pdfrwt>
<pdfrwt beam="2">  1       -1 0.17395967E-01 0.93698957E+02</pdfrwt>
<totfact> 0.42999547E+04</totfact>
</mgrwt>
</event>
<event>
 6    1  0.3075717E-002  0.9288205E+02  0.7546771E-02  0.1401044E+00
         -3   -1    0    0    0  501 -0.00000000000E+00  0.00000000000E+00  0.84328806416E+01  0.84328806416E+01  0.00000000000E+00 0.  1.
          3   -1    0    0  501    0  0.00000000000E+00 -0.00000000000E+00 -0.44234835618E+03  0.44234835618E+03  0.00000000000E+00 0. -1.
         23    2    1    2    0    0  0.74678661863E+01 -0.13434764153E+02 -0.41966567400E+03  0.42982130464E+03  0.91601386861E+02 0.  0.
         11    1    3    3    0    0 -0.40012167949E+01 -0.40563019107E+02 -0.36878604634E+03  0.37103169168E+03  0.00000000000E+00 0. -1.
        -11    1    3    3    0    0  0.11469082981E+02  0.27128254954E+02 -0.50879627661E+02  0.58789612961E+02  0.00000000000E+00 0.  1.
         22    1    1    2    0    0 -0.74678661863E+01  0.13434764153E+02 -0.14249801540E+02  0.20959932184E+02  0.00000000000E+00 0.  1.
<mgrwt>
<rscale>  0 0.59241094E+02</rscale>
<asrwt>0</asrwt>
<pdfrwt beam="1">  1        3 0.68053577E-01 0.92882054E+02</pdfrwt>
<pdfrwt beam="2">  1       -3 0.12973666E-02 0.92882054E+02</pdfrwt>
<totfact> 0.81449585E+03</totfact>
</mgrwt>
</event>
<event>
 6    1  0.3075717E-002  0.9106321E+02  0.7546771E-02  0.1409193E+00
          1   -1    0    0  501    0  0.00000000000E+00  0.00000000000E+00  0.34421855194E+03  0.34421855194E+03  0.00000000000E+00 0. -1.
         -1   -1    0    0    0  501 -0.00000000000E+00 -0.00000000000E+00 -0.41537141040E+02  0.41537141040E+02  0.00000000000E+00 0.  1.
         23    2    1    2    0    0 -0.10226955851E+02  0.10065929496E+02  0.33671981170E+03  0.34881619797E+03  0.89925495877E+02 0.  0.
         11    1    3    3    0    0  0.22891349757E+02  0.23805211864E+02  0.50377801642E+02  0.60238068560E+02  0.00000000000E+00 0. -1.
        -11    1    3    3    0    0 -0.33118305608E+02 -0.13739282368E+02  0.28634201006E+03  0.28857812941E+03  0.00000000000E+00 0.  1.
         22    1    1    2    0    0  0.10226955851E+02 -0.10065929496E+02 -0.34038400802E+02  0.36939495013E+02  0.00000000000E+00 0.  1.
<mgrwt>
<rscale>  0 0.57374358E+02</rscale>
<asrwt>0</asrwt>
<pdfrwt beam="1">  1        1 0.52956698E-01 0.91063211E+02</pdfrwt>
<pdfrwt beam="2">  1       -1 0.63903296E-02 0.91063211E+02</pdfrwt>
<totfact> 0.82326096E+03</totfact>
</mgrwt>
</event>
<event>
 6    1  0.3075717E-002  0.9288163E+02  0.7546771E-02  0.1413244E+00
         -1   -1    0    0    0  501 -0.00000000000E+00  0.00000000000E+00  0.43421185941E+01  0.43421185941E+01  0.00000000000E+00 0.  1.
          1   -1    0    0  501    0  0.00000000000E+00 -0.00000000000E+00 -0.10382430340E+04  0.10382430340E+04  0.00000000000E+00 0. -1.
         23    2    1    2    0    0  0.28988494165E+01  0.12360880182E+02 -0.10180413634E+04  0.10222696394E+04  0.92009800234E+02 0.  0.
         11    1    3    3    0    0 -0.14627668138E+02 -0.11656070899E+02 -0.44455699517E+02  0.48230093132E+02  0.00000000000E+00 0.  1.
        -11    1    3    3    0    0  0.17526517554E+02  0.24016951081E+02 -0.97358566393E+03  0.97403954631E+03  0.00000000000E+00 0. -1.
         22    1    1    2    0    0 -0.28988494165E+01 -0.12360880182E+02 -0.15859551994E+02  0.20315513192E+02  0.00000000000E+00 0.  1.
<mgrwt>
<rscale>  0 0.56476299E+02</rscale>
<asrwt>0</asrwt>
<pdfrwt beam="1">  1        1 0.15972969E+00 0.92881634E+02</pdfrwt>
<pdfrwt beam="2">  1       -1 0.66801827E-03 0.92881634E+02</pdfrwt>
<totfact> 0.45694590E+04</totfact>
</mgrwt>
</event>
<event>
 6    1  0.3075717E-002  0.9455842E+02  0.7546771E-02  0.1421442E+00
          2   -1    0    0  501    0  0.00000000000E+00  0.00000000000E+00  0.99766919810E+03  0.99766919810E+03  0.00000000000E+00 0. -1.
         -2   -1    0    0    0  501 -0.00000000000E+00 -0.00000000000E+00 -0.29964680913E+01  0.29964680913E+01  0.00000000000E+00 0.  1.
         23    2    1    2    0    0 -0.48941363140E+00 -0.10590715982E+02  0.95244529332E+03  0.95712764602E+03  0.93962179768E+02 0.  0.
         11    1    3    3    0    0  0.40726458179E+02 -0.25032027389E+02  0.61741369129E+03  0.61926158688E+03  0.00000000000E+00 0. -1.
        -11    1    3    3    0    0 -0.41215871810E+02  0.14441311408E+02  0.33503160203E+03  0.33786605915E+03  0.00000000000E+00 0.  1.
         22    1    1    2    0    0  0.48941363140E+00  0.10590715982E+02  0.42227436685E+02  0.43538020163E+02  0.00000000000E+00 0.  1.
<mgrwt>
<rscale>  0 0.54717000E+02</rscale>
<asrwt>0</asrwt>
<pdfrwt beam="1">  1        2 0.15348730E+00 0.94558416E+02</pdfrwt>
<pdfrwt beam="2">  1       -2 0.46099588E-03 0.94558416E+02</pdfrwt>
<totfact> 0.15121503E+05</totfact>
</mgrwt>
</event>
<event>
 6    1  0.3075717E-002  0.9307847E+02  0.7546771E-02  0.1395995E+00
          2   -1    0    0  501    0  0.00000000000E+00  0.00000000000E+00  0.35240425875E+04  0.35240425875E+04  0.00000000000E+00 0. -1.
         -2   -1    0    0    0  501 -0.00000000000E+00 -0.00000000000E+00 -0.21347481965E+01  0.21347481965E+01  0.00000000000E+00 0.  1.
         23    2    1    2    0    0  0.13152946149E+02  0.10041950173E+02  0.34781463539E+04  0.34793915648E+04  0.91595639193E+02 0.  0.
         13    1    3    3    0    0 -0.44997297392E+01 -0.11776169556E+02  0.69777032650E+02  0.70906699420E+02  0.00000000000E+00 0.  1.
        -13    1    3    3    0    0  0.17652675888E+02  0.21818119729E+02  0.34083693213E+04  0.34084848654E+04  0.00000000000E+00 0. -1.
         22    1    1    2    0    0 -0.13152946149E+02 -0.10041950173E+02  0.43761485343E+02  0.46785770861E+02  0.00000000000E+00 0.  1.
<mgrwt>
<rscale>  0 0.60439963E+02</rscale>
<asrwt>0</asrwt>
<pdfrwt beam="1">  1        2 0.54215574E+00 0.93078472E+02</pdfrwt>
<pdfrwt beam="2">  1       -2 0.32842562E-03 0.93078472E+02</pdfrwt>
<totfact> 0.10360663E+04</totfact>
</mgrwt>
</event>
<event>
 6    1  0.3075717E-002  0.9389415E+02  0.7546771E-02  0.1384079E+00
         -1   -1    0    0    0  501 -0.00000000000E+00  0.00000000000E+00  0.40503274270E+01  0.40503274270E+01  0.00000000000E+00 0.  1.
          1   -1    0    0  501    0  0.00000000000E+00 -0.00000000000E+00 -0.16724423920E+04  0.16724423920E+04  0.00000000000E+00 0. -1.
         23    2    1    2    0    0  0.81340964482E+01  0.17747475357E+02 -0.16358594641E+04  0.16385518905E+04  0.91842120997E+02 0.  0.
         11    1    3    3    0    0  0.84696120887E+01  0.16688660267E+02 -0.16369136094E+04  0.16370205895E+04  0.00000000000E+00 0. -1.
        -11    1    3    3    0    0 -0.33551564040E+00  0.10588150900E+01  0.10541453792E+01  0.15313009568E+01  0.00000000000E+00 0.  1.
         22    1    1    2    0    0 -0.81340964482E+01 -0.17747475357E+02 -0.32532600559E+02  0.37940829007E+02  0.00000000000E+00 0.  1.
<mgrwt>
<rscale>  0 0.63403606E+02</rscale>
<asrwt>0</asrwt>
<pdfrwt beam="1">  1        1 0.25729877E+00 0.93894151E+02</pdfrwt>
<pdfrwt beam="2">  1       -1 0.62312743E-03 0.93894151E+02</pdfrwt>
<totfact> 0.19301347E+04</totfact>
</mgrwt>
</event>
<event>
 6    1  0.3075717E-002  0.9415868E+02  0.7546771E-02  0.1348627E+00
         -2   -1    0    0    0  501 -0.00000000000E+00  0.00000000000E+00  0.54746663327E+02  0.54746663327E+02  0.00000000000E+00 0.  1.
          2   -1    0    0  501    0  0.00000000000E+00 -0.00000000000E+00 -0.84827796251E+02  0.84827796251E+02  0.00000000000E+00 0. -1.
         23    2    1    2    0    0  0.33060824396E+02  0.11278923949E+02 -0.41394862273E+02  0.10285617112E+03  0.87439265096E+02 0.  0.
         11    1    3    3    0    0  0.46822435469E+02 -0.13427643011E+02 -0.53270718765E+02  0.72183180436E+02  0.00000000000E+00 0. -1.
        -11    1    3    3    0    0 -0.13761611073E+02  0.24706566961E+02  0.11875856493E+02  0.30672990688E+02  0.00000000000E+00 0.  1.
         22    1    1    2    0    0 -0.33060824396E+02 -0.11278923949E+02  0.11313729349E+02  0.36718288454E+02  0.00000000000E+00 0.  1.
<mgrwt>
<rscale>  0 0.73485320E+02</rscale>
<asrwt>0</asrwt>
<pdfrwt beam="1">  1        2 0.13050430E-01 0.94158682E+02</pdfrwt>
<pdfrwt beam="2">  1       -2 0.84225636E-02 0.94158682E+02</pdfrwt>
<totfact> 0.35200377E+04</totfact>
</mgrwt>
</event>
<event>
 6    1  0.3075717E-002  0.1009105E+03  0.7546771E-02  0.1408441E+00
          3   -1    0    0  501    0  0.00000000000E+00  0.00000000000E+00  0.11649394456E+02  0.11649394456E+02  0.00000000000E+00 0. -1.
         -3   -1    0    0    0  501 -0.00000000000E+00 -0.00000000000E+00 -0.27844144629E+03  0.27844144629E+03  0.00000000000E+00 0.  1.
         23    2    1    2    0    0  0.61948297622E+01 -0.86875739442E+01 -0.21912318878E+03  0.24124239797E+03  0.10034476997E+03 0.  0.
         13    1    3    3    0    0  0.28611767560E+02 -0.35670807160E+02 -0.19066154903E+03  0.19606852375E+03  0.00000000000E+00 0.  1.
        -13    1    3    3    0    0 -0.22416937798E+02  0.26983233216E+02 -0.28461639753E+02  0.45173874225E+02  0.00000000000E+00 0. -1.
         22    1    1    2    0    0 -0.61948297622E+01  0.86875739442E+01 -0.47668863054E+02  0.48848442776E+02  0.00000000000E+00 0.  1.
<mgrwt>
<rscale>  0 0.57543163E+02</rscale>
<asrwt>0</asrwt>
<pdfrwt beam="1">  1        3 0.17922146E-02 0.10091047E+03</pdfrwt>
<pdfrwt beam="2">  1       -3 0.42837144E-01 0.10091047E+03</pdfrwt>
<totfact> 0.12948270E+04</totfact>
</mgrwt>
</event>
<event>
 6    1  0.3075717E-002  0.9450822E+02  0.7546771E-02  0.1381381E+00
         -1   -1    0    0    0  501 -0.00000000000E+00  0.00000000000E+00  0.96969216213E+02  0.96969216213E+02  0.00000000000E+00 0.  1.
          1   -1    0    0  501    0  0.00000000000E+00 -0.00000000000E+00 -0.80089783402E+02  0.80089783402E+02  0.00000000000E+00 0. -1.
         23    2    1    2    0    0 -0.14847048311E+02  0.13403710193E+02 -0.50233302268E+02  0.10702890965E+03  0.92367248276E+02 0.  0.
         13    1    3    3    0    0  0.22668768924E+02  0.24219304833E+02 -0.58377811327E+02  0.67144744146E+02  0.00000000000E+00 0. -1.
        -13    1    3    3    0    0 -0.37515817236E+02 -0.10815594641E+02  0.81445090594E+01  0.39884165506E+02  0.00000000000E+00 0.  1.
         22    1    1    2    0    0  0.14847048311E+02 -0.13403710193E+02  0.67112735078E+02  0.70030089963E+02  0.00000000000E+00 0.  1.
<mgrwt>
<rscale>  0 0.64102131E+02</rscale>
<asrwt>0</asrwt>
<pdfrwt beam="1">  1        1 0.12321505E-01 0.94508216E+02</pdfrwt>
<pdfrwt beam="2">  1       -1 0.14918341E-01 0.94508216E+02</pdfrwt>
<totfact> 0.14119447E+04</totfact>
</mgrwt>
</event>
<event>
 6    1  0.3075717E-002  0.9689880E+02  0.7546771E-02  0.1387590E+00
          3   -1    0    0  501    0  0.00000000000E+00  0.00000000000E+00  0.10592033084E+02  0.10592033084E+02  0.00000000000E+00 0. -1.
         -3   -1    0    0    0  501 -0.00000000000E+00 -0.00000000000E+00 -0.31388392291E+03  0.31388392291E+03  0.00000000000E+00 0.  1.
         23    2    1    2    0    0  0.16352163166E+02  0.37741755527E+01 -0.27510645954E+03  0.29167266162E+03  0.95434479175E+02 0.  0.
         11    1    3    3    0    0 -0.94503473994E+01 -0.19477395682E+02 -0.24426558208E+03  0.24522306702E+03  0.00000000000E+00 0.  1.
        -11    1    3    3    0    0  0.25802510565E+02  0.23251571234E+02 -0.30840877457E+02  0.46449594602E+02  0.00000000000E+00 0. -1.
         22    1    1    2    0    0 -0.16352163166E+02 -0.37741755527E+01 -0.28185430293E+02  0.32803294379E+02  0.00000000000E+00 0.  1.
<mgrwt>
<rscale>  0 0.62510092E+02</rscale>
<asrwt>0</asrwt>
<pdfrwt beam="1">  1        3 0.16295434E-02 0.96898800E+02</pdfrwt>
<pdfrwt beam="2">  1       -3 0.48289839E-01 0.96898800E+02</pdfrwt>
<totfact> 0.11712952E+04</totfact>
</mgrwt>
</event>
<event>
 6    1  0.3075717E-002  0.1213837E+03  0.7546771E-02  0.1261938E+00
          2   -1    0    0  501    0  0.00000000000E+00  0.00000000000E+00  0.11086345999E+04  0.11086345999E+04  0.00000000000E+00 0. -1.
         -2   -1    0    0    0  501 -0.00000000000E+00 -0.00000000000E+00 -0.13317300365E+02  0.13317300365E+02  0.00000000000E+00 0.  1.
         23    2    1    2    0    0  0.70998497835E+02  0.36202327391E+02  0.93574575476E+03  0.94358577931E+03  0.91556595414E+02 0.  0.
         11    1    3    3    0    0  0.24820261354E+02 -0.19452997339E+02  0.56341199823E+03  0.56429384564E+03  0.00000000000E+00 0. -1.
        -11    1    3    3    0    0  0.46178236481E+02  0.55655324730E+02  0.37233375653E+03  0.37929193367E+03  0.00000000000E+00 0.  1.
         22    1    1    2    0    0 -0.70998497835E+02 -0.36202327391E+02  0.15957154480E+03  0.17836612098E+03  0.00000000000E+00 0.  1.
<mgrwt>
<rscale>  0 0.10926447E+03</rscale>
<asrwt>0</asrwt>
<pdfrwt beam="1">  1        2 0.17055910E+00 0.12138371E+03</pdfrwt>
<pdfrwt beam="2">  1       -2 0.20488163E-02 0.12138371E+03</pdfrwt>
<totfact> 0.16042789E+04</totfact>
</mgrwt>
</event>
<event>
 6    1  0.3075717E-002  0.9102528E+02  0.7546771E-02  0.1396113E+00
         -2   -1    0    0    0  501 -0.00000000000E+00  0.00000000000E+00  0.24705599820E+02  0.24705599820E+02  0.00000000000E+00 0.  1.
          2   -1    0    0  501    0  0.00000000000E+00 -0.00000000000E+00 -0.18869876052E+03  0.18869876052E+03  0.00000000000E+00 0. -1.
         23    2    1    2    0    0  0.12098477301E+02  0.12864799221E+02 -0.17154368858E+03  0.19419793738E+03  0.89295719823E+02 0.  0.
         13    1    3    3    0    0  0.40480140967E+02 -0.30808128303E+01 -0.14942161627E+03  0.15483847270E+03  0.00000000000E+00 0. -1.
        -13    1    3    3    0    0 -0.28381663666E+02  0.15945612052E+02 -0.22122072304E+02  0.39359464671E+02  0.00000000000E+00 0.  1.
         22    1    1    2    0    0 -0.12098477301E+02 -0.12864799221E+02  0.75505278740E+01  0.19206422967E+02  0.00000000000E+00 0.  1.
<mgrwt>
<rscale>  0 0.60411456E+02</rscale>
<asrwt>0</asrwt>
<pdfrwt beam="1">  1        2 0.29030579E-01 0.91025281E+02</pdfrwt>
<pdfrwt beam="2">  1       -2 0.38008615E-02 0.91025281E+02</pdfrwt>
<totfact> 0.47046104E+04</totfact>
</mgrwt>
</event>
<event>
 6    1  0.3075717E-002  0.9348052E+02  0.7546771E-02  0.1400011E+00
          2   -1    0    0  501    0  0.00000000000E+00  0.00000000000E+00  0.72104797071E+03  0.72104797071E+03  0.00000000000E+00 0. -1.
         -2   -1    0    0    0  501 -0.00000000000E+00 -0.00000000000E+00 -0.43368519103E+01  0.43368519103E+01  0.00000000000E+00 0.  1.
         23    2    1    2    0    0  0.10628235573E+01  0.15289150696E+02  0.66200156871E+03  0.66856913294E+03  0.92215621355E+02 0.  0.
         11    1    3    3    0    0  0.23034246695E+02  0.10118964539E+02  0.48363113957E+02  0.54515692747E+02  0.00000000000E+00 0.  1.
        -11    1    3    3    0    0 -0.21971423138E+02  0.51701861573E+01  0.61363845475E+03  0.61405344019E+03  0.00000000000E+00 0. -1.
         22    1    1    2    0    0 -0.10628235573E+01 -0.15289150696E+02  0.54709550094E+02  0.56815689685E+02  0.00000000000E+00 0.  1.
<mgrwt>
<rscale>  0 0.59483758E+02</rscale>
<asrwt>0</asrwt>
<pdfrwt beam="1">  1        2 0.11093036E+00 0.93480525E+02</pdfrwt>
<pdfrwt beam="2">  1       -2 0.66720856E-03 0.93480525E+02</pdfrwt>
<totfact> 0.13507647E+05</totfact>
</mgrwt>
</event>
<event>
 6    1  0.3075717E-002  0.9351730E+02  0.7546771E-02  0.1386901E+00
          1   -1    0    0  501    0  0.00000000000E+00  0.00000000000E+00  0.18631387735E+04  0.18631387735E+04  0.00000000000E+00 0. -1.
         -1   -1    0    0    0  501 -0.00000000000E+00 -0.00000000000E+00 -0.24781743852E+01  0.24781743852E+01  0.00000000000E+00 0.  1.
         23    2    1    2    0    0  0.14597716472E+02  0.11970194675E+02  0.17911149277E+04  0.17935546186E+04  0.91592067626E+02 0.  0.
         11    1    3    3    0    0  0.14976781412E+02  0.18966046584E+02  0.17814684876E+04  0.17816323939E+04  0.00000000000E+00 0. -1.
        -11    1    3    3    0    0 -0.37906493977E+00 -0.69958519098E+01  0.96464401045E+01  0.11922224661E+02  0.00000000000E+00 0.  1.
         22    1    1    2    0    0 -0.14597716472E+02 -0.11970194675E+02  0.69545671408E+02  0.72062329260E+02  0.00000000000E+00 0.  1.
<mgrwt>
<rscale>  0 0.62684183E+02</rscale>
<asrwt>0</asrwt>
<pdfrwt beam="1">  1        1 0.28663561E+00 0.93517302E+02</pdfrwt>
<pdfrwt beam="2">  1       -1 0.38125909E-03 0.93517302E+02</pdfrwt>
<totfact> 0.29126239E+04</totfact>
</mgrwt>
</event>
<event>
 6    1  0.3075717E-002  0.9120276E+02  0.7546771E-02  0.1416838E+00
          3   -1    0    0  501    0  0.00000000000E+00  0.00000000000E+00  0.68036096450E+03  0.68036096450E+03  0.00000000000E+00 0. -1.
         -3   -1    0    0    0  501 -0.00000000000E+00 -0.00000000000E+00 -0.39818657477E+01  0.39818657477E+01  0.00000000000E+00 0.  1.
         23    2    1    2    0    0  0.80889904031E+01  0.97699586393E+01  0.60706960876E+03  0.61388227915E+03  0.90316437710E+02 0.  0.
         11    1    3    3    0    0 -0.94506860936E+01  0.17953631190E+02  0.28474247201E+02  0.34963282086E+02  0.00000000000E+00 0.  1.
        -11    1    3    3    0    0  0.17539676497E+02 -0.81836725506E+01  0.57859536156E+03  0.57891899707E+03  0.00000000000E+00 0. -1.
         22    1    1    2    0    0 -0.80889904031E+01 -0.97699586393E+01  0.69309489996E+02  0.70460551098E+02  0.00000000000E+00 0. -1.
<mgrwt>
<rscale>  0 0.55695490E+02</rscale>
<asrwt>0</asrwt>
<pdfrwt beam="1">  1        3 0.10467082E+00 0.91202756E+02</pdfrwt>
<pdfrwt beam="2">  1       -3 0.61259527E-03 0.91202756E+02</pdfrwt>
<totfact> 0.96412513E+03</totfact>
</mgrwt>
</event>
<event>
 6    1  0.3075717E-002  0.1019305E+03  0.7546771E-02  0.1382503E+00
          2   -1    0    0  501    0  0.00000000000E+00  0.00000000000E+00  0.46783125226E+03  0.46783125226E+03  0.00000000000E+00 0. -1.
         -2   -1    0    0    0  501 -0.00000000000E+00 -0.00000000000E+00 -0.75559486586E+01  0.75559486586E+01  0.00000000000E+00 0.  1.
         23    2    1    2    0    0  0.13657995439E+02 -0.76508219205E+01  0.41960336895E+03  0.43180644618E+03  0.10072111899E+03 0.  0.
         13    1    3    3    0    0 -0.27009986254E+02  0.64811323264E+01  0.34145834125E+03  0.34258625664E+03  0.00000000000E+00 0. -1.
        -13    1    3    3    0    0  0.40667981693E+02 -0.14131954247E+02  0.78145027699E+02  0.89220189530E+02  0.00000000000E+00 0.  1.
         22    1    1    2    0    0 -0.13657995439E+02  0.76508219205E+01  0.40671934653E+02  0.43580754742E+02  0.00000000000E+00 0.  1.
<mgrwt>
<rscale>  0 0.63810270E+02</rscale>
<asrwt>0</asrwt>
<pdfrwt beam="1">  1        2 0.71974016E-01 0.10193047E+03</pdfrwt>
<pdfrwt beam="2">  1       -2 0.11624540E-02 0.10193047E+03</pdfrwt>
<totfact> 0.10111437E+05</totfact>
</mgrwt>
</event>
<event>
 6    1  0.3075717E-002  0.9420881E+02  0.7546771E-02  0.1398055E+00
         -1   -1    0    0    0  501 -0.00000000000E+00  0.00000000000E+00  0.17845495649E+02  0.17845495649E+02  0.00000000000E+00 0.  1.
          1   -1    0    0  501    0  0.00000000000E+00 -0.00000000000E+00 -0.31738021425E+03  0.31738021425E+03  0.00000000000E+00 0. -1.
         23    2    1    2    0    0 -0.15386344878E+02 -0.13444646758E+01 -0.30470649710E+03  0.31893784672E+03  0.92934135274E+02 0.  0.
         11    1    3    3    0    0  0.23750792673E+02 -0.32298913676E+02 -0.18413246606E+03  0.18844650444E+03  0.00000000000E+00 0. -1.
        -11    1    3    3    0    0 -0.39137137552E+02  0.30954449000E+02 -0.12057403104E+03  0.13049134228E+03  0.00000000000E+00 0.  1.
         22    1    1    2    0    0  0.15386344878E+02  0.13444646758E+01  0.51717785046E+01  0.16287863177E+02  0.00000000000E+00 0. -1.
<mgrwt>
<rscale>  0 0.59946722E+02</rscale>
<asrwt>0</asrwt>
<pdfrwt beam="1">  1        1 0.48827722E-01 0.94208814E+02</pdfrwt>
<pdfrwt beam="2">  1       -1 0.27454611E-02 0.94208814E+02</pdfrwt>
<totfact> 0.31224604E+04</totfact>
</mgrwt>
</event>
<event>
 6    1  0.3075717E-002  0.1002750E+03  0.7546771E-02  0.1327598E+00
          2   -1    0    0  501    0  0.00000000000E+00  0.00000000000E+00  0.17346187136E+03  0.17346187136E+03  0.00000000000E+00 0. -1.
         -2   -1    0    0    0  501 -0.00000000000E+00 -0.00000000000E+00 -0.29045105640E+02  0.29045105640E+02  0.00000000000E+00 0.  1.
         23    2    1    2    0    0  0.40117059425E+02 -0.11301447527E+02  0.10107986171E+03  0.14238054003E+03  0.91202952603E+02 0.  0.
         11    1    3    3    0    0  0.56842027153E+00 -0.13353332281E+02 -0.14787429307E+02  0.19932452185E+02  0.00000000000E+00 0.  1.
        -11    1    3    3    0    0  0.39548639153E+02  0.20518847544E+01  0.11586729102E+03  0.12244808785E+03  0.00000000000E+00 0. -1.
         22    1    1    2    0    0 -0.40117059425E+02  0.11301447527E+02  0.43336904007E+02  0.60126436964E+02  0.00000000000E+00 0. -1.
<mgrwt>
<rscale>  0 0.80514242E+02</rscale>
<asrwt>0</asrwt>
<pdfrwt beam="1">  1        2 0.26686441E-01 0.10027502E+03</pdfrwt>
<pdfrwt beam="2">  1       -2 0.44684779E-02 0.10027502E+03</pdfrwt>
<totfact> 0.41087476E+04</totfact>
</mgrwt>
</event>
<event>
 6    1  0.3075717E-002  0.9750941E+02  0.7546771E-02  0.1346389E+00
         -2   -1    0    0    0  501 -0.00000000000E+00  0.00000000000E+00  0.73469405920E+01  0.73469405920E+01  0.00000000000E+00 0.  1.
          2   -1    0    0  501    0  0.00000000000E+00 -0.00000000000E+00 -0.71543064436E+03  0.71543064436E+03  0.00000000000E+00 0. -1.
         23    2    1    2    0    0 -0.22291671065E+02 -0.23899904433E+02 -0.63847874692E+03  0.64588171998E+03  0.91869265346E+02 0.  0.
         13    1    3    3    0    0  0.30170474859E+02  0.13239594409E+02 -0.19363623119E+03  0.19641928226E+03  0.00000000000E+00 0.  1.
        -13    1    3    3    0    0 -0.52462145923E+02 -0.37139498842E+02 -0.44484251572E+03  0.44946243772E+03  0.00000000000E+00 0. -1.
         22    1    1    2    0    0  0.22291671065E+02  0.23899904433E+02 -0.69604956850E+02  0.76895864966E+02  0.00000000000E+00 0.  1.
<mgrwt>
<rscale>  0 0.74192947E+02</rscale>
<asrwt>0</asrwt>
<pdfrwt beam="1">  1        2 0.11006624E+00 0.97509415E+02</pdfrwt>
<pdfrwt beam="2">  1       -2 0.11302987E-02 0.97509415E+02</pdfrwt>
<totfact> 0.65051923E+04</totfact>
</mgrwt>
</event>
<event>
 6    1  0.3075717E-002  0.9181399E+02  0.7546771E-02  0.1386576E+00
         -2   -1    0    0    0  501 -0.00000000000E+00  0.00000000000E+00  0.37272579531E+01  0.37272579531E+01  0.00000000000E+00 0.  1.
          2   -1    0    0  501    0  0.00000000000E+00 -0.00000000000E+00 -0.11139679985E+04  0.11139679985E+04  0.00000000000E+00 0. -1.
         23    2    1    2    0    0  0.27919856208E+01 -0.19857953711E+02 -0.10539066780E+04  0.10578984329E+04  0.89597292337E+02 0.  0.
         11    1    3    3    0    0 -0.10573173671E+02 -0.22537161589E+02 -0.10305830793E+04  0.10308836981E+04  0.00000000000E+00 0. -1.
        -11    1    3    3    0    0  0.13365159292E+02  0.26792078778E+01 -0.23323598674E+02  0.27014734736E+02  0.00000000000E+00 0.  1.
         22    1    1    2    0    0 -0.27919856208E+01  0.19857953711E+02 -0.56334062530E+02  0.59796823581E+02  0.00000000000E+00 0.  1.
<mgrwt>
<rscale>  0 0.62766501E+02</rscale>
<asrwt>0</asrwt>
<pdfrwt beam="1">  1        2 0.17137956E+00 0.91813988E+02</pdfrwt>
<pdfrwt beam="2">  1       -2 0.57342473E-03 0.91813988E+02</pdfrwt>
<totfact> 0.95137251E+04</totfact>
</mgrwt>
</event>
<event>
 6    1  0.3075717E-002  0.2729830E+03  0.7546771E-02  0.1101873E+00
          2   -1    0    0  501    0  0.00000000000E+00  0.00000000000E+00  0.14307197859E+03  0.14307197859E+03  0.00000000000E+00 0.  1.
         -2   -1    0    0    0  501 -0.00000000000E+00 -0.00000000000E+00 -0.52986713268E+03  0.52986713268E+03  0.00000000000E+00 0. -1.
         23    2    1    2    0    0  0.23634338182E+03 -0.10163054029E+03 -0.10797585571E+03  0.29356177668E+03  0.91284009884E+02 0.  0.
         13    1    3    3    0    0  0.12585849596E+03 -0.46548034970E+01 -0.47617906500E+02  0.13464580655E+03  0.00000000000E+00 0.  1.
        -13    1    3    3    0    0  0.11048488585E+03 -0.96975736792E+02 -0.60357949213E+02  0.15891597013E+03  0.00000000000E+00 0. -1.
         22    1    1    2    0    0 -0.23634338182E+03  0.10163054029E+03 -0.27881929838E+03  0.37937733459E+03  0.00000000000E+00 0.  1.
<mgrwt>
<rscale>  0 0.26896656E+03</rscale>
<asrwt>0</asrwt>
<pdfrwt beam="1">  1        2 0.22011074E-01 0.27298302E+03</pdfrwt>
<pdfrwt beam="2">  1       -2 0.81518020E-01 0.27298302E+03</pdfrwt>
<totfact> 0.34084769E+02</totfact>
</mgrwt>
</event>
<event>
 6    1  0.3075717E-002  0.9241719E+02  0.7546771E-02  0.1385840E+00
          4   -1    0    0  501    0  0.00000000000E+00  0.00000000000E+00  0.28151768736E+02  0.28151768736E+02  0.00000000000E+00 0. -1.
         -4   -1    0    0    0  501 -0.00000000000E+00 -0.00000000000E+00 -0.11344610092E+03  0.11344610092E+03  0.00000000000E+00 0.  1.
         23    2    1    2    0    0  0.77317157583E+01  0.18334574031E+02 -0.63758916927E+02  0.11227705548E+03  0.90249662973E+02 0.  0.
         13    1    3    3    0    0 -0.91607418425E+01 -0.18703400690E+02 -0.68217077555E+02  0.71325353547E+02  0.00000000000E+00 0.  1.
        -13    1    3    3    0    0  0.16892457601E+02  0.37037974721E+02  0.44581606285E+01  0.40951701936E+02  0.00000000000E+00 0. -1.
         22    1    1    2    0    0 -0.77317157583E+01 -0.18334574031E+02 -0.21535415259E+02  0.29320814174E+02  0.00000000000E+00 0.  1.
<mgrwt>
<rscale>  0 0.62953186E+02</rscale>
<asrwt>0</asrwt>
<pdfrwt beam="1">  1        4 0.43310413E-02 0.92417194E+02</pdfrwt>
<pdfrwt beam="2">  1       -4 0.17453247E-01 0.92417194E+02</pdfrwt>
<totfact> 0.12624234E+04</totfact>
</mgrwt>
</event>
<event>
 6    1  0.3075717E-002  0.9898009E+02  0.7546771E-02  0.1349753E+00
          2   -1    0    0  501    0  0.00000000000E+00  0.00000000000E+00  0.21543689335E+03  0.21543689335E+03  0.00000000000E+00 0. -1.
         -2   -1    0    0    0  501 -0.00000000000E+00 -0.00000000000E+00 -0.20667438663E+02  0.20667438663E+02  0.00000000000E+00 0.  1.
         23    2    1    2    0    0 -0.99630000575E+01 -0.27765247945E+02  0.11893102104E+03  0.15473088191E+03  0.94482208311E+02 0.  0.
         11    1    3    3    0    0 -0.22701168129E+02 -0.45361626412E+02  0.21818438660E+02  0.55218334372E+02  0.00000000000E+00 0.  1.
        -11    1    3    3    0    0  0.12738168071E+02  0.17596378467E+02  0.97112582381E+02  0.99512547539E+02  0.00000000000E+00 0. -1.
         22    1    1    2    0    0  0.99630000575E+01  0.27765247945E+02  0.75838433648E+02  0.81373450104E+02  0.00000000000E+00 0. -1.
<mgrwt>
<rscale>  0 0.73132668E+02</rscale>
<asrwt>0</asrwt>
<pdfrwt beam="1">  1        2 0.33144136E-01 0.98980089E+02</pdfrwt>
<pdfrwt beam="2">  1       -2 0.31796061E-02 0.98980089E+02</pdfrwt>
<totfact> 0.53612467E+04</totfact>
</mgrwt>
</event>
<event>
 6    1  0.3075717E-002  0.9236724E+02  0.7546771E-02  0.1391244E+00
          1   -1    0    0  501    0  0.00000000000E+00  0.00000000000E+00  0.10527124659E+03  0.10527124659E+03  0.00000000000E+00 0. -1.
         -1   -1    0    0    0  501 -0.00000000000E+00 -0.00000000000E+00 -0.35525152198E+02  0.35525152198E+02  0.00000000000E+00 0.  1.
         23    2    1    2    0    0  0.16950577719E+02 -0.68148885575E+01  0.77861179055E+02  0.12080591630E+03  0.90542484054E+02 0.  0.
         11    1    3    3    0    0 -0.60753789687E+01  0.36429306665E+02  0.12228763874E+02  0.38904334972E+02  0.00000000000E+00 0.  1.
        -11    1    3    3    0    0  0.23025956688E+02 -0.43244195223E+02  0.65632415181E+02  0.81901581330E+02  0.00000000000E+00 0. -1.
         22    1    1    2    0    0 -0.16950577719E+02  0.68148885575E+01 -0.81150846603E+01  0.19990482488E+02  0.00000000000E+00 0.  1.
<mgrwt>
<rscale>  0 0.61598271E+02</rscale>
<asrwt>0</asrwt>
<pdfrwt beam="1">  1        1 0.16195576E-01 0.92367236E+02</pdfrwt>
<pdfrwt beam="2">  1       -1 0.54654081E-02 0.92367236E+02</pdfrwt>
<totfact> 0.44925676E+04</totfact>
</mgrwt>
</event>
<event>
 6    1  0.3075717E-002  0.9465395E+02  0.7546771E-02  0.1399546E+00
         -2   -1    0    0    0  501 -0.00000000000E+00  0.00000000000E+00  0.39656953704E+02  0.39656953704E+02  0.00000000000E+00 0. -1.
          2   -1    0    0  501    0  0.00000000000E+00 -0.00000000000E+00 -0.16601563255E+03  0.16601563255E+03  0.00000000000E+00 0.  1.
         23    2    1    2    0    0  0.14871837296E+02 -0.12075252324E+00 -0.15022112204E+03  0.17755493484E+03  0.93478250162E+02 0.  0.
         11    1    3    3    0    0  0.91584917026E+01 -0.32086169155E+02 -0.13938390194E+03  0.14332226743E+03  0.00000000000E+00 0.  1.
        -11    1    3    3    0    0  0.57133455935E+01  0.31965416632E+02 -0.10837220096E+02  0.34232667406E+02  0.00000000000E+00 0. -1.
         22    1    1    2    0    0 -0.14871837296E+02  0.12075252324E+00  0.23862443195E+02  0.28117651413E+02  0.00000000000E+00 0. -1.
<mgrwt>
<rscale>  0 0.59593484E+02</rscale>
<asrwt>0</asrwt>
<pdfrwt beam="1">  1        2 0.25540867E-01 0.94653945E+02</pdfrwt>
<pdfrwt beam="2">  1       -2 0.61010697E-02 0.94653945E+02</pdfrwt>
<totfact> 0.26892871E+04</totfact>
</mgrwt>
</event>
<event>
 6    1  0.3075717E-002  0.9061136E+02  0.7546771E-02  0.1420092E+00
          2   -1    0    0  501    0  0.00000000000E+00  0.00000000000E+00  0.88208481866E+03  0.88208481866E+03  0.00000000000E+00 0.  1.
         -2   -1    0    0    0  501 -0.00000000000E+00 -0.00000000000E+00 -0.61547771997E+01  0.61547771997E+01  0.00000000000E+00 0. -1.
         23    2    1    2    0    0 -0.44238655806E+00  0.12293357714E+02  0.86977907770E+03  0.87448617065E+03  0.89772469601E+02 0.  0.
         13    1    3    3    0    0 -0.39559791862E+02 -0.15075093016E+02  0.45647971629E+03  0.45843861851E+03  0.00000000000E+00 0.  1.
        -13    1    3    3    0    0  0.39117405304E+02  0.27368450731E+02  0.41329936142E+03  0.41604755214E+03  0.00000000000E+00 0. -1.
         22    1    1    2    0    0  0.44238655806E+00 -0.12293357714E+02  0.61509637510E+01  0.13753425203E+02  0.00000000000E+00 0. -1.
<mgrwt>
<rscale>  0 0.55001543E+02</rscale>
<asrwt>0</asrwt>
<pdfrwt beam="1">  1        2 0.13570526E+00 0.90611360E+02</pdfrwt>
<pdfrwt beam="2">  1       -2 0.94688950E-03 0.90611360E+02</pdfrwt>
<totfact> 0.64163683E+04</totfact>
</mgrwt>
</event>
<event>
 6    1  0.3075717E-002  0.9141599E+02  0.7546771E-02  0.1412198E+00
         -2   -1    0    0    0  501 -0.00000000000E+00  0.00000000000E+00  0.33332953683E+01  0.33332953683E+01  0.00000000000E+00 0.  1.
          2   -1    0    0  501    0  0.00000000000E+00 -0.00000000000E+00 -0.16714897387E+04  0.16714897387E+04  0.00000000000E+00 0. -1.
         23    2    1    2    0    0  0.32285466903E+01  0.13144317346E+02 -0.16480612738E+04  0.16505946947E+04  0.90408446807E+02 0.  0.
         13    1    3    3    0    0 -0.26476757526E+02  0.22521215625E+01 -0.15958146675E+03  0.16177866136E+03  0.00000000000E+00 0.  1.
        -13    1    3    3    0    0  0.29705304216E+02  0.10892195783E+02 -0.14884798071E+04  0.14888160333E+04  0.00000000000E+00 0. -1.
         22    1    1    2    0    0 -0.32285466903E+01 -0.13144317346E+02 -0.20095169571E+02  0.24228339445E+02  0.00000000000E+00 0.  1.
<mgrwt>
<rscale>  0 0.56706300E+02</rscale>
<asrwt>0</asrwt>
<pdfrwt beam="1">  1        2 0.25715304E+00 0.91415993E+02</pdfrwt>
<pdfrwt beam="2">  1       -2 0.51281313E-03 0.91415993E+02</pdfrwt>
<totfact> 0.56814793E+04</totfact>
</mgrwt>
</event>
<event>
 6    1  0.3075717E-002  0.9401428E+02  0.7546771E-02  0.1417293E+00
          3   -1    0    0  501    0  0.00000000000E+00  0.00000000000E+00  0.51746100971E+03  0.51746100971E+03  0.00000000000E+00 0. -1.
         -3   -1    0    0    0  501 -0.00000000000E+00 -0.00000000000E+00 -0.18561482555E+02  0.18561482555E+02  0.00000000000E+00 0.  1.
         23    2    1    2    0    0 -0.83690185487E+01  0.78854211964E+01  0.51085552442E+03  0.51943435766E+03  0.93308438812E+02 0.  0.
         11    1    3    3    0    0  0.80962509362E+01 -0.40544494832E+02  0.18299788500E+03  0.18761031756E+03  0.00000000000E+00 0. -1.
        -11    1    3    3    0    0 -0.16465269485E+02  0.48429916029E+02  0.32785763941E+03  0.33182404010E+03  0.00000000000E+00 0.  1.
         22    1    1    2    0    0  0.83690185487E+01 -0.78854211964E+01 -0.11955997264E+02  0.16588134600E+02  0.00000000000E+00 0.  1.
<mgrwt>
<rscale>  0 0.55597806E+02</rscale>
<asrwt>0</asrwt>
<pdfrwt beam="1">  1        3 0.79609375E-01 0.94014281E+02</pdfrwt>
<pdfrwt beam="2">  1       -3 0.28556131E-02 0.94014281E+02</pdfrwt>
<totfact> 0.17813135E+03</totfact>
</mgrwt>
</event>
<event>
 6    1  0.3075717E-002  0.9342213E+02  0.7546771E-02  0.1417982E+00
          2   -1    0    0  501    0  0.00000000000E+00  0.00000000000E+00  0.80402066919E+03  0.80402066919E+03  0.00000000000E+00 0. -1.
         -2   -1    0    0    0  501 -0.00000000000E+00 -0.00000000000E+00 -0.40153033388E+01  0.40153033388E+01  0.00000000000E+00 0.  1.
         23    2    1    2    0    0  0.29063832352E+01 -0.11224515181E+02  0.77329291045E+03  0.77891566900E+03  0.92699823318E+02 0.  0.
         11    1    3    3    0    0 -0.23097309116E+02 -0.12616015832E+02  0.70983077193E+03  0.71031850203E+03  0.00000000000E+00 0. -1.
        -11    1    3    3    0    0  0.26003692351E+02  0.13915006513E+01  0.63462138525E+02  0.68597166969E+02  0.00000000000E+00 0.  1.
         22    1    1    2    0    0 -0.29063832352E+01  0.11224515181E+02  0.26712455399E+02  0.29120303536E+02  0.00000000000E+00 0.  1.
<mgrwt>
<rscale>  0 0.55450069E+02</rscale>
<asrwt>0</asrwt>
<pdfrwt beam="1">  1        2 0.12369536E+00 0.93422128E+02</pdfrwt>
<pdfrwt beam="2">  1       -2 0.61773961E-03 0.93422128E+02</pdfrwt>
<totfact> 0.13206227E+05</totfact>
</mgrwt>
</event>
<event>
 6    1  0.3075717E-002  0.9929608E+02  0.7546771E-02  0.1332732E+00
         -1   -1    0    0    0  501 -0.00000000000E+00  0.00000000000E+00  0.22606190361E+02  0.22606190361E+02  0.00000000000E+00 0.  1.
          1   -1    0    0  501    0  0.00000000000E+00 -0.00000000000E+00 -0.25787210349E+03  0.25787210349E+03  0.00000000000E+00 0. -1.
         23    2    1    2    0    0  0.64878440862E+01  0.38677362368E+02 -0.21388642529E+03  0.23581160625E+03  0.91223243970E+02 0.  0.
         11    1    3    3    0    0 -0.23923356090E+02  0.57161146171E+02 -0.15605684609E+03  0.16790909090E+03  0.00000000000E+00 0. -1.
        -11    1    3    3    0    0  0.30411200176E+02 -0.18483783803E+02 -0.57829579201E+02  0.67902515347E+02  0.00000000000E+00 0.  1.
         22    1    1    2    0    0 -0.64878440862E+01 -0.38677362368E+02 -0.21379487842E+02  0.44666687599E+02  0.00000000000E+00 0.  1.
<mgrwt>
<rscale>  0 0.78717208E+02</rscale>
<asrwt>0</asrwt>
<pdfrwt beam="1">  1        1 0.39672631E-01 0.99296076E+02</pdfrwt>
<pdfrwt beam="2">  1       -1 0.34778754E-02 0.99296076E+02</pdfrwt>
<totfact> 0.28780814E+04</totfact>
</mgrwt>
</event>
<event>
 6    1  0.3075717E-002  0.9141020E+02  0.7546771E-02  0.1426866E+00
         -2   -1    0    0    0  501 -0.00000000000E+00  0.00000000000E+00  0.44303938145E+01  0.44303938145E+01  0.00000000000E+00 0.  1.
          2   -1    0    0  501    0  0.00000000000E+00 -0.00000000000E+00 -0.66796038799E+03  0.66796038799E+03  0.00000000000E+00 0. -1.
         23    2    1    2    0    0  0.42220320516E+01  0.99423797067E+01 -0.64006001615E+03  0.64655444427E+03  0.90769756289E+02 0.  0.
         11    1    3    3    0    0 -0.41958793719E+02  0.98434789545E+01 -0.37885021349E+03  0.38129374334E+03  0.00000000000E+00 0.  1.
        -11    1    3    3    0    0  0.46180825771E+02  0.98900752228E-01 -0.26120980266E+03  0.26526070093E+03  0.00000000000E+00 0. -1.
         22    1    1    2    0    0 -0.42220320516E+01 -0.99423797067E+01 -0.23469978019E+02  0.25836337532E+02  0.00000000000E+00 0. -1.
<mgrwt>
<rscale>  0 0.53594338E+02</rscale>
<asrwt>0</asrwt>
<pdfrwt beam="1">  1        2 0.10276320E+00 0.91410203E+02</pdfrwt>
<pdfrwt beam="2">  1       -2 0.68159861E-03 0.91410203E+02</pdfrwt>
<totfact> 0.14282304E+05</totfact>
</mgrwt>
</event>
<event>
 6    1  0.3075717E-002  0.9613154E+02  0.7546771E-02  0.1413424E+00
         -1   -1    0    0    0  501 -0.00000000000E+00  0.00000000000E+00  0.13251411726E+02  0.13251411726E+02  0.00000000000E+00 0.  1.
          1   -1    0    0  501    0  0.00000000000E+00 -0.00000000000E+00 -0.23263123364E+03  0.23263123364E+03  0.00000000000E+00 0. -1.
         23    2    1    2    0    0  0.10357778879E+02 -0.48086241475E+01 -0.21051649145E+03  0.23142702098E+03  0.95450858645E+02 0.  0.
         11    1    3    3    0    0 -0.28691381231E+02  0.22525623538E+02 -0.38956849309E+02  0.53368859654E+02  0.00000000000E+00 0.  1.
        -11    1    3    3    0    0  0.39049160109E+02 -0.27334247685E+02 -0.17155964215E+03  0.17805816133E+03  0.00000000000E+00 0. -1.
         22    1    1    2    0    0 -0.10357778879E+02  0.48086241475E+01 -0.88633304562E+01  0.14455624382E+02  0.00000000000E+00 0. -1.
<mgrwt>
<rscale>  0 0.56436725E+02</rscale>
<asrwt>0</asrwt>
<pdfrwt beam="1">  1        1 0.35789420E-01 0.96131539E+02</pdfrwt>
<pdfrwt beam="2">  1       -1 0.20386788E-02 0.96131539E+02</pdfrwt>
<totfact> 0.70130292E+04</totfact>
</mgrwt>
</event>
<event>
 6    1  0.3075717E-002  0.9042431E+02  0.7546771E-02  0.1409950E+00
         -1   -1    0    0    0  501 -0.00000000000E+00  0.00000000000E+00  0.52791669386E+01  0.52791669386E+01  0.00000000000E+00 0.  1.
          1   -1    0    0  501    0  0.00000000000E+00 -0.00000000000E+00 -0.72338077312E+03  0.72338077312E+03  0.00000000000E+00 0. -1.
         23    2    1    2    0    0  0.84609876092E+01  0.11755407550E+02 -0.69828042706E+03  0.70411086554E+03  0.89256810601E+02 0.  0.
         13    1    3    3    0    0  0.27995601009E+02 -0.31809457054E+02 -0.35735328334E+03  0.35985686647E+03  0.00000000000E+00 0. -1.
        -13    1    3    3    0    0 -0.19534613400E+02  0.43564864604E+02 -0.34092714372E+03  0.34425399907E+03  0.00000000000E+00 0.  1.
         22    1    1    2    0    0 -0.84609876092E+01 -0.11755407550E+02 -0.19821179127E+02  0.24549074524E+02  0.00000000000E+00 0.  1.
<mgrwt>
<rscale>  0 0.57204986E+02</rscale>
<asrwt>0</asrwt>
<pdfrwt beam="1">  1        1 0.11128933E+00 0.90424312E+02</pdfrwt>
<pdfrwt beam="2">  1       -1 0.81217965E-03 0.90424312E+02</pdfrwt>
<totfact> 0.60494973E+04</totfact>
</mgrwt>
</event>
<event>
 6    1  0.3075717E-002  0.1032403E+03  0.7546771E-02  0.1314597E+00
          2   -1    0    0  501    0  0.00000000000E+00  0.00000000000E+00  0.36186692352E+03  0.36186692352E+03  0.00000000000E+00 0. -1.
         -2   -1    0    0    0  501 -0.00000000000E+00 -0.00000000000E+00 -0.19127994802E+02  0.19127994802E+02  0.00000000000E+00 0.  1.
         23    2    1    2    0    0  0.38513937710E+02 -0.28910459660E+02  0.29756546541E+03  0.31496628921E+03  0.91320419706E+02 0.  0.
         13    1    3    3    0    0  0.59375711445E+02 -0.43287971605E+02  0.25553516014E+03  0.26589009320E+03  0.00000000000E+00 0.  1.
        -13    1    3    3    0    0 -0.20861773735E+02  0.14377511945E+02  0.42030305274E+02  0.49076196007E+02  0.00000000000E+00 0. -1.
         22    1    1    2    0    0 -0.38513937710E+02  0.28910459660E+02  0.45173463306E+02  0.66028629115E+02  0.00000000000E+00 0. -1.
<mgrwt>
<rscale>  0 0.85320370E+02</rscale>
<asrwt>0</asrwt>
<pdfrwt beam="1">  1        2 0.55671829E-01 0.10324029E+03</pdfrwt>
<pdfrwt beam="2">  1       -2 0.29427687E-02 0.10324029E+03</pdfrwt>
<totfact> 0.34946418E+04</totfact>
</mgrwt>
</event>
<event>
 6    1  0.3075717E-002  0.9240281E+02  0.7546771E-02  0.1414381E+00
         -2   -1    0    0    0  501 -0.00000000000E+00  0.00000000000E+00  0.56631320189E+01  0.56631320189E+01  0.00000000000E+00 0.  1.
          2   -1    0    0  501    0  0.00000000000E+00 -0.00000000000E+00 -0.72654195971E+03  0.72654195971E+03  0.00000000000E+00 0. -1.
         23    2    1    2    0    0  0.96074877105E+00  0.12632450236E+02 -0.70847355278E+03  0.71447396986E+03  0.91530195980E+02 0.  0.
         11    1    3    3    0    0  0.20439964718E+02  0.42888890693E+02 -0.24232569483E+03  0.24693924653E+03  0.00000000000E+00 0.  1.
        -11    1    3    3    0    0 -0.19479215947E+02 -0.30256440457E+02 -0.46614785796E+03  0.46753472333E+03  0.00000000000E+00 0. -1.
         22    1    1    2    0    0 -0.96074877105E+00 -0.12632450236E+02 -0.12405274905E+02  0.17731121866E+02  0.00000000000E+00 0. -1.
<mgrwt>
<rscale>  0 0.56227513E+02</rscale>
<asrwt>0</asrwt>
<pdfrwt beam="1">  1        2 0.11177556E+00 0.92402806E+02</pdfrwt>
<pdfrwt beam="2">  1       -2 0.87125209E-03 0.92402806E+02</pdfrwt>
<totfact> 0.91741186E+04</totfact>
</mgrwt>
</event>
<event>
 6    1  0.3075717E-002  0.9606589E+02  0.7546771E-02  0.1365705E+00
         -2   -1    0    0    0  501 -0.00000000000E+00  0.00000000000E+00  0.11456396856E+02  0.11456396856E+02  0.00000000000E+00 0.  1.
          2   -1    0    0  501    0  0.00000000000E+00 -0.00000000000E+00 -0.47366712987E+03  0.47366712987E+03  0.00000000000E+00 0. -1.
         23    2    1    2    0    0 -0.17643043968E+02 -0.17221388301E+02 -0.44451129993E+03  0.45477351607E+03  0.92848273730E+02 0.  0.
         13    1    3    3    0    0  0.31922842613E+02 -0.31117673272E+02 -0.20322101243E+03  0.20805325608E+03  0.00000000000E+00 0.  1.
        -13    1    3    3    0    0 -0.49565886581E+02  0.13896284970E+02 -0.24129028750E+03  0.24672025999E+03  0.00000000000E+00 0. -1.
         22    1    1    2    0    0  0.17643043968E+02  0.17221388301E+02 -0.17699433082E+02  0.30350010658E+02  0.00000000000E+00 0.  1.
<mgrwt>
<rscale>  0 0.68375694E+02</rscale>
<asrwt>0</asrwt>
<pdfrwt beam="1">  1        2 0.72871879E-01 0.96065890E+02</pdfrwt>
<pdfrwt beam="2">  1       -2 0.17625223E-02 0.96065890E+02</pdfrwt>
<totfact> 0.54622744E+04</totfact>
</mgrwt>
</event>
<event>
 6    1  0.3075717E-002  0.9905148E+02  0.7546771E-02  0.1409800E+00
         -2   -1    0    0    0  501 -0.00000000000E+00  0.00000000000E+00  0.90685388582E+02  0.90685388582E+02  0.00000000000E+00 0.  1.
          2   -1    0    0  501    0  0.00000000000E+00 -0.00000000000E+00 -0.42667657568E+02  0.42667657568E+02  0.00000000000E+00 0. -1.
         23    2    1    2    0    0  0.18080962109E+01  0.10896018290E+02  0.17093531538E+02  0.10051558980E+03  0.98433746984E+02 0.  0.
         13    1    3    3    0    0 -0.14532123957E+02  0.27349113971E+02  0.50863699034E+02  0.59550588084E+02  0.00000000000E+00 0.  1.
        -13    1    3    3    0    0  0.16340220168E+02 -0.16453095681E+02 -0.33770167496E+02  0.40965001713E+02  0.00000000000E+00 0. -1.
         22    1    1    2    0    0 -0.18080962109E+01 -0.10896018290E+02  0.30924199476E+02  0.32837456353E+02  0.00000000000E+00 0.  1.
<mgrwt>
<rscale>  0 0.57238379E+02</rscale>
<asrwt>0</asrwt>
<pdfrwt beam="1">  1        2 0.65642550E-02 0.99051476E+02</pdfrwt>
<pdfrwt beam="2">  1       -2 0.13951598E-01 0.99051476E+02</pdfrwt>
<totfact> 0.37189452E+04</totfact>
</mgrwt>
</event>
<event>
 6    1  0.3075717E-002  0.9289217E+02  0.7546771E-02  0.1409621E+00
         -2   -1    0    0    0  501 -0.00000000000E+00  0.00000000000E+00  0.14221530112E+02  0.14221530112E+02  0.00000000000E+00 0.  1.
          2   -1    0    0  501    0  0.00000000000E+00 -0.00000000000E+00 -0.20229237470E+03  0.20229237470E+03  0.00000000000E+00 0. -1.
         23    2    1    2    0    0  0.76081742851E+00 -0.13406992162E+02 -0.17274564372E+03  0.19613774070E+03  0.91916427386E+02 0.  0.
         13    1    3    3    0    0 -0.20496604657E+02  0.34694885799E+02 -0.73878403470E+02  0.84153813950E+02  0.00000000000E+00 0. -1.
        -13    1    3    3    0    0  0.21257422086E+02 -0.48101877961E+02 -0.98867240247E+02  0.11198392675E+03  0.00000000000E+00 0.  1.
         22    1    1    2    0    0 -0.76081742851E+00  0.13406992162E+02 -0.15325200867E+02  0.20376164104E+02  0.00000000000E+00 0.  1.
<mgrwt>
<rscale>  0 0.57278511E+02</rscale>
<asrwt>0</asrwt>
<pdfrwt beam="1">  1        2 0.31121901E-01 0.92892174E+02</pdfrwt>
<pdfrwt beam="2">  1       -2 0.21879279E-02 0.92892174E+02</pdfrwt>
<totfact> 0.97711817E+04</totfact>
</mgrwt>
</event>
<event>
 6    1  0.3075717E-002  0.9102048E+02  0.7546771E-02  0.1423733E+00
          1   -1    0    0  501    0  0.00000000000E+00  0.00000000000E+00  0.53606382109E+02  0.53606382109E+02  0.00000000000E+00 0. -1.
         -1   -1    0    0    0  501 -0.00000000000E+00 -0.00000000000E+00 -0.52533364648E+02  0.52533364648E+02  0.00000000000E+00 0.  1.
         23    2    1    2    0    0 -0.33767369735E+00  0.11471896594E+02  0.10043712830E+02  0.91572941671E+02  0.90294014441E+02 0.  0.
         11    1    3    3    0    0  0.19483052665E+02 -0.14635651040E+02 -0.30754335262E+02  0.39238001477E+02  0.00000000000E+00 0.  1.
        -11    1    3    3    0    0 -0.19820726363E+02  0.26107547634E+02  0.40798048092E+02  0.52334940194E+02  0.00000000000E+00 0. -1.
         22    1    1    2    0    0  0.33767369735E+00 -0.11471896594E+02 -0.89706953690E+01  0.14566805086E+02  0.00000000000E+00 0. -1.
<mgrwt>
<rscale>  0 0.54238810E+02</rscale>
<asrwt>0</asrwt>
<pdfrwt beam="1">  1        1 0.82471357E-02 0.91020478E+02</pdfrwt>
<pdfrwt beam="2">  1       -1 0.80820561E-02 0.91020478E+02</pdfrwt>
<totfact> 0.60368262E+04</totfact>
</mgrwt>
</event>
<event>
 6    1  0.3075717E-002  0.9306273E+02  0.7546771E-02  0.1399935E+00
         -2   -1    0    0    0  501 -0.00000000000E+00  0.00000000000E+00  0.41740903483E+02  0.41740903483E+02  0.00000000000E+00 0.  1.
          2   -1    0    0  501    0  0.00000000000E+00 -0.00000000000E+00 -0.78093229405E+02  0.78093229405E+02  0.00000000000E+00 0. -1.
         23    2    1    2    0    0  0.64784950986E+01  0.14138592240E+02 -0.43488870318E+02  0.10272270527E+03  0.91754027960E+02 0.  0.
         11    1    3    3    0    0  0.74288950818E+01 -0.89015922695E+01 -0.68051322165E+02  0.69031943877E+02  0.00000000000E+00 0. -1.
        -11    1    3    3    0    0 -0.95039998312E+00  0.23040184510E+02  0.24562451847E+02  0.33690761391E+02  0.00000000000E+00 0.  1.
         22    1    1    2    0    0 -0.64784950986E+01 -0.14138592240E+02  0.71365443956E+01  0.17111427620E+02  0.00000000000E+00 0. -1.
<mgrwt>
<rscale>  0 0.59501753E+02</rscale>
<asrwt>0</asrwt>
<pdfrwt beam="1">  1        2 0.12014343E-01 0.93062733E+02</pdfrwt>
<pdfrwt beam="2">  1       -2 0.64216774E-02 0.93062733E+02</pdfrwt>
<totfact> 0.58549713E+04</totfact>
</mgrwt>
</event>
<event>
 6    1  0.3075717E-002  0.9228601E+02  0.7546771E-02  0.1411705E+00
         -2   -1    0    0    0  501 -0.00000000000E+00  0.00000000000E+00  0.11315493283E+02  0.11315493283E+02  0.00000000000E+00 0.  1.
          2   -1    0    0  501    0  0.00000000000E+00 -0.00000000000E+00 -0.32084368884E+03  0.32084368884E+03  0.00000000000E+00 0. -1.
         23    2    1    2    0    0 -0.77308842058E+01 -0.10769520256E+02 -0.30416741495E+03  0.31785928332E+03  0.91328848331E+02 0.  0.
         11    1    3    3    0    0  0.38887868127E+02 -0.17745361927E+02 -0.10904370572E+03  0.11712255937E+03  0.00000000000E+00 0.  1.
        -11    1    3    3    0    0 -0.46618752333E+02  0.69758416710E+01 -0.19512370923E+03  0.20073672395E+03  0.00000000000E+00 0. -1.
         22    1    1    2    0    0  0.77308842058E+01  0.10769520256E+02 -0.53607806097E+01  0.14299898807E+02  0.00000000000E+00 0.  1.
<mgrwt>
<rscale>  0 0.56815071E+02</rscale>
<asrwt>0</asrwt>
<pdfrwt beam="1">  1        2 0.49360565E-01 0.92286010E+02</pdfrwt>
<pdfrwt beam="2">  1       -2 0.17408452E-02 0.92286010E+02</pdfrwt>
<totfact> 0.83424993E+04</totfact>
</mgrwt>
</event>
<event>
 6    1  0.3075717E-002  0.9277896E+02  0.7546771E-02  0.1413422E+00
          2   -1    0    0  501    0  0.00000000000E+00  0.00000000000E+00  0.79757645466E+03  0.79757645466E+03  0.00000000000E+00 0. -1.
         -2   -1    0    0    0  501 -0.00000000000E+00 -0.00000000000E+00 -0.37717470217E+01  0.37717470217E+01  0.00000000000E+00 0.  1.
         23    2    1    2    0    0  0.91876002842E+01 -0.87726458435E+01  0.75067186603E+03  0.75638362297E+03  0.91905186604E+02 0.  0.
         11    1    3    3    0    0  0.46040472053E+01 -0.44951691104E+02  0.58514209466E+03  0.58688424985E+03  0.00000000000E+00 0.  1.
        -11    1    3    3    0    0  0.45835530789E+01  0.36179045260E+02  0.16552977137E+03  0.16949937311E+03  0.00000000000E+00 0. -1.
         22    1    1    2    0    0 -0.91876002842E+01  0.87726458435E+01  0.43132841605E+02  0.44964578715E+02  0.00000000000E+00 0. -1.
<mgrwt>
<rscale>  0 0.56437193E+02</rscale>
<asrwt>0</asrwt>
<pdfrwt beam="1">  1        2 0.12270394E+00 0.92778956E+02</pdfrwt>
<pdfrwt beam="2">  1       -2 0.58026941E-03 0.92778956E+02</pdfrwt>
<totfact> 0.14548592E+05</totfact>
</mgrwt>
</event>
<event>
 6    1  0.3075717E-002  0.9725009E+02  0.7546771E-02  0.1409990E+00
          2   -1    0    0  501    0  0.00000000000E+00  0.00000000000E+00  0.22095497405E+03  0.22095497405E+03  0.00000000000E+00 0. -1.
         -2   -1    0    0    0  501 -0.00000000000E+00 -0.00000000000E+00 -0.39675135941E+02  0.39675135941E+02  0.00000000000E+00 0.  1.
         23    2    1    2    0    0 -0.93373081790E+01  0.69431555859E+01  0.20902666900E+03  0.23054224935E+03  0.96551476664E+02 0.  0.
         11    1    3    3    0    0 -0.51816419336E+02 -0.47481816150E+01  0.95306172488E+02  0.10858523406E+03  0.00000000000E+00 0.  1.
        -11    1    3    3    0    0  0.42479111157E+02  0.11691337201E+02  0.11372049651E+03  0.12195701529E+03  0.00000000000E+00 0. -1.
         22    1    1    2    0    0  0.93373081790E+01 -0.69431555859E+01 -0.27746830893E+02  0.30087860644E+02  0.00000000000E+00 0.  1.
<mgrwt>
<rscale>  0 0.57196168E+02</rscale>
<asrwt>0</asrwt>
<pdfrwt beam="1">  1        2 0.33993072E-01 0.97250092E+02</pdfrwt>
<pdfrwt beam="2">  1       -2 0.61038672E-02 0.97250092E+02</pdfrwt>
<totfact> 0.19830511E+04</totfact>
</mgrwt>
</event>
<event>
 6    1  0.3075717E-002  0.1014480E+03  0.7546771E-02  0.1313908E+00
         -2   -1    0    0    0  501 -0.00000000000E+00  0.00000000000E+00  0.98081556832E+01  0.98081556832E+01  0.00000000000E+00 0.  1.
          2   -1    0    0  501    0  0.00000000000E+00 -0.00000000000E+00 -0.88845256353E+03  0.88845256353E+03  0.00000000000E+00 0. -1.
         23    2    1    2    0    0 -0.49786291597E+02  0.12737268219E+02 -0.78424882879E+03  0.79078310211E+03  0.87468716079E+02 0.  0.
         13    1    3    3    0    0 -0.36219223134E+02  0.38103573144E+02 -0.23619239787E+03  0.24197223647E+03  0.00000000000E+00 0.  1.
        -13    1    3    3    0    0 -0.13567068464E+02 -0.25366304926E+02 -0.54805643091E+03  0.54881086564E+03  0.00000000000E+00 0. -1.
         22    1    1    2    0    0  0.49786291597E+02 -0.12737268219E+02 -0.94395579061E+02  0.10747761711E+03  0.00000000000E+00 0.  1.
<mgrwt>
<rscale>  0 0.85585808E+02</rscale>
<asrwt>0</asrwt>
<pdfrwt beam="1">  1        2 0.13668506E+00 0.10144796E+03</pdfrwt>
<pdfrwt beam="2">  1       -2 0.15089465E-02 0.10144796E+03</pdfrwt>
<totfact> 0.33176429E+04</totfact>
</mgrwt>
</event>
<event>
 6    1  0.3075717E-002  0.9268965E+02  0.7546771E-02  0.1402449E+00
         -4   -1    0    0    0  501 -0.00000000000E+00  0.00000000000E+00  0.27126885040E+02  0.27126885040E+02  0.00000000000E+00 0.  1.
          4   -1    0    0  501    0  0.00000000000E+00 -0.00000000000E+00 -0.10996539426E+03  0.10996539426E+03  0.00000000000E+00 0. -1.
         23    2    1    2    0    0  0.14990070849E+02 -0.20340917819E+01 -0.78196685478E+02  0.12126868043E+03  0.91446877918E+02 0.  0.
         11    1    3    3    0    0  0.48900043299E+02 -0.52346624504E+00 -0.71573731109E+02  0.86684988530E+02  0.00000000000E+00 0. -1.
        -11    1    3    3    0    0 -0.33909972450E+02 -0.15106255369E+01 -0.66229543688E+01  0.34583691903E+02  0.00000000000E+00 0.  1.
         22    1    1    2    0    0 -0.14990070849E+02  0.20340917819E+01 -0.46418237403E+01  0.15823598866E+02  0.00000000000E+00 0.  1.
<mgrwt>
<rscale>  0 0.58913506E+02</rscale>
<asrwt>0</asrwt>
<pdfrwt beam="1">  1        4 0.16917753E-01 0.92689650E+02</pdfrwt>
<pdfrwt beam="2">  1       -4 0.41733670E-02 0.92689650E+02</pdfrwt>
<totfact> 0.14150975E+04</totfact>
</mgrwt>
</event>
<event>
 6    1  0.3075717E-002  0.9040553E+02  0.7546771E-02  0.1424615E+00
          2   -1    0    0  501    0  0.00000000000E+00  0.00000000000E+00  0.36774138429E+03  0.36774138429E+03  0.00000000000E+00 0. -1.
         -2   -1    0    0    0  501 -0.00000000000E+00 -0.00000000000E+00 -0.83275717895E+01  0.83275717895E+01  0.00000000000E+00 0.  1.
         23    2    1    2    0    0 -0.11188101480E+02 -0.28918072759E+01  0.34897934335E+03  0.36049929614E+03  0.89663951902E+02 0.  0.
         13    1    3    3    0    0  0.29379145886E+02 -0.10399215599E+02  0.51670712939E+02  0.60341863359E+02  0.00000000000E+00 0.  1.
        -13    1    3    3    0    0 -0.40567247366E+02  0.75074083236E+01  0.29730863041E+03  0.30015743278E+03  0.00000000000E+00 0. -1.
         22    1    1    2    0    0  0.11188101480E+02  0.28918072759E+01  0.10434469149E+02  0.15569659934E+02  0.00000000000E+00 0.  1.
<mgrwt>
<rscale>  0 0.54056276E+02</rscale>
<asrwt>0</asrwt>
<pdfrwt beam="1">  1        2 0.56575585E-01 0.90405533E+02</pdfrwt>
<pdfrwt beam="2">  1       -2 0.12811652E-02 0.90405533E+02</pdfrwt>
<totfact> 0.11166433E+05</totfact>
</mgrwt>
</event>
<event>
 6    1  0.3075717E-002  0.9817990E+02  0.7546771E-02  0.1337175E+00
         -2   -1    0    0    0  501 -0.00000000000E+00  0.00000000000E+00  0.46039546580E+02  0.46039546580E+02  0.00000000000E+00 0.  1.
          2   -1    0    0  501    0  0.00000000000E+00 -0.00000000000E+00 -0.10022647957E+03  0.10022647957E+03  0.00000000000E+00 0. -1.
         23    2    1    2    0    0 -0.85150767248E+01 -0.36563665348E+02 -0.36241077746E+02  0.10465518771E+03  0.90718710547E+02 0.  0.
         13    1    3    3    0    0 -0.24024528199E+02 -0.17205440591E+02  0.24920284929E+02  0.38655216234E+02  0.00000000000E+00 0.  1.
        -13    1    3    3    0    0  0.15509451474E+02 -0.19358224757E+02 -0.61161362675E+02  0.65999971478E+02  0.00000000000E+00 0. -1.
         22    1    1    2    0    0  0.85150767248E+01  0.36563665348E+02 -0.17945855249E+02  0.41610838443E+02  0.00000000000E+00 0. -1.
<mgrwt>
<rscale>  0 0.77205197E+02</rscale>
<asrwt>0</asrwt>
<pdfrwt beam="1">  1        2 0.15419458E-01 0.98179899E+02</pdfrwt>
<pdfrwt beam="2">  1       -2 0.70830072E-02 0.98179899E+02</pdfrwt>
<totfact> 0.37950440E+04</totfact>
</mgrwt>
</event>
<event>
 6    1  0.3075717E-002  0.9212414E+02  0.7546771E-02  0.1412701E+00
          4   -1    0    0  501    0  0.00000000000E+00  0.00000000000E+00  0.10629654772E+03  0.10629654772E+03  0.00000000000E+00 0.  1.
         -4   -1    0    0    0  501 -0.00000000000E+00 -0.00000000000E+00 -0.26059243673E+02  0.26059243673E+02  0.00000000000E+00 0. -1.
         23    2    1    2    0    0 -0.10139464099E+02 -0.83296541087E+01  0.69476433431E+02  0.11538557612E+03  0.91184782203E+02 0.  0.
         11    1    3    3    0    0 -0.28330890535E+02  0.33221189118E+02  0.19271171686E+02  0.47724886832E+02  0.00000000000E+00 0. -1.
        -11    1    3    3    0    0  0.18191426436E+02 -0.41550843227E+02  0.50205261745E+02  0.67660689292E+02  0.00000000000E+00 0.  1.
         22    1    1    2    0    0  0.10139464099E+02  0.83296541087E+01  0.10760870614E+02  0.16970215266E+02  0.00000000000E+00 0.  1.
<mgrwt>
<rscale>  0 0.56595467E+02</rscale>
<asrwt>0</asrwt>
<pdfrwt beam="1">  1        4 0.16353315E-01 0.92124136E+02</pdfrwt>
<pdfrwt beam="2">  1       -4 0.40091145E-02 0.92124136E+02</pdfrwt>
<totfact> 0.15968037E+04</totfact>
</mgrwt>
</event>
<event>
 6    1  0.3075717E-002  0.9454663E+02  0.7546771E-02  0.1365327E+00
         -2   -1    0    0    0  501 -0.00000000000E+00  0.00000000000E+00  0.18698636633E+03  0.18698636633E+03  0.00000000000E+00 0.  1.
          2   -1    0    0  501    0  0.00000000000E+00 -0.00000000000E+00 -0.19717274917E+02  0.19717274917E+02  0.00000000000E+00 0. -1.
         23    2    1    2    0    0  0.13643939365E+02 -0.22162873778E+02  0.12031270613E+03  0.15301703049E+03  0.90893972896E+02 0.  0.
         13    1    3    3    0    0  0.40530553417E+02 -0.88545355292E+01  0.15981468245E+02  0.44458248807E+02  0.00000000000E+00 0.  1.
        -13    1    3    3    0    0 -0.26886614052E+02 -0.13308338249E+02  0.10433123789E+03  0.10855878169E+03  0.00000000000E+00 0. -1.
         22    1    1    2    0    0 -0.13643939365E+02  0.22162873778E+02  0.46956385276E+02  0.53686610749E+02  0.00000000000E+00 0. -1.
<mgrwt>
<rscale>  0 0.68483535E+02</rscale>
<asrwt>0</asrwt>
<pdfrwt beam="1">  1        2 0.30334270E-02 0.94546625E+02</pdfrwt>
<pdfrwt beam="2">  1       -2 0.28767132E-01 0.94546625E+02</pdfrwt>
<totfact> 0.29853111E+04</totfact>
</mgrwt>
</event>
<event>
 6    1  0.3075717E-002  0.9105174E+02  0.7546771E-02  0.1424736E+00
         -2   -1    0    0    0  501 -0.00000000000E+00  0.00000000000E+00  0.35952074279E+01  0.35952074279E+01  0.00000000000E+00 0.  1.
          2   -1    0    0  501    0  0.00000000000E+00 -0.00000000000E+00 -0.84796813365E+03  0.84796813365E+03  0.00000000000E+00 0. -1.
         23    2    1    2    0    0 -0.51913503768E+01 -0.10026475385E+02 -0.81540401846E+03  0.82047189620E+03  0.90348983470E+02 0.  0.
         13    1    3    3    0    0  0.81575399128E+00  0.38863340640E+02 -0.26026407410E+03  0.26315093191E+03  0.00000000000E+00 0.  1.
        -13    1    3    3    0    0 -0.60071043681E+01 -0.48889816025E+02 -0.55513994436E+03  0.55732096429E+03  0.00000000000E+00 0. -1.
         22    1    1    2    0    0  0.51913503768E+01  0.10026475385E+02 -0.28968907767E+02  0.31091444878E+02  0.00000000000E+00 0.  1.
<mgrwt>
<rscale>  0 0.54031445E+02</rscale>
<asrwt>0</asrwt>
<pdfrwt beam="1">  1        2 0.13045655E+00 0.91051739E+02</pdfrwt>
<pdfrwt beam="2">  1       -2 0.55310920E-03 0.91051739E+02</pdfrwt>
<totfact> 0.14388019E+05</totfact>
</mgrwt>
</event>
<event>
 6    1  0.3075717E-002  0.9565355E+02  0.7546771E-02  0.1347267E+00
         -2   -1    0    0    0  501 -0.00000000000E+00  0.00000000000E+00  0.22676600417E+01  0.22676600417E+01  0.00000000000E+00 0.  1.
          2   -1    0    0  501    0  0.00000000000E+00 -0.00000000000E+00 -0.30726439798E+04  0.30726439798E+04  0.00000000000E+00 0. -1.
         23    2    1    2    0    0 -0.19523396564E+02  0.27963172374E+02 -0.28743207039E+04  0.28759118747E+04  0.89367220333E+02 0.  0.
         11    1    3    3    0    0  0.34493306195E+02  0.16162596173E+02 -0.14912718638E+04  0.14917582879E+04  0.00000000000E+00 0.  1.
        -11    1    3    3    0    0 -0.54016702758E+02  0.11800576201E+02 -0.13830488401E+04  0.13841535868E+04  0.00000000000E+00 0. -1.
         22    1    1    2    0    0  0.19523396564E+02 -0.27963172374E+02 -0.19605561589E+03  0.19899976519E+03  0.00000000000E+00 0.  1.
<mgrwt>
<rscale>  0 0.73914230E+02</rscale>
<asrwt>0</asrwt>
<pdfrwt beam="1">  1        2 0.47271330E+00 0.95653552E+02</pdfrwt>
<pdfrwt beam="2">  1       -2 0.34887163E-03 0.95653552E+02</pdfrwt>
<totfact> 0.17940790E+04</totfact>
</mgrwt>
</event>
<event>
 6    1  0.3075717E-002  0.9334902E+02  0.7546771E-02  0.1377651E+00
          2   -1    0    0  501    0  0.00000000000E+00  0.00000000000E+00  0.15054743309E+03  0.15054743309E+03  0.00000000000E+00 0. -1.
         -2   -1    0    0    0  501 -0.00000000000E+00 -0.00000000000E+00 -0.22282565858E+02  0.22282565858E+02  0.00000000000E+00 0.  1.
         23    2    1    2    0    0 -0.16555081785E+02  0.14579599249E+02  0.97600632209E+02  0.13505526193E+03  0.90705043525E+02 0.  0.
         13    1    3    3    0    0 -0.28474038166E+02  0.31340316034E+02  0.10498545721E+03  0.11320305864E+03  0.00000000000E+00 0. -1.
        -13    1    3    3    0    0  0.11918956382E+02 -0.16760716785E+02 -0.73848250059E+01  0.21852203293E+02  0.00000000000E+00 0.  1.
         22    1    1    2    0    0  0.16555081785E+02 -0.14579599249E+02  0.30664235025E+02  0.37774737019E+02  0.00000000000E+00 0. -1.
<mgrwt>
<rscale>  0 0.65085284E+02</rscale>
<asrwt>0</asrwt>
<pdfrwt beam="1">  1        2 0.23161143E-01 0.93349024E+02</pdfrwt>
<pdfrwt beam="2">  1       -2 0.34280871E-02 0.93349024E+02</pdfrwt>
<totfact> 0.70171873E+04</totfact>
</mgrwt>
</event>
<event>
 6    1  0.3075717E-002  0.9104309E+02  0.7546771E-02  0.1411940E+00
          2   -1    0    0  501    0  0.00000000000E+00  0.00000000000E+00  0.12173099500E+03  0.12173099500E+03  0.00000000000E+00 0. -1.
         -2   -1    0    0    0  501 -0.00000000000E+00 -0.00000000000E+00 -0.23845309674E+02  0.23845309674E+02  0.00000000000E+00 0.  1.
         23    2    1    2    0    0 -0.13726991132E+02  0.90942157024E+00  0.94878492150E+02  0.13149438208E+03  0.89997705037E+02 0.  0.
         11    1    3    3    0    0 -0.64430491667E+01 -0.44208242417E+02  0.38971096693E+02  0.59284297732E+02  0.00000000000E+00 0.  1.
        -11    1    3    3    0    0 -0.72839419654E+01  0.45117663987E+02  0.55907395457E+02  0.72210084344E+02  0.00000000000E+00 0. -1.
         22    1    1    2    0    0  0.13726991132E+02 -0.90942157024E+00  0.30071931718E+01  0.14081922593E+02  0.00000000000E+00 0. -1.
<mgrwt>
<rscale>  0 0.56763195E+02</rscale>
<asrwt>0</asrwt>
<pdfrwt beam="1">  1        2 0.18727845E-01 0.91043090E+02</pdfrwt>
<pdfrwt beam="2">  1       -2 0.36685092E-02 0.91043090E+02</pdfrwt>
<totfact> 0.80189981E+04</totfact>
</mgrwt>
</event>
<event>
 6    1  0.3075717E-002  0.9278979E+02  0.7546771E-02  0.1421612E+00
          2   -1    0    0  501    0  0.00000000000E+00  0.00000000000E+00  0.16268309782E+03  0.16268309782E+03  0.00000000000E+00 0.  1.
         -2   -1    0    0    0  501 -0.00000000000E+00 -0.00000000000E+00 -0.19807550643E+02  0.19807550643E+02  0.00000000000E+00 0. -1.
         23    2    1    2    0    0  0.10484737933E+02 -0.39113920654E+01  0.14393296363E+03  0.17125023713E+03  0.92112523483E+02 0.  0.
         11    1    3    3    0    0 -0.14461765261E+02 -0.39928381242E+02  0.39491421161E+02  0.57991297867E+02  0.00000000000E+00 0. -1.
        -11    1    3    3    0    0  0.24946503194E+02  0.36016989176E+02  0.10444154247E+03  0.11325893927E+03  0.00000000000E+00 0.  1.
         22    1    1    2    0    0 -0.10484737933E+02  0.39113920654E+01 -0.10574164453E+01  0.11240411334E+02  0.00000000000E+00 0. -1.
<mgrwt>
<rscale>  0 0.54681214E+02</rscale>
<asrwt>0</asrwt>
<pdfrwt beam="1">  1        2 0.25028168E-01 0.92789793E+02</pdfrwt>
<pdfrwt beam="2">  1       -2 0.30473156E-02 0.92789793E+02</pdfrwt>
<totfact> 0.76478659E+04</totfact>
</mgrwt>
</event>
<event>
 6    1  0.3075717E-002  0.9357358E+02  0.7546771E-02  0.1409914E+00
          2   -1    0    0  501    0  0.00000000000E+00  0.00000000000E+00  0.10254465922E+04  0.10254465922E+04  0.00000000000E+00 0. -1.
         -2   -1    0    0    0  501 -0.00000000000E+00 -0.00000000000E+00 -0.29945325129E+01  0.29945325129E+01  0.00000000000E+00 0.  1.
         23    2    1    2    0    0 -0.55321031607E+01  0.11849583818E+02  0.96466898943E+03  0.96919671560E+03  0.92655261973E+02 0.  0.
         13    1    3    3    0    0 -0.45867192213E+02 -0.52424235014E+01  0.62711936081E+03  0.62881632853E+03  0.00000000000E+00 0. -1.
        -13    1    3    3    0    0  0.40335089052E+02  0.17092007319E+02  0.33754962861E+03  0.34038038707E+03  0.00000000000E+00 0.  1.
         22    1    1    2    0    0  0.55321031607E+01 -0.11849583818E+02  0.57783070236E+02  0.59244409085E+02  0.00000000000E+00 0.  1.
<mgrwt>
<rscale>  0 0.57213007E+02</rscale>
<asrwt>0</asrwt>
<pdfrwt beam="1">  1        2 0.15776073E+00 0.93573577E+02</pdfrwt>
<pdfrwt beam="2">  1       -2 0.46069813E-03 0.93573577E+02</pdfrwt>
<totfact> 0.14559141E+05</totfact>
</mgrwt>
</event>
<event>
 6    1  0.3075717E-002  0.9128866E+02  0.7546771E-02  0.1421050E+00
          2   -1    0    0  501    0  0.00000000000E+00  0.00000000000E+00  0.14906944346E+03  0.14906944346E+03  0.00000000000E+00 0. -1.
         -2   -1    0    0    0  501 -0.00000000000E+00 -0.00000000000E+00 -0.18140205899E+02  0.18140205899E+02  0.00000000000E+00 0.  1.
         23    2    1    2    0    0 -0.12946416214E+01  0.11782684627E+02  0.12197938910E+03  0.15235678629E+03  0.90515806403E+02 0.  0.
         13    1    3    3    0    0 -0.40463476891E+02  0.76785069018E+01  0.97862721243E+02  0.10617610202E+03  0.00000000000E+00 0. -1.
        -13    1    3    3    0    0  0.39168835270E+02  0.41041777255E+01  0.24116667855E+02  0.46180684270E+02  0.00000000000E+00 0.  1.
         22    1    1    2    0    0  0.12946416214E+01 -0.11782684627E+02  0.89498484654E+01  0.14852863074E+02  0.00000000000E+00 0.  1.
<mgrwt>
<rscale>  0 0.54799318E+02</rscale>
<asrwt>0</asrwt>
<pdfrwt beam="1">  1        2 0.22933760E-01 0.91288657E+02</pdfrwt>
<pdfrwt beam="2">  1       -2 0.27908010E-02 0.91288657E+02</pdfrwt>
<totfact> 0.95398203E+04</totfact>
</mgrwt>
</event>
<event>
 6    1  0.3075717E-002  0.1353116E+03  0.7546771E-02  0.1231758E+00
          2   -1    0    0  501    0  0.00000000000E+00  0.00000000000E+00  0.25639834020E+03  0.25639834020E+03  0.00000000000E+00 0.  1.
         -2   -1    0    0    0  501 -0.00000000000E+00 -0.00000000000E+00 -0.57022798711E+02  0.57022798711E+02  0.00000000000E+00 0. -1.
         23    2    1    2    0    0 -0.63233754415E+02  0.84421256627E+02  0.12635439906E+03  0.18513418124E+03  0.84757150924E+02 0.  0.
         11    1    3    3    0    0 -0.58187380752E+02  0.88384198381E+02  0.13675435807E+03  0.17291411815E+03  0.00000000000E+00 0.  1.
        -11    1    3    3    0    0 -0.50463736630E+01 -0.39629417540E+01 -0.10399959013E+02  0.12220063092E+02  0.00000000000E+00 0. -1.
         22    1    1    2    0    0  0.63233754415E+02 -0.84421256627E+02  0.73021142431E+02  0.12828695768E+03  0.00000000000E+00 0. -1.
<mgrwt>
<rscale>  0 0.12714258E+03</rscale>
<asrwt>0</asrwt>
<pdfrwt beam="1">  1        2 0.39445898E-01 0.13531161E+03</pdfrwt>
<pdfrwt beam="2">  1       -2 0.87727384E-02 0.13531161E+03</pdfrwt>
<totfact> 0.10018224E+04</totfact>
</mgrwt>
</event>
<event>
 6    1  0.3075717E-002  0.9161930E+02  0.7546771E-02  0.1419464E+00
         -2   -1    0    0    0  501 -0.00000000000E+00  0.00000000000E+00  0.71707344295E+02  0.71707344295E+02  0.00000000000E+00 0.  1.
          2   -1    0    0  501    0  0.00000000000E+00 -0.00000000000E+00 -0.39014717534E+02  0.39014717534E+02  0.00000000000E+00 0. -1.
         23    2    1    2    0    0  0.10876761710E+02  0.51049657893E+01  0.21081797022E+02  0.94013501500E+02  0.90828033545E+02 0.  0.
         11    1    3    3    0    0 -0.39684357936E+02  0.95926370213E+01  0.81610209764E+01  0.41634951821E+02  0.00000000000E+00 0.  1.
        -11    1    3    3    0    0  0.50561119645E+02 -0.44876712320E+01  0.12920776045E+02  0.52378549679E+02  0.00000000000E+00 0. -1.
         22    1    1    2    0    0 -0.10876761710E+02 -0.51049657893E+01  0.11610829740E+02  0.16708560328E+02  0.00000000000E+00 0. -1.
<mgrwt>
<rscale>  0 0.55134422E+02</rscale>
<asrwt>0</asrwt>
<pdfrwt beam="1">  1        2 0.60022643E-02 0.91619301E+02</pdfrwt>
<pdfrwt beam="2">  1       -2 0.11031899E-01 0.91619301E+02</pdfrwt>
<totfact> 0.59844653E+04</totfact>
</mgrwt>
</event>
<event>
 6    1  0.3075717E-002  0.9336665E+02  0.7546771E-02  0.1352327E+00
          2   -1    0    0  501    0  0.00000000000E+00  0.00000000000E+00  0.67612121978E+02  0.67612121978E+02  0.00000000000E+00 0. -1.
         -2   -1    0    0    0  501 -0.00000000000E+00 -0.00000000000E+00 -0.61395775071E+02  0.61395775071E+02  0.00000000000E+00 0.  1.
         23    2    1    2    0    0  0.32095708846E+02  0.10067628361E+02  0.14188149344E+02  0.94438527642E+02  0.87096729297E+02 0.  0.
         11    1    3    3    0    0 -0.69370568688E+01 -0.33315975138E+02  0.11845449306E+02  0.36033201726E+02  0.00000000000E+00 0. -1.
        -11    1    3    3    0    0  0.39032765714E+02  0.43383603499E+02  0.23427000383E+01  0.58405325916E+02  0.00000000000E+00 0.  1.
         22    1    1    2    0    0 -0.32095708846E+02 -0.10067628361E+02 -0.79718024362E+01  0.34569369407E+02  0.00000000000E+00 0. -1.
<mgrwt>
<rscale>  0 0.72335296E+02</rscale>
<asrwt>0</asrwt>
<pdfrwt beam="1">  1        2 0.10401865E-01 0.93366653E+02</pdfrwt>
<pdfrwt beam="2">  1       -2 0.94455039E-02 0.93366653E+02</pdfrwt>
<totfact> 0.38619187E+04</totfact>
</mgrwt>
</event>
<event>
 6    1  0.3075717E-002  0.1032447E+03  0.7546771E-02  0.1406709E+00
         -1   -1    0    0    0  501 -0.00000000000E+00  0.00000000000E+00  0.99134500505E+01  0.99134500505E+01  0.00000000000E+00 0.  1.
          1   -1    0    0  501    0  0.00000000000E+00 -0.00000000000E+00 -0.56873687185E+03  0.56873687185E+03  0.00000000000E+00 0. -1.
         23    2    1    2    0    0  0.10175442595E+02  0.11163347822E+01 -0.55895778119E+03  0.56841294490E+03  0.10273601581E+03 0.  0.
         11    1    3    3    0    0 -0.41918908977E+01 -0.36563334954E+01 -0.55151498566E+03  0.55154303561E+03  0.00000000000E+00 0. -1.
        -11    1    3    3    0    0  0.14367333493E+02  0.47726682776E+01 -0.74427955301E+01  0.16869909291E+02  0.00000000000E+00 0.  1.
         22    1    1    2    0    0 -0.10175442595E+02 -0.11163347822E+01  0.13435939058E+00  0.10237376998E+02  0.00000000000E+00 0.  1.
<mgrwt>
<rscale>  0 0.57934698E+02</rscale>
<asrwt>0</asrwt>
<pdfrwt beam="1">  1        1 0.87498006E-01 0.10324473E+03</pdfrwt>
<pdfrwt beam="2">  1       -1 0.15251457E-02 0.10324473E+03</pdfrwt>
<totfact> 0.35036713E+04</totfact>
</mgrwt>
</event>
<event>
 6    1  0.3075717E-002  0.9838819E+02  0.7546771E-02  0.1339322E+00
          1   -1    0    0  501    0  0.00000000000E+00  0.00000000000E+00  0.10785037280E+02  0.10785037280E+02  0.00000000000E+00 0. -1.
         -1   -1    0    0    0  501 -0.00000000000E+00 -0.00000000000E+00 -0.42743928146E+03  0.42743928146E+03  0.00000000000E+00 0.  1.
         23    2    1    2    0    0  0.35930316627E+02  0.76456317629E+00 -0.27458172290E+03  0.29167680592E+03  0.91589652001E+02 0.  0.
         11    1    3    3    0    0  0.21244679772E+02 -0.20798911593E+02 -0.20161381271E+02  0.35922311128E+02  0.00000000000E+00 0. -1.
        -11    1    3    3    0    0  0.14685636856E+02  0.21563474769E+02 -0.25442034163E+03  0.25575449480E+03  0.00000000000E+00 0.  1.
         22    1    1    2    0    0 -0.35930316627E+02 -0.76456317629E+00 -0.14207252128E+03  0.14654751281E+03  0.00000000000E+00 0.  1.
<mgrwt>
<rscale>  0 0.76488664E+02</rscale>
<asrwt>0</asrwt>
<pdfrwt beam="1">  1        1 0.16592367E-02 0.98388193E+02</pdfrwt>
<pdfrwt beam="2">  1       -1 0.65759882E-01 0.98388193E+02</pdfrwt>
<totfact> 0.17237539E+04</totfact>
</mgrwt>
</event>
<event>
 6    1  0.3075717E-002  0.9185844E+02  0.7546771E-02  0.1413240E+00
         -2   -1    0    0    0  501 -0.00000000000E+00  0.00000000000E+00  0.36246853898E+02  0.36246853898E+02  0.00000000000E+00 0.  1.
          2   -1    0    0  501    0  0.00000000000E+00 -0.00000000000E+00 -0.12430323636E+03  0.12430323636E+03  0.00000000000E+00 0. -1.
         23    2    1    2    0    0  0.77688015889E+01 -0.10580032828E+02 -0.10474504332E+03  0.13931797368E+03  0.90915797953E+02 0.  0.
         11    1    3    3    0    0  0.22534194206E+02 -0.12177950780E+01  0.89569868411E+01  0.24279632342E+02  0.00000000000E+00 0.  1.
        -11    1    3    3    0    0 -0.14765392617E+02 -0.93622377502E+01 -0.11370203017E+03  0.11503834134E+03  0.00000000000E+00 0. -1.
         22    1    1    2    0    0 -0.77688015889E+01  0.10580032828E+02  0.16688660863E+02  0.21232116573E+02  0.00000000000E+00 0. -1.
<mgrwt>
<rscale>  0 0.56477083E+02</rscale>
<asrwt>0</asrwt>
<pdfrwt beam="1">  1        2 0.19123575E-01 0.91858444E+02</pdfrwt>
<pdfrwt beam="2">  1       -2 0.55764391E-02 0.91858444E+02</pdfrwt>
<totfact> 0.42214188E+04</totfact>
</mgrwt>
</event>
<event>
 6    1  0.3075717E-002  0.9558356E+02  0.7546771E-02  0.1360254E+00
         -2   -1    0    0    0  501 -0.00000000000E+00  0.00000000000E+00  0.23922067454E+03  0.23922067454E+03  0.00000000000E+00 0.  1.
          2   -1    0    0  501    0  0.00000000000E+00 -0.00000000000E+00 -0.16056453042E+02  0.16056453042E+02  0.00000000000E+00 0. -1.
         23    2    1    2    0    0  0.23525171280E+02 -0.14085985412E+02  0.18563843121E+03  0.20880096589E+03  0.91566192158E+02 0.  0.
         13    1    3    3    0    0  0.32923571969E+01 -0.48320125088E+02  0.60510479025E+02  0.77506078318E+02  0.00000000000E+00 0. -1.
        -13    1    3    3    0    0  0.20232814083E+02  0.34234139675E+02  0.12512795218E+03  0.13129488757E+03  0.00000000000E+00 0.  1.
         22    1    1    2    0    0 -0.23525171280E+02  0.14085985412E+02  0.37525790295E+02  0.46476161697E+02  0.00000000000E+00 0.  1.
<mgrwt>
<rscale>  0 0.69952573E+02</rscale>
<asrwt>0</asrwt>
<pdfrwt beam="1">  1        2 0.24702237E-02 0.95583556E+02</pdfrwt>
<pdfrwt beam="2">  1       -2 0.36803178E-01 0.95583556E+02</pdfrwt>
<totfact> 0.25183081E+04</totfact>
</mgrwt>
</event>
<event>
 6    1  0.3075717E-002  0.9308559E+02  0.7546771E-02  0.1413154E+00
          2   -1    0    0  501    0  0.00000000000E+00  0.00000000000E+00  0.12946296413E+04  0.12946296413E+04  0.00000000000E+00 0. -1.
         -2   -1    0    0    0  501 -0.00000000000E+00 -0.00000000000E+00 -0.23725529186E+01  0.23725529186E+01  0.00000000000E+00 0.  1.
         23    2    1    2    0    0  0.53885843190E+01  0.11423286802E+02  0.12275266535E+04  0.12310510189E+04  0.92224713764E+02 0.  0.
         13    1    3    3    0    0 -0.50204200726E+01  0.11269904867E+02  0.20133497601E+02  0.23612985814E+02  0.00000000000E+00 0.  1.
        -13    1    3    3    0    0  0.10409004392E+02  0.15338193536E+00  0.12073931559E+04  0.12074380331E+04  0.00000000000E+00 0. -1.
         22    1    1    2    0    0 -0.53885843190E+01 -0.11423286802E+02  0.64730434915E+02  0.65951175324E+02  0.00000000000E+00 0.  1.
<mgrwt>
<rscale>  0 0.56495850E+02</rscale>
<asrwt>0</asrwt>
<pdfrwt beam="1">  1        2 0.19917323E+00 0.93085585E+02</pdfrwt>
<pdfrwt beam="2">  1       -2 0.36500918E-03 0.93085585E+02</pdfrwt>
<totfact> 0.14310485E+05</totfact>
</mgrwt>
</event>
<event>
 6    1  0.3075717E-002  0.8469828E+02  0.7546771E-02  0.1410239E+00
          1   -1    0    0  501    0  0.00000000000E+00  0.00000000000E+00  0.21318833862E+02  0.21318833862E+02  0.00000000000E+00 0. -1.
         -1   -1    0    0    0  501 -0.00000000000E+00 -0.00000000000E+00 -0.12434867672E+03  0.12434867672E+03  0.00000000000E+00 0.  1.
         23    2    1    2    0    0 -0.16826866236E+02  0.49683186122E+01 -0.78299482017E+02  0.11534559830E+03  0.82861152210E+02 0.  0.
         13    1    3    3    0    0  0.24966383654E+02  0.18434549256E+02 -0.73262284280E+01  0.31887717729E+02  0.00000000000E+00 0. -1.
        -13    1    3    3    0    0 -0.41793249890E+02 -0.13466230643E+02 -0.70973253589E+02  0.83457880569E+02  0.00000000000E+00 0.  1.
         22    1    1    2    0    0  0.16826866236E+02 -0.49683186122E+01 -0.24730360839E+02  0.30321912281E+02  0.00000000000E+00 0. -1.
<mgrwt>
<rscale>  0 0.57140545E+02</rscale>
<asrwt>0</asrwt>
<pdfrwt beam="1">  1        1 0.32798205E-02 0.84698277E+02</pdfrwt>
<pdfrwt beam="2">  1       -1 0.19130566E-01 0.84698277E+02</pdfrwt>
<totfact> 0.55227944E+04</totfact>
</mgrwt>
</event>
<event>
 6    1  0.3075717E-002  0.9799636E+02  0.7546771E-02  0.1382000E+00
          2   -1    0    0  501    0  0.00000000000E+00  0.00000000000E+00  0.15045964513E+04  0.15045964513E+04  0.00000000000E+00 0. -1.
         -2   -1    0    0    0  501 -0.00000000000E+00 -0.00000000000E+00 -0.27934187594E+01  0.27934187594E+01  0.00000000000E+00 0.  1.
         23    2    1    2    0    0 -0.80972963073E+01  0.15808867928E+02  0.14324612619E+04  0.14358093722E+04  0.96373233048E+02 0.  0.
         11    1    3    3    0    0 -0.20828519253E+02 -0.12318499449E+02  0.96379287962E+02  0.99370718982E+02  0.00000000000E+00 0.  1.
        -11    1    3    3    0    0  0.12731222945E+02  0.28127367377E+02  0.13360819739E+04  0.13364386533E+04  0.00000000000E+00 0. -1.
         22    1    1    2    0    0  0.80972963073E+01 -0.15808867928E+02  0.69341770592E+02  0.71580497773E+02  0.00000000000E+00 0.  1.
<mgrwt>
<rscale>  0 0.63941093E+02</rscale>
<asrwt>0</asrwt>
<pdfrwt beam="1">  1        2 0.23147573E+00 0.97996360E+02</pdfrwt>
<pdfrwt beam="2">  1       -2 0.42975793E-03 0.97996360E+02</pdfrwt>
<totfact> 0.89096299E+04</totfact>
</mgrwt>
</event>
<event>
 6    1  0.3075717E-002  0.9380942E+02  0.7546771E-02  0.1412688E+00
         -2   -1    0    0    0  501 -0.00000000000E+00  0.00000000000E+00  0.51423425464E+01  0.51423425464E+01  0.00000000000E+00 0.  1.
          2   -1    0    0  501    0  0.00000000000E+00 -0.00000000000E+00 -0.72574575840E+03  0.72574575840E+03  0.00000000000E+00 0. -1.
         23    2    1    2    0    0  0.11049115718E+02  0.56941976113E+01 -0.70359776359E+03  0.70982393579E+03  0.92982256662E+02 0.  0.
         11    1    3    3    0    0  0.49167871124E+01 -0.39122303192E+02 -0.48470972606E+03  0.48631085525E+03  0.00000000000E+00 0. -1.
        -11    1    3    3    0    0  0.61323286056E+01  0.44816500803E+02 -0.21888803753E+03  0.22351308054E+03  0.00000000000E+00 0.  1.
         22    1    1    2    0    0 -0.11049115718E+02 -0.56941976113E+01 -0.17005652259E+02  0.21064165147E+02  0.00000000000E+00 0.  1.
<mgrwt>
<rscale>  0 0.56598288E+02</rscale>
<asrwt>0</asrwt>
<pdfrwt beam="1">  1        2 0.11165321E+00 0.93809418E+02</pdfrwt>
<pdfrwt beam="2">  1       -2 0.79112953E-03 0.93809418E+02</pdfrwt>
<totfact> 0.10548146E+05</totfact>
</mgrwt>
</event>
<event>
 6    1  0.3075717E-002  0.9033952E+02  0.7546771E-02  0.1418082E+00
         -2   -1    0    0    0  501 -0.00000000000E+00  0.00000000000E+00  0.48131253768E+02  0.48131253768E+02  0.00000000000E+00 0.  1.
          2   -1    0    0  501    0  0.00000000000E+00 -0.00000000000E+00 -0.60254951800E+02  0.60254951800E+02  0.00000000000E+00 0. -1.
         23    2    1    2    0    0 -0.12572466444E+02  0.24176249995E+01 -0.21074111441E+02  0.92765010886E+02  0.89427720805E+02 0.  0.
         13    1    3    3    0    0  0.29894203122E+02  0.20940435673E+02  0.89199640265E+01  0.37573008726E+02  0.00000000000E+00 0.  1.
        -13    1    3    3    0    0 -0.42466669566E+02 -0.18522810673E+02 -0.29994075468E+02  0.55192002160E+02  0.00000000000E+00 0. -1.
         22    1    1    2    0    0  0.12572466444E+02 -0.24176249995E+01  0.89504134093E+01  0.15621194683E+02  0.00000000000E+00 0.  1.
<mgrwt>
<rscale>  0 0.55428691E+02</rscale>
<asrwt>0</asrwt>
<pdfrwt beam="1">  1        2 0.92699926E-02 0.90339521E+02</pdfrwt>
<pdfrwt beam="2">  1       -2 0.74048083E-02 0.90339521E+02</pdfrwt>
<totfact> 0.64231737E+04</totfact>
</mgrwt>
</event>
<event>
 6    1  0.3075717E-002  0.9630033E+02  0.7546771E-02  0.1402483E+00
         -2   -1    0    0    0  501 -0.00000000000E+00  0.00000000000E+00  0.20431259037E+01  0.20431259037E+01  0.00000000000E+00 0. -1.
          2   -1    0    0  501    0  0.00000000000E+00 -0.00000000000E+00 -0.19186703477E+04  0.19186703477E+04  0.00000000000E+00 0.  1.
         23    2    1    2    0    0 -0.11172399471E+02  0.75453382566E+01 -0.18604702415E+04  0.18629608886E+04  0.95351970528E+02 0.  0.
         11    1    3    3    0    0 -0.23064127960E+02  0.45365028924E+02 -0.13476116180E+04  0.13485722127E+04  0.00000000000E+00 0.  1.
        -11    1    3    3    0    0  0.11891728489E+02 -0.37819690667E+02 -0.51285862354E+03  0.51438867596E+03  0.00000000000E+00 0. -1.
         22    1    1    2    0    0  0.11172399471E+02 -0.75453382566E+01 -0.56156980297E+02  0.57752585011E+02  0.00000000000E+00 0. -1.
<mgrwt>
<rscale>  0 0.58905590E+02</rscale>
<asrwt>0</asrwt>
<pdfrwt beam="1">  1        2 0.29518011E+00 0.96300327E+02</pdfrwt>
<pdfrwt beam="2">  1       -2 0.31432700E-03 0.96300327E+02</pdfrwt>
<totfact> 0.85072490E+04</totfact>
</mgrwt>
</event>
<event>
 6    1  0.3075717E-002  0.1070644E+03  0.7546771E-02  0.1396867E+00
         -4   -1    0    0    0  501 -0.00000000000E+00  0.00000000000E+00  0.21632893184E+02  0.21632893184E+02  0.00000000000E+00 0.  1.
          4   -1    0    0  501    0  0.00000000000E+00 -0.00000000000E+00 -0.22949583952E+03  0.22949583952E+03  0.00000000000E+00 0. -1.
         23    2    1    2    0    0 -0.10203973985E+02  0.32971190663E+01 -0.21362683837E+03  0.23895439369E+03  0.10652597858E+03 0.  0.
         13    1    3    3    0    0 -0.25294989113E+02  0.26186374228E+02 -0.20774882162E+03  0.21091499604E+03  0.00000000000E+00 0. -1.
        -13    1    3    3    0    0  0.15091015128E+02 -0.22889255162E+02 -0.58780167462E+01  0.28039397646E+02  0.00000000000E+00 0.  1.
         22    1    1    2    0    0  0.10203973985E+02 -0.32971190663E+01  0.57638920301E+01  0.12174339020E+02  0.00000000000E+00 0.  1.
<mgrwt>
<rscale>  0 0.60230597E+02</rscale>
<asrwt>0</asrwt>
<pdfrwt beam="1">  1        4 0.35307051E-01 0.10706436E+03</pdfrwt>
<pdfrwt beam="2">  1       -4 0.33281375E-02 0.10706436E+03</pdfrwt>
<totfact> 0.54699922E+03</totfact>
</mgrwt>
</event>
<event>
 6    1  0.3075717E-002  0.9496200E+02  0.7546771E-02  0.1392601E+00
          2   -1    0    0  501    0  0.00000000000E+00  0.00000000000E+00  0.29892691573E+03  0.29892691573E+03  0.00000000000E+00 0. -1.
         -2   -1    0    0    0  501 -0.00000000000E+00 -0.00000000000E+00 -0.10406511544E+02  0.10406511544E+02  0.00000000000E+00 0.  1.
         23    2    1    2    0    0 -0.10289080713E+02  0.12835909256E+02  0.24024419091E+03  0.25833128499E+03  0.93526230518E+02 0.  0.
         13    1    3    3    0    0 -0.29905873825E+02  0.24732073545E+02  0.22992195952E+03  0.23317406421E+03  0.00000000000E+00 0. -1.
        -13    1    3    3    0    0  0.19616793112E+02 -0.11896164289E+02  0.10322231385E+02  0.25157220784E+02  0.00000000000E+00 0.  1.
         22    1    1    2    0    0  0.10289080713E+02 -0.12835909256E+02  0.48276213277E+02  0.51002142275E+02  0.00000000000E+00 0. -1.
<mgrwt>
<rscale>  0 0.61264449E+02</rscale>
<asrwt>0</asrwt>
<pdfrwt beam="1">  1        2 0.45988750E-01 0.94962001E+02</pdfrwt>
<pdfrwt beam="2">  1       -2 0.16010020E-02 0.94962001E+02</pdfrwt>
<totfact> 0.10168993E+05</totfact>
</mgrwt>
</event>
<event>
 6    1  0.3075717E-002  0.1146342E+03  0.7546771E-02  0.1278417E+00
          4   -1    0    0  501    0  0.00000000000E+00  0.00000000000E+00  0.44242701368E+02  0.44242701368E+02  0.00000000000E+00 0.  1.
         -4   -1    0    0    0  501 -0.00000000000E+00 -0.00000000000E+00 -0.19124720452E+03  0.19124720452E+03  0.00000000000E+00 0. -1.
         23    2    1    2    0    0 -0.68724138528E+02  0.32715348016E+01 -0.83075268580E+02  0.14157155204E+03  0.91691296978E+02 0.  0.
         13    1    3    3    0    0 -0.67115521170E+02 -0.61184142734E+01 -0.10301188036E+02  0.68176554989E+02  0.00000000000E+00 0.  1.
        -13    1    3    3    0    0 -0.16086173577E+01  0.93899490750E+01 -0.72774080543E+02  0.73394997052E+02  0.00000000000E+00 0. -1.
         22    1    1    2    0    0  0.68724138528E+02 -0.32715348016E+01 -0.63929234576E+02  0.93918353850E+02  0.00000000000E+00 0. -1.
<mgrwt>
<rscale>  0 0.10089878E+03</rscale>
<asrwt>0</asrwt>
<pdfrwt beam="1">  1        4 0.68065694E-02 0.11463422E+03</pdfrwt>
<pdfrwt beam="2">  1       -4 0.29422647E-01 0.11463422E+03</pdfrwt>
<totfact> 0.25101882E+03</totfact>
</mgrwt>
</event>
<event>
 6    1  0.3075717E-002  0.9468244E+02  0.7546771E-02  0.1369989E+00
         -2   -1    0    0    0  501 -0.00000000000E+00  0.00000000000E+00  0.21425433524E+02  0.21425433524E+02  0.00000000000E+00 0. -1.
          2   -1    0    0  501    0  0.00000000000E+00 -0.00000000000E+00 -0.50196673315E+03  0.50196673315E+03  0.00000000000E+00 0.  1.
         23    2    1    2    0    0  0.11294628668E+02  0.21156832302E+02 -0.48890797961E+03  0.49799174298E+03  0.91594668834E+02 0.  0.
         13    1    3    3    0    0  0.65277962070E+01  0.54508877675E+02 -0.21003712994E+03  0.21709312707E+03  0.00000000000E+00 0. -1.
        -13    1    3    3    0    0  0.47668324613E+01 -0.33352045373E+02 -0.27887084967E+03  0.28089861591E+03  0.00000000000E+00 0.  1.
         22    1    1    2    0    0 -0.11294628668E+02 -0.21156832302E+02  0.83666799864E+01  0.25400423693E+02  0.00000000000E+00 0. -1.
<mgrwt>
<rscale>  0 0.67170341E+02</rscale>
<asrwt>0</asrwt>
<pdfrwt beam="1">  1        2 0.77225651E-01 0.94682435E+02</pdfrwt>
<pdfrwt beam="2">  1       -2 0.32962205E-02 0.94682435E+02</pdfrwt>
<totfact> 0.20714149E+04</totfact>
</mgrwt>
</event>
<event>
 6    1  0.3075717E-002  0.9559890E+02  0.7546771E-02  0.1387957E+00
          2   -1    0    0  501    0  0.00000000000E+00  0.00000000000E+00  0.73743646057E+02  0.73743646057E+02  0.00000000000E+00 0. -1.
         -2   -1    0    0    0  501 -0.00000000000E+00 -0.00000000000E+00 -0.80901979525E+02  0.80901979525E+02  0.00000000000E+00 0.  1.
         23    2    1    2    0    0  0.17291671685E+02 -0.16789318671E+01  0.40571909614E+02  0.10385195642E+03  0.94007065061E+02 0.  0.
         11    1    3    3    0    0  0.24045953061E+02 -0.43381594797E+02  0.36148426627E+02  0.61374908337E+02  0.00000000000E+00 0.  1.
        -11    1    3    3    0    0 -0.67542813760E+01  0.41702662930E+02  0.44234829869E+01  0.42477048086E+02  0.00000000000E+00 0. -1.
         22    1    1    2    0    0 -0.17291671685E+02  0.16789318671E+01 -0.47730243083E+02  0.50793669159E+02  0.00000000000E+00 0.  1.
<mgrwt>
<rscale>  0 0.62417776E+02</rscale>
<asrwt>0</asrwt>
<pdfrwt beam="1">  1        2 0.11345176E-01 0.95598896E+02</pdfrwt>
<pdfrwt beam="2">  1       -2 0.12446458E-01 0.95598896E+02</pdfrwt>
<totfact> 0.22638665E+04</totfact>
</mgrwt>
</event>
<event>
 6    1  0.3075717E-002  0.9370183E+02  0.7546771E-02  0.1426054E+00
          2   -1    0    0  501    0  0.00000000000E+00  0.00000000000E+00  0.20613738799E+03  0.20613738799E+03  0.00000000000E+00 0. -1.
         -2   -1    0    0    0  501 -0.00000000000E+00 -0.00000000000E+00 -0.16673260841E+02  0.16673260841E+02  0.00000000000E+00 0.  1.
         23    2    1    2    0    0 -0.98251764309E+01  0.25601419540E+01  0.19080294840E+03  0.21256951310E+03  0.93150117355E+02 0.  0.
         13    1    3    3    0    0  0.15965864370E+02  0.42293897688E+02  0.10963685243E+03  0.11859140786E+03  0.00000000000E+00 0. -1.
        -13    1    3    3    0    0 -0.25791040801E+02 -0.39733755734E+02  0.81166095969E+02  0.93978105243E+02  0.00000000000E+00 0.  1.
         22    1    1    2    0    0  0.98251764309E+01 -0.25601419540E+01 -0.13388212503E+01  0.10241135731E+02  0.00000000000E+00 0.  1.
<mgrwt>
<rscale>  0 0.53760375E+02</rscale>
<asrwt>0</asrwt>
<pdfrwt beam="1">  1        2 0.31713443E-01 0.93701829E+02</pdfrwt>
<pdfrwt beam="2">  1       -2 0.25651172E-02 0.93701829E+02</pdfrwt>
<totfact> 0.76211891E+04</totfact>
</mgrwt>
</event>
<event>
 6    1  0.3075717E-002  0.1208430E+03  0.7546771E-02  0.1303110E+00
         -2   -1    0    0    0  501 -0.00000000000E+00  0.00000000000E+00  0.14156350163E+02  0.14156350163E+02  0.00000000000E+00 0.  1.
          2   -1    0    0  501    0  0.00000000000E+00 -0.00000000000E+00 -0.69475453699E+03  0.69475453699E+03  0.00000000000E+00 0. -1.
         23    2    1    2    0    0 -0.33635255678E+02  0.15426314247E+02 -0.64928865596E+03  0.66043833494E+03  0.11503796718E+03 0.  0.
         11    1    3    3    0    0 -0.61258016126E+02 -0.39067425641E+01 -0.18480062901E+03  0.19472821999E+03  0.00000000000E+00 0.  1.
        -11    1    3    3    0    0  0.27622760447E+02  0.19333056811E+02 -0.46448802695E+03  0.46571011495E+03  0.00000000000E+00 0. -1.
         22    1    1    2    0    0  0.33635255678E+02 -0.15426314247E+02 -0.31309530864E+02  0.48472552220E+02  0.00000000000E+00 0.  1.
<mgrwt>
<rscale>  0 0.89893557E+02</rscale>
<asrwt>0</asrwt>
<pdfrwt beam="1">  1        2 0.10688532E+00 0.12084302E+03</pdfrwt>
<pdfrwt beam="2">  1       -2 0.21778999E-02 0.12084302E+03</pdfrwt>
<totfact> 0.26881398E+04</totfact>
</mgrwt>
</event>
<event>
 6    1  0.3075717E-002  0.9445639E+02  0.7546771E-02  0.1367984E+00
          1   -1    0    0  501    0  0.00000000000E+00  0.00000000000E+00  0.45885827512E+03  0.45885827512E+03  0.00000000000E+00 0. -1.
         -1   -1    0    0    0  501 -0.00000000000E+00 -0.00000000000E+00 -0.11379203759E+02  0.11379203759E+02  0.00000000000E+00 0.  1.
         23    2    1    2    0    0 -0.28938087340E+01  0.24803806623E+02  0.42872608447E+03  0.43900804614E+03  0.91095587807E+02 0.  0.
         11    1    3    3    0    0  0.15051212981E+02  0.52843042422E+02  0.33653060145E+03  0.34098646873E+03  0.00000000000E+00 0. -1.
        -11    1    3    3    0    0 -0.17945021715E+02 -0.28039235799E+02  0.92195483023E+02  0.98021577412E+02  0.00000000000E+00 0.  1.
         22    1    1    2    0    0  0.28938087340E+01 -0.24803806623E+02  0.18752986893E+02  0.31229432742E+02  0.00000000000E+00 0.  1.
<mgrwt>
<rscale>  0 0.67730927E+02</rscale>
<asrwt>0</asrwt>
<pdfrwt beam="1">  1        1 0.70593566E-01 0.94456387E+02</pdfrwt>
<pdfrwt beam="2">  1       -1 0.17506471E-02 0.94456387E+02</pdfrwt>
<totfact> 0.37631398E+04</totfact>
</mgrwt>
</event>
<event>
 6    1  0.3075717E-002  0.9249158E+02  0.7546771E-02  0.1422428E+00
          3   -1    0    0  501    0  0.00000000000E+00  0.00000000000E+00  0.99808222088E+02  0.99808222088E+02  0.00000000000E+00 0. -1.
         -3   -1    0    0    0  501 -0.00000000000E+00 -0.00000000000E+00 -0.27598499925E+02  0.27598499925E+02  0.00000000000E+00 0.  1.
         23    2    1    2    0    0  0.41080730822E+01  0.10374977690E+02  0.70089473330E+02  0.11604838227E+03  0.91815991690E+02 0.  0.
         13    1    3    3    0    0  0.63819439050E+01  0.47193431134E+02  0.62179264807E+02  0.78321198421E+02  0.00000000000E+00 0. -1.
        -13    1    3    3    0    0 -0.22738708228E+01 -0.36818453444E+02  0.79102085235E+01  0.37727183852E+02  0.00000000000E+00 0.  1.
         22    1    1    2    0    0 -0.41080730822E+01 -0.10374977690E+02  0.21202488331E+01  0.11358339739E+02  0.00000000000E+00 0.  1.
<mgrwt>
<rscale>  0 0.54510478E+02</rscale>
<asrwt>0</asrwt>
<pdfrwt beam="1">  1        3 0.15355111E-01 0.92491582E+02</pdfrwt>
<pdfrwt beam="2">  1       -3 0.42459231E-02 0.92491582E+02</pdfrwt>
<totfact> 0.21565432E+04</totfact>
</mgrwt>
</event>
<event>
 6    1  0.3075717E-002  0.9435141E+02  0.7546771E-02  0.1400195E+00
          2   -1    0    0  501    0  0.00000000000E+00  0.00000000000E+00  0.10210321090E+04  0.10210321090E+04  0.00000000000E+00 0. -1.
         -2   -1    0    0    0  501 -0.00000000000E+00 -0.00000000000E+00 -0.30617088756E+01  0.30617088756E+01  0.00000000000E+00 0.  1.
         23    2    1    2    0    0  0.10432176880E+02  0.10585450250E+02  0.93970417992E+03  0.94442899944E+03  0.93173532451E+02 0.  0.
         13    1    3    3    0    0  0.10141847920E+02  0.20823173250E+02  0.93010050262E+03  0.93038884699E+03  0.00000000000E+00 0. -1.
        -13    1    3    3    0    0  0.29032896034E+00 -0.10237723000E+02  0.96036772958E+01  0.14040152447E+02  0.00000000000E+00 0.  1.
         22    1    1    2    0    0 -0.10432176880E+02 -0.10585450250E+02  0.78266220160E+02  0.79664818393E+02  0.00000000000E+00 0.  1.
<mgrwt>
<rscale>  0 0.59440351E+02</rscale>
<asrwt>0</asrwt>
<pdfrwt beam="1">  1        2 0.15708159E+00 0.94351413E+02</pdfrwt>
<pdfrwt beam="2">  1       -2 0.47103295E-03 0.94351413E+02</pdfrwt>
<totfact> 0.14213207E+05</totfact>
</mgrwt>
</event>
<event>
 6    1  0.3075717E-002  0.9658945E+02  0.7546771E-02  0.1381250E+00
          2   -1    0    0  501    0  0.00000000000E+00  0.00000000000E+00  0.54646836967E+03  0.54646836967E+03  0.00000000000E+00 0. -1.
         -2   -1    0    0    0  501 -0.00000000000E+00 -0.00000000000E+00 -0.19250586750E+02  0.19250586750E+02  0.00000000000E+00 0.  1.
         23    2    1    2    0    0  0.88149670469E+01  0.16579366001E+02  0.53625213650E+03  0.54488152459E+03  0.94746730363E+02 0.  0.
         13    1    3    3    0    0 -0.39023655890E+02  0.26916830355E+02  0.28307532413E+03  0.28701742213E+03  0.00000000000E+00 0. -1.
        -13    1    3    3    0    0  0.47838622937E+02 -0.10337464354E+02  0.25317681237E+03  0.25786410246E+03  0.00000000000E+00 0.  1.
         22    1    1    2    0    0 -0.88149670469E+01 -0.16579366001E+02 -0.90343535766E+01  0.20837431837E+02  0.00000000000E+00 0.  1.
<mgrwt>
<rscale>  0 0.64136363E+02</rscale>
<asrwt>0</asrwt>
<pdfrwt beam="1">  1        2 0.84072045E-01 0.96589450E+02</pdfrwt>
<pdfrwt beam="2">  1       -2 0.29616291E-02 0.96589450E+02</pdfrwt>
<totfact> 0.22112653E+04</totfact>
</mgrwt>
</event>
<event>
 6    1  0.3075717E-002  0.9414332E+02  0.7546771E-02  0.1394445E+00
          2   -1    0    0  501    0  0.00000000000E+00  0.00000000000E+00  0.18273969418E+02  0.18273969418E+02  0.00000000000E+00 0. -1.
         -2   -1    0    0    0  501 -0.00000000000E+00 -0.00000000000E+00 -0.19913714129E+03  0.19913714129E+03  0.00000000000E+00 0.  1.
         23    2    1    2    0    0  0.59707316901E+01  0.15267047024E+02 -0.17713639597E+03  0.20059976869E+03  0.92705081090E+02 0.  0.
         13    1    3    3    0    0  0.12010112785E+02  0.44045735050E+02 -0.16038795547E+03  0.16675900529E+03  0.00000000000E+00 0.  1.
        -13    1    3    3    0    0 -0.60393810944E+01 -0.28778688026E+02 -0.16748440503E+02  0.33840763404E+02  0.00000000000E+00 0. -1.
         22    1    1    2    0    0 -0.59707316901E+01 -0.15267047024E+02 -0.37267759009E+01  0.16811342016E+02  0.00000000000E+00 0. -1.
<mgrwt>
<rscale>  0 0.60814498E+02</rscale>
<asrwt>0</asrwt>
<pdfrwt beam="1">  1        2 0.28113798E-02 0.94143319E+02</pdfrwt>
<pdfrwt beam="2">  1       -2 0.30636485E-01 0.94143319E+02</pdfrwt>
<totfact> 0.29511922E+04</totfact>
</mgrwt>
</event>
<event>
 6    1  0.3075717E-002  0.9238020E+02  0.7546771E-02  0.1393019E+00
          2   -1    0    0  501    0  0.00000000000E+00  0.00000000000E+00  0.82129359087E+03  0.82129359087E+03  0.00000000000E+00 0. -1.
         -2   -1    0    0    0  501 -0.00000000000E+00 -0.00000000000E+00 -0.43007047386E+01  0.43007047386E+01  0.00000000000E+00 0.  1.
         23    2    1    2    0    0 -0.85563107171E+01  0.15551180901E+02  0.76701366721E+03  0.77255683710E+03  0.90658982956E+02 0.  0.
         13    1    3    3    0    0  0.31262798208E+02 -0.18752766517E+02  0.21734922115E+03  0.22038537324E+03  0.00000000000E+00 0.  1.
        -13    1    3    3    0    0 -0.39819108925E+02  0.34303947419E+02  0.54966444606E+03  0.55217146386E+03  0.00000000000E+00 0. -1.
         22    1    1    2    0    0  0.85563107171E+01 -0.15551180901E+02  0.49979218922E+02  0.53037458504E+02  0.00000000000E+00 0.  1.
<mgrwt>
<rscale>  0 0.61161981E+02</rscale>
<asrwt>0</asrwt>
<pdfrwt beam="1">  1        2 0.12635274E+00 0.92380197E+02</pdfrwt>
<pdfrwt beam="2">  1       -2 0.66164754E-03 0.92380197E+02</pdfrwt>
<totfact> 0.11662608E+05</totfact>
</mgrwt>
</event>
<event>
 6    1  0.3075717E-002  0.9369905E+02  0.7546771E-02  0.1388069E+00
         -1   -1    0    0    0  501 -0.00000000000E+00  0.00000000000E+00  0.49576910413E+01  0.49576910413E+01  0.00000000000E+00 0.  1.
          1   -1    0    0  501    0  0.00000000000E+00 -0.00000000000E+00 -0.75037598141E+03  0.75037598141E+03  0.00000000000E+00 0. -1.
         23    2    1    2    0    0 -0.16135091066E+01 -0.18347175087E+02 -0.70120438877E+03  0.70743699887E+03  0.91871052562E+02 0.  0.
         13    1    3    3    0    0 -0.23256814773E+02 -0.47102972516E+02 -0.52319939318E+03  0.52582998628E+03  0.00000000000E+00 0. -1.
        -13    1    3    3    0    0  0.21643305667E+02  0.28755797429E+02 -0.17800499559E+03  0.18160701259E+03  0.00000000000E+00 0.  1.
         22    1    1    2    0    0  0.16135091066E+01  0.18347175087E+02 -0.44213901604E+02  0.47896673583E+02  0.00000000000E+00 0.  1.
<mgrwt>
<rscale>  0 0.62389563E+02</rscale>
<asrwt>0</asrwt>
<pdfrwt beam="1">  1        1 0.11544247E+00 0.93699053E+02</pdfrwt>
<pdfrwt beam="2">  1       -1 0.76272165E-03 0.93699053E+02</pdfrwt>
<totfact> 0.62983607E+04</totfact>
</mgrwt>
</event>
<event>
 6    1  0.3075717E-002  0.9095696E+02  0.7546771E-02  0.1429685E+00
         -1   -1    0    0    0  501 -0.00000000000E+00  0.00000000000E+00  0.26868943122E+03  0.26868943122E+03  0.00000000000E+00 0.  1.
          1   -1    0    0  501    0  0.00000000000E+00 -0.00000000000E+00 -0.97278954746E+01  0.97278954746E+01  0.00000000000E+00 0. -1.
         23    2    1    2    0    0 -0.71832762386E+01 -0.76639704518E+01  0.21991812332E+03  0.23798560704E+03  0.90348393964E+02 0.  0.
         11    1    3    3    0    0 -0.13155665826E+02  0.63282252497E+01  0.22213258013E+03  0.22261177223E+03  0.00000000000E+00 0.  1.
        -11    1    3    3    0    0  0.59723895872E+01 -0.13992195701E+02 -0.22144568081E+01  0.15373834814E+02  0.00000000000E+00 0. -1.
         22    1    1    2    0    0  0.71832762386E+01  0.76639704518E+01  0.39043412420E+02  0.40431719652E+02  0.00000000000E+00 0.  1.
<mgrwt>
<rscale>  0 0.53023275E+02</rscale>
<asrwt>0</asrwt>
<pdfrwt beam="1">  1        1 0.14965995E-02 0.90956958E+02</pdfrwt>
<pdfrwt beam="2">  1       -1 0.41336830E-01 0.90956958E+02</pdfrwt>
<totfact> 0.45972844E+04</totfact>
</mgrwt>
</event>
<event>
 6    1  0.3075717E-002  0.9658639E+02  0.7546771E-02  0.1345467E+00
         -1   -1    0    0    0  501 -0.00000000000E+00  0.00000000000E+00  0.76767694776E+02  0.76767694776E+02  0.00000000000E+00 0.  1.
          1   -1    0    0  501    0  0.00000000000E+00 -0.00000000000E+00 -0.12033761572E+03  0.12033761572E+03  0.00000000000E+00 0. -1.
         23    2    1    2    0    0 -0.19700312939E+02  0.27912364580E+02 -0.94925134649E+02  0.13542419182E+03  0.90342283106E+02 0.  0.
         13    1    3    3    0    0 -0.40905571315E+02 -0.23068904692E+01 -0.89076198493E+02  0.98046706453E+02  0.00000000000E+00 0. -1.
        -13    1    3    3    0    0  0.21205258375E+02  0.30219255050E+02 -0.58489361552E+01  0.37377485371E+02  0.00000000000E+00 0.  1.
         22    1    1    2    0    0  0.19700312939E+02 -0.27912364580E+02  0.51355213703E+02  0.61681118674E+02  0.00000000000E+00 0.  1.
<mgrwt>
<rscale>  0 0.74486955E+02</rscale>
<asrwt>0</asrwt>
<pdfrwt beam="1">  1        1 0.18513479E-01 0.96586389E+02</pdfrwt>
<pdfrwt beam="2">  1       -1 0.11810415E-01 0.96586389E+02</pdfrwt>
<totfact> 0.12037535E+04</totfact>
</mgrwt>
</event>
<event>
 6    1  0.3075717E-002  0.9195406E+02  0.7546771E-02  0.1416427E+00
         -2   -1    0    0    0  501 -0.00000000000E+00  0.00000000000E+00  0.13854373132E+02  0.13854373132E+02  0.00000000000E+00 0.  1.
          2   -1    0    0  501    0  0.00000000000E+00 -0.00000000000E+00 -0.19924654766E+03  0.19924654766E+03  0.00000000000E+00 0. -1.
         23    2    1    2    0    0  0.36685730159E+01 -0.11901977871E+02 -0.17024077010E+03  0.19348764566E+03  0.91106716078E+02 0.  0.
         11    1    3    3    0    0  0.32769504814E+02 -0.26440302344E+02 -0.14851723094E+03  0.15437065110E+03  0.00000000000E+00 0. -1.
        -11    1    3    3    0    0 -0.29100931798E+02  0.14538324473E+02 -0.21723539151E+02  0.39116994557E+02  0.00000000000E+00 0.  1.
         22    1    1    2    0    0 -0.36685730159E+01  0.11901977871E+02 -0.15151404437E+02  0.19613275137E+02  0.00000000000E+00 0. -1.
<mgrwt>
<rscale>  0 0.55784056E+02</rscale>
<asrwt>0</asrwt>
<pdfrwt beam="1">  1        2 0.30653314E-01 0.91954060E+02</pdfrwt>
<pdfrwt beam="2">  1       -2 0.21314421E-02 0.91954060E+02</pdfrwt>
<totfact> 0.10296126E+05</totfact>
</mgrwt>
</event>
<event>
 6    1  0.3075717E-002  0.9273358E+02  0.7546771E-02  0.1401416E+00
          2   -1    0    0  501    0  0.00000000000E+00  0.00000000000E+00  0.13764800295E+04  0.13764800295E+04  0.00000000000E+00 0. -1.
         -2   -1    0    0    0  501 -0.00000000000E+00 -0.00000000000E+00 -0.29327803772E+01  0.29327803772E+01  0.00000000000E+00 0.  1.
         23    2    1    2    0    0 -0.14002766652E+02  0.62988314058E+01  0.13301644228E+04  0.13333930058E+04  0.91453613285E+02 0.  0.
         13    1    3    3    0    0 -0.45131947637E+02  0.14605106551E+02  0.42208484047E+03  0.42474205630E+03  0.00000000000E+00 0. -1.
        -13    1    3    3    0    0  0.31129180985E+02 -0.83062751456E+01  0.90807958237E+03  0.90865094951E+03  0.00000000000E+00 0.  1.
         22    1    1    2    0    0  0.14002766652E+02 -0.62988314058E+01  0.43382826323E+02  0.46019804115E+02  0.00000000000E+00 0.  1.
<mgrwt>
<rscale>  0 0.59154100E+02</rscale>
<asrwt>0</asrwt>
<pdfrwt beam="1">  1        2 0.21176564E+00 0.92733576E+02</pdfrwt>
<pdfrwt beam="2">  1       -2 0.45119808E-03 0.92733576E+02</pdfrwt>
<totfact> 0.96314720E+04</totfact>
</mgrwt>
</event>
<event>
 6    1  0.3075717E-002  0.9245984E+02  0.7546771E-02  0.1410717E+00
          2   -1    0    0  501    0  0.00000000000E+00  0.00000000000E+00  0.21042263920E+03  0.21042263920E+03  0.00000000000E+00 0. -1.
         -2   -1    0    0    0  501 -0.00000000000E+00 -0.00000000000E+00 -0.13508776000E+02  0.13508776000E+02  0.00000000000E+00 0.  1.
         23    2    1    2    0    0 -0.12990947057E+02  0.32320625652E+01  0.16183673795E+03  0.18638656669E+03  0.91485581148E+02 0.  0.
         11    1    3    3    0    0 -0.24167086144E+02 -0.40402290981E+02  0.90656992135E+02  0.10215225593E+03  0.00000000000E+00 0.  1.
        -11    1    3    3    0    0  0.11176139086E+02  0.43634353546E+02  0.71179745816E+02  0.84234310757E+02  0.00000000000E+00 0. -1.
         22    1    1    2    0    0  0.12990947057E+02 -0.32320625652E+01  0.35077125247E+02  0.37544848507E+02  0.00000000000E+00 0. -1.
<mgrwt>
<rscale>  0 0.57034209E+02</rscale>
<asrwt>0</asrwt>
<pdfrwt beam="1">  1        2 0.32372711E-01 0.92459843E+02</pdfrwt>
<pdfrwt beam="2">  1       -2 0.20782734E-02 0.92459843E+02</pdfrwt>
<totfact> 0.10082434E+05</totfact>
</mgrwt>
</event>
<event>
 6    1  0.3075717E-002  0.9686051E+02  0.7546771E-02  0.1406837E+00
         -2   -1    0    0    0  501 -0.00000000000E+00  0.00000000000E+00  0.17765983752E+02  0.17765983752E+02  0.00000000000E+00 0.  1.
          2   -1    0    0  501    0  0.00000000000E+00 -0.00000000000E+00 -0.16840871058E+03  0.16840871058E+03  0.00000000000E+00 0. -1.
         23    2    1    2    0    0  0.32718321936E+01 -0.11931595571E+02 -0.13664965571E+03  0.16749652799E+03  0.96067115199E+02 0.  0.
         11    1    3    3    0    0  0.46077290939E+02 -0.85729602443E+01 -0.10224779816E+03  0.11247766274E+03  0.00000000000E+00 0. -1.
        -11    1    3    3    0    0 -0.42805458745E+02 -0.33586353266E+01 -0.34401857551E+02  0.55018865243E+02  0.00000000000E+00 0.  1.
         22    1    1    2    0    0 -0.32718321936E+01  0.11931595571E+02 -0.13993071121E+02  0.18678166349E+02  0.00000000000E+00 0.  1.
<mgrwt>
<rscale>  0 0.57905600E+02</rscale>
<asrwt>0</asrwt>
<pdfrwt beam="1">  1        2 0.25909033E-01 0.96860510E+02</pdfrwt>
<pdfrwt beam="2">  1       -2 0.27332283E-02 0.96860510E+02</pdfrwt>
<totfact> 0.86809744E+04</totfact>
</mgrwt>
</event>
<event>
 6    1  0.3075717E-002  0.8244473E+02  0.7546771E-02  0.1451417E+00
         -1   -1    0    0    0  501 -0.00000000000E+00  0.00000000000E+00  0.55529151519E+03  0.55529151519E+03  0.00000000000E+00 0.  1.
          1   -1    0    0  501    0  0.00000000000E+00 -0.00000000000E+00 -0.38712358105E+01  0.38712358105E+01  0.00000000000E+00 0. -1.
         23    2    1    2    0    0 -0.94432714218E+01  0.38444051443E+01  0.49797259430E+03  0.50475126447E+03  0.81811854182E+02 0.  0.
         11    1    3    3    0    0  0.65776032944E+01  0.38549756932E+01  0.11970157648E+01  0.77174185732E+01  0.00000000000E+00 0. -1.
        -11    1    3    3    0    0 -0.16020874716E+02 -0.10570548899E-01  0.49677557854E+03  0.49703384590E+03  0.00000000000E+00 0.  1.
         22    1    1    2    0    0  0.94432714218E+01 -0.38444051443E+01  0.53447685080E+02  0.54411486530E+02  0.00000000000E+00 0. -1.
<mgrwt>
<rscale>  0 0.48890871E+02</rscale>
<asrwt>0</asrwt>
<pdfrwt beam="1">  1        1 0.59557518E-03 0.82444735E+02</pdfrwt>
<pdfrwt beam="2">  1       -1 0.85429401E-01 0.82444735E+02</pdfrwt>
<totfact> 0.41314359E+04</totfact>
</mgrwt>
</event>
<event>
 6    1  0.3075717E-002  0.9517696E+02  0.7546771E-02  0.1389975E+00
         -2   -1    0    0    0  501 -0.00000000000E+00  0.00000000000E+00  0.95563842906E+01  0.95563842906E+01  0.00000000000E+00 0.  1.
          2   -1    0    0  501    0  0.00000000000E+00 -0.00000000000E+00 -0.34979568231E+03  0.34979568231E+03  0.00000000000E+00 0. -1.
         23    2    1    2    0    0 -0.38854452258E+01 -0.16593405828E+02 -0.24972793194E+03  0.26725024690E+03  0.93638756284E+02 0.  0.
         11    1    3    3    0    0 -0.35350200616E+02  0.39599023792E+01 -0.37372661558E+02  0.51594896476E+02  0.00000000000E+00 0.  1.
        -11    1    3    3    0    0  0.31464755390E+02 -0.20553308207E+02 -0.21235527038E+03  0.21565535043E+03  0.00000000000E+00 0. -1.
         22    1    1    2    0    0  0.38854452258E+01  0.16593405828E+02 -0.90511366087E+02  0.92101819703E+02  0.00000000000E+00 0. -1.
<mgrwt>
<rscale>  0 0.61912812E+02</rscale>
<asrwt>0</asrwt>
<pdfrwt beam="1">  1        2 0.53814711E-01 0.95176964E+02</pdfrwt>
<pdfrwt beam="2">  1       -2 0.14702132E-02 0.95176964E+02</pdfrwt>
<totfact> 0.97464654E+04</totfact>
</mgrwt>
</event>
<event>
 6    1  0.3075717E-002  0.8972594E+02  0.7546771E-02  0.1422955E+00
         -4   -1    0    0    0  501 -0.00000000000E+00  0.00000000000E+00  0.83052462294E+02  0.83052462294E+02  0.00000000000E+00 0.  1.
          4   -1    0    0  501    0  0.00000000000E+00 -0.00000000000E+00 -0.31363938633E+02  0.31363938633E+02  0.00000000000E+00 0. -1.
         23    2    1    2    0    0  0.32369833724E+01 -0.11684356305E+02  0.47915605979E+02  0.10171848175E+03  0.88902992016E+02 0.  0.
         13    1    3    3    0    0  0.10524637978E+02 -0.30691520223E+02 -0.14887722261E+02  0.35698483053E+02  0.00000000000E+00 0. -1.
        -13    1    3    3    0    0 -0.72876546052E+01  0.19007163918E+02  0.62803328240E+02  0.66019998696E+02  0.00000000000E+00 0.  1.
         22    1    1    2    0    0 -0.32369833724E+01  0.11684356305E+02  0.37729176828E+01  0.12697919178E+02  0.00000000000E+00 0.  1.
<mgrwt>
<rscale>  0 0.54400640E+02</rscale>
<asrwt>0</asrwt>
<pdfrwt beam="1">  1        4 0.48252214E-02 0.89725940E+02</pdfrwt>
<pdfrwt beam="2">  1       -4 0.12777302E-01 0.89725940E+02</pdfrwt>
<totfact> 0.18078909E+04</totfact>
</mgrwt>
</event>
<event>
 6    1  0.3075717E-002  0.9572348E+02  0.7546771E-02  0.1358302E+00
         -2   -1    0    0    0  501 -0.00000000000E+00  0.00000000000E+00  0.27625687588E+01  0.27625687588E+01  0.00000000000E+00 0.  1.
          2   -1    0    0  501    0  0.00000000000E+00 -0.00000000000E+00 -0.18382699093E+04  0.18382699093E+04  0.00000000000E+00 0. -1.
         23    2    1    2    0    0 -0.23963891843E+02  0.14886566251E+02 -0.16961124808E+04  0.16988115060E+04  0.91471894437E+02 0.  0.
         13    1    3    3    0    0 -0.55748862046E+01 -0.30182267991E+02 -0.24956647104E+03  0.25144675803E+03  0.00000000000E+00 0.  1.
        -13    1    3    3    0    0 -0.18389005638E+02  0.45068834242E+02 -0.14465460098E+04  0.14473647480E+04  0.00000000000E+00 0. -1.
         22    1    1    2    0    0  0.23963891843E+02 -0.14886566251E+02 -0.13939485970E+03  0.14222097201E+03  0.00000000000E+00 0.  1.
<mgrwt>
<rscale>  0 0.70529318E+02</rscale>
<asrwt>0</asrwt>
<pdfrwt beam="1">  1        2 0.28281123E+00 0.95723484E+02</pdfrwt>
<pdfrwt beam="2">  1       -2 0.42500986E-03 0.95723484E+02</pdfrwt>
<totfact> 0.61206349E+04</totfact>
</mgrwt>
</event>
<event>
 6    1  0.3075717E-002  0.9017477E+02  0.7546771E-02  0.1413880E+00
          2   -1    0    0  501    0  0.00000000000E+00  0.00000000000E+00  0.12744333376E+04  0.12744333376E+04  0.00000000000E+00 0. -1.
         -2   -1    0    0    0  501 -0.00000000000E+00 -0.00000000000E+00 -0.28691939034E+01  0.28691939034E+01  0.00000000000E+00 0.  1.
         23    2    1    2    0    0 -0.11282204839E+02  0.78382633103E+01  0.12342520385E+04  0.12375417504E+04  0.89122180048E+02 0.  0.
         13    1    3    3    0    0  0.20499768127E+02  0.21410201867E+01  0.10671367940E+04  0.10673358242E+04  0.00000000000E+00 0. -1.
        -13    1    3    3    0    0 -0.31781972966E+02  0.56972431235E+01  0.16711524452E+03  0.17020592626E+03  0.00000000000E+00 0.  1.
         22    1    1    2    0    0  0.11282204839E+02 -0.78382633103E+01  0.37312105133E+02  0.39760781018E+02  0.00000000000E+00 0.  1.
<mgrwt>
<rscale>  0 0.56336895E+02</rscale>
<asrwt>0</asrwt>
<pdfrwt beam="1">  1        2 0.19606622E+00 0.90174772E+02</pdfrwt>
<pdfrwt beam="2">  1       -2 0.44141546E-03 0.90174772E+02</pdfrwt>
<totfact> 0.11200711E+05</totfact>
</mgrwt>
</event>
<event>
 6    1  0.3075717E-002  0.9910738E+02  0.7546771E-02  0.1415356E+00
          2   -1    0    0  501    0  0.00000000000E+00  0.00000000000E+00  0.44509559891E+03  0.44509559891E+03  0.00000000000E+00 0. -1.
         -2   -1    0    0    0  501 -0.00000000000E+00 -0.00000000000E+00 -0.70576834013E+01  0.70576834013E+01  0.00000000000E+00 0.  1.
         23    2    1    2    0    0  0.10004169980E+02 -0.14859280650E+01  0.41936991764E+03  0.43092157151E+03  0.98589966888E+02 0.  0.
         11    1    3    3    0    0  0.25992837871E+02 -0.35298474127E+02  0.97689270222E+02  0.10707382226E+03  0.00000000000E+00 0.  1.
        -11    1    3    3    0    0 -0.15988667891E+02  0.33812546062E+02  0.32168064741E+03  0.32384774925E+03  0.00000000000E+00 0. -1.
         22    1    1    2    0    0 -0.10004169980E+02  0.14859280650E+01  0.18667997873E+02  0.21231710807E+02  0.00000000000E+00 0.  1.
<mgrwt>
<rscale>  0 0.56015651E+02</rscale>
<asrwt>0</asrwt>
<pdfrwt beam="1">  1        2 0.68476224E-01 0.99107381E+02</pdfrwt>
<pdfrwt beam="2">  1       -2 0.10857978E-02 0.99107381E+02</pdfrwt>
<totfact> 0.11705250E+05</totfact>
</mgrwt>
</event>
<event>
 6    1  0.3075717E-002  0.9418085E+02  0.7546771E-02  0.1423626E+00
         -1   -1    0    0    0  501 -0.00000000000E+00  0.00000000000E+00  0.10708879922E+02  0.10708879922E+02  0.00000000000E+00 0.  1.
          1   -1    0    0  501    0  0.00000000000E+00 -0.00000000000E+00 -0.27803374773E+03  0.27803374773E+03  0.00000000000E+00 0. -1.
         23    2    1    2    0    0  0.37134891999E+01 -0.96896990752E+01 -0.25849428674E+03  0.27511693749E+03  0.93607439608E+02 0.  0.
         13    1    3    3    0    0  0.21227864506E+02  0.81860351362E+01 -0.24617336279E+03  0.24722248674E+03  0.00000000000E+00 0. -1.
        -13    1    3    3    0    0 -0.17514375306E+02 -0.17875734211E+02 -0.12320923948E+02  0.27894450755E+02  0.00000000000E+00 0.  1.
         22    1    1    2    0    0 -0.37134891999E+01  0.96896990752E+01 -0.88305810680E+01  0.13625690155E+02  0.00000000000E+00 0. -1.
<mgrwt>
<rscale>  0 0.54261148E+02</rscale>
<asrwt>0</asrwt>
<pdfrwt beam="1">  1        1 0.42774418E-01 0.94180853E+02</pdfrwt>
<pdfrwt beam="2">  1       -1 0.16475202E-02 0.94180853E+02</pdfrwt>
<totfact> 0.76203570E+04</totfact>
</mgrwt>
</event>
<event>
 6    1  0.3075717E-002  0.1381998E+03  0.7546771E-02  0.1229458E+00
         -2   -1    0    0    0  501 -0.00000000000E+00  0.00000000000E+00  0.23286175617E+03  0.23286175617E+03  0.00000000000E+00 0.  1.
          2   -1    0    0  501    0  0.00000000000E+00 -0.00000000000E+00 -0.73029489736E+02  0.73029489736E+02  0.00000000000E+00 0. -1.
         23    2    1    2    0    0 -0.97252544115E+02 -0.36316506251E+02  0.14621232907E+03  0.20118953314E+03  0.91226296148E+02 0.  0.
         11    1    3    3    0    0 -0.92845595851E+02 -0.23058025788E+02  0.57994118762E+02  0.11187177943E+03  0.00000000000E+00 0.  1.
        -11    1    3    3    0    0 -0.44069482634E+01 -0.13258480463E+02  0.88218210306E+02  0.89317753705E+02  0.00000000000E+00 0. -1.
         22    1    1    2    0    0  0.97252544115E+02  0.36316506251E+02  0.13619937366E+02  0.10470171277E+03  0.00000000000E+00 0. -1.
<mgrwt>
<rscale>  0 0.12865969E+03</rscale>
<asrwt>0</asrwt>
<pdfrwt beam="1">  1        2 0.11235306E-01 0.13819979E+03</pdfrwt>
<pdfrwt beam="2">  1       -2 0.35824885E-01 0.13819979E+03</pdfrwt>
<totfact> 0.38991187E+03</totfact>
</mgrwt>
</event>
<event>
 6    1  0.3075717E-002  0.1002377E+03  0.7546771E-02  0.1372340E+00
         -2   -1    0    0    0  501 -0.00000000000E+00  0.00000000000E+00  0.20147250480E+02  0.20147250480E+02  0.00000000000E+00 0.  1.
          2   -1    0    0  501    0  0.00000000000E+00 -0.00000000000E+00 -0.22177765023E+03  0.22177765023E+03  0.00000000000E+00 0. -1.
         23    2    1    2    0    0  0.35906703559E+01 -0.19107568117E+02 -0.19830691832E+03  0.22220086456E+03  0.98334115578E+02 0.  0.
         11    1    3    3    0    0  0.36948398303E+02 -0.45343301632E+01 -0.24364388423E+02  0.44490085529E+02  0.00000000000E+00 0.  1.
        -11    1    3    3    0    0 -0.33357727947E+02 -0.14573237954E+02 -0.17394252990E+03  0.17771077904E+03  0.00000000000E+00 0. -1.
         22    1    1    2    0    0 -0.35906703559E+01  0.19107568117E+02 -0.33234814253E+01  0.19724036142E+02  0.00000000000E+00 0.  1.
<mgrwt>
<rscale>  0 0.66520967E+02</rscale>
<asrwt>0</asrwt>
<pdfrwt beam="1">  1        2 0.34119641E-01 0.10023767E+03</pdfrwt>
<pdfrwt beam="2">  1       -2 0.30995768E-02 0.10023767E+03</pdfrwt>
<totfact> 0.54045140E+04</totfact>
</mgrwt>
</event>
<event>
 6    1  0.3075717E-002  0.9913585E+02  0.7546771E-02  0.1383654E+00
          2   -1    0    0  501    0  0.00000000000E+00  0.00000000000E+00  0.49535245414E+02  0.49535245414E+02  0.00000000000E+00 0.  1.
         -2   -1    0    0    0  501 -0.00000000000E+00 -0.00000000000E+00 -0.10824229248E+03  0.10824229248E+03  0.00000000000E+00 0. -1.
         23    2    1    2    0    0  0.11046824409E+02 -0.12526571413E+02 -0.25276643986E+01  0.99168064618E+02  0.97718824348E+02 0.  0.
         11    1    3    3    0    0 -0.22782314279E+02  0.26308903205E+01  0.37912037100E+02  0.44308892842E+02  0.00000000000E+00 0.  1.
        -11    1    3    3    0    0  0.33829138688E+02 -0.15157461734E+02 -0.40439701499E+02  0.54859171776E+02  0.00000000000E+00 0. -1.
         22    1    1    2    0    0 -0.11046824409E+02  0.12526571413E+02 -0.56179382671E+02  0.58609473280E+02  0.00000000000E+00 0. -1.
<mgrwt>
<rscale>  0 0.63513100E+02</rscale>
<asrwt>0</asrwt>
<pdfrwt beam="1">  1        2 0.76208070E-02 0.99135846E+02</pdfrwt>
<pdfrwt beam="2">  1       -2 0.16652660E-01 0.99135846E+02</pdfrwt>
<totfact> 0.23125953E+04</totfact>
</mgrwt>
</event>
<event>
 6    1  0.3075717E-002  0.9359984E+02  0.7546771E-02  0.1391086E+00
          2   -1    0    0  501    0  0.00000000000E+00  0.00000000000E+00  0.22699187572E+04  0.22699187572E+04  0.00000000000E+00 0. -1.
         -2   -1    0    0    0  501 -0.00000000000E+00 -0.00000000000E+00 -0.42692943143E+01  0.42692943143E+01  0.00000000000E+00 0.  1.
         23    2    1    2    0    0 -0.16464107462E+02  0.62247167118E+01  0.22454324074E+04  0.22473823942E+04  0.91929948750E+02 0.  0.
         11    1    3    3    0    0 -0.52585625272E+02  0.17938202664E+02  0.13748250176E+04  0.13759472577E+04  0.00000000000E+00 0. -1.
        -11    1    3    3    0    0  0.36121517809E+02 -0.11713485953E+02  0.87060738981E+03  0.87143513642E+03  0.00000000000E+00 0.  1.
         22    1    1    2    0    0  0.16464107462E+02 -0.62247167118E+01  0.20217055438E+02  0.26805657300E+02  0.00000000000E+00 0.  1.
<mgrwt>
<rscale>  0 0.61637347E+02</rscale>
<asrwt>0</asrwt>
<pdfrwt beam="1">  1        2 0.34921731E+00 0.93599837E+02</pdfrwt>
<pdfrwt beam="2">  1       -2 0.65681632E-03 0.93599837E+02</pdfrwt>
<totfact> 0.20063794E+04</totfact>
</mgrwt>
</event>
<event>
 6    1  0.3075717E-002  0.8812609E+02  0.7546771E-02  0.1434439E+00
          1   -1    0    0  501    0  0.00000000000E+00  0.00000000000E+00  0.28272632714E+03  0.28272632714E+03  0.00000000000E+00 0. -1.
         -1   -1    0    0    0  501 -0.00000000000E+00 -0.00000000000E+00 -0.10879539538E+02  0.10879539538E+02  0.00000000000E+00 0.  1.
         23    2    1    2    0    0  0.62422232769E+01 -0.87499956185E+01  0.26811736118E+03  0.28222885493E+03  0.87468162288E+02 0.  0.
         11    1    3    3    0    0 -0.77259969834E+01 -0.44752878152E+02  0.18630121549E+03  0.19175675745E+03  0.00000000000E+00 0. -1.
        -11    1    3    3    0    0  0.13968220260E+02  0.36002882534E+02  0.81816145693E+02  0.90472097489E+02  0.00000000000E+00 0.  1.
         22    1    1    2    0    0 -0.62422232769E+01  0.87499956185E+01  0.37294264149E+01  0.11377011741E+02  0.00000000000E+00 0. -1.
<mgrwt>
<rscale>  0 0.52079183E+02</rscale>
<asrwt>0</asrwt>
<pdfrwt beam="1">  1        1 0.43496352E-01 0.88126087E+02</pdfrwt>
<pdfrwt beam="2">  1       -1 0.16737755E-02 0.88126087E+02</pdfrwt>
<totfact> 0.72306772E+04</totfact>
</mgrwt>
</event>
<event>
 6    1  0.3075717E-002  0.9131192E+02  0.7546771E-02  0.1404095E+00
         -2   -1    0    0    0  501 -0.00000000000E+00  0.00000000000E+00  0.51482898200E+01  0.51482898200E+01  0.00000000000E+00 0.  1.
          2   -1    0    0  501    0  0.00000000000E+00 -0.00000000000E+00 -0.58899883835E+03  0.58899883835E+03  0.00000000000E+00 0. -1.
         23    2    1    2    0    0  0.14625103083E+02 -0.48787814960E+01 -0.53998584193E+03  0.54765187429E+03  0.90000943161E+02 0.  0.
         13    1    3    3    0    0  0.19498801562E+01 -0.38989761800E+02 -0.12220023337E+03  0.12828445188E+03  0.00000000000E+00 0.  1.
        -13    1    3    3    0    0  0.12675222927E+02  0.34110980304E+02 -0.41778560857E+03  0.41936742241E+03  0.00000000000E+00 0. -1.
         22    1    1    2    0    0 -0.14625103083E+02  0.48787814960E+01 -0.43864706598E+02  0.46495253887E+02  0.00000000000E+00 0. -1.
<mgrwt>
<rscale>  0 0.58532673E+02</rscale>
<asrwt>0</asrwt>
<pdfrwt beam="1">  1        2 0.90615207E-01 0.91311916E+02</pdfrwt>
<pdfrwt beam="2">  1       -2 0.79204458E-03 0.91311916E+02</pdfrwt>
<totfact> 0.13325619E+05</totfact>
</mgrwt>
</event>
<event>
 6    1  0.3075717E-002  0.9155933E+02  0.7546771E-02  0.1412073E+00
         -2   -1    0    0    0  501 -0.00000000000E+00  0.00000000000E+00  0.31296711765E+03  0.31296711765E+03  0.00000000000E+00 0.  1.
          2   -1    0    0  501    0  0.00000000000E+00 -0.00000000000E+00 -0.88454062618E+01  0.88454062618E+01  0.00000000000E+00 0. -1.
         23    2    1    2    0    0  0.13274829293E+02 -0.24422854517E+01  0.25849789845E+03  0.27423397667E+03  0.90558956510E+02 0.  0.
         13    1    3    3    0    0 -0.15681428755E+02 -0.20747390071E+02  0.18775334847E+02  0.32076075214E+02  0.00000000000E+00 0. -1.
        -13    1    3    3    0    0  0.28956258047E+02  0.18305104619E+02  0.23972256360E+03  0.24215790145E+03  0.00000000000E+00 0.  1.
         22    1    1    2    0    0 -0.13274829293E+02  0.24422854517E+01  0.45623812941E+02  0.47578547248E+02  0.00000000000E+00 0. -1.
<mgrwt>
<rscale>  0 0.56733722E+02</rscale>
<asrwt>0</asrwt>
<pdfrwt beam="1">  1        2 0.13608320E-02 0.91559328E+02</pdfrwt>
<pdfrwt beam="2">  1       -2 0.48148779E-01 0.91559328E+02</pdfrwt>
<totfact> 0.33679056E+04</totfact>
</mgrwt>
</event>
<event>
 6    1  0.3075717E-002  0.9276738E+02  0.7546771E-02  0.1396163E+00
          1   -1    0    0  501    0  0.00000000000E+00  0.00000000000E+00  0.26645208970E+02  0.26645208970E+02  0.00000000000E+00 0. -1.
         -1   -1    0    0    0  501 -0.00000000000E+00 -0.00000000000E+00 -0.11880547049E+03  0.11880547049E+03  0.00000000000E+00 0.  1.
         23    2    1    2    0    0 -0.11608500469E+02  0.11964512457E+02 -0.63918980930E+02  0.11265621696E+03  0.91257220287E+02 0.  0.
         11    1    3    3    0    0  0.28427117550E+02 -0.10611114951E+02  0.40433311126E+01  0.30611195651E+02  0.00000000000E+00 0. -1.
        -11    1    3    3    0    0 -0.40035618018E+02  0.22575627408E+02 -0.67962312043E+02  0.82045021306E+02  0.00000000000E+00 0.  1.
         22    1    1    2    0    0  0.11608500469E+02 -0.11964512457E+02 -0.28241280587E+02  0.32794462500E+02  0.00000000000E+00 0.  1.
<mgrwt>
<rscale>  0 0.60399574E+02</rscale>
<asrwt>0</asrwt>
<pdfrwt beam="1">  1        1 0.40992628E-02 0.92767382E+02</pdfrwt>
<pdfrwt beam="2">  1       -1 0.18277765E-01 0.92767382E+02</pdfrwt>
<totfact> 0.44395464E+04</totfact>
</mgrwt>
</event>
<event>
 6    1  0.3075717E-002  0.9421555E+02  0.7546771E-02  0.1381548E+00
          2   -1    0    0  501    0  0.00000000000E+00  0.00000000000E+00  0.70253060464E+02  0.70253060464E+02  0.00000000000E+00 0. -1.
         -2   -1    0    0    0  501 -0.00000000000E+00 -0.00000000000E+00 -0.60975659394E+02  0.60975659394E+02  0.00000000000E+00 0.  1.
         23    2    1    2    0    0 -0.13210819536E+02  0.15194712211E+02  0.33260647681E+02  0.99914168129E+02  0.92038933483E+02 0.  0.
         13    1    3    3    0    0  0.28748333277E+02 -0.17373337342E+02  0.32579348118E+02  0.46794374025E+02  0.00000000000E+00 0.  1.
        -13    1    3    3    0    0 -0.41959152813E+02  0.32568049553E+02  0.68129956258E+00  0.53119794104E+02  0.00000000000E+00 0. -1.
         22    1    1    2    0    0  0.13210819536E+02 -0.15194712211E+02 -0.23983246611E+02  0.31314551729E+02  0.00000000000E+00 0.  1.
<mgrwt>
<rscale>  0 0.64058696E+02</rscale>
<asrwt>0</asrwt>
<pdfrwt beam="1">  1        2 0.10808163E-01 0.94215552E+02</pdfrwt>
<pdfrwt beam="2">  1       -2 0.93808706E-02 0.94215552E+02</pdfrwt>
<totfact> 0.37313802E+04</totfact>
</mgrwt>
</event>
<event>
 6    1  0.3075717E-002  0.8973994E+02  0.7546771E-02  0.1426052E+00
          2   -1    0    0  501    0  0.00000000000E+00  0.00000000000E+00  0.47455710253E+03  0.47455710253E+03  0.00000000000E+00 0. -1.
         -2   -1    0    0    0  501 -0.00000000000E+00 -0.00000000000E+00 -0.54629045488E+01  0.54629045488E+01  0.00000000000E+00 0.  1.
         23    2    1    2    0    0 -0.11230903256E+02  0.27322970673E+01  0.42940400534E+03  0.43868104208E+03  0.88992461724E+02 0.  0.
         11    1    3    3    0    0 -0.45027034148E+02  0.22675592606E+02  0.25080867181E+03  0.25582534308E+03  0.00000000000E+00 0. -1.
        -11    1    3    3    0    0  0.33796130892E+02 -0.19943295539E+02  0.17859533353E+03  0.18285569900E+03  0.00000000000E+00 0.  1.
         22    1    1    2    0    0  0.11230903256E+02 -0.27322970673E+01  0.39690192637E+02  0.41338964994E+02  0.00000000000E+00 0.  1.
<mgrwt>
<rscale>  0 0.53760659E+02</rscale>
<asrwt>0</asrwt>
<pdfrwt beam="1">  1        2 0.73008752E-01 0.89739940E+02</pdfrwt>
<pdfrwt beam="2">  1       -2 0.84044723E-03 0.89739940E+02</pdfrwt>
<totfact> 0.15473113E+05</totfact>
</mgrwt>
</event>
<event>
 6    1  0.3075717E-002  0.9484854E+02  0.7546771E-02  0.1372888E+00
          1   -1    0    0  501    0  0.00000000000E+00  0.00000000000E+00  0.24741947481E+03  0.24741947481E+03  0.00000000000E+00 0. -1.
         -1   -1    0    0    0  501 -0.00000000000E+00 -0.00000000000E+00 -0.14210794769E+02  0.14210794769E+02  0.00000000000E+00 0.  1.
         23    2    1    2    0    0  0.15079660694E+02 -0.17022873234E+02  0.20037694829E+03  0.22169160424E+03  0.92081874447E+02 0.  0.
         13    1    3    3    0    0 -0.15643145978E+02 -0.41916750542E+02  0.54302274994E+02  0.70359498731E+02  0.00000000000E+00 0.  1.
        -13    1    3    3    0    0  0.30722806672E+02  0.24893877308E+02  0.14607467330E+03  0.15133210551E+03  0.00000000000E+00 0. -1.
         22    1    1    2    0    0 -0.15079660694E+02  0.17022873234E+02  0.32831731745E+02  0.39938665341E+02  0.00000000000E+00 0.  1.
<mgrwt>
<rscale>  0 0.66370887E+02</rscale>
<asrwt>0</asrwt>
<pdfrwt beam="1">  1        1 0.38064531E-01 0.94848542E+02</pdfrwt>
<pdfrwt beam="2">  1       -1 0.21862763E-02 0.94848542E+02</pdfrwt>
<totfact> 0.58739255E+04</totfact>
</mgrwt>
</event>
<event>
 6    1  0.3075717E-002  0.9817135E+02  0.7546771E-02  0.1362384E+00
         -1   -1    0    0    0  501 -0.00000000000E+00  0.00000000000E+00  0.13901278669E+03  0.13901278669E+03  0.00000000000E+00 0.  1.
          1   -1    0    0  501    0  0.00000000000E+00 -0.00000000000E+00 -0.37858439078E+02  0.37858439078E+02  0.00000000000E+00 0. -1.
         23    2    1    2    0    0 -0.24202393905E+02  0.32532920171E+01  0.31564327780E+02  0.10312089940E+03  0.95085610501E+02 0.  0.
         13    1    3    3    0    0 -0.45010418933E+02  0.31835324711E+02 -0.87724161452E+00  0.55137965729E+02  0.00000000000E+00 0. -1.
        -13    1    3    3    0    0  0.20808025027E+02 -0.28582032693E+02  0.32441569395E+02  0.47982933666E+02  0.00000000000E+00 0.  1.
         22    1    1    2    0    0  0.24202393905E+02 -0.32532920171E+01  0.69590019829E+02  0.73750326369E+02  0.00000000000E+00 0.  1.
<mgrwt>
<rscale>  0 0.69330651E+02</rscale>
<asrwt>0</asrwt>
<pdfrwt beam="1">  1        1 0.58243753E-02 0.98171346E+02</pdfrwt>
<pdfrwt beam="2">  1       -1 0.21386582E-01 0.98171346E+02</pdfrwt>
<totfact> 0.21658384E+04</totfact>
</mgrwt>
</event>
<event>
 6    1  0.3075717E-002  0.9534094E+02  0.7546771E-02  0.1414918E+00
         -1   -1    0    0    0  501 -0.00000000000E+00  0.00000000000E+00  0.55110398246E+02  0.55110398246E+02  0.00000000000E+00 0.  1.
          1   -1    0    0  501    0  0.00000000000E+00 -0.00000000000E+00 -0.57284656370E+02  0.57284656370E+02  0.00000000000E+00 0. -1.
         23    2    1    2    0    0 -0.11242084022E+02 -0.21075960238E+01 -0.13507737594E+02  0.96293061850E+02  0.94652355340E+02 0.  0.
         13    1    3    3    0    0 -0.48124103161E+02  0.20125684551E+02 -0.50658232653E+01  0.52408349040E+02  0.00000000000E+00 0.  1.
        -13    1    3    3    0    0  0.36882019139E+02 -0.22233280575E+02 -0.84419143290E+01  0.43884712810E+02  0.00000000000E+00 0. -1.
         22    1    1    2    0    0  0.11242084022E+02  0.21075960238E+01  0.11333479470E+02  0.16101992767E+02  0.00000000000E+00 0. -1.
<mgrwt>
<rscale>  0 0.56110805E+02</rscale>
<asrwt>0</asrwt>
<pdfrwt beam="1">  1        1 0.88130241E-02 0.95340940E+02</pdfrwt>
<pdfrwt beam="2">  1       -1 0.84785228E-02 0.95340940E+02</pdfrwt>
<totfact> 0.51815399E+04</totfact>
</mgrwt>
</event>
<event>
 6    1  0.3075717E-002  0.9725548E+02  0.7546771E-02  0.1374785E+00
          1   -1    0    0  501    0  0.00000000000E+00  0.00000000000E+00  0.86499722206E+02  0.86499722206E+02  0.00000000000E+00 0. -1.
         -1   -1    0    0    0  501 -0.00000000000E+00 -0.00000000000E+00 -0.55806893784E+02  0.55806893784E+02  0.00000000000E+00 0.  1.
         23    2    1    2    0    0 -0.15693371802E+02 -0.13105418116E+02  0.54049403301E+02  0.11126529687E+03  0.95082040304E+02 0.  0.
         11    1    3    3    0    0 -0.41765787366E+02 -0.41050648153E+02  0.38014701162E+02  0.69818723940E+02  0.00000000000E+00 0. -1.
        -11    1    3    3    0    0  0.26072415564E+02  0.27945230037E+02  0.16034702139E+02  0.41446572933E+02  0.00000000000E+00 0.  1.
         22    1    1    2    0    0  0.15693371802E+02  0.13105418116E+02 -0.23356574879E+02  0.31041319118E+02  0.00000000000E+00 0.  1.
<mgrwt>
<rscale>  0 0.65854734E+02</rscale>
<asrwt>0</asrwt>
<pdfrwt beam="1">  1        1 0.13307650E-01 0.97255479E+02</pdfrwt>
<pdfrwt beam="2">  1       -1 0.85856759E-02 0.97255479E+02</pdfrwt>
<totfact> 0.29760471E+04</totfact>
</mgrwt>
</event>
<event>
 6    1  0.3075717E-002  0.1012964E+03  0.7546771E-02  0.1331843E+00
          1   -1    0    0  501    0  0.00000000000E+00  0.00000000000E+00  0.80920951067E+01  0.80920951067E+01  0.00000000000E+00 0. -1.
         -1   -1    0    0    0  501 -0.00000000000E+00 -0.00000000000E+00 -0.60263577282E+03  0.60263577282E+03  0.00000000000E+00 0.  1.
         23    2    1    2    0    0  0.58495574900E+01  0.37061182262E+02 -0.46209738339E+03  0.47306970641E+03  0.94091481170E+02 0.  0.
         13    1    3    3    0    0  0.28469621293E+02  0.11567762912E+02 -0.44474520043E+02  0.54058444377E+02  0.00000000000E+00 0. -1.
        -13    1    3    3    0    0 -0.22620063803E+02  0.25493419350E+02 -0.41762286335E+03  0.41901126203E+03  0.00000000000E+00 0.  1.
         22    1    1    2    0    0 -0.58495574900E+01 -0.37061182262E+02 -0.13244629432E+03  0.13765816152E+03  0.00000000000E+00 0.  1.
<mgrwt>
<rscale>  0 0.79024373E+02</rscale>
<asrwt>0</asrwt>
<pdfrwt beam="1">  1        1 0.12449376E-02 0.10129637E+03</pdfrwt>
<pdfrwt beam="2">  1       -1 0.92713207E-01 0.10129637E+03</pdfrwt>
<totfact> 0.12869408E+04</totfact>
</mgrwt>
</event>
<event>
 6    1  0.3075717E-002  0.9391293E+02  0.7546771E-02  0.1407767E+00
         -2   -1    0    0    0  501 -0.00000000000E+00  0.00000000000E+00  0.37455708832E+02  0.37455708832E+02  0.00000000000E+00 0.  1.
          2   -1    0    0  501    0  0.00000000000E+00 -0.00000000000E+00 -0.77409286948E+02  0.77409286948E+02  0.00000000000E+00 0. -1.
         23    2    1    2    0    0  0.39504846892E+01  0.12780965503E+02 -0.38151707105E+02  0.10136662004E+03  0.92955255338E+02 0.  0.
         13    1    3    3    0    0  0.10276755909E+02  0.45691747285E+02  0.45845592990E+01  0.47057046932E+02  0.00000000000E+00 0.  1.
        -13    1    3    3    0    0 -0.63262712201E+01 -0.32910781782E+02 -0.42736266404E+02  0.54309573109E+02  0.00000000000E+00 0. -1.
         22    1    1    2    0    0 -0.39504846892E+01 -0.12780965503E+02 -0.18018710116E+01  0.13498375739E+02  0.00000000000E+00 0. -1.
<mgrwt>
<rscale>  0 0.57695025E+02</rscale>
<asrwt>0</asrwt>
<pdfrwt beam="1">  1        2 0.11909121E-01 0.93912933E+02</pdfrwt>
<pdfrwt beam="2">  1       -2 0.57624169E-02 0.93912933E+02</pdfrwt>
<totfact> 0.69714115E+04</totfact>
</mgrwt>
</event>
<event>
 6    1  0.3075717E-002  0.9457005E+02  0.7546771E-02  0.1341930E+00
          2   -1    0    0  501    0  0.00000000000E+00  0.00000000000E+00  0.19829341871E+03  0.19829341871E+03  0.00000000000E+00 0. -1.
         -2   -1    0    0    0  501 -0.00000000000E+00 -0.00000000000E+00 -0.64870682607E+02  0.64870682607E+02  0.00000000000E+00 0.  1.
         23    2    1    2    0    0 -0.38336913926E+02 -0.51637324516E+01  0.17956865546E+03  0.20294924455E+03  0.86296643816E+02 0.  0.
         13    1    3    3    0    0 -0.49552464550E+02 -0.25645331240E+02  0.16773326698E+03  0.17676984644E+03  0.00000000000E+00 0. -1.
        -13    1    3    3    0    0  0.11215550624E+02  0.20481598788E+02  0.11835388483E+02  0.26179398107E+02  0.00000000000E+00 0.  1.
         22    1    1    2    0    0  0.38336913926E+02  0.51637324516E+01 -0.46145919362E+02  0.60214856771E+02  0.00000000000E+00 0.  1.
<mgrwt>
<rscale>  0 0.75630253E+02</rscale>
<asrwt>0</asrwt>
<pdfrwt beam="1">  1        2 0.30506680E-01 0.94570047E+02</pdfrwt>
<pdfrwt beam="2">  1       -2 0.99801051E-02 0.94570047E+02</pdfrwt>
<totfact> 0.10465931E+04</totfact>
</mgrwt>
</event>
<event>
 6    1  0.3075717E-002  0.9256411E+02  0.7546771E-02  0.1392916E+00
         -2   -1    0    0    0  501 -0.00000000000E+00  0.00000000000E+00  0.27757518225E+01  0.27757518225E+01  0.00000000000E+00 0.  1.
          2   -1    0    0  501    0  0.00000000000E+00 -0.00000000000E+00 -0.21545940055E+04  0.21545940055E+04  0.00000000000E+00 0. -1.
         23    2    1    2    0    0 -0.12285807893E+02  0.12704221308E+02 -0.21092301023E+04  0.21112602252E+04  0.90861299449E+02 0.  0.
         13    1    3    3    0    0  0.35870403419E+02  0.61631848963E+01 -0.13414076566E+04  0.13419013272E+04  0.00000000000E+00 0. -1.
        -13    1    3    3    0    0 -0.48156211311E+02  0.65410364117E+01 -0.76782244571E+03  0.76935889803E+03  0.00000000000E+00 0.  1.
         22    1    1    2    0    0  0.12285807893E+02 -0.12704221308E+02 -0.42588151318E+02  0.46109532066E+02  0.00000000000E+00 0. -1.
<mgrwt>
<rscale>  0 0.61187136E+02</rscale>
<asrwt>0</asrwt>
<pdfrwt beam="1">  1        2 0.33147732E+00 0.92564108E+02</pdfrwt>
<pdfrwt beam="2">  1       -2 0.42703704E-03 0.92564108E+02</pdfrwt>
<totfact> 0.42000581E+04</totfact>
</mgrwt>
</event>
<event>
 6    1  0.3075717E-002  0.8145793E+02  0.7546771E-02  0.1452613E+00
          2   -1    0    0  501    0  0.00000000000E+00  0.00000000000E+00  0.41415028081E+03  0.41415028081E+03  0.00000000000E+00 0. -1.
         -2   -1    0    0    0  501 -0.00000000000E+00 -0.00000000000E+00 -0.61449698367E+01  0.61449698367E+01  0.00000000000E+00 0.  1.
         23    2    1    2    0    0 -0.84250444881E+01 -0.60749375377E+01  0.39655877371E+03  0.40483855449E+03  0.80792994466E+02 0.  0.
         11    1    3    3    0    0 -0.34424789936E+02  0.23740034873E+02  0.19469635497E+03  0.19913645085E+03  0.00000000000E+00 0.  1.
        -11    1    3    3    0    0  0.25999745448E+02 -0.29814972410E+02  0.20186241874E+03  0.20570210365E+03  0.00000000000E+00 0. -1.
         22    1    1    2    0    0  0.84250444881E+01  0.60749375377E+01  0.11446537259E+02  0.15456696152E+02  0.00000000000E+00 0.  1.
<mgrwt>
<rscale>  0 0.48676661E+02</rscale>
<asrwt>0</asrwt>
<pdfrwt beam="1">  1        2 0.63715406E-01 0.81457929E+02</pdfrwt>
<pdfrwt beam="2">  1       -2 0.94538030E-03 0.81457929E+02</pdfrwt>
<totfact> 0.14910232E+05</totfact>
</mgrwt>
</event>
<event>
 6    1  0.3075717E-002  0.9325720E+02  0.7546771E-02  0.1415139E+00
         -2   -1    0    0    0  501 -0.00000000000E+00  0.00000000000E+00  0.23628469993E+01  0.23628469993E+01  0.00000000000E+00 0.  1.
          2   -1    0    0  501    0  0.00000000000E+00 -0.00000000000E+00 -0.14142000037E+04  0.14142000037E+04  0.00000000000E+00 0. -1.
         23    2    1    2    0    0  0.12046611537E+02 -0.17974956267E+01 -0.13645239560E+04  0.13677070342E+04  0.92458386361E+02 0.  0.
         13    1    3    3    0    0 -0.38039492200E+01  0.29708395695E+02 -0.16704612951E+03  0.16970995312E+03  0.00000000000E+00 0.  1.
        -13    1    3    3    0    0  0.15850560757E+02 -0.31505891321E+02 -0.11974778265E+04  0.11979970811E+04  0.00000000000E+00 0. -1.
         22    1    1    2    0    0 -0.12046611537E+02  0.17974956267E+01 -0.47313200702E+02  0.48855816447E+02  0.00000000000E+00 0.  1.
<mgrwt>
<rscale>  0 0.56062620E+02</rscale>
<asrwt>0</asrwt>
<pdfrwt beam="1">  1        2 0.21756927E+00 0.93257198E+02</pdfrwt>
<pdfrwt beam="2">  1       -2 0.36351486E-03 0.93257198E+02</pdfrwt>
<totfact> 0.12463018E+05</totfact>
</mgrwt>
</event>
<event>
 6    1  0.3075717E-002  0.9093258E+02  0.7546771E-02  0.1413887E+00
          2   -1    0    0  501    0  0.00000000000E+00  0.00000000000E+00  0.83532584513E+02  0.83532584513E+02  0.00000000000E+00 0. -1.
         -2   -1    0    0    0  501 -0.00000000000E+00 -0.00000000000E+00 -0.32755522040E+02  0.32755522040E+02  0.00000000000E+00 0.  1.
         23    2    1    2    0    0  0.13205781823E+02 -0.22478697918E+01  0.41258107875E+02  0.99854723188E+02  0.89940473011E+02 0.  0.
         11    1    3    3    0    0  0.20503094963E+02 -0.42632819333E+02  0.33806478330E+02  0.58144751822E+02  0.00000000000E+00 0. -1.
        -11    1    3    3    0    0 -0.72973131400E+01  0.40384949541E+02  0.74516295450E+01  0.41709971366E+02  0.00000000000E+00 0.  1.
         22    1    1    2    0    0 -0.13205781823E+02  0.22478697918E+01  0.95189545988E+01  0.16433383365E+02  0.00000000000E+00 0.  1.
<mgrwt>
<rscale>  0 0.56335381E+02</rscale>
<asrwt>0</asrwt>
<pdfrwt beam="1">  1        2 0.12851167E-01 0.90932581E+02</pdfrwt>
<pdfrwt beam="2">  1       -2 0.50393111E-02 0.90932581E+02</pdfrwt>
<totfact> 0.77448894E+04</totfact>
</mgrwt>
</event>
<event>
 6    1  0.3075717E-002  0.9031436E+02  0.7546771E-02  0.1418834E+00
          1   -1    0    0  501    0  0.00000000000E+00  0.00000000000E+00  0.21048516956E+04  0.21048516956E+04  0.00000000000E+00 0. -1.
         -1   -1    0    0    0  501 -0.00000000000E+00 -0.00000000000E+00 -0.63389599273E+01  0.63389599273E+01  0.00000000000E+00 0.  1.
         23    2    1    2    0    0  0.12665645346E+02  0.74547015017E-01  0.20964063381E+04  0.20983508331E+04  0.89421809864E+02 0.  0.
         13    1    3    3    0    0  0.22805375340E+02 -0.15491344153E+02  0.19989268305E+04  0.19991169402E+04  0.00000000000E+00 0. -1.
        -13    1    3    3    0    0 -0.10139729994E+02  0.15565891168E+02  0.97479507552E+02  0.99233892823E+02  0.00000000000E+00 0.  1.
         22    1    1    2    0    0 -0.12665645346E+02 -0.74547015017E-01  0.21063975367E+01  0.12839822424E+02  0.00000000000E+00 0.  1.
<mgrwt>
<rscale>  0 0.55268328E+02</rscale>
<asrwt>0</asrwt>
<pdfrwt beam="1">  1        1 0.32382278E+00 0.90314363E+02</pdfrwt>
<pdfrwt beam="2">  1       -1 0.97522628E-03 0.90314363E+02</pdfrwt>
<totfact> 0.54924811E+03</totfact>
</mgrwt>
</event>
<event>
 6    1  0.3075717E-002  0.8936315E+02  0.7546771E-02  0.1379696E+00
         -2   -1    0    0    0  501 -0.00000000000E+00  0.00000000000E+00  0.18879761156E+01  0.18879761156E+01  0.00000000000E+00 0.  1.
          2   -1    0    0  501    0  0.00000000000E+00 -0.00000000000E+00 -0.28941161565E+04  0.28941161565E+04  0.00000000000E+00 0. -1.
         23    2    1    2    0    0 -0.24141561166E+02 -0.29300714191E+01 -0.27666539640E+04  0.27680968064E+04  0.85990537053E+02 0.  0.
         13    1    3    3    0    0  0.26902431746E+02  0.15266826719E+02 -0.63362379966E+03  0.63437838577E+03  0.00000000000E+00 0. -1.
        -13    1    3    3    0    0 -0.51043992911E+02 -0.18196898138E+02 -0.21330301644E+04  0.21337184206E+04  0.00000000000E+00 0.  1.
         22    1    1    2    0    0  0.24141561166E+02  0.29300714191E+01 -0.12557421634E+03  0.12790732623E+03  0.00000000000E+00 0. -1.
<mgrwt>
<rscale>  0 0.64543728E+02</rscale>
<asrwt>0</asrwt>
<pdfrwt beam="1">  1        2 0.44525187E+00 0.89363151E+02</pdfrwt>
<pdfrwt beam="2">  1       -2 0.29045576E-03 0.89363151E+02</pdfrwt>
<totfact> 0.29167175E+04</totfact>
</mgrwt>
</event>
<event>
 6    1  0.3075717E-002  0.9072170E+02  0.7546771E-02  0.1425622E+00
          2   -1    0    0  501    0  0.00000000000E+00  0.00000000000E+00  0.15886088916E+03  0.15886088916E+03  0.00000000000E+00 0. -1.
         -2   -1    0    0    0  501 -0.00000000000E+00 -0.00000000000E+00 -0.47297821935E+02  0.47297821935E+02  0.00000000000E+00 0.  1.
         23    2    1    2    0    0  0.92984203770E+00  0.11222481648E+02  0.14490769078E+03  0.17096392994E+03  0.90020096600E+02 0.  0.
         13    1    3    3    0    0 -0.36126573413E+02 -0.20668405253E+02  0.72468923561E+02  0.83570671675E+02  0.00000000000E+00 0. -1.
        -13    1    3    3    0    0  0.37056415451E+02  0.31890886901E+02  0.72438767218E+02  0.87393258261E+02  0.00000000000E+00 0.  1.
         22    1    1    2    0    0 -0.92984203770E+00 -0.11222481648E+02 -0.33344623556E+02  0.35194781157E+02  0.00000000000E+00 0.  1.
<mgrwt>
<rscale>  0 0.53848921E+02</rscale>
<asrwt>0</asrwt>
<pdfrwt beam="1">  1        2 0.24440136E-01 0.90721698E+02</pdfrwt>
<pdfrwt beam="2">  1       -2 0.72765881E-02 0.90721698E+02</pdfrwt>
<totfact> 0.21518782E+04</totfact>
</mgrwt>
</event>
<event>
 6    1  0.3075717E-002  0.9317871E+02  0.7546771E-02  0.1380755E+00
         -2   -1    0    0    0  501 -0.00000000000E+00  0.00000000000E+00  0.22501532084E+01  0.22501532084E+01  0.00000000000E+00 0. -1.
          2   -1    0    0  501    0  0.00000000000E+00 -0.00000000000E+00 -0.29825674444E+04  0.29825674444E+04  0.00000000000E+00 0.  1.
         23    2    1    2    0    0 -0.11568154447E+02 -0.17627822292E+02 -0.29079201964E+04  0.29094126796E+04  0.90761829159E+02 0.  0.
         13    1    3    3    0    0 -0.25697897600E+01  0.50789447498E+01 -0.10963757568E+02  0.12353278075E+02  0.00000000000E+00 0. -1.
        -13    1    3    3    0    0 -0.89983646866E+01 -0.22706767042E+02 -0.28969564388E+04  0.28970594016E+04  0.00000000000E+00 0.  1.
         22    1    1    2    0    0  0.11568154447E+02  0.17627822292E+02 -0.72397094769E+02  0.75404917924E+02  0.00000000000E+00 0. -1.
<mgrwt>
<rscale>  0 0.64265679E+02</rscale>
<asrwt>0</asrwt>
<pdfrwt beam="1">  1        2 0.45885513E+00 0.93178710E+02</pdfrwt>
<pdfrwt beam="2">  1       -2 0.34617847E-03 0.93178710E+02</pdfrwt>
<totfact> 0.20405448E+04</totfact>
</mgrwt>
</event>
<event>
 6    1  0.3075717E-002  0.1150387E+03  0.7546771E-02  0.1385689E+00
          2   -1    0    0  501    0  0.00000000000E+00  0.00000000000E+00  0.75528934378E+03  0.75528934378E+03  0.00000000000E+00 0.  1.
         -2   -1    0    0    0  501 -0.00000000000E+00 -0.00000000000E+00 -0.67550307791E+01  0.67550307791E+01  0.00000000000E+00 0. -1.
         23    2    1    2    0    0 -0.34744792627E+01  0.97409310672E+01  0.73924673768E+03  0.74814412997E+03  0.11457286895E+03 0.  0.
         11    1    3    3    0    0  0.10730871171E+02 -0.50326286944E+02  0.40384328975E+03  0.40710844923E+03  0.00000000000E+00 0.  1.
        -11    1    3    3    0    0 -0.14205350433E+02  0.60067218011E+02  0.33540344793E+03  0.34103568075E+03  0.00000000000E+00 0. -1.
         22    1    1    2    0    0  0.34744792627E+01 -0.97409310672E+01  0.92875753203E+01  0.13900244585E+02  0.00000000000E+00 0. -1.
<mgrwt>
<rscale>  0 0.62991866E+02</rscale>
<asrwt>0</asrwt>
<pdfrwt beam="1">  1        2 0.11619829E+00 0.11503869E+03</pdfrwt>
<pdfrwt beam="2">  1       -2 0.10392361E-02 0.11503869E+03</pdfrwt>
<totfact> 0.70100660E+04</totfact>
</mgrwt>
</event>
<event>
 6    1  0.3075717E-002  0.9216729E+02  0.7546771E-02  0.1425486E+00
          2   -1    0    0  501    0  0.00000000000E+00  0.00000000000E+00  0.10029710340E+03  0.10029710340E+03  0.00000000000E+00 0. -1.
         -2   -1    0    0    0  501 -0.00000000000E+00 -0.00000000000E+00 -0.27060925122E+02  0.27060925122E+02  0.00000000000E+00 0.  1.
         23    2    1    2    0    0 -0.10239639219E+01  0.10712867930E+02  0.71056096348E+02  0.11637773715E+03  0.91536849597E+02 0.  0.
         11    1    3    3    0    0  0.15247636241E+02 -0.13570207757E+02  0.82499349729E+02  0.84986961677E+02  0.00000000000E+00 0. -1.
        -11    1    3    3    0    0 -0.16271600163E+02  0.24283075688E+02 -0.11443253381E+02  0.31390775471E+02  0.00000000000E+00 0.  1.
         22    1    1    2    0    0  0.10239639219E+01 -0.10712867930E+02  0.21800819292E+01  0.10980291372E+02  0.00000000000E+00 0.  1.
<mgrwt>
<rscale>  0 0.53876920E+02</rscale>
<asrwt>0</asrwt>
<pdfrwt beam="1">  1        2 0.15430323E-01 0.92167287E+02</pdfrwt>
<pdfrwt beam="2">  1       -2 0.41632193E-02 0.92167287E+02</pdfrwt>
<totfact> 0.83184648E+04</totfact>
</mgrwt>
</event>
<event>
 6    1  0.3075717E-002  0.9243770E+02  0.7546771E-02  0.1391702E+00
         -2   -1    0    0    0  501 -0.00000000000E+00  0.00000000000E+00  0.27177435818E+03  0.27177435818E+03  0.00000000000E+00 0.  1.
          2   -1    0    0  501    0  0.00000000000E+00 -0.00000000000E+00 -0.11243191308E+02  0.11243191308E+02  0.00000000000E+00 0. -1.
         23    2    1    2    0    0  0.45652604784E+01  0.17508742848E+02  0.21999674572E+03  0.23862794510E+03  0.90649491877E+02 0.  0.
         11    1    3    3    0    0 -0.28379483022E+02 -0.18466017626E+02  0.14688424750E+03  0.15073609729E+03  0.00000000000E+00 0.  1.
        -11    1    3    3    0    0  0.32944743501E+02  0.35974760474E+02  0.73112498219E+02  0.87891847809E+02  0.00000000000E+00 0. -1.
         22    1    1    2    0    0 -0.45652604784E+01 -0.17508742848E+02  0.40534421152E+02  0.44389604385E+02  0.00000000000E+00 0.  1.
<mgrwt>
<rscale>  0 0.61485299E+02</rscale>
<asrwt>0</asrwt>
<pdfrwt beam="1">  1        2 0.17297219E-02 0.92437698E+02</pdfrwt>
<pdfrwt beam="2">  1       -2 0.41811435E-01 0.92437698E+02</pdfrwt>
<totfact> 0.31922587E+04</totfact>
</mgrwt>
</event>
<event>
 6    1  0.3075717E-002  0.9406765E+02  0.7546771E-02  0.1394454E+00
         -4   -1    0    0    0  501 -0.00000000000E+00  0.00000000000E+00  0.66302732877E+02  0.66302732877E+02  0.00000000000E+00 0.  1.
          4   -1    0    0  501    0  0.00000000000E+00 -0.00000000000E+00 -0.68981273091E+02  0.68981273091E+02  0.00000000000E+00 0. -1.
         23    2    1    2    0    0 -0.10553076688E+02  0.12593221519E+02 -0.33911045779E+02  0.99993411474E+02  0.92621631689E+02 0.  0.
         13    1    3    3    0    0 -0.37148924208E+02 -0.20311330653E+02  0.48468104079E+01  0.42615540520E+02  0.00000000000E+00 0. -1.
        -13    1    3    3    0    0  0.26595847521E+02  0.32904552172E+02 -0.38757856187E+02  0.57377870954E+02  0.00000000000E+00 0.  1.
         22    1    1    2    0    0  0.10553076688E+02 -0.12593221519E+02  0.31232505565E+02  0.35290594493E+02  0.00000000000E+00 0.  1.
<mgrwt>
<rscale>  0 0.60812378E+02</rscale>
<asrwt>0</asrwt>
<pdfrwt beam="1">  1        4 0.10612504E-01 0.94067653E+02</pdfrwt>
<pdfrwt beam="2">  1       -4 0.10200420E-01 0.94067653E+02</pdfrwt>
<totfact> 0.74147151E+03</totfact>
</mgrwt>
</event>
<event>
 6    1  0.3075717E-002  0.9969003E+02  0.7546771E-02  0.1343425E+00
         -2   -1    0    0    0  501 -0.00000000000E+00  0.00000000000E+00  0.43224248783E+02  0.43224248783E+02  0.00000000000E+00 0.  1.
          2   -1    0    0  501    0  0.00000000000E+00 -0.00000000000E+00 -0.10070867857E+03  0.10070867857E+03  0.00000000000E+00 0. -1.
         23    2    1    2    0    0 -0.24118208818E+02 -0.21308473240E+02 -0.45623173267E+02  0.10963382482E+03  0.94352332119E+02 0.  0.
         13    1    3    3    0    0  0.70878954550E+01 -0.17659278299E+02  0.25536601937E+02  0.31846607520E+02  0.00000000000E+00 0.  1.
        -13    1    3    3    0    0 -0.31206104273E+02 -0.36491949413E+01 -0.71159775204E+02  0.77787217296E+02  0.00000000000E+00 0. -1.
         22    1    1    2    0    0  0.24118208818E+02  0.21308473240E+02 -0.11861256516E+02  0.34299102532E+02  0.00000000000E+00 0.  1.
<mgrwt>
<rscale>  0 0.75144133E+02</rscale>
<asrwt>0</asrwt>
<pdfrwt beam="1">  1        2 0.15493643E-01 0.99690028E+02</pdfrwt>
<pdfrwt beam="2">  1       -2 0.66498844E-02 0.99690028E+02</pdfrwt>
<totfact> 0.41610288E+04</totfact>
</mgrwt>
</event>
<event>
 6    1  0.3075717E-002  0.9559311E+02  0.7546771E-02  0.1352698E+00
          3   -1    0    0  501    0  0.00000000000E+00  0.00000000000E+00  0.46977607610E+02  0.46977607610E+02  0.00000000000E+00 0. -1.
         -3   -1    0    0    0  501 -0.00000000000E+00 -0.00000000000E+00 -0.94202899102E+02  0.94202899102E+02  0.00000000000E+00 0.  1.
         23    2    1    2    0    0 -0.18579178910E+02  0.24996064272E+02 -0.15715375372E+02  0.96876286462E+02  0.90377279984E+02 0.  0.
         11    1    3    3    0    0  0.81701024193E+01  0.47581624303E+02  0.14735896822E+02  0.50476808536E+02  0.00000000000E+00 0. -1.
        -11    1    3    3    0    0 -0.26749281329E+02 -0.22585560031E+02 -0.30451272194E+02  0.46399477925E+02  0.00000000000E+00 0.  1.
         22    1    1    2    0    0  0.18579178910E+02 -0.24996064272E+02 -0.31509916120E+02  0.44304220250E+02  0.00000000000E+00 0. -1.
<mgrwt>
<rscale>  0 0.72221381E+02</rscale>
<asrwt>0</asrwt>
<pdfrwt beam="1">  1        3 0.72273243E-02 0.95593106E+02</pdfrwt>
<pdfrwt beam="2">  1       -3 0.14492754E-01 0.95593106E+02</pdfrwt>
<totfact> 0.10359773E+04</totfact>
</mgrwt>
</event>
<event>
 6    1  0.3075717E-002  0.9277807E+02  0.7546771E-02  0.1427850E+00
          2   -1    0    0  501    0  0.00000000000E+00  0.00000000000E+00  0.26134148334E+03  0.26134148334E+03  0.00000000000E+00 0. -1.
         -2   -1    0    0    0  501 -0.00000000000E+00 -0.00000000000E+00 -0.10721546080E+02  0.10721546080E+02  0.00000000000E+00 0.  1.
         23    2    1    2    0    0 -0.10161617538E+02  0.56583274962E+00  0.24021042736E+03  0.25750498923E+03  0.92218172994E+02 0.  0.
         13    1    3    3    0    0  0.24128728463E+02  0.13555589184E+02  0.20435233900E+03  0.20621791385E+03  0.00000000000E+00 0. -1.
        -13    1    3    3    0    0 -0.34290346001E+02 -0.12989756434E+02  0.35858088354E+02  0.51287075385E+02  0.00000000000E+00 0.  1.
         22    1    1    2    0    0  0.10161617538E+02 -0.56583274962E+00  0.10409509901E+02  0.14558040186E+02  0.00000000000E+00 0. -1.
<mgrwt>
<rscale>  0 0.53394039E+02</rscale>
<asrwt>0</asrwt>
<pdfrwt beam="1">  1        2 0.40206377E-01 0.92778069E+02</pdfrwt>
<pdfrwt beam="2">  1       -2 0.16494688E-02 0.92778069E+02</pdfrwt>
<totfact> 0.11177392E+05</totfact>
</mgrwt>
</event>
<event>
 6    1  0.3075717E-002  0.9458583E+02  0.7546771E-02  0.1361662E+00
          4   -1    0    0  501    0  0.00000000000E+00  0.00000000000E+00  0.14472129368E+03  0.14472129368E+03  0.00000000000E+00 0. -1.
         -4   -1    0    0    0  501 -0.00000000000E+00 -0.00000000000E+00 -0.48770918870E+02  0.48770918870E+02  0.00000000000E+00 0.  1.
         23    2    1    2    0    0  0.27578224551E+02  0.17865355239E+01  0.12277096343E+03  0.15498125110E+03  0.90458435503E+02 0.  0.
         13    1    3    3    0    0 -0.24674044147E+02  0.16868198738E+02  0.81204231133E+02  0.86530178187E+02  0.00000000000E+00 0. -1.
        -13    1    3    3    0    0  0.52252268699E+02 -0.15081663214E+02  0.41566732292E+02  0.68451072913E+02  0.00000000000E+00 0.  1.
         22    1    1    2    0    0 -0.27578224551E+02 -0.17865355239E+01 -0.26820588612E+02  0.38510961454E+02  0.00000000000E+00 0.  1.
<mgrwt>
<rscale>  0 0.69540605E+02</rscale>
<asrwt>0</asrwt>
<pdfrwt beam="1">  1        4 0.22264814E-01 0.94585827E+02</pdfrwt>
<pdfrwt beam="2">  1       -4 0.75032183E-02 0.94585827E+02</pdfrwt>
<totfact> 0.34040293E+03</totfact>
</mgrwt>
</event>
<event>
 6    1  0.3075717E-002  0.9441979E+02  0.7546771E-02  0.1401278E+00
         -2   -1    0    0    0  501 -0.00000000000E+00  0.00000000000E+00  0.10063569368E+03  0.10063569368E+03  0.00000000000E+00 0. -1.
          2   -1    0    0  501    0  0.00000000000E+00 -0.00000000000E+00 -0.29522169164E+02  0.29522169164E+02  0.00000000000E+00 0.  1.
         23    2    1    2    0    0 -0.12748415995E+02 -0.70709804315E+01  0.60845713191E+02  0.11232674330E+03  0.93287596030E+02 0.  0.
         11    1    3    3    0    0 -0.18385430651E+02 -0.27118572027E+02 -0.13264131970E+02  0.35346544469E+02  0.00000000000E+00 0.  1.
        -11    1    3    3    0    0  0.56370146560E+01  0.20047591595E+02  0.74109845161E+02  0.76980198835E+02  0.00000000000E+00 0. -1.
         22    1    1    2    0    0  0.12748415995E+02  0.70709804315E+01  0.10267811327E+02  0.17831119541E+02  0.00000000000E+00 0. -1.
<mgrwt>
<rscale>  0 0.59186474E+02</rscale>
<asrwt>0</asrwt>
<pdfrwt beam="1">  1        2 0.45418722E-02 0.94419788E+02</pdfrwt>
<pdfrwt beam="2">  1       -2 0.15482414E-01 0.94419788E+02</pdfrwt>
<totfact> 0.50092924E+04</totfact>
</mgrwt>
</event>
<event>
 6    1  0.3075717E-002  0.9026725E+02  0.7546771E-02  0.1406225E+00
         -2   -1    0    0    0  501 -0.00000000000E+00  0.00000000000E+00  0.61872081265E+02  0.61872081265E+02  0.00000000000E+00 0.  1.
          2   -1    0    0  501    0  0.00000000000E+00 -0.00000000000E+00 -0.66238064242E+02  0.66238064242E+02  0.00000000000E+00 0. -1.
         23    2    1    2    0    0  0.27381341843E+01  0.15188524086E+02 -0.32566872497E+02  0.95962380229E+02  0.88938116645E+02 0.  0.
         13    1    3    3    0    0 -0.34127786969E+02  0.15247142297E+02 -0.43649096251E+02  0.57466727723E+02  0.00000000000E+00 0.  1.
        -13    1    3    3    0    0  0.36865921153E+02 -0.58618211392E-01  0.11082223755E+02  0.38495652506E+02  0.00000000000E+00 0. -1.
         22    1    1    2    0    0 -0.27381341843E+01 -0.15188524086E+02  0.28200889519E+02  0.32147765278E+02  0.00000000000E+00 0.  1.
<mgrwt>
<rscale>  0 0.58044731E+02</rscale>
<asrwt>0</asrwt>
<pdfrwt beam="1">  1        2 0.10190471E-01 0.90267255E+02</pdfrwt>
<pdfrwt beam="2">  1       -2 0.95187817E-02 0.90267255E+02</pdfrwt>
<totfact> 0.38945566E+04</totfact>
</mgrwt>
</event>
<event>
 6    1  0.3075717E-002  0.9120229E+02  0.7546771E-02  0.1432290E+00
         -2   -1    0    0    0  501 -0.00000000000E+00  0.00000000000E+00  0.23630023330E+01  0.23630023330E+01  0.00000000000E+00 0.  1.
          2   -1    0    0  501    0  0.00000000000E+00 -0.00000000000E+00 -0.11687728816E+04  0.11687728816E+04  0.00000000000E+00 0. -1.
         23    2    1    2    0    0  0.67204369184E+01 -0.74275886976E+01 -0.11172270149E+04  0.11209433796E+04  0.90650560111E+02 0.  0.
         11    1    3    3    0    0 -0.16783436317E+02 -0.28440774904E+02 -0.16921720607E+03  0.17240946679E+03  0.00000000000E+00 0.  1.
        -11    1    3    3    0    0  0.23503873236E+02  0.21013186206E+02 -0.94800980887E+03  0.94853391282E+03  0.00000000000E+00 0. -1.
         22    1    1    2    0    0 -0.67204369184E+01  0.74275886976E+01 -0.49182864379E+02  0.50192504368E+02  0.00000000000E+00 0. -1.
<mgrwt>
<rscale>  0 0.52503102E+02</rscale>
<asrwt>0</asrwt>
<pdfrwt beam="1">  1        2 0.17981074E+00 0.91202288E+02</pdfrwt>
<pdfrwt beam="2">  1       -2 0.36353977E-03 0.91202288E+02</pdfrwt>
<totfact> 0.16776824E+05</totfact>
</mgrwt>
</event>
<event>
 6    1  0.3075717E-002  0.9034286E+02  0.7546771E-02  0.1427428E+00
         -1   -1    0    0    0  501 -0.00000000000E+00  0.00000000000E+00  0.26593097104E+02  0.26593097104E+02  0.00000000000E+00 0.  1.
          1   -1    0    0  501    0  0.00000000000E+00 -0.00000000000E+00 -0.11154910796E+03  0.11154910796E+03  0.00000000000E+00 0. -1.
         23    2    1    2    0    0  0.10966820293E+02  0.16725891665E+01 -0.88528374865E+02  0.12648757137E+03  0.89659153760E+02 0.  0.
         11    1    3    3    0    0 -0.25852517786E+01  0.40676501205E+02 -0.70495945799E+02  0.81430581793E+02  0.00000000000E+00 0. -1.
        -11    1    3    3    0    0  0.13552072072E+02 -0.39003912039E+02 -0.18032429067E+02  0.45056989578E+02  0.00000000000E+00 0.  1.
         22    1    1    2    0    0 -0.10966820293E+02 -0.16725891665E+01  0.35723640106E+01  0.11654633692E+02  0.00000000000E+00 0. -1.
<mgrwt>
<rscale>  0 0.53479684E+02</rscale>
<asrwt>0</asrwt>
<pdfrwt beam="1">  1        1 0.17161401E-01 0.90342861E+02</pdfrwt>
<pdfrwt beam="2">  1       -1 0.40912457E-02 0.90342861E+02</pdfrwt>
<totfact> 0.63519181E+04</totfact>
</mgrwt>
</event>
<event>
 6    1  0.3075717E-002  0.1063737E+03  0.7546771E-02  0.1302672E+00
          1   -1    0    0  501    0  0.00000000000E+00  0.00000000000E+00  0.88050325535E+02  0.88050325535E+02  0.00000000000E+00 0. -1.
         -1   -1    0    0    0  501 -0.00000000000E+00 -0.00000000000E+00 -0.90179075627E+02  0.90179075627E+02  0.00000000000E+00 0.  1.
         23    2    1    2    0    0 -0.17477038263E+02  0.51821399092E+02  0.35164237454E+02  0.11203520814E+03  0.91238478703E+02 0.  0.
         13    1    3    3    0    0 -0.42223277680E+02  0.49183047211E+02  0.51050738688E+02  0.82510334090E+02  0.00000000000E+00 0. -1.
        -13    1    3    3    0    0  0.24746239417E+02  0.26383518810E+01 -0.15886501235E+02  0.29524874046E+02  0.00000000000E+00 0.  1.
         22    1    1    2    0    0  0.17477038263E+02 -0.51821399092E+02 -0.37292987546E+02  0.66194193026E+02  0.00000000000E+00 0.  1.
<mgrwt>
<rscale>  0 0.90074325E+02</rscale>
<asrwt>0</asrwt>
<pdfrwt beam="1">  1        1 0.13546204E-01 0.10637370E+03</pdfrwt>
<pdfrwt beam="2">  1       -1 0.13873704E-01 0.10637370E+03</pdfrwt>
<totfact> 0.14144811E+04</totfact>
</mgrwt>
</event>
<event>
 6    1  0.3075717E-002  0.9894741E+02  0.7546771E-02  0.1333906E+00
          1   -1    0    0  501    0  0.00000000000E+00  0.00000000000E+00  0.18210959666E+02  0.18210959666E+02  0.00000000000E+00 0. -1.
         -1   -1    0    0    0  501 -0.00000000000E+00 -0.00000000000E+00 -0.26954949601E+03  0.26954949601E+03  0.00000000000E+00 0.  1.
         23    2    1    2    0    0  0.55803735575E+01  0.38424383806E+02 -0.15498001233E+03  0.18387331022E+03  0.91011077080E+02 0.  0.
         13    1    3    3    0    0  0.37170308594E+02  0.32526381043E+02 -0.37326992575E+02  0.61910432719E+02  0.00000000000E+00 0. -1.
        -13    1    3    3    0    0 -0.31589935036E+02  0.58980027636E+01 -0.11765301975E+03  0.12196287750E+03  0.00000000000E+00 0.  1.
         22    1    1    2    0    0 -0.55803735575E+01 -0.38424383806E+02 -0.96358524022E+02  0.10388714546E+03  0.00000000000E+00 0.  1.
<mgrwt>
<rscale>  0 0.78313773E+02</rscale>
<asrwt>0</asrwt>
<pdfrwt beam="1">  1        1 0.28016861E-02 0.98947410E+02</pdfrwt>
<pdfrwt beam="2">  1       -1 0.41469153E-01 0.98947410E+02</pdfrwt>
<totfact> 0.19466944E+04</totfact>
</mgrwt>
</event>
<event>
 6    1  0.3075717E-002  0.9253282E+02  0.7546771E-02  0.1386567E+00
         -2   -1    0    0    0  501 -0.00000000000E+00  0.00000000000E+00  0.62427779015E+01  0.62427779015E+01  0.00000000000E+00 0.  1.
          2   -1    0    0  501    0  0.00000000000E+00 -0.00000000000E+00 -0.53157956094E+03  0.53157956094E+03  0.00000000000E+00 0. -1.
         23    2    1    2    0    0 -0.19591561127E+02 -0.16610679451E+00 -0.47237659887E+03  0.48135431280E+03  0.90434873935E+02 0.  0.
         13    1    3    3    0    0 -0.46402800846E+02  0.24992885044E+02 -0.21505752617E+03  0.22142177804E+03  0.00000000000E+00 0. -1.
        -13    1    3    3    0    0  0.26811239719E+02 -0.25158991838E+02 -0.25731907270E+03  0.25993253475E+03  0.00000000000E+00 0.  1.
         22    1    1    2    0    0  0.19591561127E+02  0.16610679451E+00 -0.52960184162E+02  0.56468026044E+02  0.00000000000E+00 0. -1.
<mgrwt>
<rscale>  0 0.62768684E+02</rscale>
<asrwt>0</asrwt>
<pdfrwt beam="1">  1        2 0.81781475E-01 0.92532823E+02</pdfrwt>
<pdfrwt beam="2">  1       -2 0.96042732E-03 0.92532823E+02</pdfrwt>
<totfact> 0.11386508E+05</totfact>
</mgrwt>
</event>
<event>
 6    1  0.3075717E-002  0.9524764E+02  0.7546771E-02  0.1373510E+00
          2   -1    0    0  501    0  0.00000000000E+00  0.00000000000E+00  0.14863258168E+02  0.14863258168E+02  0.00000000000E+00 0. -1.
         -2   -1    0    0    0  501 -0.00000000000E+00 -0.00000000000E+00 -0.23299294347E+03  0.23299294347E+03  0.00000000000E+00 0.  1.
         23    2    1    2    0    0  0.43227034244E+01 -0.21803361108E+02 -0.17066792304E+03  0.19544731692E+03  0.92617716531E+02 0.  0.
         13    1    3    3    0    0 -0.42856600557E+02 -0.39987136613E+01 -0.60105371762E+02  0.73927894849E+02  0.00000000000E+00 0. -1.
        -13    1    3    3    0    0  0.47179303981E+02 -0.17804647447E+02 -0.11056255128E+03  0.12151942207E+03  0.00000000000E+00 0.  1.
         22    1    1    2    0    0 -0.43227034244E+01  0.21803361108E+02 -0.47461762255E+02  0.52408884713E+02  0.00000000000E+00 0.  1.
<mgrwt>
<rscale>  0 0.66200992E+02</rscale>
<asrwt>0</asrwt>
<pdfrwt beam="1">  1        2 0.22866551E-02 0.95247644E+02</pdfrwt>
<pdfrwt beam="2">  1       -2 0.35845068E-01 0.95247644E+02</pdfrwt>
<totfact> 0.29313232E+04</totfact>
</mgrwt>
</event>
<event>
 6    1  0.3075717E-002  0.1004851E+03  0.7546771E-02  0.1385479E+00
         -3   -1    0    0    0  501 -0.00000000000E+00  0.00000000000E+00  0.76880605434E+02  0.76880605434E+02  0.00000000000E+00 0.  1.
          3   -1    0    0  501    0  0.00000000000E+00 -0.00000000000E+00 -0.57614882091E+02  0.57614882091E+02  0.00000000000E+00 0. -1.
         23    2    1    2    0    0 -0.13862419085E+02 -0.70905684712E+01  0.40351072495E+02  0.10828413935E+03  0.99271360219E+02 0.  0.
         13    1    3    3    0    0 -0.32948097531E+02 -0.43667572643E+02  0.68339829720E+01  0.55128371594E+02  0.00000000000E+00 0.  1.
        -13    1    3    3    0    0  0.19085678446E+02  0.36577004171E+02  0.33517089523E+02  0.53155767759E+02  0.00000000000E+00 0. -1.
         22    1    1    2    0    0  0.13862419085E+02  0.70905684712E+01 -0.21085349152E+02  0.26211348172E+02  0.00000000000E+00 0. -1.
<mgrwt>
<rscale>  0 0.63045235E+02</rscale>
<asrwt>0</asrwt>
<pdfrwt beam="1">  1        3 0.88638280E-02 0.10048505E+03</pdfrwt>
<pdfrwt beam="2">  1       -3 0.11827785E-01 0.10048505E+03</pdfrwt>
<totfact> 0.10599932E+04</totfact>
</mgrwt>
</event>
<event>
 6    1  0.3075717E-002  0.9617826E+02  0.7546771E-02  0.1361684E+00
         -3   -1    0    0    0  501 -0.00000000000E+00  0.00000000000E+00  0.15070708004E+02  0.15070708004E+02  0.00000000000E+00 0.  1.
          3   -1    0    0  501    0  0.00000000000E+00 -0.00000000000E+00 -0.60702128564E+03  0.60702128564E+03  0.00000000000E+00 0. -1.
         23    2    1    2    0    0 -0.27421171356E+01 -0.26132760615E+02 -0.58764710986E+03  0.59546568676E+03  0.92519284436E+02 0.  0.
         11    1    3    3    0    0  0.43288850509E+01 -0.19979385470E+02 -0.23124061763E+02  0.30864823375E+02  0.00000000000E+00 0.  1.
        -11    1    3    3    0    0 -0.70710021864E+01 -0.61533751456E+01 -0.56452304810E+03  0.56460086338E+03  0.00000000000E+00 0. -1.
         22    1    1    2    0    0  0.27421171356E+01  0.26132760615E+02 -0.43034677796E+01  0.26626306892E+02  0.00000000000E+00 0.  1.
<mgrwt>
<rscale>  0 0.69534202E+02</rscale>
<asrwt>0</asrwt>
<pdfrwt beam="1">  1        3 0.93387898E-01 0.96178264E+02</pdfrwt>
<pdfrwt beam="2">  1       -3 0.23185703E-02 0.96178264E+02</pdfrwt>
<totfact> 0.17353300E+03</totfact>
</mgrwt>
</event>
<event>
 6    1  0.3075717E-002  0.9822727E+02  0.7546771E-02  0.1340368E+00
         -2   -1    0    0    0  501 -0.00000000000E+00  0.00000000000E+00  0.11162037075E+02  0.11162037075E+02  0.00000000000E+00 0.  1.
          2   -1    0    0  501    0  0.00000000000E+00 -0.00000000000E+00 -0.42578058545E+03  0.42578058545E+03  0.00000000000E+00 0. -1.
         23    2    1    2    0    0  0.34695881565E+02 -0.73541040607E+01 -0.34636797730E+03  0.36002690569E+03  0.91600819199E+02 0.  0.
         11    1    3    3    0    0  0.46187518777E+02 -0.22103193396E+02 -0.33331244439E+03  0.33722251354E+03  0.00000000000E+00 0. -1.
        -11    1    3    3    0    0 -0.11491637211E+02  0.14749089335E+02 -0.13055532908E+02  0.22804392155E+02  0.00000000000E+00 0.  1.
         22    1    1    2    0    0 -0.34695881565E+02  0.73541040607E+01 -0.68250571075E+02  0.76915716835E+02  0.00000000000E+00 0.  1.
<mgrwt>
<rscale>  0 0.76142875E+02</rscale>
<asrwt>0</asrwt>
<pdfrwt beam="1">  1        2 0.65504701E-01 0.98227273E+02</pdfrwt>
<pdfrwt beam="2">  1       -2 0.17172366E-02 0.98227273E+02</pdfrwt>
<totfact> 0.63715821E+04</totfact>
</mgrwt>
</event>
<event>
 6    1  0.3075717E-002  0.9359485E+02  0.7546771E-02  0.1383695E+00
          2   -1    0    0  501    0  0.00000000000E+00  0.00000000000E+00  0.65487203179E+02  0.65487203179E+02  0.00000000000E+00 0. -1.
         -2   -1    0    0    0  501 -0.00000000000E+00 -0.00000000000E+00 -0.57248180247E+02  0.57248180247E+02  0.00000000000E+00 0.  1.
         23    2    1    2    0    0 -0.52551453551E+01  0.19125051338E+02 -0.12044061157E+02  0.94366604081E+02  0.91469188338E+02 0.  0.
         11    1    3    3    0    0 -0.12460313993E+02 -0.35407641400E+02 -0.11841363484E+02  0.39359603447E+02  0.00000000000E+00 0. -1.
        -11    1    3    3    0    0  0.72051686384E+01  0.54532692738E+02 -0.20269767244E+00  0.55007000634E+02  0.00000000000E+00 0.  1.
         22    1    1    2    0    0  0.52551453551E+01 -0.19125051338E+02  0.20283084088E+02  0.28368779345E+02  0.00000000000E+00 0. -1.
<mgrwt>
<rscale>  0 0.63502538E+02</rscale>
<asrwt>0</asrwt>
<pdfrwt beam="1">  1        2 0.10074954E-01 0.93594853E+02</pdfrwt>
<pdfrwt beam="2">  1       -2 0.88074123E-02 0.93594853E+02</pdfrwt>
<totfact> 0.44734999E+04</totfact>
</mgrwt>
</event>
<event>
 6    1  0.3075717E-002  0.1130127E+03  0.7546771E-02  0.1282253E+00
         -2   -1    0    0    0  501 -0.00000000000E+00  0.00000000000E+00  0.25845184739E+02  0.25845184739E+02  0.00000000000E+00 0.  1.
          2   -1    0    0  501    0  0.00000000000E+00 -0.00000000000E+00 -0.36153781265E+03  0.36153781265E+03  0.00000000000E+00 0. -1.
         23    2    1    2    0    0  0.35658802764E+02  0.56432066066E+02 -0.27438650315E+03  0.29674873661E+03  0.91190631482E+02 0.  0.
         13    1    3    3    0    0  0.25140926388E+02 -0.28618012593E+01 -0.12869719066E+02  0.28388127006E+02  0.00000000000E+00 0.  1.
        -13    1    3    3    0    0  0.10517876376E+02  0.59293867326E+02 -0.26151678409E+03  0.26836060960E+03  0.00000000000E+00 0. -1.
         22    1    1    2    0    0 -0.35658802764E+02 -0.56432066066E+02 -0.61306124761E+02  0.90634260787E+02  0.00000000000E+00 0.  1.
<mgrwt>
<rscale>  0 0.99075212E+02</rscale>
<asrwt>0</asrwt>
<pdfrwt beam="1">  1        2 0.55621200E-01 0.11301265E+03</pdfrwt>
<pdfrwt beam="2">  1       -2 0.39761824E-02 0.11301265E+03</pdfrwt>
<totfact> 0.22705342E+04</totfact>
</mgrwt>
</event>
<event>
 6    1  0.3075717E-002  0.1067588E+03  0.7546771E-02  0.1311789E+00
         -2   -1    0    0    0  501 -0.00000000000E+00  0.00000000000E+00  0.81516593142E+02  0.81516593142E+02  0.00000000000E+00 0. -1.
          2   -1    0    0  501    0  0.00000000000E+00 -0.00000000000E+00 -0.72985918147E+02  0.72985918147E+02  0.00000000000E+00 0.  1.
         23    2    1    2    0    0  0.94562007690E+00  0.45806658464E+02 -0.45488460272E+01  0.10685570628E+03  0.96427723236E+02 0.  0.
         11    1    3    3    0    0  0.41520721494E+02  0.13518744067E+02 -0.25909489792E+02  0.50774288925E+02  0.00000000000E+00 0.  1.
        -11    1    3    3    0    0 -0.40575101417E+02  0.32287914397E+02  0.21360643764E+02  0.56081417360E+02  0.00000000000E+00 0. -1.
         22    1    1    2    0    0 -0.94562007690E+00 -0.45806658464E+02  0.13079521022E+02  0.47646805004E+02  0.00000000000E+00 0. -1.
<mgrwt>
<rscale>  0 0.86408839E+02</rscale>
<asrwt>0</asrwt>
<pdfrwt beam="1">  1        2 0.11228603E-01 0.10675884E+03</pdfrwt>
<pdfrwt beam="2">  1       -2 0.12541014E-01 0.10675884E+03</pdfrwt>
<totfact> 0.22934042E+04</totfact>
</mgrwt>
</event>
<event>
 6    1  0.3075717E-002  0.9253177E+02  0.7546771E-02  0.1401686E+00
         -1   -1    0    0    0  501 -0.00000000000E+00  0.00000000000E+00  0.10985619237E+02  0.10985619237E+02  0.00000000000E+00 0.  1.
          1   -1    0    0  501    0  0.00000000000E+00 -0.00000000000E+00 -0.30511274567E+03  0.30511274567E+03  0.00000000000E+00 0. -1.
         23    2    1    2    0    0  0.15044497950E+02 -0.32386118590E+01 -0.28109233053E+03  0.29593078127E+03  0.91243101095E+02 0.  0.
         13    1    3    3    0    0  0.39121222002E+02 -0.20235240434E+02 -0.69399243865E+02  0.82196046227E+02  0.00000000000E+00 0.  1.
        -13    1    3    3    0    0 -0.24076724051E+02  0.16996628575E+02 -0.21169308667E+03  0.21373473505E+03  0.00000000000E+00 0. -1.
         22    1    1    2    0    0 -0.15044497950E+02  0.32386118590E+01 -0.13034795902E+02  0.20167583632E+02  0.00000000000E+00 0.  1.
<mgrwt>
<rscale>  0 0.59091053E+02</rscale>
<asrwt>0</asrwt>
<pdfrwt beam="1">  1        1 0.46940424E-01 0.92531773E+02</pdfrwt>
<pdfrwt beam="2">  1       -1 0.16900952E-02 0.92531773E+02</pdfrwt>
<totfact> 0.65438186E+04</totfact>
</mgrwt>
</event>
<event>
 6    1  0.3075717E-002  0.8646588E+02  0.7546771E-02  0.1387491E+00
         -2   -1    0    0    0  501 -0.00000000000E+00  0.00000000000E+00  0.23251931902E+03  0.23251931902E+03  0.00000000000E+00 0.  1.
          2   -1    0    0  501    0  0.00000000000E+00 -0.00000000000E+00 -0.13628153974E+02  0.13628153974E+02  0.00000000000E+00 0. -1.
         23    2    1    2    0    0 -0.21112305369E+02 -0.10673621234E+02  0.19040992282E+03  0.20912265987E+03  0.83166655182E+02 0.  0.
         11    1    3    3    0    0  0.18268066172E+02  0.20524598544E+02  0.28463133046E+02  0.39561740734E+02  0.00000000000E+00 0. -1.
        -11    1    3    3    0    0 -0.39380371541E+02 -0.31198219778E+02  0.16194678977E+03  0.16956091913E+03  0.00000000000E+00 0.  1.
         22    1    1    2    0    0  0.21112305369E+02  0.10673621234E+02  0.28481242227E+02  0.37024813126E+02  0.00000000000E+00 0. -1.
<mgrwt>
<rscale>  0 0.62535076E+02</rscale>
<asrwt>0</asrwt>
<pdfrwt beam="1">  1        2 0.20966392E-02 0.86465879E+02</pdfrwt>
<pdfrwt beam="2">  1       -2 0.35772200E-01 0.86465879E+02</pdfrwt>
<totfact> 0.32614728E+04</totfact>
</mgrwt>
</event>
<event>
 6    1  0.3075717E-002  0.9154745E+02  0.7546771E-02  0.1408477E+00
          2   -1    0    0  501    0  0.00000000000E+00  0.00000000000E+00  0.15491590263E+03  0.15491590263E+03  0.00000000000E+00 0. -1.
         -2   -1    0    0    0  501 -0.00000000000E+00 -0.00000000000E+00 -0.25304232801E+02  0.25304232801E+02  0.00000000000E+00 0.  1.
         23    2    1    2    0    0 -0.10937756823E+02  0.91838987349E+01  0.13650535898E+03  0.16436133755E+03  0.90426532229E+02 0.  0.
         13    1    3    3    0    0 -0.45871801304E+02 -0.21371071124E+01  0.39271027929E+02  0.60423530319E+02  0.00000000000E+00 0. -1.
        -13    1    3    3    0    0  0.34934044481E+02  0.11321005847E+02  0.97234331048E+02  0.10393780723E+03  0.00000000000E+00 0.  1.
         22    1    1    2    0    0  0.10937756823E+02 -0.91838987349E+01 -0.68936891468E+01  0.15858797885E+02  0.00000000000E+00 0.  1.
<mgrwt>
<rscale>  0 0.57535085E+02</rscale>
<asrwt>0</asrwt>
<pdfrwt beam="1">  1        2 0.23833215E-01 0.91547454E+02</pdfrwt>
<pdfrwt beam="2">  1       -2 0.38929590E-02 0.91547454E+02</pdfrwt>
<totfact> 0.56289321E+04</totfact>
</mgrwt>
</event>
<event>
 6    1  0.3075717E-002  0.8899606E+02  0.7546771E-02  0.1388535E+00
         -2   -1    0    0    0  501 -0.00000000000E+00  0.00000000000E+00  0.85750980316E+01  0.85750980316E+01  0.00000000000E+00 0.  1.
          2   -1    0    0  501    0  0.00000000000E+00 -0.00000000000E+00 -0.35773579087E+03  0.35773579087E+03  0.00000000000E+00 0. -1.
         23    2    1    2    0    0 -0.14962922402E+02  0.15206986967E+02 -0.29373524778E+03  0.30692131524E+03  0.86401136928E+02 0.  0.
         11    1    3    3    0    0 -0.15071386656E+02 -0.14970212477E+02 -0.13727841869E+02  0.25292441553E+02  0.00000000000E+00 0.  1.
        -11    1    3    3    0    0  0.10846425368E+00  0.30177199443E+02 -0.28000740591E+03  0.28162887369E+03  0.00000000000E+00 0. -1.
         22    1    1    2    0    0  0.14962922402E+02 -0.15206986967E+02 -0.55425445053E+02  0.59389573654E+02  0.00000000000E+00 0.  1.
<mgrwt>
<rscale>  0 0.62272510E+02</rscale>
<asrwt>0</asrwt>
<pdfrwt beam="1">  1        2 0.55036277E-01 0.88996056E+02</pdfrwt>
<pdfrwt beam="2">  1       -2 0.13192458E-02 0.88996056E+02</pdfrwt>
<totfact> 0.10998728E+05</totfact>
</mgrwt>
</event>
<event>
 6    1  0.3075717E-002  0.9181724E+02  0.7546771E-02  0.1411218E+00
         -2   -1    0    0    0  501 -0.00000000000E+00  0.00000000000E+00  0.89642182333E+01  0.89642182333E+01  0.00000000000E+00 0.  1.
          2   -1    0    0  501    0  0.00000000000E+00 -0.00000000000E+00 -0.32428989738E+03  0.32428989738E+03  0.00000000000E+00 0. -1.
         23    2    1    2    0    0 -0.13190881895E+02  0.31577866081E+01 -0.29378627044E+03  0.30779989968E+03  0.90809881412E+02 0.  0.
         13    1    3    3    0    0 -0.23153111671E+02 -0.20630611713E+02 -0.27278069701E+03  0.27453778862E+03  0.00000000000E+00 0. -1.
        -13    1    3    3    0    0  0.99622297755E+01  0.23788398321E+02 -0.21005573424E+02  0.33262111053E+02  0.00000000000E+00 0.  1.
         22    1    1    2    0    0  0.13190881895E+02 -0.31577866081E+01 -0.21539408715E+02  0.25454215942E+02  0.00000000000E+00 0. -1.
<mgrwt>
<rscale>  0 0.56922877E+02</rscale>
<asrwt>0</asrwt>
<pdfrwt beam="1">  1        2 0.49890754E-01 0.91817240E+02</pdfrwt>
<pdfrwt beam="2">  1       -2 0.13791105E-02 0.91817240E+02</pdfrwt>
<totfact> 0.11497143E+05</totfact>
</mgrwt>
</event>
<event>
 6    1  0.3075717E-002  0.9254646E+02  0.7546771E-02  0.1393518E+00
          2   -1    0    0  501    0  0.00000000000E+00  0.00000000000E+00  0.19281626440E+03  0.19281626440E+03  0.00000000000E+00 0. -1.
         -2   -1    0    0    0  501 -0.00000000000E+00 -0.00000000000E+00 -0.16956281300E+02  0.16956281300E+02  0.00000000000E+00 0.  1.
         23    2    1    2    0    0  0.11474840613E+02 -0.13231322820E+02  0.16494990661E+03  0.18913835951E+03  0.90874129851E+02 0.  0.
         11    1    3    3    0    0 -0.98592863987E+01  0.10104177914E+02 -0.59633199230E+01  0.15325179416E+02  0.00000000000E+00 0.  1.
        -11    1    3    3    0    0  0.21334127012E+02 -0.23335500735E+02  0.17091322653E+03  0.17381318009E+03  0.00000000000E+00 0. -1.
         22    1    1    2    0    0 -0.11474840613E+02  0.13231322820E+02  0.10910076486E+02  0.20634186187E+02  0.00000000000E+00 0.  1.
<mgrwt>
<rscale>  0 0.61040227E+02</rscale>
<asrwt>0</asrwt>
<pdfrwt beam="1">  1        2 0.29664039E-01 0.92546460E+02</pdfrwt>
<pdfrwt beam="2">  1       -2 0.26086588E-02 0.92546460E+02</pdfrwt>
<totfact> 0.79736369E+04</totfact>
</mgrwt>
</event>
<event>
 6    1  0.3075717E-002  0.9471377E+02  0.7546771E-02  0.1359233E+00
          1   -1    0    0  501    0  0.00000000000E+00  0.00000000000E+00  0.88158680155E+03  0.88158680155E+03  0.00000000000E+00 0. -1.
         -1   -1    0    0    0  501 -0.00000000000E+00 -0.00000000000E+00 -0.46560923708E+01  0.46560923708E+01  0.00000000000E+00 0.  1.
         23    2    1    2    0    0 -0.27274134102E+02  0.88378395296E+01  0.75853409063E+03  0.76442440155E+03  0.90270223471E+02 0.  0.
         13    1    3    3    0    0 -0.59471056118E+02 -0.49680853342E+01  0.48113033011E+03  0.48481737071E+03  0.00000000000E+00 0.  1.
        -13    1    3    3    0    0  0.32196922015E+02  0.13805924864E+02  0.27740376052E+03  0.27960703084E+03  0.00000000000E+00 0. -1.
         22    1    1    2    0    0  0.27274134102E+02 -0.88378395296E+01  0.11839661856E+03  0.12181849237E+03  0.00000000000E+00 0. -1.
<mgrwt>
<rscale>  0 0.70253489E+02</rscale>
<asrwt>0</asrwt>
<pdfrwt beam="1">  1        1 0.13562861E+00 0.94713774E+02</pdfrwt>
<pdfrwt beam="2">  1       -1 0.71632260E-03 0.94713774E+02</pdfrwt>
<totfact> 0.54123764E+04</totfact>
</mgrwt>
</event>
<event>
 6    1  0.3075717E-002  0.9076059E+02  0.7546771E-02  0.1431727E+00
         -1   -1    0    0    0  501 -0.00000000000E+00  0.00000000000E+00  0.24844014185E+02  0.24844014185E+02  0.00000000000E+00 0.  1.
          1   -1    0    0  501    0  0.00000000000E+00 -0.00000000000E+00 -0.13420571364E+03  0.13420571364E+03  0.00000000000E+00 0. -1.
         23    2    1    2    0    0  0.19090100799E+01 -0.10071171333E+02 -0.11565955942E+03  0.14701910641E+03  0.90179882201E+02 0.  0.
         11    1    3    3    0    0  0.32086242643E+02 -0.27478584357E+02 -0.10051545993E+03  0.10903190932E+03  0.00000000000E+00 0. -1.
        -11    1    3    3    0    0 -0.30177232563E+02  0.17407413023E+02 -0.15144099483E+02  0.37987197086E+02  0.00000000000E+00 0.  1.
         22    1    1    2    0    0 -0.19090100799E+01  0.10071171333E+02  0.62978599625E+01  0.12030621414E+02  0.00000000000E+00 0.  1.
<mgrwt>
<rscale>  0 0.52614962E+02</rscale>
<asrwt>0</asrwt>
<pdfrwt beam="1">  1        1 0.20647033E-01 0.90760586E+02</pdfrwt>
<pdfrwt beam="2">  1       -1 0.38221559E-02 0.90760586E+02</pdfrwt>
<totfact> 0.55575559E+04</totfact>
</mgrwt>
</event>
<event>
 6    1  0.3075717E-002  0.8793439E+02  0.7546771E-02  0.1433876E+00
          2   -1    0    0  501    0  0.00000000000E+00  0.00000000000E+00  0.10063788875E+03  0.10063788875E+03  0.00000000000E+00 0. -1.
         -2   -1    0    0    0  501 -0.00000000000E+00 -0.00000000000E+00 -0.24397737048E+02  0.24397737048E+02  0.00000000000E+00 0.  1.
         23    2    1    2    0    0  0.29077162218E+01 -0.10516488062E+02  0.64837691466E+02  0.10925375537E+03  0.87254830773E+02 0.  0.
         13    1    3    3    0    0 -0.15249381445E+02  0.34785349876E+02  0.19748486185E+02  0.42808491062E+02  0.00000000000E+00 0.  1.
        -13    1    3    3    0    0  0.18157097667E+02 -0.45301837937E+02  0.45089205281E+02  0.66445264309E+02  0.00000000000E+00 0. -1.
         22    1    1    2    0    0 -0.29077162218E+01  0.10516488062E+02  0.11402460236E+02  0.15781870428E+02  0.00000000000E+00 0.  1.
<mgrwt>
<rscale>  0 0.52189826E+02</rscale>
<asrwt>0</asrwt>
<pdfrwt beam="1">  1        2 0.15482752E-01 0.87934389E+02</pdfrwt>
<pdfrwt beam="2">  1       -2 0.37534981E-02 0.87934389E+02</pdfrwt>
<totfact> 0.95782361E+04</totfact>
</mgrwt>
</event>
<event>
 6    1  0.3075717E-002  0.9177222E+02  0.7546771E-02  0.1412483E+00
         -2   -1    0    0    0  501 -0.00000000000E+00  0.00000000000E+00  0.30594526968E+02  0.30594526968E+02  0.00000000000E+00 0.  1.
          2   -1    0    0  501    0  0.00000000000E+00 -0.00000000000E+00 -0.11320417895E+03  0.11320417895E+03  0.00000000000E+00 0. -1.
         23    2    1    2    0    0  0.10149113974E+02 -0.86247161787E+01 -0.90023974930E+02  0.12855526705E+03  0.90800607824E+02 0.  0.
         11    1    3    3    0    0  0.19982707262E+02  0.33810440190E+02 -0.70754644291E+02  0.80923878702E+02  0.00000000000E+00 0. -1.
        -11    1    3    3    0    0 -0.98335932887E+01 -0.42435156369E+02 -0.19269330639E+02  0.47631388351E+02  0.00000000000E+00 0.  1.
         22    1    1    2    0    0 -0.10149113974E+02  0.86247161787E+01  0.74143229490E+01  0.15243438864E+02  0.00000000000E+00 0. -1.
<mgrwt>
<rscale>  0 0.56643444E+02</rscale>
<asrwt>0</asrwt>
<pdfrwt beam="1">  1        2 0.17416028E-01 0.91772221E+02</pdfrwt>
<pdfrwt beam="2">  1       -2 0.47068503E-02 0.91772221E+02</pdfrwt>
<totfact> 0.60373542E+04</totfact>
</mgrwt>
</event>
<event>
 6    1  0.3075717E-002  0.1038201E+03  0.7546771E-02  0.1307930E+00
         -2   -1    0    0    0  501 -0.00000000000E+00  0.00000000000E+00  0.25789556769E+03  0.25789556769E+03  0.00000000000E+00 0.  1.
          2   -1    0    0  501    0  0.00000000000E+00 -0.00000000000E+00 -0.47517860775E+02  0.47517860775E+02  0.00000000000E+00 0. -1.
         23    2    1    2    0    0 -0.12574710393E+02 -0.51932615024E+02  0.17516919461E+02  0.10528746018E+03  0.89013970584E+02 0.  0.
         11    1    3    3    0    0 -0.22901352042E+02 -0.19533168094E+02  0.49935119934E+02  0.58305512466E+02  0.00000000000E+00 0.  1.
        -11    1    3    3    0    0  0.10326641649E+02 -0.32399446930E+02 -0.32418200473E+02  0.46981947714E+02  0.00000000000E+00 0. -1.
         22    1    1    2    0    0  0.12574710393E+02  0.51932615024E+02  0.19286078746E+03  0.20012596829E+03  0.00000000000E+00 0.  1.
<mgrwt>
<rscale>  0 0.87935458E+02</rscale>
<asrwt>0</asrwt>
<pdfrwt beam="1">  1        2 0.73104403E-02 0.10382007E+03</pdfrwt>
<pdfrwt beam="2">  1       -2 0.39676240E-01 0.10382007E+03</pdfrwt>
<totfact> 0.53648969E+03</totfact>
</mgrwt>
</event>
<event>
 6    1  0.3075717E-002  0.9184533E+02  0.7546771E-02  0.1392545E+00
          2   -1    0    0  501    0  0.00000000000E+00  0.00000000000E+00  0.15653576658E+04  0.15653576658E+04  0.00000000000E+00 0. -1.
         -2   -1    0    0    0  501 -0.00000000000E+00 -0.00000000000E+00 -0.34691166857E+01  0.34691166857E+01  0.00000000000E+00 0.  1.
         23    2    1    2    0    0  0.15470216469E+02  0.95853672910E+01  0.15242976243E+04  0.15270621504E+04  0.90024201865E+02 0.  0.
         13    1    3    3    0    0  0.29306194971E+02  0.32443663982E+02  0.38883561473E+03  0.39128580307E+03  0.00000000000E+00 0.  1.
        -13    1    3    3    0    0 -0.13835978502E+02 -0.22858296691E+02  0.11354620095E+04  0.11357763473E+04  0.00000000000E+00 0. -1.
         22    1    1    2    0    0 -0.15470216469E+02 -0.95853672910E+01  0.37590924834E+02  0.41764632090E+02  0.00000000000E+00 0.  1.
<mgrwt>
<rscale>  0 0.61278088E+02</rscale>
<asrwt>0</asrwt>
<pdfrwt beam="1">  1        2 0.24082369E+00 0.91845325E+02</pdfrwt>
<pdfrwt beam="2">  1       -2 0.53371151E-03 0.91845325E+02</pdfrwt>
<totfact> 0.60811709E+04</totfact>
</mgrwt>
</event>
<event>
 6    1  0.3075717E-002  0.9337696E+02  0.7546771E-02  0.1393690E+00
         -2   -1    0    0    0  501 -0.00000000000E+00  0.00000000000E+00  0.14711470607E+02  0.14711470607E+02  0.00000000000E+00 0.  1.
          2   -1    0    0  501    0  0.00000000000E+00 -0.00000000000E+00 -0.16917722234E+04  0.16917722234E+04  0.00000000000E+00 0. -1.
         23    2    1    2    0    0 -0.12155889324E+02  0.11889827781E+02 -0.16850929310E+04  0.16876781220E+04  0.91815704343E+02 0.  0.
         13    1    3    3    0    0 -0.49369886264E+02 -0.87498218192E+00 -0.11902167573E+04  0.11912405637E+04  0.00000000000E+00 0. -1.
        -13    1    3    3    0    0  0.37213996941E+02  0.12764809963E+02 -0.49487617377E+03  0.49643755832E+03  0.00000000000E+00 0.  1.
         22    1    1    2    0    0  0.12155889324E+02 -0.11889827781E+02  0.80321782743E+01  0.18805571987E+02  0.00000000000E+00 0.  1.
<mgrwt>
<rscale>  0 0.60998217E+02</rscale>
<asrwt>0</asrwt>
<pdfrwt beam="1">  1        2 0.26027256E+00 0.93376963E+02</pdfrwt>
<pdfrwt beam="2">  1       -2 0.22633040E-02 0.93376963E+02</pdfrwt>
<totfact> 0.67564409E+03</totfact>
</mgrwt>
</event>
<event>
 6    1  0.3075717E-002  0.1022513E+03  0.7546771E-02  0.1317354E+00
         -2   -1    0    0    0  501 -0.00000000000E+00  0.00000000000E+00  0.50443046332E+01  0.50443046332E+01  0.00000000000E+00 0.  1.
          2   -1    0    0  501    0  0.00000000000E+00 -0.00000000000E+00 -0.22109463734E+04  0.22109463734E+04  0.00000000000E+00 0. -1.
         23    2    1    2    0    0 -0.45948314861E+02 -0.10669334592E+02 -0.20624297370E+04  0.20649628914E+04  0.90720673785E+02 0.  0.
         13    1    3    3    0    0 -0.40304331797E+02 -0.13415066250E+02 -0.20540703123E+04  0.20545094916E+04  0.00000000000E+00 0. -1.
        -13    1    3    3    0    0 -0.56439830635E+01  0.27457316586E+01 -0.83594246811E+01  0.10453399837E+02  0.00000000000E+00 0.  1.
         22    1    1    2    0    0  0.45948314861E+02  0.10669334592E+02 -0.14347233181E+03  0.15102778663E+03  0.00000000000E+00 0.  1.
<mgrwt>
<rscale>  0 0.84269381E+02</rscale>
<asrwt>0</asrwt>
<pdfrwt beam="1">  1        2 0.34014466E+00 0.10225127E+03</pdfrwt>
<pdfrwt beam="2">  1       -2 0.77604900E-03 0.10225127E+03</pdfrwt>
<totfact> 0.17074342E+04</totfact>
</mgrwt>
</event>
<event>
 6    1  0.3075717E-002  0.1103749E+03  0.7546771E-02  0.1290292E+00
         -2   -1    0    0    0  501 -0.00000000000E+00  0.00000000000E+00  0.30911558207E+02  0.30911558207E+02  0.00000000000E+00 0.  1.
          2   -1    0    0  501    0  0.00000000000E+00 -0.00000000000E+00 -0.23971142202E+03  0.23971142202E+03  0.00000000000E+00 0. -1.
         23    2    1    2    0    0  0.56138944710E+02  0.25316990317E+02 -0.12765899603E+03  0.16875850390E+03  0.91597392218E+02 0.  0.
         13    1    3    3    0    0 -0.24099513366E+02  0.15665925868E+02 -0.42958328887E+02  0.51687772235E+02  0.00000000000E+00 0. -1.
        -13    1    3    3    0    0  0.80238458076E+02  0.96510644497E+01 -0.84700667139E+02  0.11707073167E+03  0.00000000000E+00 0.  1.
         22    1    1    2    0    0 -0.56138944710E+02 -0.25316990317E+02 -0.81140867791E+02  0.10186447633E+03  0.00000000000E+00 0.  1.
<mgrwt>
<rscale>  0 0.95393507E+02</rscale>
<asrwt>0</asrwt>
<pdfrwt beam="1">  1        2 0.36878682E-01 0.11037488E+03</pdfrwt>
<pdfrwt beam="2">  1       -2 0.47556241E-02 0.11037488E+03</pdfrwt>
<totfact> 0.26786999E+04</totfact>
</mgrwt>
</event>
<event>
 6    1  0.3075717E-002  0.8941254E+02  0.7546771E-02  0.1419542E+00
          1   -1    0    0  501    0  0.00000000000E+00  0.00000000000E+00  0.22579133190E+03  0.22579133190E+03  0.00000000000E+00 0. -1.
         -1   -1    0    0    0  501 -0.00000000000E+00 -0.00000000000E+00 -0.16061315551E+02  0.16061315551E+02  0.00000000000E+00 0.  1.
         23    2    1    2    0    0  0.62367610075E+01  0.11305235964E+02  0.21071824572E+03  0.22890343337E+03  0.88475404388E+02 0.  0.
         11    1    3    3    0    0  0.34313954363E+02  0.34533451158E+02  0.84397678273E+02  0.97431898323E+02  0.00000000000E+00 0.  1.
        -11    1    3    3    0    0 -0.28077193355E+02 -0.23228215194E+02  0.12632056745E+03  0.13147153505E+03  0.00000000000E+00 0. -1.
         22    1    1    2    0    0 -0.62367610075E+01 -0.11305235964E+02 -0.98822936881E+00  0.12949214083E+02  0.00000000000E+00 0.  1.
<mgrwt>
<rscale>  0 0.55117891E+02</rscale>
<asrwt>0</asrwt>
<pdfrwt beam="1">  1        1 0.34737126E-01 0.89412542E+02</pdfrwt>
<pdfrwt beam="2">  1       -1 0.24709718E-02 0.89412542E+02</pdfrwt>
<totfact> 0.54681463E+04</totfact>
</mgrwt>
</event>
<event>
 6    1  0.3075717E-002  0.1016669E+03  0.7546771E-02  0.1315501E+00
          2   -1    0    0  501    0  0.00000000000E+00  0.00000000000E+00  0.31355251971E+03  0.31355251971E+03  0.00000000000E+00 0.  1.
         -2   -1    0    0    0  501 -0.00000000000E+00 -0.00000000000E+00 -0.20116404966E+02  0.20116404966E+02  0.00000000000E+00 0. -1.
         23    2    1    2    0    0  0.25799065936E+02  0.42378117117E+02  0.14446250778E+03  0.17665098881E+03  0.88739275847E+02 0.  0.
         13    1    3    3    0    0 -0.31104313885E+02  0.38004670474E+01  0.31625790377E+02  0.44520922149E+02  0.00000000000E+00 0. -1.
        -13    1    3    3    0    0  0.56903379821E+02  0.38577650069E+02  0.11283671740E+03  0.13213006666E+03  0.00000000000E+00 0.  1.
         22    1    1    2    0    0 -0.25799065936E+02 -0.42378117117E+02  0.14897360696E+03  0.15701793587E+03  0.00000000000E+00 0.  1.
<mgrwt>
<rscale>  0 0.84973703E+02</rscale>
<asrwt>0</asrwt>
<pdfrwt beam="1">  1        2 0.48238846E-01 0.10166689E+03</pdfrwt>
<pdfrwt beam="2">  1       -2 0.30948318E-02 0.10166689E+03</pdfrwt>
<totfact> 0.37679025E+04</totfact>
</mgrwt>
</event>
<event>
 6    1  0.3075717E-002  0.9660928E+02  0.7546771E-02  0.1345947E+00
          2   -1    0    0  501    0  0.00000000000E+00  0.00000000000E+00  0.50200441060E+02  0.50200441060E+02  0.00000000000E+00 0. -1.
         -2   -1    0    0    0  501 -0.00000000000E+00 -0.00000000000E+00 -0.91529845710E+02  0.91529845710E+02  0.00000000000E+00 0.  1.
         23    2    1    2    0    0  0.79029755234E+00 -0.33850355643E+02 -0.12799302906E+02  0.97453454760E+02  0.90481393349E+02 0.  0.
         11    1    3    3    0    0  0.37659246452E+02 -0.39442184632E+02  0.74167690608E+01  0.55035563367E+02  0.00000000000E+00 0. -1.
        -11    1    3    3    0    0 -0.36868948900E+02  0.55918289893E+01 -0.20216071967E+02  0.42417891392E+02  0.00000000000E+00 0.  1.
         22    1    1    2    0    0 -0.79029755234E+00  0.33850355643E+02 -0.28530101743E+02  0.44276832010E+02  0.00000000000E+00 0. -1.
<mgrwt>
<rscale>  0 0.74333492E+02</rscale>
<asrwt>0</asrwt>
<pdfrwt beam="1">  1        2 0.77231448E-02 0.96609284E+02</pdfrwt>
<pdfrwt beam="2">  1       -2 0.14081515E-01 0.96609284E+02</pdfrwt>
<totfact> 0.29774835E+04</totfact>
</mgrwt>
</event>
<event>
 6    1  0.3075717E-002  0.1007240E+03  0.7546771E-02  0.1323395E+00
          1   -1    0    0  501    0  0.00000000000E+00  0.00000000000E+00  0.55170552183E+03  0.55170552183E+03  0.00000000000E+00 0. -1.
         -1   -1    0    0    0  501 -0.00000000000E+00 -0.00000000000E+00 -0.65985182111E+02  0.65985182111E+02  0.00000000000E+00 0.  1.
         23    2    1    2    0    0 -0.10896649353E+01 -0.44289419170E+02  0.53903860086E+03  0.54836843487E+03  0.90457653766E+02 0.  0.
         13    1    3    3    0    0  0.44052814122E+02 -0.16942805571E+02  0.22144225804E+03  0.22641639238E+03  0.00000000000E+00 0.  1.
        -13    1    3    3    0    0 -0.45142479057E+02 -0.27346613600E+02  0.31759634282E+03  0.32195204249E+03  0.00000000000E+00 0. -1.
         22    1    1    2    0    0  0.10896649353E+01  0.44289419170E+02 -0.53318261132E+02  0.69322269079E+02  0.00000000000E+00 0.  1.
<mgrwt>
<rscale>  0 0.82027149E+02</rscale>
<asrwt>0</asrwt>
<pdfrwt beam="1">  1        1 0.84877769E-01 0.10072401E+03</pdfrwt>
<pdfrwt beam="2">  1       -1 0.10151567E-01 0.10072401E+03</pdfrwt>
<totfact> 0.22838162E+03</totfact>
</mgrwt>
</event>
<event>
 6    1  0.3075717E-002  0.9294555E+02  0.7546771E-02  0.1426958E+00
         -2   -1    0    0    0  501 -0.00000000000E+00  0.00000000000E+00  0.60593669935E+01  0.60593669935E+01  0.00000000000E+00 0.  1.
          2   -1    0    0  501    0  0.00000000000E+00 -0.00000000000E+00 -0.46430752902E+03  0.46430752902E+03  0.00000000000E+00 0. -1.
         23    2    1    2    0    0 -0.10104484853E+02 -0.17835678873E+01 -0.43694875712E+03  0.44672484919E+03  0.92377447507E+02 0.  0.
         13    1    3    3    0    0  0.16393464085E+02  0.32192422730E+02 -0.88010932641E+02  0.95136859368E+02  0.00000000000E+00 0.  1.
        -13    1    3    3    0    0 -0.26497948939E+02 -0.33975990618E+02 -0.34893782448E+03  0.35158798982E+03  0.00000000000E+00 0. -1.
         22    1    1    2    0    0  0.10104484853E+02  0.17835678873E+01 -0.21299404906E+02  0.23642046821E+02  0.00000000000E+00 0.  1.
<mgrwt>
<rscale>  0 0.53575417E+02</rscale>
<asrwt>0</asrwt>
<pdfrwt beam="1">  1        2 0.71431934E-01 0.92945546E+02</pdfrwt>
<pdfrwt beam="2">  1       -2 0.93221022E-03 0.92945546E+02</pdfrwt>
<totfact> 0.13756863E+05</totfact>
</mgrwt>
</event>
<event>
 6    1  0.3075717E-002  0.9326076E+02  0.7546771E-02  0.1424229E+00
         -2   -1    0    0    0  501 -0.00000000000E+00  0.00000000000E+00  0.21116182910E+02  0.21116182910E+02  0.00000000000E+00 0.  1.
          2   -1    0    0  501    0  0.00000000000E+00 -0.00000000000E+00 -0.12845169848E+03  0.12845169848E+03  0.00000000000E+00 0. -1.
         23    2    1    2    0    0  0.10073056672E+02 -0.32645412730E+01 -0.92617273170E+02  0.13143640710E+03  0.92657682479E+02 0.  0.
         11    1    3    3    0    0  0.18271233641E+02 -0.44960922531E+02 -0.34965136142E+02  0.59815410046E+02  0.00000000000E+00 0. -1.
        -11    1    3    3    0    0 -0.81981769696E+01  0.41696381258E+02 -0.57652137028E+02  0.71620997058E+02  0.00000000000E+00 0.  1.
         22    1    1    2    0    0 -0.10073056672E+02  0.32645412730E+01 -0.14718242399E+02  0.18131474285E+02  0.00000000000E+00 0.  1.
<mgrwt>
<rscale>  0 0.54136029E+02</rscale>
<asrwt>0</asrwt>
<pdfrwt beam="1">  1        2 0.19761800E-01 0.93260763E+02</pdfrwt>
<pdfrwt beam="2">  1       -2 0.32486435E-02 0.93260763E+02</pdfrwt>
<totfact> 0.90501944E+04</totfact>
</mgrwt>
</event>
<event>
 6    1  0.3075717E-002  0.9214480E+02  0.7546771E-02  0.1388260E+00
          2   -1    0    0  501    0  0.00000000000E+00  0.00000000000E+00  0.17041783068E+02  0.17041783068E+02  0.00000000000E+00 0. -1.
         -2   -1    0    0    0  501 -0.00000000000E+00 -0.00000000000E+00 -0.20856247333E+03  0.20856247333E+03  0.00000000000E+00 0.  1.
         23    2    1    2    0    0  0.16178119654E+02 -0.10535863148E+02 -0.11869918746E+03  0.15026696657E+03  0.90099545901E+02 0.  0.
         13    1    3    3    0    0  0.15028226683E+02  0.33171297941E+02 -0.92223907942E+02  0.99153576841E+02  0.00000000000E+00 0.  1.
        -13    1    3    3    0    0  0.11498929712E+01 -0.43707161090E+02 -0.26475279520E+02  0.51113389733E+02  0.00000000000E+00 0. -1.
         22    1    1    2    0    0 -0.16178119654E+02  0.10535863148E+02 -0.72821502803E+02  0.75337289826E+02  0.00000000000E+00 0. -1.
<mgrwt>
<rscale>  0 0.62341649E+02</rscale>
<asrwt>0</asrwt>
<pdfrwt beam="1">  1        2 0.26218128E-02 0.92144800E+02</pdfrwt>
<pdfrwt beam="2">  1       -2 0.32086534E-01 0.92144800E+02</pdfrwt>
<totfact> 0.29725170E+04</totfact>
</mgrwt>
</event>
<event>
 6    1  0.3075717E-002  0.9539452E+02  0.7546771E-02  0.1413023E+00
          2   -1    0    0  501    0  0.00000000000E+00  0.00000000000E+00  0.96274582018E+01  0.96274582018E+01  0.00000000000E+00 0.  1.
         -2   -1    0    0    0  501 -0.00000000000E+00 -0.00000000000E+00 -0.29962101680E+03  0.29962101680E+03  0.00000000000E+00 0. -1.
         23    2    1    2    0    0 -0.11486833271E+02 -0.25170410030E+01 -0.25083200448E+03  0.26835947703E+03  0.94666950977E+02 0.  0.
         11    1    3    3    0    0 -0.23086655042E+02 -0.14595613139E+02 -0.25011038970E+03  0.25159736207E+03  0.00000000000E+00 0. -1.
        -11    1    3    3    0    0  0.11599821771E+02  0.12078572136E+02 -0.72161477394E+00  0.16762114958E+02  0.00000000000E+00 0.  1.
         22    1    1    2    0    0  0.11486833271E+02  0.25170410030E+01 -0.39161554121E+02  0.40888997973E+02  0.00000000000E+00 0. -1.
<mgrwt>
<rscale>  0 0.56524744E+02</rscale>
<asrwt>0</asrwt>
<pdfrwt beam="1">  1        2 0.14811474E-02 0.95394520E+02</pdfrwt>
<pdfrwt beam="2">  1       -2 0.46095540E-01 0.95394520E+02</pdfrwt>
<totfact> 0.32850986E+04</totfact>
</mgrwt>
</event>
<event>
 6    1  0.3075717E-002  0.9583214E+02  0.7546771E-02  0.1357161E+00
         -2   -1    0    0    0  501 -0.00000000000E+00  0.00000000000E+00  0.27438215118E+02  0.27438215118E+02  0.00000000000E+00 0. -1.
          2   -1    0    0  501    0  0.00000000000E+00 -0.00000000000E+00 -0.14122722339E+03  0.14122722339E+03  0.00000000000E+00 0.  1.
         23    2    1    2    0    0  0.28447946594E+02 -0.34956655603E+01 -0.88244725515E+02  0.13027252608E+03  0.91445580137E+02 0.  0.
         13    1    3    3    0    0  0.42454787239E+02  0.43091299646E+01 -0.10108973011E+03  0.10972744002E+03  0.00000000000E+00 0.  1.
        -13    1    3    3    0    0 -0.14006840645E+02 -0.78047955249E+01  0.12845004593E+02  0.20545086056E+02  0.00000000000E+00 0. -1.
         22    1    1    2    0    0 -0.28447946594E+02  0.34956655603E+01 -0.25544282753E+02  0.38392912425E+02  0.00000000000E+00 0.  1.
<mgrwt>
<rscale>  0 0.70869553E+02</rscale>
<asrwt>0</asrwt>
<pdfrwt beam="1">  1        2 0.21727265E-01 0.95832142E+02</pdfrwt>
<pdfrwt beam="2">  1       -2 0.42212638E-02 0.95832142E+02</pdfrwt>
<totfact> 0.55667486E+04</totfact>
</mgrwt>
</event>
<event>
 6    1  0.3075717E-002  0.9145991E+02  0.7546771E-02  0.1368003E+00
          2   -1    0    0  501    0  0.00000000000E+00  0.00000000000E+00  0.78220324347E+02  0.78220324347E+02  0.00000000000E+00 0.  1.
         -2   -1    0    0    0  501 -0.00000000000E+00 -0.00000000000E+00 -0.15657813444E+03  0.15657813444E+03  0.00000000000E+00 0. -1.
         23    2    1    2    0    0 -0.12152013253E+02 -0.24668112598E+02  0.49514410750E+02  0.10400284698E+03  0.87228023606E+02 0.  0.
         13    1    3    3    0    0 -0.21361395627E+02 -0.45970698073E+02  0.59990730654E+02  0.78539811999E+02  0.00000000000E+00 0.  1.
        -13    1    3    3    0    0  0.92093823734E+01  0.21302585475E+02 -0.10476319903E+02  0.25463034979E+02  0.00000000000E+00 0. -1.
         22    1    1    2    0    0  0.12152013253E+02  0.24668112598E+02 -0.12787222084E+03  0.13079561181E+03  0.00000000000E+00 0. -1.
<mgrwt>
<rscale>  0 0.67725426E+02</rscale>
<asrwt>0</asrwt>
<pdfrwt beam="1">  1        2 0.12033896E-01 0.91459911E+02</pdfrwt>
<pdfrwt beam="2">  1       -2 0.24088944E-01 0.91459911E+02</pdfrwt>
<totfact> 0.70711071E+03</totfact>
</mgrwt>
</event>
<event>
 6    1  0.3075717E-002  0.9671425E+02  0.7546771E-02  0.1361036E+00
         -4   -1    0    0    0  501 -0.00000000000E+00  0.00000000000E+00  0.20043384221E+04  0.20043384221E+04  0.00000000000E+00 0.  1.
          4   -1    0    0  501    0  0.00000000000E+00 -0.00000000000E+00 -0.25872948356E+01  0.25872948356E+01  0.00000000000E+00 0. -1.
         23    2    1    2    0    0 -0.77282906149E+01  0.24955127005E+02  0.18759130380E+04  0.18784044753E+04  0.93119073649E+02 0.  0.
         13    1    3    3    0    0 -0.22519281776E+02  0.56761888664E+02  0.12866487105E+04  0.12880970205E+04  0.00000000000E+00 0.  1.
        -13    1    3    3    0    0  0.14790991161E+02 -0.31806761659E+02  0.58926432754E+03  0.59030745482E+03  0.00000000000E+00 0. -1.
         22    1    1    2    0    0  0.77282906149E+01 -0.24955127005E+02  0.12583808923E+03  0.12852124159E+03  0.00000000000E+00 0. -1.
<mgrwt>
<rscale>  0 0.69723549E+02</rscale>
<asrwt>0</asrwt>
<pdfrwt beam="1">  1        4 0.39804696E-03 0.96714253E+02</pdfrwt>
<pdfrwt beam="2">  1       -4 0.30835852E+00 0.96714253E+02</pdfrwt>
<totfact> 0.61937816E+02</totfact>
</mgrwt>
</event>
<event>
 6    1  0.3075717E-002  0.9170628E+02  0.7546771E-02  0.1430161E+00
         -2   -1    0    0    0  501 -0.00000000000E+00  0.00000000000E+00  0.98633288217E+02  0.98633288217E+02  0.00000000000E+00 0.  1.
          2   -1    0    0  501    0  0.00000000000E+00 -0.00000000000E+00 -0.33030156187E+02  0.33030156187E+02  0.00000000000E+00 0. -1.
         23    2    1    2    0    0 -0.85892753779E+01  0.54548776755E+01  0.32924695580E+02  0.97437554339E+02  0.91140057464E+02 0.  0.
         11    1    3    3    0    0 -0.21114644030E+02 -0.10963242019E+02 -0.25855269770E+02  0.35135677636E+02  0.00000000000E+00 0. -1.
        -11    1    3    3    0    0  0.12525368652E+02  0.16418119694E+02  0.58779965350E+02  0.62301876703E+02  0.00000000000E+00 0.  1.
         22    1    1    2    0    0  0.85892753779E+01 -0.54548776755E+01  0.32678436449E+02  0.34225890065E+02  0.00000000000E+00 0.  1.
<mgrwt>
<rscale>  0 0.52927732E+02</rscale>
<asrwt>0</asrwt>
<pdfrwt beam="1">  1        2 0.50815625E-02 0.91706278E+02</pdfrwt>
<pdfrwt beam="2">  1       -2 0.15174352E-01 0.91706278E+02</pdfrwt>
<totfact> 0.44572066E+04</totfact>
</mgrwt>
</event>
<event>
 6    1  0.3075717E-002  0.9655137E+02  0.7546771E-02  0.1359986E+00
         -2   -1    0    0    0  501 -0.00000000000E+00  0.00000000000E+00  0.79582678405E+02  0.79582678405E+02  0.00000000000E+00 0.  1.
          2   -1    0    0  501    0  0.00000000000E+00 -0.00000000000E+00 -0.49065012562E+02  0.49065012562E+02  0.00000000000E+00 0. -1.
         23    2    1    2    0    0 -0.20520950880E+02  0.17118608162E+02  0.14897970952E+02  0.97693999121E+02  0.92779371390E+02 0.  0.
         13    1    3    3    0    0 -0.53015070746E+02  0.24287431150E+02 -0.56480084430E+01  0.58586491937E+02  0.00000000000E+00 0. -1.
        -13    1    3    3    0    0  0.32494119866E+02 -0.71688229882E+01  0.20545979395E+02  0.39107507185E+02  0.00000000000E+00 0.  1.
         22    1    1    2    0    0  0.20520950880E+02 -0.17118608162E+02  0.15619694892E+02  0.30953691846E+02  0.00000000000E+00 0.  1.
<mgrwt>
<rscale>  0 0.70031430E+02</rscale>
<asrwt>0</asrwt>
<pdfrwt beam="1">  1        2 0.75484635E-02 0.96551375E+02</pdfrwt>
<pdfrwt beam="2">  1       -2 0.12243489E-01 0.96551375E+02</pdfrwt>
<totfact> 0.38305118E+04</totfact>
</mgrwt>
</event>
<event>
 6    1  0.3075717E-002  0.9400542E+02  0.7546771E-02  0.1390002E+00
          1   -1    0    0  501    0  0.00000000000E+00  0.00000000000E+00  0.21131229870E+03  0.21131229870E+03  0.00000000000E+00 0. -1.
         -1   -1    0    0    0  501 -0.00000000000E+00 -0.00000000000E+00 -0.21162380878E+02  0.21162380878E+02  0.00000000000E+00 0.  1.
         23    2    1    2    0    0 -0.39361736567E+01  0.17236105994E+02  0.19289580207E+03  0.21458287438E+03  0.92327908594E+02 0.  0.
         11    1    3    3    0    0 -0.78887758074E+01  0.25385358553E+02  0.57241212353E+01  0.27192182268E+02  0.00000000000E+00 0.  1.
        -11    1    3    3    0    0  0.39526021507E+01 -0.81492525587E+01  0.18717168084E+03  0.18739069211E+03  0.00000000000E+00 0. -1.
         22    1    1    2    0    0  0.39361736567E+01 -0.17236105994E+02 -0.27458842557E+01  0.17891805198E+02  0.00000000000E+00 0.  1.
<mgrwt>
<rscale>  0 0.61906218E+02</rscale>
<asrwt>0</asrwt>
<pdfrwt beam="1">  1        1 0.32509583E-01 0.94005423E+02</pdfrwt>
<pdfrwt beam="2">  1       -1 0.32557510E-02 0.94005423E+02</pdfrwt>
<totfact> 0.40144166E+04</totfact>
</mgrwt>
</event>
<event>
 6    1  0.3075717E-002  0.9279163E+02  0.7546771E-02  0.1427019E+00
          2   -1    0    0  501    0  0.00000000000E+00  0.00000000000E+00  0.85616855077E+03  0.85616855077E+03  0.00000000000E+00 0. -1.
         -2   -1    0    0    0  501 -0.00000000000E+00 -0.00000000000E+00 -0.32075082316E+01  0.32075082316E+01  0.00000000000E+00 0.  1.
         23    2    1    2    0    0 -0.69716047696E+01 -0.75850727166E+01  0.80439481937E+03  0.80972915946E+03  0.92217946466E+02 0.  0.
         13    1    3    3    0    0  0.12214743783E+02 -0.17591059779E+02  0.43105904155E+02  0.48132778051E+02  0.00000000000E+00 0.  1.
        -13    1    3    3    0    0 -0.19186348553E+02  0.10005987062E+02  0.76128891522E+03  0.76159638141E+03  0.00000000000E+00 0. -1.
         22    1    1    2    0    0  0.69716047696E+01  0.75850727166E+01  0.48566223167E+02  0.49646899540E+02  0.00000000000E+00 0.  1.
<mgrwt>
<rscale>  0 0.53562981E+02</rscale>
<asrwt>0</asrwt>
<pdfrwt beam="1">  1        2 0.13171806E+00 0.92791628E+02</pdfrwt>
<pdfrwt beam="2">  1       -2 0.49346349E-03 0.92791628E+02</pdfrwt>
<totfact> 0.16728376E+05</totfact>
</mgrwt>
</event>
<event>
 6    1  0.3075717E-002  0.9177164E+02  0.7546771E-02  0.1402878E+00
          2   -1    0    0  501    0  0.00000000000E+00  0.00000000000E+00  0.26748637330E+02  0.26748637330E+02  0.00000000000E+00 0. -1.
         -2   -1    0    0    0  501 -0.00000000000E+00 -0.00000000000E+00 -0.15789847235E+03  0.15789847235E+03  0.00000000000E+00 0.  1.
         23    2    1    2    0    0  0.13529814990E+02 -0.75232964607E+01 -0.55109971785E+02  0.10704738878E+03  0.90456500986E+02 0.  0.
         11    1    3    3    0    0  0.14124459076E+02  0.96292852414E+01  0.22107379781E+02  0.27945656536E+02  0.00000000000E+00 0. -1.
        -11    1    3    3    0    0 -0.59464408555E+00 -0.17152581702E+02 -0.77217351566E+02  0.79101732241E+02  0.00000000000E+00 0.  1.
         22    1    1    2    0    0 -0.13529814990E+02  0.75232964607E+01 -0.76039863236E+02  0.77599720903E+02  0.00000000000E+00 0. -1.
<mgrwt>
<rscale>  0 0.58813888E+02</rscale>
<asrwt>0</asrwt>
<pdfrwt beam="1">  1        2 0.41151750E-02 0.91771643E+02</pdfrwt>
<pdfrwt beam="2">  1       -2 0.24292072E-01 0.91771643E+02</pdfrwt>
<totfact> 0.26728626E+04</totfact>
</mgrwt>
</event>
<event>
 6    1  0.3075717E-002  0.9530404E+02  0.7546771E-02  0.1370386E+00
          2   -1    0    0  501    0  0.00000000000E+00  0.00000000000E+00  0.10419459296E+04  0.10419459296E+04  0.00000000000E+00 0.  1.
         -2   -1    0    0    0  501 -0.00000000000E+00 -0.00000000000E+00 -0.43273092258E+01  0.43273092258E+01  0.00000000000E+00 0. -1.
         23    2    1    2    0    0  0.23316951526E+02 -0.14586843216E+01  0.97121275665E+03  0.97587759460E+03  0.92396174048E+02 0.  0.
         13    1    3    3    0    0  0.36194056198E+02 -0.38292140865E+02  0.42127871206E+03  0.42456100974E+03  0.00000000000E+00 0. -1.
        -13    1    3    3    0    0 -0.12877104672E+02  0.36833456544E+02  0.54993404459E+03  0.55131658486E+03  0.00000000000E+00 0.  1.
         22    1    1    2    0    0 -0.23316951526E+02  0.14586843216E+01  0.66405863690E+02  0.70395644189E+02  0.00000000000E+00 0. -1.
<mgrwt>
<rscale>  0 0.67059990E+02</rscale>
<asrwt>0</asrwt>
<pdfrwt beam="1">  1        2 0.16029917E+00 0.95304045E+02</pdfrwt>
<pdfrwt beam="2">  1       -2 0.66574071E-03 0.95304045E+02</pdfrwt>
<totfact> 0.85123096E+04</totfact>
</mgrwt>
</event>
<event>
 6    1  0.3075717E-002  0.1188365E+03  0.7546771E-02  0.1269609E+00
         -2   -1    0    0    0  501 -0.00000000000E+00  0.00000000000E+00  0.10804122240E+03  0.10804122240E+03  0.00000000000E+00 0.  1.
          2   -1    0    0  501    0  0.00000000000E+00 -0.00000000000E+00 -0.87300594101E+02  0.87300594101E+02  0.00000000000E+00 0. -1.
         23    2    1    2    0    0  0.57140625442E+02 -0.45666146912E+02  0.27202693618E+02  0.12191017252E+03  0.93657117056E+02 0.  0.
         13    1    3    3    0    0  0.53761685723E+02 -0.20404940319E+02 -0.25854915342E+02  0.63048846846E+02  0.00000000000E+00 0. -1.
        -13    1    3    3    0    0  0.33789397188E+01 -0.25261206593E+02  0.53057608960E+02  0.58861325679E+02  0.00000000000E+00 0.  1.
         22    1    1    2    0    0 -0.57140625442E+02  0.45666146912E+02 -0.64620653145E+01  0.73431643981E+02  0.00000000000E+00 0.  1.
<mgrwt>
<rscale>  0 0.10525944E+03</rscale>
<asrwt>0</asrwt>
<pdfrwt beam="1">  1        2 0.13430861E-01 0.11883646E+03</pdfrwt>
<pdfrwt beam="2">  1       -2 0.16621726E-01 0.11883646E+03</pdfrwt>
<totfact> 0.11864218E+04</totfact>
</mgrwt>
</event>
<event>
 6    1  0.3075717E-002  0.9131210E+02  0.7546771E-02  0.1410536E+00
         -2   -1    0    0    0  501 -0.00000000000E+00  0.00000000000E+00  0.37694866393E+02  0.37694866393E+02  0.00000000000E+00 0.  1.
          2   -1    0    0  501    0  0.00000000000E+00 -0.00000000000E+00 -0.17656837103E+03  0.17656837103E+03  0.00000000000E+00 0. -1.
         23    2    1    2    0    0 -0.10892983448E+02  0.86943652326E+01 -0.16275045637E+03  0.18661621408E+03  0.90242181005E+02 0.  0.
         13    1    3    3    0    0  0.10582158292E+02 -0.12208904529E+02 -0.15475918110E+03  0.15560026850E+03  0.00000000000E+00 0. -1.
        -13    1    3    3    0    0 -0.21475141740E+02  0.20903269762E+02 -0.79912752741E+01  0.31015945576E+02  0.00000000000E+00 0.  1.
         22    1    1    2    0    0  0.10892983448E+02 -0.86943652326E+01  0.23876951739E+02  0.27647023340E+02  0.00000000000E+00 0.  1.
<mgrwt>
<rscale>  0 0.57074371E+02</rscale>
<asrwt>0</asrwt>
<pdfrwt beam="1">  1        2 0.27164365E-01 0.91312104E+02</pdfrwt>
<pdfrwt beam="2">  1       -2 0.57992102E-02 0.91312104E+02</pdfrwt>
<totfact> 0.27032626E+04</totfact>
</mgrwt>
</event>
<event>
 6    1  0.3075717E-002  0.1272195E+03  0.7546771E-02  0.1248997E+00
          2   -1    0    0  501    0  0.00000000000E+00  0.00000000000E+00  0.66045183240E+03  0.66045183240E+03  0.00000000000E+00 0. -1.
         -2   -1    0    0    0  501 -0.00000000000E+00 -0.00000000000E+00 -0.20610897495E+02  0.20610897495E+02  0.00000000000E+00 0.  1.
         23    2    1    2    0    0 -0.62445632169E+02 -0.64033054371E+02  0.24322785446E+03  0.27448970495E+03  0.90471652530E+02 0.  0.
         11    1    3    3    0    0 -0.35624710744E+02  0.11387985483E+02  0.13367155312E+03  0.13880522448E+03  0.00000000000E+00 0. -1.
        -11    1    3    3    0    0 -0.26820921425E+02 -0.75421039853E+02  0.10955630134E+03  0.13568448047E+03  0.00000000000E+00 0.  1.
         22    1    1    2    0    0  0.62445632169E+02  0.64033054371E+02  0.39661308045E+03  0.40657302495E+03  0.00000000000E+00 0. -1.
<mgrwt>
<rscale>  0 0.11649291E+03</rscale>
<asrwt>0</asrwt>
<pdfrwt beam="1">  1        2 0.10160796E+00 0.12721953E+03</pdfrwt>
<pdfrwt beam="2">  1       -2 0.31709078E-02 0.12721953E+03</pdfrwt>
<totfact> 0.16554680E+04</totfact>
</mgrwt>
</event>
<event>
 6    1  0.3075717E-002  0.9063890E+02  0.7546771E-02  0.1411873E+00
          2   -1    0    0  501    0  0.00000000000E+00  0.00000000000E+00  0.31319797206E+03  0.31319797206E+03  0.00000000000E+00 0. -1.
         -2   -1    0    0    0  501 -0.00000000000E+00 -0.00000000000E+00 -0.87964242195E+01  0.87964242195E+01  0.00000000000E+00 0.  1.
         23    2    1    2    0    0  0.92600093653E+01  0.10442050445E+02  0.27233699589E+03  0.28702412772E+03  0.89557949816E+02 0.  0.
         11    1    3    3    0    0  0.18956889513E+02  0.13122461203E+02  0.27551161241E+03  0.27647461226E+03  0.00000000000E+00 0. -1.
        -11    1    3    3    0    0 -0.96968801478E+01 -0.26804107580E+01 -0.31746165279E+01  0.10549515464E+02  0.00000000000E+00 0.  1.
         22    1    1    2    0    0 -0.92600093653E+01 -0.10442050445E+02  0.32064551952E+02  0.34970268556E+02  0.00000000000E+00 0.  1.
<mgrwt>
<rscale>  0 0.56778013E+02</rscale>
<asrwt>0</asrwt>
<pdfrwt beam="1">  1        2 0.48184295E-01 0.90638902E+02</pdfrwt>
<pdfrwt beam="2">  1       -2 0.13532963E-02 0.90638902E+02</pdfrwt>
<totfact> 0.12223878E+05</totfact>
</mgrwt>
</event>
<event>
 6    1  0.3075717E-002  0.9236210E+02  0.7546771E-02  0.1402762E+00
          2   -1    0    0  501    0  0.00000000000E+00  0.00000000000E+00  0.14647880287E+02  0.14647880287E+02  0.00000000000E+00 0. -1.
         -2   -1    0    0    0  501 -0.00000000000E+00 -0.00000000000E+00 -0.23676741846E+03  0.23676741846E+03  0.00000000000E+00 0.  1.
         23    2    1    2    0    0  0.33403230580E+01 -0.14842269800E+02 -0.13882450562E+03  0.16674232089E+03  0.91100535038E+02 0.  0.
         13    1    3    3    0    0  0.24552972987E+02 -0.17646068702E+02 -0.14193535935E+03  0.14512022071E+03  0.00000000000E+00 0.  1.
        -13    1    3    3    0    0 -0.21212649929E+02  0.28037989027E+01  0.31108537363E+01  0.21622100181E+02  0.00000000000E+00 0. -1.
         22    1    1    2    0    0 -0.33403230580E+01  0.14842269800E+02 -0.83295032554E+02  0.84672977857E+02  0.00000000000E+00 0.  1.
<mgrwt>
<rscale>  0 0.58840680E+02</rscale>
<asrwt>0</asrwt>
<pdfrwt beam="1">  1        2 0.22535201E-02 0.92362104E+02</pdfrwt>
<pdfrwt beam="2">  1       -2 0.36425756E-01 0.92362104E+02</pdfrwt>
<totfact> 0.28900638E+04</totfact>
</mgrwt>
</event>
<event>
 6    1  0.3075717E-002  0.9437263E+02  0.7546771E-02  0.1386556E+00
         -2   -1    0    0    0  501 -0.00000000000E+00  0.00000000000E+00  0.10021238743E+02  0.10021238743E+02  0.00000000000E+00 0.  1.
          2   -1    0    0  501    0  0.00000000000E+00 -0.00000000000E+00 -0.49562912966E+03  0.49562912966E+03  0.00000000000E+00 0. -1.
         23    2    1    2    0    0 -0.46595753072E+01  0.17874642756E+02 -0.47513384723E+03  0.48441548938E+03  0.92547172167E+02 0.  0.
         13    1    3    3    0    0 -0.23359180248E+02  0.15263586786E+02 -0.45821294880E+03  0.45906179849E+03  0.00000000000E+00 0. -1.
        -13    1    3    3    0    0  0.18699604941E+02  0.26110559706E+01 -0.16920898422E+02  0.25353690888E+02  0.00000000000E+00 0.  1.
         22    1    1    2    0    0  0.46595753072E+01 -0.17874642756E+02 -0.10474043686E+02  0.21234879017E+02  0.00000000000E+00 0.  1.
<mgrwt>
<rscale>  0 0.62771569E+02</rscale>
<asrwt>0</asrwt>
<pdfrwt beam="1">  1        2 0.76250601E-01 0.94372631E+02</pdfrwt>
<pdfrwt beam="2">  1       -2 0.15417297E-02 0.94372631E+02</pdfrwt>
<totfact> 0.62861112E+04</totfact>
</mgrwt>
</event>
<event>
 6    1  0.3075717E-002  0.9234314E+02  0.7546771E-02  0.1412647E+00
          2   -1    0    0  501    0  0.00000000000E+00  0.00000000000E+00  0.36731097279E+02  0.36731097279E+02  0.00000000000E+00 0. -1.
         -2   -1    0    0    0  501 -0.00000000000E+00 -0.00000000000E+00 -0.76370921203E+02  0.76370921203E+02  0.00000000000E+00 0.  1.
         23    2    1    2    0    0  0.12967648039E+02  0.13707129585E+01 -0.30783534864E+02  0.97339004633E+02  0.91417815849E+02 0.  0.
         11    1    3    3    0    0  0.37005843494E+02  0.52770762620E+01  0.18989703531E+02  0.41927184818E+02  0.00000000000E+00 0. -1.
        -11    1    3    3    0    0 -0.24038195455E+02 -0.39063633035E+01 -0.49773238394E+02  0.55411819815E+02  0.00000000000E+00 0.  1.
         22    1    1    2    0    0 -0.12967648039E+02 -0.13707129585E+01 -0.88562890600E+01  0.15763013849E+02  0.00000000000E+00 0. -1.
<mgrwt>
<rscale>  0 0.56607239E+02</rscale>
<asrwt>0</asrwt>
<pdfrwt beam="1">  1        2 0.56509381E-02 0.92343142E+02</pdfrwt>
<pdfrwt beam="2">  1       -2 0.11749372E-01 0.92343142E+02</pdfrwt>
<totfact> 0.58596933E+04</totfact>
</mgrwt>
</event>
<event>
 6    1  0.3075717E-002  0.9668887E+02  0.7546771E-02  0.1347807E+00
         -4   -1    0    0    0  501 -0.00000000000E+00  0.00000000000E+00  0.10290276697E+03  0.10290276697E+03  0.00000000000E+00 0.  1.
          4   -1    0    0  501    0  0.00000000000E+00 -0.00000000000E+00 -0.37378083674E+03  0.37378083674E+03  0.00000000000E+00 0. -1.
         23    2    1    2    0    0  0.43304284204E+00  0.32713384133E+02 -0.36471136181E+03  0.37731036928E+03  0.90985626922E+02 0.  0.
         11    1    3    3    0    0  0.29794025461E+02  0.50508420581E+02 -0.27656905888E+03  0.28271757786E+03  0.00000000000E+00 0.  1.
        -11    1    3    3    0    0 -0.29360982619E+02 -0.17795036448E+02 -0.88142302930E+02  0.94592791418E+02  0.00000000000E+00 0. -1.
         22    1    1    2    0    0 -0.43304284204E+00 -0.32713384133E+02  0.93833292037E+02  0.99373234435E+02  0.00000000000E+00 0.  1.
<mgrwt>
<rscale>  0 0.73743414E+02</rscale>
<asrwt>0</asrwt>
<pdfrwt beam="1">  1        4 0.57504745E-01 0.96688869E+02</pdfrwt>
<pdfrwt beam="2">  1       -4 0.15831195E-01 0.96688869E+02</pdfrwt>
<totfact> 0.15618594E+02</totfact>
</mgrwt>
</event>
<event>
 6    1  0.3075717E-002  0.9058250E+02  0.7546771E-02  0.1429636E+00
         -2   -1    0    0    0  501 -0.00000000000E+00  0.00000000000E+00  0.26111054087E+01  0.26111054087E+01  0.00000000000E+00 0.  1.
          2   -1    0    0  501    0  0.00000000000E+00 -0.00000000000E+00 -0.10927647842E+04  0.10927647842E+04  0.00000000000E+00 0. -1.
         23    2    1    2    0    0 -0.17476236810E+01 -0.10498392351E+02 -0.10476988572E+04  0.10516073815E+04  0.89955093790E+02 0.  0.
         11    1    3    3    0    0 -0.89662295619E+01 -0.18157795009E+02 -0.10346262615E+04  0.10348244294E+04  0.00000000000E+00 0. -1.
        -11    1    3    3    0    0  0.72186058809E+01  0.76594026578E+01 -0.13072595768E+02  0.16782952066E+02  0.00000000000E+00 0.  1.
         22    1    1    2    0    0  0.17476236810E+01  0.10498392351E+02 -0.42454821537E+02  0.43768508110E+02  0.00000000000E+00 0.  1.
<mgrwt>
<rscale>  0 0.53033196E+02</rscale>
<asrwt>0</asrwt>
<pdfrwt beam="1">  1        2 0.16811736E+00 0.90582500E+02</pdfrwt>
<pdfrwt beam="2">  1       -2 0.40170925E-03 0.90582500E+02</pdfrwt>
<totfact> 0.16068057E+05</totfact>
</mgrwt>
</event>
<event>
 6    1  0.3075717E-002  0.9229929E+02  0.7546771E-02  0.1423976E+00
          2   -1    0    0  501    0  0.00000000000E+00  0.00000000000E+00  0.36235544474E+02  0.36235544474E+02  0.00000000000E+00 0.  1.
         -2   -1    0    0    0  501 -0.00000000000E+00 -0.00000000000E+00 -0.93698022163E+02  0.93698022163E+02  0.00000000000E+00 0. -1.
         23    2    1    2    0    0  0.10416558022E+02 -0.34262070967E+01 -0.24935935404E+02  0.95608364101E+02  0.91645593650E+02 0.  0.
         13    1    3    3    0    0  0.40516150285E+02  0.35409688864E+01 -0.43510763479E+02  0.59559075153E+02  0.00000000000E+00 0. -1.
        -13    1    3    3    0    0 -0.30099592264E+02 -0.69671759830E+01  0.18574828075E+02  0.36049288948E+02  0.00000000000E+00 0.  1.
         22    1    1    2    0    0 -0.10416558022E+02  0.34262070967E+01 -0.32526542285E+02  0.34325202535E+02  0.00000000000E+00 0.  1.
<mgrwt>
<rscale>  0 0.54188421E+02</rscale>
<asrwt>0</asrwt>
<pdfrwt beam="1">  1        2 0.55746992E-02 0.92299287E+02</pdfrwt>
<pdfrwt beam="2">  1       -2 0.14415080E-01 0.92299287E+02</pdfrwt>
<totfact> 0.43033977E+04</totfact>
</mgrwt>
</event>
<event>
 6    1  0.3075717E-002  0.9071083E+02  0.7546771E-02  0.1395430E+00
         -2   -1    0    0    0  501 -0.00000000000E+00  0.00000000000E+00  0.31539792231E+01  0.31539792231E+01  0.00000000000E+00 0.  1.
          2   -1    0    0  501    0  0.00000000000E+00 -0.00000000000E+00 -0.10216326901E+04  0.10216326901E+04  0.00000000000E+00 0. -1.
         23    2    1    2    0    0 -0.18039381156E+02 -0.80550396213E-01 -0.93449910792E+03  0.93889138730E+03  0.88898980212E+02 0.  0.
         11    1    3    3    0    0 -0.29114776977E+02  0.22773409525E+01 -0.92014578034E+03  0.92060909924E+03  0.00000000000E+00 0. -1.
        -11    1    3    3    0    0  0.11075395821E+02 -0.23578913487E+01 -0.14353327578E+02  0.18282288061E+02  0.00000000000E+00 0.  1.
         22    1    1    2    0    0  0.18039381156E+02  0.80550396213E-01 -0.83979602932E+02  0.85895281997E+02  0.00000000000E+00 0.  1.
<mgrwt>
<rscale>  0 0.60576035E+02</rscale>
<asrwt>0</asrwt>
<pdfrwt beam="1">  1        2 0.15717445E+00 0.90710829E+02</pdfrwt>
<pdfrwt beam="2">  1       -2 0.48522699E-03 0.90710829E+02</pdfrwt>
<totfact> 0.13549860E+05</totfact>
</mgrwt>
</event>
<event>
 6    1  0.3075717E-002  0.9396982E+02  0.7546771E-02  0.1399375E+00
          1   -1    0    0  501    0  0.00000000000E+00  0.00000000000E+00  0.19360218682E+02  0.19360218682E+02  0.00000000000E+00 0. -1.
         -1   -1    0    0    0  501 -0.00000000000E+00 -0.00000000000E+00 -0.18297927292E+03  0.18297927292E+03  0.00000000000E+00 0.  1.
         23    2    1    2    0    0 -0.11853853198E+02  0.95793649603E+01 -0.10125797065E+03  0.13814305233E+03  0.92725661059E+02 0.  0.
         11    1    3    3    0    0  0.28068238131E+02 -0.47488549779E+01 -0.11606888868E+00  0.28467368817E+02  0.00000000000E+00 0. -1.
        -11    1    3    3    0    0 -0.39922091329E+02  0.14328219938E+02 -0.10114190176E+03  0.10967568351E+03  0.00000000000E+00 0.  1.
         22    1    1    2    0    0  0.11853853198E+02 -0.95793649603E+01 -0.62361083595E+02  0.64196439277E+02  0.00000000000E+00 0. -1.
<mgrwt>
<rscale>  0 0.59633776E+02</rscale>
<asrwt>0</asrwt>
<pdfrwt beam="1">  1        1 0.29784952E-02 0.93969816E+02</pdfrwt>
<pdfrwt beam="2">  1       -1 0.28150658E-01 0.93969816E+02</pdfrwt>
<totfact> 0.34307403E+04</totfact>
</mgrwt>
</event>
<event>
 6    1  0.3075717E-002  0.9367826E+02  0.7546771E-02  0.1353210E+00
          1   -1    0    0  501    0  0.00000000000E+00  0.00000000000E+00  0.14120392685E+04  0.14120392685E+04  0.00000000000E+00 0. -1.
         -1   -1    0    0    0  501 -0.00000000000E+00 -0.00000000000E+00 -0.49998767763E+01  0.49998767763E+01  0.00000000000E+00 0.  1.
         23    2    1    2    0    0 -0.32732457737E+02 -0.22126762563E+01  0.13301308523E+04  0.13334255509E+04  0.87745688490E+02 0.  0.
         11    1    3    3    0    0  0.29742207210E+02 -0.83757066785E+01  0.43545705933E+03  0.43655194636E+03  0.00000000000E+00 0.  1.
        -11    1    3    3    0    0 -0.62474664947E+02  0.61630304222E+01  0.89467379301E+03  0.89687360459E+03  0.00000000000E+00 0. -1.
         22    1    1    2    0    0  0.32732457737E+02  0.22126762563E+01  0.76908539334E+02  0.83613594279E+02  0.00000000000E+00 0.  1.
<mgrwt>
<rscale>  0 0.72064480E+02</rscale>
<asrwt>0</asrwt>
<pdfrwt beam="1">  1        1 0.21723649E+00 0.93678256E+02</pdfrwt>
<pdfrwt beam="2">  1       -1 0.76921294E-03 0.93678256E+02</pdfrwt>
<totfact> 0.21030087E+04</totfact>
</mgrwt>
</event>
<event>
 6    1  0.3075717E-002  0.9389215E+02  0.7546771E-02  0.1370754E+00
         -2   -1    0    0    0  501 -0.00000000000E+00  0.00000000000E+00  0.12412856521E+03  0.12412856521E+03  0.00000000000E+00 0.  1.
          2   -1    0    0  501    0  0.00000000000E+00 -0.00000000000E+00 -0.42030935613E+02  0.42030935613E+02  0.00000000000E+00 0. -1.
         23    2    1    2    0    0  0.22107608702E+02 -0.10048352891E+02  0.15359016159E+02  0.95140078959E+02  0.90697406184E+02 0.  0.
         11    1    3    3    0    0 -0.22153000283E+02  0.10977758182E+02 -0.22334852374E+02  0.33318346700E+02  0.00000000000E+00 0. -1.
        -11    1    3    3    0    0  0.44260608984E+02 -0.21026111073E+02  0.37693868533E+02  0.61821732259E+02  0.00000000000E+00 0.  1.
         22    1    1    2    0    0 -0.22107608702E+02  0.10048352891E+02  0.66738613440E+02  0.71019421867E+02  0.00000000000E+00 0.  1.
<mgrwt>
<rscale>  0 0.66957972E+02</rscale>
<asrwt>0</asrwt>
<pdfrwt beam="1">  1        2 0.64662978E-02 0.93892147E+02</pdfrwt>
<pdfrwt beam="2">  1       -2 0.19096702E-01 0.93892147E+02</pdfrwt>
<totfact> 0.22525744E+04</totfact>
</mgrwt>
</event>
<event>
 6    1  0.3075717E-002  0.9364861E+02  0.7546771E-02  0.1412331E+00
          2   -1    0    0  501    0  0.00000000000E+00  0.00000000000E+00  0.65522707965E+02  0.65522707965E+02  0.00000000000E+00 0. -1.
         -2   -1    0    0    0  501 -0.00000000000E+00 -0.00000000000E+00 -0.43390611095E+02  0.43390611095E+02  0.00000000000E+00 0.  1.
         23    2    1    2    0    0 -0.10470129772E+02  0.69445003215E+01  0.22613786595E+02  0.96340263459E+02  0.92802011384E+02 0.  0.
         11    1    3    3    0    0  0.19595063260E+02 -0.33932686023E+02 -0.33747821123E+01  0.39329160164E+02  0.00000000000E+00 0. -1.
        -11    1    3    3    0    0 -0.30065193032E+02  0.40877186344E+02  0.25988568707E+02  0.57011103295E+02  0.00000000000E+00 0.  1.
         22    1    1    2    0    0  0.10470129772E+02 -0.69445003215E+01 -0.48168972458E+00  0.12573055601E+02  0.00000000000E+00 0.  1.
<mgrwt>
<rscale>  0 0.56676952E+02</rscale>
<asrwt>0</asrwt>
<pdfrwt beam="1">  1        2 0.10080417E-01 0.93648615E+02</pdfrwt>
<pdfrwt beam="2">  1       -2 0.66754787E-02 0.93648615E+02</pdfrwt>
<totfact> 0.68231595E+04</totfact>
</mgrwt>
</event>
<event>
 6    1  0.3075717E-002  0.1078692E+03  0.7546771E-02  0.1307459E+00
         -2   -1    0    0    0  501 -0.00000000000E+00  0.00000000000E+00  0.39135216194E+01  0.39135216194E+01  0.00000000000E+00 0.  1.
          2   -1    0    0  501    0  0.00000000000E+00 -0.00000000000E+00 -0.18521868361E+04  0.18521868361E+04  0.00000000000E+00 0. -1.
         23    2    1    2    0    0  0.36878890713E+02 -0.30800070371E+02 -0.15706490529E+04  0.15743488226E+04  0.96576762113E+02 0.  0.
         11    1    3    3    0    0  0.16211200276E+01 -0.26091631944E+02 -0.13892050578E+04  0.13894510045E+04  0.00000000000E+00 0. -1.
        -11    1    3    3    0    0  0.35257770686E+02 -0.47084384272E+01 -0.18144399509E+03  0.18489781810E+03  0.00000000000E+00 0.  1.
         22    1    1    2    0    0 -0.36878890713E+02  0.30800070371E+02 -0.27762426157E+03  0.28175153509E+03  0.00000000000E+00 0.  1.
<mgrwt>
<rscale>  0 0.88123961E+02</rscale>
<asrwt>0</asrwt>
<pdfrwt beam="1">  1        2 0.28495062E+00 0.10786922E+03</pdfrwt>
<pdfrwt beam="2">  1       -2 0.60208279E-03 0.10786922E+03</pdfrwt>
<totfact> 0.37280473E+04</totfact>
</mgrwt>
</event>
<event>
 6    1  0.3075717E-002  0.9903486E+02  0.7546771E-02  0.1336703E+00
          2   -1    0    0  501    0  0.00000000000E+00  0.00000000000E+00  0.91324988263E+02  0.91324988263E+02  0.00000000000E+00 0.  1.
         -2   -1    0    0    0  501 -0.00000000000E+00 -0.00000000000E+00 -0.50573207728E+02  0.50573207728E+02  0.00000000000E+00 0. -1.
         23    2    1    2    0    0 -0.15872378376E+02  0.33289419316E+02  0.29105335993E+02  0.10322317170E+03  0.91911831437E+02 0.  0.
         11    1    3    3    0    0  0.16299272176E+02 -0.56045112405E+01 -0.24265772221E+02  0.29764148252E+02  0.00000000000E+00 0. -1.
        -11    1    3    3    0    0 -0.32171650553E+02  0.38893930556E+02  0.53371108214E+02  0.73459023444E+02  0.00000000000E+00 0.  1.
         22    1    1    2    0    0  0.15872378376E+02 -0.33289419316E+02  0.11646444541E+02  0.38675024294E+02  0.00000000000E+00 0.  1.
<mgrwt>
<rscale>  0 0.77363858E+02</rscale>
<asrwt>0</asrwt>
<pdfrwt beam="1">  1        2 0.14049998E-01 0.99034855E+02</pdfrwt>
<pdfrwt beam="2">  1       -2 0.77804935E-02 0.99034855E+02</pdfrwt>
<totfact> 0.36683528E+04</totfact>
</mgrwt>
</event>
<event>
 6    1  0.3075717E-002  0.9189129E+02  0.7546771E-02  0.1366939E+00
         -2   -1    0    0    0  501 -0.00000000000E+00  0.00000000000E+00  0.49342544801E+02  0.49342544801E+02  0.00000000000E+00 0.  1.
          2   -1    0    0  501    0  0.00000000000E+00 -0.00000000000E+00 -0.72909754273E+02  0.72909754273E+02  0.00000000000E+00 0. -1.
         23    2    1    2    0    0 -0.12302074621E+02  0.24703766302E+02 -0.22640567111E+02  0.94639335171E+02  0.87649251982E+02 0.  0.
         11    1    3    3    0    0 -0.21332387775E+02 -0.29608763227E+02 -0.50586311308E+01  0.36842087033E+02  0.00000000000E+00 0.  1.
        -11    1    3    3    0    0  0.90303131536E+01  0.54312529529E+02 -0.17581935980E+02  0.57797248138E+02  0.00000000000E+00 0. -1.
         22    1    1    2    0    0  0.12302074621E+02 -0.24703766302E+02 -0.92664236132E+00  0.27612963904E+02  0.00000000000E+00 0. -1.
<mgrwt>
<rscale>  0 0.68025671E+02</rscale>
<asrwt>0</asrwt>
<pdfrwt beam="1">  1        2 0.11216885E-01 0.91891286E+02</pdfrwt>
<pdfrwt beam="2">  1       -2 0.75911608E-02 0.91891286E+02</pdfrwt>
<totfact> 0.49232571E+04</totfact>
</mgrwt>
</event>
<event>
 6    1  0.3075717E-002  0.9231061E+02  0.7546771E-02  0.1429288E+00
         -1   -1    0    0    0  501 -0.00000000000E+00  0.00000000000E+00  0.19156776052E+02  0.19156776052E+02  0.00000000000E+00 0.  1.
          1   -1    0    0  501    0  0.00000000000E+00 -0.00000000000E+00 -0.20906850901E+03  0.20906850901E+03  0.00000000000E+00 0. -1.
         23    2    1    2    0    0  0.28662952223E+01 -0.96945329230E+01 -0.19584041019E+03  0.21650569332E+03  0.91755377830E+02 0.  0.
         13    1    3    3    0    0  0.15551016651E+02  0.42116491741E+01 -0.19699041351E+03  0.19764815993E+03  0.00000000000E+00 0. -1.
        -13    1    3    3    0    0 -0.12684721429E+02 -0.13906182097E+02  0.11500033167E+01  0.18857533398E+02  0.00000000000E+00 0.  1.
         22    1    1    2    0    0 -0.28662952223E+01  0.96945329230E+01  0.59286772299E+01  0.11719591742E+02  0.00000000000E+00 0.  1.
<mgrwt>
<rscale>  0 0.53103101E+02</rscale>
<asrwt>0</asrwt>
<pdfrwt beam="1">  1        1 0.32164386E-01 0.92310611E+02</pdfrwt>
<pdfrwt beam="2">  1       -1 0.29471964E-02 0.92310611E+02</pdfrwt>
<totfact> 0.46846097E+04</totfact>
</mgrwt>
</event>
<event>
 6    1  0.3075717E-002  0.1053439E+03  0.7546771E-02  0.1307316E+00
          2   -1    0    0  501    0  0.00000000000E+00  0.00000000000E+00  0.61441597303E+03  0.61441597303E+03  0.00000000000E+00 0. -1.
         -2   -1    0    0    0  501 -0.00000000000E+00 -0.00000000000E+00 -0.64549340044E+02  0.64549340044E+02  0.00000000000E+00 0.  1.
         23    2    1    2    0    0  0.18311290555E+02 -0.48373356636E+02  0.59866083606E+03  0.60785863795E+03  0.91771684669E+02 0.  0.
         13    1    3    3    0    0  0.30952717204E+02 -0.16149547464E+02  0.52821888511E+03  0.52937139059E+03  0.00000000000E+00 0. -1.
        -13    1    3    3    0    0 -0.12641426649E+02 -0.32223809171E+02  0.70441950951E+02  0.78487247366E+02  0.00000000000E+00 0.  1.
         22    1    1    2    0    0 -0.18311290555E+02  0.48373356636E+02 -0.48794203072E+02  0.71106675125E+02  0.00000000000E+00 0.  1.
<mgrwt>
<rscale>  0 0.88181636E+02</rscale>
<asrwt>0</asrwt>
<pdfrwt beam="1">  1        2 0.94525531E-01 0.10534385E+03</pdfrwt>
<pdfrwt beam="2">  1       -2 0.99306681E-02 0.10534385E+03</pdfrwt>
<totfact> 0.31791605E+03</totfact>
</mgrwt>
</event>
<event>
 6    1  0.3075717E-002  0.9382551E+02  0.7546771E-02  0.1393745E+00
         -2   -1    0    0    0  501 -0.00000000000E+00  0.00000000000E+00  0.71453369984E+01  0.71453369984E+01  0.00000000000E+00 0.  1.
          2   -1    0    0  501    0  0.00000000000E+00 -0.00000000000E+00 -0.43182340604E+03  0.43182340604E+03  0.00000000000E+00 0. -1.
         23    2    1    2    0    0  0.10420564284E+02  0.13109358345E+02 -0.34364933877E+03  0.35622758904E+03  0.92318923938E+02 0.  0.
         13    1    3    3    0    0  0.94193723221E+01  0.33817424425E+02 -0.32893856074E+03  0.33080646836E+03  0.00000000000E+00 0. -1.
        -13    1    3    3    0    0  0.10011919622E+01 -0.20708066079E+02 -0.14710778036E+02  0.25421120678E+02  0.00000000000E+00 0.  1.
         22    1    1    2    0    0 -0.10420564284E+02 -0.13109358345E+02 -0.81028730273E+02  0.82741154004E+02  0.00000000000E+00 0. -1.
<mgrwt>
<rscale>  0 0.60984768E+02</rscale>
<asrwt>0</asrwt>
<pdfrwt beam="1">  1        2 0.66434398E-01 0.93825514E+02</pdfrwt>
<pdfrwt beam="2">  1       -2 0.10992822E-02 0.93825514E+02</pdfrwt>
<totfact> 0.11783212E+05</totfact>
</mgrwt>
</event>
<event>
 6    1  0.3075717E-002  0.9352425E+02  0.7546771E-02  0.1405538E+00
          2   -1    0    0  501    0  0.00000000000E+00  0.00000000000E+00  0.54265104160E+03  0.54265104160E+03  0.00000000000E+00 0. -1.
         -2   -1    0    0    0  501 -0.00000000000E+00 -0.00000000000E+00 -0.14578728460E+02  0.14578728460E+02  0.00000000000E+00 0.  1.
         23    2    1    2    0    0  0.13465586766E+02  0.39283096940E+01  0.53390798469E+03  0.54203738030E+03  0.92466382420E+02 0.  0.
         11    1    3    3    0    0 -0.28124127038E+01  0.36950863350E+02  0.43369717650E+03  0.43527751707E+03  0.00000000000E+00 0. -1.
        -11    1    3    3    0    0  0.16277999469E+02 -0.33022553656E+02  0.10021080820E+03  0.10675986323E+03  0.00000000000E+00 0.  1.
         22    1    1    2    0    0 -0.13465586766E+02 -0.39283096940E+01 -0.58356715585E+01  0.15192389757E+02  0.00000000000E+00 0.  1.
<mgrwt>
<rscale>  0 0.58201413E+02</rscale>
<asrwt>0</asrwt>
<pdfrwt beam="1">  1        2 0.83484760E-01 0.93524251E+02</pdfrwt>
<pdfrwt beam="2">  1       -2 0.22428817E-02 0.93524251E+02</pdfrwt>
<totfact> 0.33221275E+04</totfact>
</mgrwt>
</event>
<event>
 6    1  0.3075717E-002  0.9595100E+02  0.7546771E-02  0.1369297E+00
          4   -1    0    0  501    0  0.00000000000E+00  0.00000000000E+00  0.20332485687E+03  0.20332485687E+03  0.00000000000E+00 0. -1.
         -4   -1    0    0    0  501 -0.00000000000E+00 -0.00000000000E+00 -0.22963120914E+02  0.22963120914E+02  0.00000000000E+00 0.  1.
         23    2    1    2    0    0 -0.18717891216E+02  0.13892081519E+02  0.17880868884E+03  0.20292644239E+03  0.93076551480E+02 0.  0.
         13    1    3    3    0    0 -0.33001573303E+02  0.54884502686E+01  0.18283614007E+03  0.18587167897E+03  0.00000000000E+00 0. -1.
        -13    1    3    3    0    0  0.14283682088E+02  0.84036312503E+01 -0.40274512235E+01  0.17054763426E+02  0.00000000000E+00 0.  1.
         22    1    1    2    0    0  0.18717891216E+02 -0.13892081519E+02  0.15530471104E+01  0.23361535391E+02  0.00000000000E+00 0.  1.
<mgrwt>
<rscale>  0 0.67363092E+02</rscale>
<asrwt>0</asrwt>
<pdfrwt beam="1">  1        4 0.31280746E-01 0.95950997E+02</pdfrwt>
<pdfrwt beam="2">  1       -4 0.35327880E-02 0.95950997E+02</pdfrwt>
<totfact> 0.60867388E+03</totfact>
</mgrwt>
</event>
<event>
 6    1  0.3075717E-002  0.9838353E+02  0.7546771E-02  0.1343545E+00
          2   -1    0    0  501    0  0.00000000000E+00  0.00000000000E+00  0.15620196548E+03  0.15620196548E+03  0.00000000000E+00 0. -1.
         -2   -1    0    0    0  501 -0.00000000000E+00 -0.00000000000E+00 -0.44509808202E+02  0.44509808202E+02  0.00000000000E+00 0.  1.
         23    2    1    2    0    0  0.15811078823E+02  0.29435162074E+02  0.12967062210E+03  0.16276913043E+03  0.92535942228E+02 0.  0.
         13    1    3    3    0    0 -0.23660906572E+02  0.95825815090E+01  0.11251099413E+03  0.11537065557E+03  0.00000000000E+00 0. -1.
        -13    1    3    3    0    0  0.39471985396E+02  0.19852580565E+02  0.17159627974E+02  0.47398474853E+02  0.00000000000E+00 0.  1.
         22    1    1    2    0    0 -0.15811078823E+02 -0.29435162074E+02 -0.17978464822E+02  0.37942643256E+02  0.00000000000E+00 0. -1.
<mgrwt>
<rscale>  0 0.75105236E+02</rscale>
<asrwt>0</asrwt>
<pdfrwt beam="1">  1        2 0.24031071E-01 0.98383533E+02</pdfrwt>
<pdfrwt beam="2">  1       -2 0.68476629E-02 0.98383533E+02</pdfrwt>
<totfact> 0.24252816E+04</totfact>
</mgrwt>
</event>
<event>
 6    1  0.3075717E-002  0.9408982E+02  0.7546771E-02  0.1419787E+00
          2   -1    0    0  501    0  0.00000000000E+00  0.00000000000E+00  0.96699459247E+03  0.96699459247E+03  0.00000000000E+00 0.  1.
         -2   -1    0    0    0  501 -0.00000000000E+00 -0.00000000000E+00 -0.66412596390E+01  0.66412596390E+01  0.00000000000E+00 0. -1.
         23    2    1    2    0    0  0.69060658203E+01  0.86111760042E+01  0.95766340238E+03  0.96227443393E+03  0.93440076137E+02 0.  0.
         11    1    3    3    0    0 -0.43310483830E+02  0.19083285562E+01  0.42246417963E+03  0.42468273192E+03  0.00000000000E+00 0.  1.
        -11    1    3    3    0    0  0.50216549650E+02  0.67028474480E+01  0.53519922276E+03  0.53759170200E+03  0.00000000000E+00 0. -1.
         22    1    1    2    0    0 -0.69060658203E+01 -0.86111760042E+01  0.26899304480E+01  0.11361418182E+02  0.00000000000E+00 0. -1.
<mgrwt>
<rscale>  0 0.55065987E+02</rscale>
<asrwt>0</asrwt>
<pdfrwt beam="1">  1        2 0.14876829E+00 0.94089818E+02</pdfrwt>
<pdfrwt beam="2">  1       -2 0.10217330E-02 0.94089818E+02</pdfrwt>
<totfact> 0.51349366E+04</totfact>
</mgrwt>
</event>
<event>
 6    1  0.3075717E-002  0.9549874E+02  0.7546771E-02  0.1417854E+00
          2   -1    0    0  501    0  0.00000000000E+00  0.00000000000E+00  0.85937461707E+03  0.85937461707E+03  0.00000000000E+00 0.  1.
         -2   -1    0    0    0  501 -0.00000000000E+00 -0.00000000000E+00 -0.37994090589E+01  0.37994090589E+01  0.00000000000E+00 0. -1.
         23    2    1    2    0    0  0.75003692296E+01 -0.78763652420E+01  0.82865475845E+03  0.83413950749E+03  0.94877376582E+02 0.  0.
         13    1    3    3    0    0 -0.55459999562E+01 -0.39675320995E+02  0.17272962185E+03  0.17731444238E+03  0.00000000000E+00 0. -1.
        -13    1    3    3    0    0  0.13046369186E+02  0.31798955753E+02  0.65592513659E+03  0.65682506510E+03  0.00000000000E+00 0.  1.
         22    1    1    2    0    0 -0.75003692296E+01  0.78763652420E+01  0.26920449568E+02  0.29034518645E+02  0.00000000000E+00 0. -1.
<mgrwt>
<rscale>  0 0.55477637E+02</rscale>
<asrwt>0</asrwt>
<pdfrwt beam="1">  1        2 0.13221132E+00 0.95498740E+02</pdfrwt>
<pdfrwt beam="2">  1       -2 0.58452515E-03 0.95498740E+02</pdfrwt>
<totfact> 0.13180684E+05</totfact>
</mgrwt>
</event>
<event>
 6    1  0.3075717E-002  0.9443388E+02  0.7546771E-02  0.1363066E+00
          4   -1    0    0  501    0  0.00000000000E+00  0.00000000000E+00  0.37827030748E+01  0.37827030748E+01  0.00000000000E+00 0. -1.
         -4   -1    0    0    0  501 -0.00000000000E+00 -0.00000000000E+00 -0.26147132187E+04  0.26147132187E+04  0.00000000000E+00 0.  1.
         23    2    1    2    0    0 -0.16537925239E+02  0.21499596889E+02 -0.25506084620E+04  0.25523560262E+04  0.90454531251E+02 0.  0.
         11    1    3    3    0    0  0.29534924306E+02 -0.12669802020E+01 -0.16619133083E+04  0.16621762125E+04  0.00000000000E+00 0. -1.
        -11    1    3    3    0    0 -0.46072849545E+02  0.22766577091E+02 -0.88869515371E+03  0.89017981371E+03  0.00000000000E+00 0.  1.
         22    1    1    2    0    0  0.16537925239E+02 -0.21499596889E+02 -0.60322053586E+02  0.66139895573E+02  0.00000000000E+00 0. -1.
<mgrwt>
<rscale>  0 0.69133111E+02</rscale>
<asrwt>0</asrwt>
<pdfrwt beam="1">  1        4 0.58195291E-03 0.94433881E+02</pdfrwt>
<pdfrwt beam="2">  1       -4 0.40226454E+00 0.94433881E+02</pdfrwt>
<totfact> 0.95099372E+01</totfact>
</mgrwt>
</event>
<event>
 6    1  0.3075717E-002  0.9778922E+02  0.7546771E-02  0.1412411E+00
         -4   -1    0    0    0  501 -0.00000000000E+00  0.00000000000E+00  0.20735089558E+03  0.20735089558E+03  0.00000000000E+00 0. -1.
          4   -1    0    0  501    0  0.00000000000E+00 -0.00000000000E+00 -0.15344004830E+02  0.15344004830E+02  0.00000000000E+00 0.  1.
         23    2    1    2    0    0 -0.10868543261E+02  0.18251769726E+01  0.14844149420E+03  0.17775716260E+03  0.97166224322E+02 0.  0.
         13    1    3    3    0    0 -0.21670259547E+02  0.39284066464E+02  0.12369761926E+03  0.13158244198E+03  0.00000000000E+00 0. -1.
        -13    1    3    3    0    0  0.10801716286E+02 -0.37458889491E+02  0.24743874942E+02  0.46174720614E+02  0.00000000000E+00 0.  1.
         22    1    1    2    0    0  0.10868543261E+02 -0.18251769726E+01  0.43565396550E+02  0.44937737818E+02  0.00000000000E+00 0. -1.
<mgrwt>
<rscale>  0 0.56659252E+02</rscale>
<asrwt>0</asrwt>
<pdfrwt beam="1">  1        4 0.23606163E-02 0.97789221E+02</pdfrwt>
<pdfrwt beam="2">  1       -4 0.31900136E-01 0.97789221E+02</pdfrwt>
<totfact> 0.11028630E+04</totfact>
</mgrwt>
</event>
<event>
 6    1  0.3075717E-002  0.1017722E+03  0.7546771E-02  0.1320541E+00
         -2   -1    0    0    0  501 -0.00000000000E+00  0.00000000000E+00  0.96184012737E+01  0.96184012737E+01  0.00000000000E+00 0.  1.
          2   -1    0    0  501    0  0.00000000000E+00 -0.00000000000E+00 -0.84893342723E+03  0.84893342723E+03  0.00000000000E+00 0. -1.
         23    2    1    2    0    0 -0.39091656950E+02 -0.22667431987E+02 -0.76378939412E+03  0.77053994760E+03  0.91189923577E+02 0.  0.
         11    1    3    3    0    0 -0.55501923937E+01 -0.36049578120E+02 -0.65290926275E+03  0.65392727585E+03  0.00000000000E+00 0. -1.
        -11    1    3    3    0    0 -0.33541464556E+02  0.13382146133E+02 -0.11088013137E+03  0.11661267175E+03  0.00000000000E+00 0.  1.
         22    1    1    2    0    0  0.39091656950E+02  0.22667431987E+02 -0.75525631841E+02  0.88011880908E+02  0.00000000000E+00 0.  1.
<mgrwt>
<rscale>  0 0.83076447E+02</rscale>
<asrwt>0</asrwt>
<pdfrwt beam="1">  1        2 0.13060518E+00 0.10177216E+03</pdfrwt>
<pdfrwt beam="2">  1       -2 0.14797537E-02 0.10177216E+03</pdfrwt>
<totfact> 0.36157224E+04</totfact>
</mgrwt>
</event>
<event>
 6    1  0.3075717E-002  0.9339994E+02  0.7546771E-02  0.1388741E+00
         -2   -1    0    0    0  501 -0.00000000000E+00  0.00000000000E+00  0.16400878967E+03  0.16400878967E+03  0.00000000000E+00 0.  1.
          2   -1    0    0  501    0  0.00000000000E+00 -0.00000000000E+00 -0.21869429055E+02  0.21869429055E+02  0.00000000000E+00 0. -1.
         23    2    1    2    0    0  0.81462712672E+01 -0.16493190914E+02  0.13861920575E+03  0.16714913513E+03  0.91570530688E+02 0.  0.
         13    1    3    3    0    0 -0.71246783999E+01 -0.40324704286E+02  0.13182774255E+03  0.13804128557E+03  0.00000000000E+00 0.  1.
        -13    1    3    3    0    0  0.15270949667E+02  0.23831513373E+02  0.67914632017E+01  0.29107849556E+02  0.00000000000E+00 0. -1.
         22    1    1    2    0    0 -0.81462712672E+01  0.16493190914E+02  0.35201548691E+01  0.18729083597E+02  0.00000000000E+00 0. -1.
<mgrwt>
<rscale>  0 0.62220956E+02</rscale>
<asrwt>0</asrwt>
<pdfrwt beam="1">  1        2 0.33645277E-02 0.93399942E+02</pdfrwt>
<pdfrwt beam="2">  1       -2 0.25232121E-01 0.93399942E+02</pdfrwt>
<totfact> 0.32690855E+04</totfact>
</mgrwt>
</event>
<event>
 6    1  0.3075717E-002  0.9550301E+02  0.7546771E-02  0.1336935E+00
          2   -1    0    0  501    0  0.00000000000E+00  0.00000000000E+00  0.13448416478E+04  0.13448416478E+04  0.00000000000E+00 0. -1.
         -2   -1    0    0    0  501 -0.00000000000E+00 -0.00000000000E+00 -0.55478735933E+01  0.55478735933E+01  0.00000000000E+00 0.  1.
         23    2    1    2    0    0 -0.18951994038E+02  0.36310617330E+02  0.12295165116E+04  0.12332200442E+04  0.86273901183E+02 0.  0.
         11    1    3    3    0    0  0.18345309417E+02  0.21479419032E+02  0.98702375895E+03  0.98742787917E+03  0.00000000000E+00 0. -1.
        -11    1    3    3    0    0 -0.37297303455E+02  0.14831198298E+02  0.24249275264E+03  0.24579216499E+03  0.00000000000E+00 0.  1.
         22    1    1    2    0    0  0.18951994038E+02 -0.36310617330E+02  0.10977726264E+03  0.11716947726E+03  0.00000000000E+00 0.  1.
<mgrwt>
<rscale>  0 0.77285872E+02</rscale>
<asrwt>0</asrwt>
<pdfrwt beam="1">  1        2 0.20689846E+00 0.95503011E+02</pdfrwt>
<pdfrwt beam="2">  1       -2 0.85352009E-03 0.95503011E+02</pdfrwt>
<totfact> 0.40940231E+04</totfact>
</mgrwt>
</event>
<event>
 6    1  0.3075717E-002  0.9298774E+02  0.7546771E-02  0.1388000E+00
          2   -1    0    0  501    0  0.00000000000E+00  0.00000000000E+00  0.14894641032E+03  0.14894641032E+03  0.00000000000E+00 0. -1.
         -2   -1    0    0    0  501 -0.00000000000E+00 -0.00000000000E+00 -0.26052627559E+02  0.26052627559E+02  0.00000000000E+00 0.  1.
         23    2    1    2    0    0  0.13922459889E+02  0.12729909391E+02  0.12524249113E+03  0.15598846415E+03  0.91054016287E+02 0.  0.
         13    1    3    3    0    0 -0.34351018463E+02 -0.58448909344E+01  0.80041824679E+02  0.87297473717E+02  0.00000000000E+00 0. -1.
        -13    1    3    3    0    0  0.48273478352E+02  0.18574800326E+02  0.45200666447E+02  0.68690990433E+02  0.00000000000E+00 0.  1.
         22    1    1    2    0    0 -0.13922459889E+02 -0.12729909391E+02 -0.23487083655E+01  0.19010573728E+02  0.00000000000E+00 0.  1.
<mgrwt>
<rscale>  0 0.62406963E+02</rscale>
<asrwt>0</asrwt>
<pdfrwt beam="1">  1        2 0.22914832E-01 0.92987738E+02</pdfrwt>
<pdfrwt beam="2">  1       -2 0.40080966E-02 0.92987738E+02</pdfrwt>
<totfact> 0.56425020E+04</totfact>
</mgrwt>
</event>
<event>
 6    1  0.3075717E-002  0.9197765E+02  0.7546771E-02  0.1413313E+00
          2   -1    0    0  501    0  0.00000000000E+00  0.00000000000E+00  0.20019331377E+03  0.20019331377E+03  0.00000000000E+00 0.  1.
         -2   -1    0    0    0  501 -0.00000000000E+00 -0.00000000000E+00 -0.14109986400E+02  0.14109986400E+02  0.00000000000E+00 0. -1.
         23    2    1    2    0    0  0.24111868975E+01 -0.12835742421E+02  0.17231350629E+03  0.19532494201E+03  0.91045694111E+02 0.  0.
         13    1    3    3    0    0  0.25398475670E+02  0.32215047855E+02  0.86042083157E+02  0.95321204087E+02  0.00000000000E+00 0.  1.
        -13    1    3    3    0    0 -0.22987288772E+02 -0.45050790275E+02  0.86271423133E+02  0.10000373792E+03  0.00000000000E+00 0. -1.
         22    1    1    2    0    0 -0.24111868975E+01  0.12835742421E+02  0.13769821076E+02  0.18978358154E+02  0.00000000000E+00 0.  1.
<mgrwt>
<rscale>  0 0.56461135E+02</rscale>
<asrwt>0</asrwt>
<pdfrwt beam="1">  1        2 0.30798969E-01 0.91977652E+02</pdfrwt>
<pdfrwt beam="2">  1       -2 0.21707673E-02 0.91977652E+02</pdfrwt>
<totfact> 0.99784337E+04</totfact>
</mgrwt>
</event>
<event>
 6    1  0.3075717E-002  0.9536229E+02  0.7546771E-02  0.1349849E+00
         -2   -1    0    0    0  501 -0.00000000000E+00  0.00000000000E+00  0.26060081147E+02  0.26060081147E+02  0.00000000000E+00 0.  1.
          2   -1    0    0  501    0  0.00000000000E+00 -0.00000000000E+00 -0.17315932471E+03  0.17315932471E+03  0.00000000000E+00 0. -1.
         23    2    1    2    0    0  0.31178612157E+02  0.10599964255E+02 -0.13237203556E+03  0.16314509708E+03  0.89495820046E+02 0.  0.
         13    1    3    3    0    0 -0.12295881980E+02  0.16636071288E+02 -0.11349744441E+03  0.11536731543E+03  0.00000000000E+00 0.  1.
        -13    1    3    3    0    0  0.43474494137E+02 -0.60361070332E+01 -0.18874591146E+02  0.47777781651E+02  0.00000000000E+00 0. -1.
         22    1    1    2    0    0 -0.31178612157E+02 -0.10599964255E+02 -0.14727208010E+02  0.36074308781E+02  0.00000000000E+00 0.  1.
<mgrwt>
<rscale>  0 0.73102876E+02</rscale>
<asrwt>0</asrwt>
<pdfrwt beam="1">  1        2 0.26639896E-01 0.95362293E+02</pdfrwt>
<pdfrwt beam="2">  1       -2 0.40092433E-02 0.95362293E+02</pdfrwt>
<totfact> 0.48007252E+04</totfact>
</mgrwt>
</event>
<event>
 6    1  0.3075717E-002  0.9284624E+02  0.7546771E-02  0.1393430E+00
          2   -1    0    0  501    0  0.00000000000E+00  0.00000000000E+00  0.64494102565E+03  0.64494102565E+03  0.00000000000E+00 0. -1.
         -2   -1    0    0    0  501 -0.00000000000E+00 -0.00000000000E+00 -0.48055387747E+01  0.48055387747E+01  0.00000000000E+00 0.  1.
         23    2    1    2    0    0  0.10730639880E+02 -0.13658026067E+02  0.56873692853E+03  0.57626566595E+03  0.91207102571E+02 0.  0.
         13    1    3    3    0    0 -0.12867124962E+02  0.16660212363E+02  0.32931832350E+02  0.39084922448E+02  0.00000000000E+00 0.  1.
        -13    1    3    3    0    0  0.23597764842E+02 -0.30318238431E+02  0.53580509618E+03  0.53718074350E+03  0.00000000000E+00 0. -1.
         22    1    1    2    0    0 -0.10730639880E+02  0.13658026067E+02  0.71398558339E+02  0.73480898478E+02  0.00000000000E+00 0. -1.
<mgrwt>
<rscale>  0 0.61061581E+02</rscale>
<asrwt>0</asrwt>
<pdfrwt beam="1">  1        2 0.99221628E-01 0.92846238E+02</pdfrwt>
<pdfrwt beam="2">  1       -2 0.73931417E-03 0.92846238E+02</pdfrwt>
<totfact> 0.13289984E+05</totfact>
</mgrwt>
</event>
<event>
 6    1  0.3075717E-002  0.9484331E+02  0.7546771E-02  0.1369482E+00
         -3   -1    0    0    0  501 -0.00000000000E+00  0.00000000000E+00  0.46061552101E+02  0.46061552101E+02  0.00000000000E+00 0.  1.
          3   -1    0    0  501    0  0.00000000000E+00 -0.00000000000E+00 -0.79165202887E+02  0.79165202887E+02  0.00000000000E+00 0. -1.
         23    2    1    2    0    0 -0.88761698110E+01 -0.22365041686E+02 -0.34987839675E+02  0.10109106258E+03  0.91740244870E+02 0.  0.
         11    1    3    3    0    0 -0.12795497631E+01 -0.11857053869E+02  0.31327111266E+02  0.33520365069E+02  0.00000000000E+00 0.  1.
        -11    1    3    3    0    0 -0.75966200479E+01 -0.10507987816E+02 -0.66314950941E+02  0.67570697513E+02  0.00000000000E+00 0. -1.
         22    1    1    2    0    0  0.88761698110E+01  0.22365041686E+02  0.18841888895E+01  0.24135692405E+02  0.00000000000E+00 0.  1.
<mgrwt>
<rscale>  0 0.67311322E+02</rscale>
<asrwt>0</asrwt>
<pdfrwt beam="1">  1        3 0.12179262E-01 0.94843313E+02</pdfrwt>
<pdfrwt beam="2">  1       -3 0.70863927E-02 0.94843313E+02</pdfrwt>
<totfact> 0.14286540E+04</totfact>
</mgrwt>
</event>
<event>
 6    1  0.3075717E-002  0.9186863E+02  0.7546771E-02  0.1387572E+00
          2   -1    0    0  501    0  0.00000000000E+00  0.00000000000E+00  0.82354298976E+01  0.82354298976E+01  0.00000000000E+00 0. -1.
         -2   -1    0    0    0  501 -0.00000000000E+00 -0.00000000000E+00 -0.42294249551E+03  0.42294249551E+03  0.00000000000E+00 0.  1.
         23    2    1    2    0    0  0.13162639411E+02  0.14654788866E+02 -0.38288780388E+03  0.39375489333E+03  0.89731977276E+02 0.  0.
         11    1    3    3    0    0  0.18544919788E+02  0.21603693211E+02 -0.38385755186E+03  0.38491200778E+03  0.00000000000E+00 0.  1.
        -11    1    3    3    0    0 -0.53822803775E+01 -0.69489043450E+01  0.96974798322E+00  0.88428855477E+01  0.00000000000E+00 0. -1.
         22    1    1    2    0    0 -0.13162639411E+02 -0.14654788866E+02 -0.31819261738E+02  0.37423032086E+02  0.00000000000E+00 0.  1.
<mgrwt>
<rscale>  0 0.62514665E+02</rscale>
<asrwt>0</asrwt>
<pdfrwt beam="1">  1        2 0.12669887E-02 0.91868633E+02</pdfrwt>
<pdfrwt beam="2">  1       -2 0.65068101E-01 0.91868633E+02</pdfrwt>
<totfact> 0.20279517E+04</totfact>
</mgrwt>
</event>
<event>
 6    1  0.3075717E-002  0.9639273E+02  0.7546771E-02  0.1349995E+00
         -2   -1    0    0    0  501 -0.00000000000E+00  0.00000000000E+00  0.28296756107E+03  0.28296756107E+03  0.00000000000E+00 0.  1.
          2   -1    0    0  501    0  0.00000000000E+00 -0.00000000000E+00 -0.16257831225E+02  0.16257831225E+02  0.00000000000E+00 0. -1.
         23    2    1    2    0    0  0.31616574211E+02 -0.34731909791E+01  0.23636912385E+03  0.25526833151E+03  0.90993887398E+02 0.  0.
         13    1    3    3    0    0 -0.26046763332E+02 -0.23171691692E+02  0.72776499881E+02  0.80695601559E+02  0.00000000000E+00 0.  1.
        -13    1    3    3    0    0  0.57663337543E+02  0.19698500713E+02  0.16359262397E+03  0.17457272996E+03  0.00000000000E+00 0. -1.
         22    1    1    2    0    0 -0.31616574211E+02  0.34731909791E+01  0.30340605999E+02  0.43957060784E+02  0.00000000000E+00 0.  1.
<mgrwt>
<rscale>  0 0.73057215E+02</rscale>
<asrwt>0</asrwt>
<pdfrwt beam="1">  1        2 0.25012050E-02 0.96392730E+02</pdfrwt>
<pdfrwt beam="2">  1       -2 0.43533467E-01 0.96392730E+02</pdfrwt>
<totfact> 0.18082411E+04</totfact>
</mgrwt>
</event>
<event>
 6    1  0.3075717E-002  0.9617946E+02  0.7546771E-02  0.1389252E+00
          4   -1    0    0  501    0  0.00000000000E+00  0.00000000000E+00  0.69567396787E+02  0.69567396787E+02  0.00000000000E+00 0. -1.
         -4   -1    0    0    0  501 -0.00000000000E+00 -0.00000000000E+00 -0.47125399494E+02  0.47125399494E+02  0.00000000000E+00 0.  1.
         23    2    1    2    0    0  0.16411552108E+02 -0.31343214240E+01  0.25953431239E+02  0.99619624878E+02  0.94717084279E+02 0.  0.
         11    1    3    3    0    0  0.21370079292E+02  0.42759691527E+02  0.23821963051E+02  0.53409338434E+02  0.00000000000E+00 0. -1.
        -11    1    3    3    0    0 -0.49585271836E+01 -0.45894012951E+02  0.21314681878E+01  0.46210286443E+02  0.00000000000E+00 0.  1.
         22    1    1    2    0    0 -0.16411552108E+02  0.31343214240E+01 -0.35114339464E+01  0.17073171403E+02  0.00000000000E+00 0.  1.
<mgrwt>
<rscale>  0 0.62093193E+02</rscale>
<asrwt>0</asrwt>
<pdfrwt beam="1">  1        4 0.10702676E-01 0.96179463E+02</pdfrwt>
<pdfrwt beam="2">  1       -4 0.72500614E-02 0.96179463E+02</pdfrwt>
<totfact> 0.12935943E+04</totfact>
</mgrwt>
</event>
<event>
 6    1  0.3075717E-002  0.9183330E+02  0.7546771E-02  0.1411303E+00
         -2   -1    0    0    0  501 -0.00000000000E+00  0.00000000000E+00  0.18661858905E+02  0.18661858905E+02  0.00000000000E+00 0.  1.
          2   -1    0    0  501    0  0.00000000000E+00 -0.00000000000E+00 -0.16721793457E+03  0.16721793457E+03  0.00000000000E+00 0. -1.
         23    2    1    2    0    0  0.13284207888E+02  0.26123475204E+01 -0.14540927228E+03  0.17198026434E+03  0.90829842656E+02 0.  0.
         13    1    3    3    0    0  0.26052240604E+02  0.20141022195E+02 -0.93891914262E+01  0.34242326603E+02  0.00000000000E+00 0.  1.
        -13    1    3    3    0    0 -0.12768032716E+02 -0.17528674674E+02 -0.13602008085E+03  0.13773793773E+03  0.00000000000E+00 0. -1.
         22    1    1    2    0    0 -0.13284207888E+02 -0.26123475204E+01 -0.31468033854E+01  0.13899529140E+02  0.00000000000E+00 0.  1.
<mgrwt>
<rscale>  0 0.56904136E+02</rscale>
<asrwt>0</asrwt>
<pdfrwt beam="1">  1        2 0.25725836E-01 0.91833299E+02</pdfrwt>
<pdfrwt beam="2">  1       -2 0.28710552E-02 0.91833299E+02</pdfrwt>
<totfact> 0.80820013E+04</totfact>
</mgrwt>
</event>
<event>
 6    1  0.3075717E-002  0.8605171E+02  0.7546771E-02  0.1392588E+00
          4   -1    0    0  501    0  0.00000000000E+00  0.00000000000E+00  0.19379523660E+03  0.19379523660E+03  0.00000000000E+00 0.  1.
         -4   -1    0    0    0  501 -0.00000000000E+00 -0.00000000000E+00 -0.15359870579E+02  0.15359870579E+02  0.00000000000E+00 0. -1.
         23    2    1    2    0    0  0.12259420994E+02 -0.18403201197E+02  0.15221669872E+03  0.17485656884E+03  0.83162041092E+02 0.  0.
         11    1    3    3    0    0 -0.15344688910E+02 -0.11927062316E+02 -0.58779704669E+00  0.19443759889E+02  0.00000000000E+00 0. -1.
        -11    1    3    3    0    0  0.27604109905E+02 -0.64761388814E+01  0.15280449577E+03  0.15541280895E+03  0.00000000000E+00 0.  1.
         22    1    1    2    0    0 -0.12259420994E+02  0.18403201197E+02  0.26218667298E+02  0.34298538341E+02  0.00000000000E+00 0. -1.
<mgrwt>
<rscale>  0 0.61267482E+02</rscale>
<asrwt>0</asrwt>
<pdfrwt beam="1">  1        4 0.29814650E-01 0.86051707E+02</pdfrwt>
<pdfrwt beam="2">  1       -4 0.23630571E-02 0.86051707E+02</pdfrwt>
<totfact> 0.12030872E+04</totfact>
</mgrwt>
</event>
<event>
 6    1  0.3075717E-002  0.9348677E+02  0.7546771E-02  0.1377586E+00
         -2   -1    0    0    0  501 -0.00000000000E+00  0.00000000000E+00  0.15510510993E+02  0.15510510993E+02  0.00000000000E+00 0.  1.
          2   -1    0    0  501    0  0.00000000000E+00 -0.00000000000E+00 -0.28581478857E+03  0.28581478857E+03  0.00000000000E+00 0. -1.
         23    2    1    2    0    0  0.74726702609E+01 -0.20676851376E+02 -0.26138320799E+03  0.27759855376E+03  0.90864749210E+02 0.  0.
         13    1    3    3    0    0  0.10116393655E+02 -0.56421566569E+02 -0.14939361264E+03  0.16001308100E+03  0.00000000000E+00 0.  1.
        -13    1    3    3    0    0 -0.26437233941E+01  0.35744715192E+02 -0.11198959535E+03  0.11758547276E+03  0.00000000000E+00 0. -1.
         22    1    1    2    0    0 -0.74726702609E+01  0.20676851376E+02 -0.89210695894E+01  0.23726745801E+02  0.00000000000E+00 0. -1.
<mgrwt>
<rscale>  0 0.65102535E+02</rscale>
<asrwt>0</asrwt>
<pdfrwt beam="1">  1        2 0.43971502E-01 0.93486767E+02</pdfrwt>
<pdfrwt beam="2">  1       -2 0.23862327E-02 0.93486767E+02</pdfrwt>
<totfact> 0.59927638E+04</totfact>
</mgrwt>
</event>
<event>
 6    1  0.3075717E-002  0.9138240E+02  0.7546771E-02  0.1385233E+00
          1   -1    0    0  501    0  0.00000000000E+00  0.00000000000E+00  0.27496116682E+02  0.27496116682E+02  0.00000000000E+00 0. -1.
         -1   -1    0    0    0  501 -0.00000000000E+00 -0.00000000000E+00 -0.17866692493E+03  0.17866692493E+03  0.00000000000E+00 0.  1.
         23    2    1    2    0    0  0.14923198932E+02  0.14467753957E+02 -0.52631108196E+02  0.10545509626E+03  0.88987223836E+02 0.  0.
         13    1    3    3    0    0 -0.14861296427E+02 -0.16870461473E+02 -0.57699310301E+02  0.61924801260E+02  0.00000000000E+00 0.  1.
        -13    1    3    3    0    0  0.29784495359E+02  0.31338215429E+02  0.50682021052E+01  0.43530294999E+02  0.00000000000E+00 0. -1.
         22    1    1    2    0    0 -0.14923198932E+02 -0.14467753957E+02 -0.98539700052E+02  0.10070794535E+03  0.00000000000E+00 0.  1.
<mgrwt>
<rscale>  0 0.63108032E+02</rscale>
<asrwt>0</asrwt>
<pdfrwt beam="1">  1        1 0.42301719E-02 0.91382404E+02</pdfrwt>
<pdfrwt beam="2">  1       -1 0.27487218E-01 0.91382404E+02</pdfrwt>
<totfact> 0.22029396E+04</totfact>
</mgrwt>
</event>
<event>
 6    1  0.3075717E-002  0.1025924E+03  0.7546771E-02  0.1381985E+00
         -3   -1    0    0    0  501 -0.00000000000E+00  0.00000000000E+00  0.42917841008E+02  0.42917841008E+02  0.00000000000E+00 0.  1.
          3   -1    0    0  501    0  0.00000000000E+00 -0.00000000000E+00 -0.10053350479E+03  0.10053350479E+03  0.00000000000E+00 0. -1.
         23    2    1    2    0    0 -0.11390000448E+02  0.10488686775E+02 -0.69513210337E+02  0.12392453668E+03  0.10141725553E+03 0.  0.
         13    1    3    3    0    0 -0.67347611635E+01 -0.44152410402E+02 -0.46432009465E+02  0.64426111595E+02  0.00000000000E+00 0. -1.
        -13    1    3    3    0    0 -0.46552392847E+01  0.54641097177E+02 -0.23081200871E+02  0.59498425081E+02  0.00000000000E+00 0.  1.
         22    1    1    2    0    0  0.11390000448E+02 -0.10488686775E+02  0.11897546555E+02  0.19526809122E+02  0.00000000000E+00 0.  1.
<mgrwt>
<rscale>  0 0.63944776E+02</rscale>
<asrwt>0</asrwt>
<pdfrwt beam="1">  1        3 0.15466693E-01 0.10259242E+03</pdfrwt>
<pdfrwt beam="2">  1       -3 0.66027448E-02 0.10259242E+03</pdfrwt>
<totfact> 0.10899355E+04</totfact>
</mgrwt>
</event>
<event>
 6    1  0.3075717E-002  0.9119893E+02  0.7546771E-02  0.1425662E+00
          4   -1    0    0  501    0  0.00000000000E+00  0.00000000000E+00  0.76609450786E+02  0.76609450786E+02  0.00000000000E+00 0. -1.
         -4   -1    0    0    0  501 -0.00000000000E+00 -0.00000000000E+00 -0.35057529491E+02  0.35057529491E+02  0.00000000000E+00 0.  1.
         23    2    1    2    0    0  0.62250784296E+01 -0.91640295960E+01  0.42365309424E+02  0.10055875629E+03  0.90523549335E+02 0.  0.
         11    1    3    3    0    0 -0.42203588808E+02 -0.27689455523E+01  0.17911541403E+02  0.45930744422E+02  0.00000000000E+00 0.  1.
        -11    1    3    3    0    0  0.48428667237E+02 -0.63950840437E+01  0.24453768020E+02  0.54628011869E+02  0.00000000000E+00 0. -1.
         22    1    1    2    0    0 -0.62250784296E+01  0.91640295960E+01 -0.81338812803E+00  0.11108223987E+02  0.00000000000E+00 0.  1.
<mgrwt>
<rscale>  0 0.53840811E+02</rscale>
<asrwt>0</asrwt>
<pdfrwt beam="1">  1        4 0.11786069E-01 0.91198926E+02</pdfrwt>
<pdfrwt beam="2">  1       -4 0.53934661E-02 0.91198926E+02</pdfrwt>
<totfact> 0.17452332E+04</totfact>
</mgrwt>
</event>
<event>
 6    1  0.3075717E-002  0.9159693E+02  0.7546771E-02  0.1408692E+00
          2   -1    0    0  501    0  0.00000000000E+00  0.00000000000E+00  0.20621422417E+03  0.20621422417E+03  0.00000000000E+00 0. -1.
         -2   -1    0    0    0  501 -0.00000000000E+00 -0.00000000000E+00 -0.13749556420E+02  0.13749556420E+02  0.00000000000E+00 0.  1.
         23    2    1    2    0    0  0.13947582951E+02  0.27241943198E+01  0.15713326210E+03  0.18188144177E+03  0.90487791978E+02 0.  0.
         11    1    3    3    0    0  0.73880566810E+01 -0.37562296887E+02  0.30849198746E+02  0.49164851187E+02  0.00000000000E+00 0.  1.
        -11    1    3    3    0    0  0.65595262701E+01  0.40286491207E+02  0.12628406335E+03  0.13271659058E+03  0.00000000000E+00 0. -1.
         22    1    1    2    0    0 -0.13947582951E+02 -0.27241943198E+01  0.35331405655E+02  0.38082338825E+02  0.00000000000E+00 0. -1.
<mgrwt>
<rscale>  0 0.57486762E+02</rscale>
<asrwt>0</asrwt>
<pdfrwt beam="1">  1        2 0.31725263E-01 0.91596926E+02</pdfrwt>
<pdfrwt beam="2">  1       -2 0.21153165E-02 0.91596926E+02</pdfrwt>
<totfact> 0.10028825E+05</totfact>
</mgrwt>
</event>
<event>
 6    1  0.3075717E-002  0.9081660E+02  0.7546771E-02  0.1424382E+00
          2   -1    0    0  501    0  0.00000000000E+00  0.00000000000E+00  0.91618257233E+03  0.91618257233E+03  0.00000000000E+00 0. -1.
         -2   -1    0    0    0  501 -0.00000000000E+00 -0.00000000000E+00 -0.30518225018E+01  0.30518225018E+01  0.00000000000E+00 0.  1.
         23    2    1    2    0    0  0.42381616946E+01  0.10626216730E+02  0.86538195212E+03  0.87013423008E+03  0.90093156215E+02 0.  0.
         13    1    3    3    0    0 -0.28305437457E+02  0.12441235380E+02  0.11618753996E+03  0.12023113810E+03  0.00000000000E+00 0.  1.
        -13    1    3    3    0    0  0.32543599152E+02 -0.18150186497E+01  0.74919441217E+03  0.74990309198E+03  0.00000000000E+00 0. -1.
         22    1    1    2    0    0 -0.42381616946E+01 -0.10626216730E+02  0.47748797702E+02  0.49100164750E+02  0.00000000000E+00 0. -1.
<mgrwt>
<rscale>  0 0.54104386E+02</rscale>
<asrwt>0</asrwt>
<pdfrwt beam="1">  1        2 0.14095095E+00 0.90816603E+02</pdfrwt>
<pdfrwt beam="2">  1       -2 0.46951189E-03 0.90816603E+02</pdfrwt>
<totfact> 0.16400767E+05</totfact>
</mgrwt>
</event>
<event>
 6    1  0.3075717E-002  0.9347445E+02  0.7546771E-02  0.1384107E+00
          4   -1    0    0  501    0  0.00000000000E+00  0.00000000000E+00  0.19098922528E+03  0.19098922528E+03  0.00000000000E+00 0. -1.
         -4   -1    0    0    0  501 -0.00000000000E+00 -0.00000000000E+00 -0.17727391823E+02  0.17727391823E+02  0.00000000000E+00 0.  1.
         23    2    1    2    0    0 -0.18434423978E+02  0.71647463312E+01  0.15860236618E+03  0.18409829957E+03  0.91358151074E+02 0.  0.
         13    1    3    3    0    0 -0.27186052181E+02  0.81741653109E+01  0.16848455885E+03  0.17085943048E+03  0.00000000000E+00 0. -1.
        -13    1    3    3    0    0  0.87516282032E+01 -0.10094189797E+01 -0.98821926680E+01  0.13238869091E+02  0.00000000000E+00 0.  1.
         22    1    1    2    0    0  0.18434423978E+02 -0.71647463312E+01  0.14659467270E+02  0.24618317531E+02  0.00000000000E+00 0. -1.
<mgrwt>
<rscale>  0 0.63396345E+02</rscale>
<asrwt>0</asrwt>
<pdfrwt beam="1">  1        4 0.29382956E-01 0.93474453E+02</pdfrwt>
<pdfrwt beam="2">  1       -4 0.27272912E-02 0.93474453E+02</pdfrwt>
<totfact> 0.10165734E+04</totfact>
</mgrwt>
</event>
<event>
 6    1  0.3075717E-002  0.9619667E+02  0.7546771E-02  0.1414630E+00
         -2   -1    0    0    0  501 -0.00000000000E+00  0.00000000000E+00  0.94967114795E+01  0.94967114795E+01  0.00000000000E+00 0.  1.
          2   -1    0    0  501    0  0.00000000000E+00 -0.00000000000E+00 -0.35858861410E+03  0.35858861410E+03  0.00000000000E+00 0. -1.
         23    2    1    2    0    0  0.96748293334E+01 -0.56130619436E+01 -0.34092274860E+03  0.35423455432E+03  0.95544179192E+02 0.  0.
         13    1    3    3    0    0 -0.29773912097E+02 -0.14458155691E+02 -0.27440994245E+03  0.27639887956E+03  0.00000000000E+00 0. -1.
        -13    1    3    3    0    0  0.39448741430E+02  0.88450937469E+01 -0.66512806149E+02  0.77835674762E+02  0.00000000000E+00 0.  1.
         22    1    1    2    0    0 -0.96748293334E+01  0.56130619436E+01 -0.81691540263E+01  0.13850771261E+02  0.00000000000E+00 0.  1.
<mgrwt>
<rscale>  0 0.56173437E+02</rscale>
<asrwt>0</asrwt>
<pdfrwt beam="1">  1        2 0.55167479E-01 0.96196668E+02</pdfrwt>
<pdfrwt beam="2">  1       -2 0.14610325E-02 0.96196668E+02</pdfrwt>
<totfact> 0.95957990E+04</totfact>
</mgrwt>
</event>
<event>
 6    1  0.3075717E-002  0.9142173E+02  0.7546771E-02  0.1429443E+00
         -2   -1    0    0    0  501 -0.00000000000E+00  0.00000000000E+00  0.24839163083E+01  0.24839163083E+01  0.00000000000E+00 0.  1.
          2   -1    0    0  501    0  0.00000000000E+00 -0.00000000000E+00 -0.21131696246E+04  0.21131696246E+04  0.00000000000E+00 0. -1.
         23    2    1    2    0    0 -0.70431850773E+00 -0.10358820731E+02 -0.20940430761E+04  0.20960377707E+04  0.90830230473E+02 0.  0.
         13    1    3    3    0    0  0.71392223190E+01 -0.39103575477E+02 -0.18099584176E+04  0.18103948552E+04  0.00000000000E+00 0. -1.
        -13    1    3    3    0    0 -0.78435408267E+01  0.28744754746E+02 -0.28408465841E+03  0.28564291555E+03  0.00000000000E+00 0.  1.
         22    1    1    2    0    0  0.70431850773E+00  0.10358820731E+02 -0.16642632240E+02  0.19615770171E+02  0.00000000000E+00 0.  1.
<mgrwt>
<rscale>  0 0.53071948E+02</rscale>
<asrwt>0</asrwt>
<pdfrwt beam="1">  1        2 0.32510239E+00 0.91421726E+02</pdfrwt>
<pdfrwt beam="2">  1       -2 0.38214171E-03 0.91421726E+02</pdfrwt>
<totfact> 0.51433665E+04</totfact>
</mgrwt>
</event>
<event>
 6    1  0.3075717E-002  0.9282971E+02  0.7546771E-02  0.1394819E+00
          2   -1    0    0  501    0  0.00000000000E+00  0.00000000000E+00  0.44566701015E+03  0.44566701015E+03  0.00000000000E+00 0. -1.
         -2   -1    0    0    0  501 -0.00000000000E+00 -0.00000000000E+00 -0.87527599722E+01  0.87527599722E+01  0.00000000000E+00 0.  1.
         23    2    1    2    0    0  0.30674393966E+01  0.16718090519E+02  0.42107607166E+03  0.43118721465E+03  0.91260354033E+02 0.  0.
         11    1    3    3    0    0  0.27706074306E+02 -0.14220965634E+02  0.33517040369E+03  0.33661411427E+03  0.00000000000E+00 0. -1.
        -11    1    3    3    0    0 -0.24638634910E+02  0.30939056153E+02  0.85905667966E+02  0.94573100375E+02  0.00000000000E+00 0.  1.
         22    1    1    2    0    0 -0.30674393966E+01 -0.16718090519E+02  0.15838178522E+02  0.23232555476E+02  0.00000000000E+00 0.  1.
<mgrwt>
<rscale>  0 0.60723865E+02</rscale>
<asrwt>0</asrwt>
<pdfrwt beam="1">  1        2 0.68564138E-01 0.92829715E+02</pdfrwt>
<pdfrwt beam="2">  1       -2 0.13465788E-02 0.92829715E+02</pdfrwt>
<totfact> 0.85263047E+04</totfact>
</mgrwt>
</event>
<event>
 6    1  0.3075717E-002  0.9549308E+02  0.7546771E-02  0.1363368E+00
         -1   -1    0    0    0  501 -0.00000000000E+00  0.00000000000E+00  0.12616675674E+02  0.12616675674E+02  0.00000000000E+00 0.  1.
          1   -1    0    0  501    0  0.00000000000E+00 -0.00000000000E+00 -0.74026453849E+03  0.74026453849E+03  0.00000000000E+00 0. -1.
         23    2    1    2    0    0 -0.22436643101E+02  0.13334159693E+02 -0.71910655096E+03  0.72541929915E+03  0.91857091022E+02 0.  0.
         13    1    3    3    0    0 -0.57603755857E+02 -0.66263805376E+00 -0.42426472513E+03  0.42815790168E+03  0.00000000000E+00 0.  1.
        -13    1    3    3    0    0  0.35167112757E+02  0.13996797747E+02 -0.29484182583E+03  0.29726139747E+03  0.00000000000E+00 0. -1.
         22    1    1    2    0    0  0.22436643101E+02 -0.13334159693E+02 -0.85413118594E+01  0.27461915021E+02  0.00000000000E+00 0. -1.
<mgrwt>
<rscale>  0 0.69045991E+02</rscale>
<asrwt>0</asrwt>
<pdfrwt beam="1">  1        1 0.11388689E+00 0.95493078E+02</pdfrwt>
<pdfrwt beam="2">  1       -1 0.19410264E-02 0.95493078E+02</pdfrwt>
<totfact> 0.17138398E+04</totfact>
</mgrwt>
</event>
<event>
 6    1  0.3075717E-002  0.9271456E+02  0.7546771E-02  0.1380724E+00
         -2   -1    0    0    0  501 -0.00000000000E+00  0.00000000000E+00  0.24559593260E+02  0.24559593260E+02  0.00000000000E+00 0.  1.
          2   -1    0    0  501    0  0.00000000000E+00 -0.00000000000E+00 -0.14844666529E+03  0.14844666529E+03  0.00000000000E+00 0. -1.
         23    2    1    2    0    0  0.21268734539E+02  0.24874152983E+01 -0.11932721628E+03  0.15111245605E+03  0.90207779731E+02 0.  0.
         13    1    3    3    0    0 -0.27497655047E+02 -0.55599050989E+01 -0.88549150647E+02  0.92886950958E+02  0.00000000000E+00 0.  1.
        -13    1    3    3    0    0  0.48766389587E+02  0.80473203972E+01 -0.30778065629E+02  0.58225505088E+02  0.00000000000E+00 0. -1.
         22    1    1    2    0    0 -0.21268734539E+02 -0.24874152983E+01 -0.45598557579E+01  0.21893802509E+02  0.00000000000E+00 0.  1.
<mgrwt>
<rscale>  0 0.64273783E+02</rscale>
<asrwt>0</asrwt>
<pdfrwt beam="1">  1        2 0.22837948E-01 0.92714561E+02</pdfrwt>
<pdfrwt beam="2">  1       -2 0.37783990E-02 0.92714561E+02</pdfrwt>
<totfact> 0.61739529E+04</totfact>
</mgrwt>
</event>
<event>
 6    1  0.3075717E-002  0.9283539E+02  0.7546771E-02  0.1418133E+00
         -1   -1    0    0    0  501 -0.00000000000E+00  0.00000000000E+00  0.29978404235E+02  0.29978404235E+02  0.00000000000E+00 0.  1.
          1   -1    0    0  501    0  0.00000000000E+00 -0.00000000000E+00 -0.92266789112E+02  0.92266789112E+02  0.00000000000E+00 0. -1.
         23    2    1    2    0    0 -0.11679630946E+02 -0.15990412499E+01 -0.59034333011E+02  0.11001573851E+03  0.92083872283E+02 0.  0.
         13    1    3    3    0    0 -0.40463899549E+02 -0.22512502267E+02 -0.67801720239E+01  0.46798618118E+02  0.00000000000E+00 0.  1.
        -13    1    3    3    0    0  0.28784268603E+02  0.20913461017E+02 -0.52254160987E+02  0.63217120396E+02  0.00000000000E+00 0. -1.
         22    1    1    2    0    0  0.11679630946E+02  0.15990412499E+01 -0.32540518658E+01  0.12229454833E+02  0.00000000000E+00 0. -1.
<mgrwt>
<rscale>  0 0.55417968E+02</rscale>
<asrwt>0</asrwt>
<pdfrwt beam="1">  1        1 0.14194891E-01 0.92835393E+02</pdfrwt>
<pdfrwt beam="2">  1       -1 0.46120622E-02 0.92835393E+02</pdfrwt>
<totfact> 0.68229950E+04</totfact>
</mgrwt>
</event>
<event>
 6    1  0.3075717E-002  0.8984383E+02  0.7546771E-02  0.1394229E+00
          2   -1    0    0  501    0  0.00000000000E+00  0.00000000000E+00  0.66793115270E+03  0.66793115270E+03  0.00000000000E+00 0. -1.
         -2   -1    0    0    0  501 -0.00000000000E+00 -0.00000000000E+00 -0.52351314255E+01  0.52351314255E+01  0.00000000000E+00 0.  1.
         23    2    1    2    0    0 -0.17785526305E+02  0.64706463323E+01  0.61983732254E+03  0.62631479250E+03  0.87827778557E+02 0.  0.
         11    1    3    3    0    0 -0.10088254737E+02 -0.23577091035E+02  0.55640316430E+02  0.61265789130E+02  0.00000000000E+00 0.  1.
        -11    1    3    3    0    0 -0.76972715676E+01  0.30047737367E+02  0.56419700611E+03  0.56504900337E+03  0.00000000000E+00 0. -1.
         22    1    1    2    0    0  0.17785526305E+02 -0.64706463323E+01  0.42858698733E+02  0.46851491620E+02  0.00000000000E+00 0.  1.
<mgrwt>
<rscale>  0 0.60866874E+02</rscale>
<asrwt>0</asrwt>
<pdfrwt beam="1">  1        2 0.10275857E+00 0.89843825E+02</pdfrwt>
<pdfrwt beam="2">  1       -2 0.80540537E-03 0.89843825E+02</pdfrwt>
<totfact> 0.11261910E+05</totfact>
</mgrwt>
</event>
<event>
 6    1  0.3075717E-002  0.9187091E+02  0.7546771E-02  0.1413901E+00
         -2   -1    0    0    0  501 -0.00000000000E+00  0.00000000000E+00  0.96770054349E+01  0.96770054349E+01  0.00000000000E+00 0.  1.
          2   -1    0    0  501    0  0.00000000000E+00 -0.00000000000E+00 -0.59154034991E+03  0.59154034991E+03  0.00000000000E+00 0. -1.
         23    2    1    2    0    0 -0.90146927155E+01 -0.93482402277E+01 -0.58098183159E+03  0.58820077572E+03  0.90948390029E+02 0.  0.
         11    1    3    3    0    0  0.58534035458E+01 -0.15936908700E+02 -0.56547582210E+03  0.56573063623E+03  0.00000000000E+00 0. -1.
        -11    1    3    3    0    0 -0.14868096261E+02  0.65886684724E+01 -0.15506009492E+02  0.22470139497E+02  0.00000000000E+00 0.  1.
         22    1    1    2    0    0  0.90146927155E+01  0.93482402277E+01 -0.88151289113E+00  0.13016579623E+02  0.00000000000E+00 0.  1.
<mgrwt>
<rscale>  0 0.56332390E+02</rscale>
<asrwt>0</asrwt>
<pdfrwt beam="1">  1        2 0.91006197E-01 0.91870909E+02</pdfrwt>
<pdfrwt beam="2">  1       -2 0.14887702E-02 0.91870909E+02</pdfrwt>
<totfact> 0.54238744E+04</totfact>
</mgrwt>
</event>
<event>
 6    1  0.3075717E-002  0.9239130E+02  0.7546771E-02  0.1402075E+00
          2   -1    0    0  501    0  0.00000000000E+00  0.00000000000E+00  0.22535999800E+03  0.22535999800E+03  0.00000000000E+00 0.  1.
         -2   -1    0    0    0  501 -0.00000000000E+00 -0.00000000000E+00 -0.13926759744E+02  0.13926759744E+02  0.00000000000E+00 0. -1.
         23    2    1    2    0    0  0.15362100954E+02  0.28713739241E+00  0.19942079702E+03  0.21978354421E+03  0.91104749762E+02 0.  0.
         13    1    3    3    0    0 -0.11807029564E+02  0.27099414130E+02  0.16731248073E+03  0.16990365035E+03  0.00000000000E+00 0.  1.
        -13    1    3    3    0    0  0.27169130517E+02 -0.26812276737E+02  0.32108316284E+02  0.49879893860E+02  0.00000000000E+00 0. -1.
         22    1    1    2    0    0 -0.15362100954E+02 -0.28713739241E+00  0.12012441238E+02  0.19503213532E+02  0.00000000000E+00 0.  1.
<mgrwt>
<rscale>  0 0.59000395E+02</rscale>
<asrwt>0</asrwt>
<pdfrwt beam="1">  1        2 0.34670766E-01 0.92391298E+02</pdfrwt>
<pdfrwt beam="2">  1       -2 0.21425786E-02 0.92391298E+02</pdfrwt>
<totfact> 0.89717476E+04</totfact>
</mgrwt>
</event>
<event>
 6    1  0.3075717E-002  0.1000043E+03  0.7546771E-02  0.1328497E+00
         -2   -1    0    0    0  501 -0.00000000000E+00  0.00000000000E+00  0.24488799581E+03  0.24488799581E+03  0.00000000000E+00 0.  1.
          2   -1    0    0  501    0  0.00000000000E+00 -0.00000000000E+00 -0.21667434167E+02  0.21667434167E+02  0.00000000000E+00 0. -1.
         23    2    1    2    0    0 -0.20893003366E+02 -0.35691563606E+02  0.18471140482E+03  0.21004560374E+03  0.91051893317E+02 0.  0.
         11    1    3    3    0    0  0.18495526919E+02 -0.53623098153E+02  0.10397433702E+03  0.11844063462E+03  0.00000000000E+00 0.  1.
        -11    1    3    3    0    0 -0.39388530286E+02  0.17931534547E+02  0.80737067804E+02  0.91604969116E+02  0.00000000000E+00 0. -1.
         22    1    1    2    0    0  0.20893003366E+02  0.35691563606E+02  0.38509156822E+02  0.56509826238E+02  0.00000000000E+00 0.  1.
<mgrwt>
<rscale>  0 0.80195733E+02</rscale>
<asrwt>0</asrwt>
<pdfrwt beam="1">  1        2 0.33334516E-02 0.10000426E+03</pdfrwt>
<pdfrwt beam="2">  1       -2 0.37675074E-01 0.10000426E+03</pdfrwt>
<totfact> 0.16261251E+04</totfact>
</mgrwt>
</event>
<event>
 6    1  0.3075717E-002  0.8490435E+02  0.7546771E-02  0.1381170E+00
         -2   -1    0    0    0  501 -0.00000000000E+00  0.00000000000E+00  0.15998415541E+02  0.15998415541E+02  0.00000000000E+00 0.  1.
          2   -1    0    0  501    0  0.00000000000E+00 -0.00000000000E+00 -0.41025931278E+03  0.41025931278E+03  0.00000000000E+00 0. -1.
         23    2    1    2    0    0 -0.27123406730E+02  0.55316815800E+01 -0.38890180659E+03  0.39806200974E+03  0.80264996953E+02 0.  0.
         11    1    3    3    0    0 -0.41425566890E+01 -0.11617537815E+02 -0.53575017626E+01  0.13447333785E+02  0.00000000000E+00 0.  1.
        -11    1    3    3    0    0 -0.22980850041E+02  0.17149219395E+02 -0.38354430483E+03  0.38461467596E+03  0.00000000000E+00 0. -1.
         22    1    1    2    0    0  0.27123406730E+02 -0.55316815800E+01 -0.53590906501E+01  0.28195718581E+02  0.00000000000E+00 0.  1.
<mgrwt>
<rscale>  0 0.64157258E+02</rscale>
<asrwt>0</asrwt>
<pdfrwt beam="1">  1        2 0.63116817E-01 0.84904349E+02</pdfrwt>
<pdfrwt beam="2">  1       -2 0.24612947E-02 0.84904349E+02</pdfrwt>
<totfact> 0.38770816E+04</totfact>
</mgrwt>
</event>
<event>
 6    1  0.3075717E-002  0.9453619E+02  0.7546771E-02  0.1352011E+00
         -2   -1    0    0    0  501 -0.00000000000E+00  0.00000000000E+00  0.42572604976E+02  0.42572604976E+02  0.00000000000E+00 0.  1.
          2   -1    0    0  501    0  0.00000000000E+00 -0.00000000000E+00 -0.94888527025E+02  0.94888527025E+02  0.00000000000E+00 0. -1.
         23    2    1    2    0    0 -0.32112742680E+02  0.54930240725E+01 -0.39164434813E+02  0.10232762702E+03  0.88745077276E+02 0.  0.
         13    1    3    3    0    0  0.26475940396E+02  0.54284547715E+01 -0.34112750066E+02  0.43521526376E+02  0.00000000000E+00 0. -1.
        -13    1    3    3    0    0 -0.58588683076E+02  0.64569300975E-01 -0.50516847471E+01  0.58806100641E+02  0.00000000000E+00 0.  1.
         22    1    1    2    0    0  0.32112742680E+02 -0.54930240725E+01 -0.13151487236E+02  0.35133504983E+02  0.00000000000E+00 0. -1.
<mgrwt>
<rscale>  0 0.72432507E+02</rscale>
<asrwt>0</asrwt>
<pdfrwt beam="1">  1        2 0.14598235E-01 0.94536185E+02</pdfrwt>
<pdfrwt beam="2">  1       -2 0.65496316E-02 0.94536185E+02</pdfrwt>
<totfact> 0.45302923E+04</totfact>
</mgrwt>
</event>
<event>
 6    1  0.3075717E-002  0.9136337E+02  0.7546771E-02  0.1425768E+00
         -1   -1    0    0    0  501 -0.00000000000E+00  0.00000000000E+00  0.55825280555E+02  0.55825280555E+02  0.00000000000E+00 0.  1.
          1   -1    0    0  501    0  0.00000000000E+00 -0.00000000000E+00 -0.52930808795E+02  0.52930808795E+02  0.00000000000E+00 0. -1.
         23    2    1    2    0    0 -0.44720807012E+01  0.10050767024E+02 -0.98819538834E+01  0.91896241314E+02  0.90698669954E+02 0.  0.
         13    1    3    3    0    0  0.31586034881E+02 -0.15342954578E+02 -0.27299846679E+02  0.44478820616E+02  0.00000000000E+00 0. -1.
        -13    1    3    3    0    0 -0.36058115583E+02  0.25393721602E+02  0.17417892796E+02  0.47417420698E+02  0.00000000000E+00 0.  1.
         22    1    1    2    0    0  0.44720807012E+01 -0.10050767024E+02  0.12776425644E+02  0.16859848036E+02  0.00000000000E+00 0. -1.
<mgrwt>
<rscale>  0 0.53818933E+02</rscale>
<asrwt>0</asrwt>
<pdfrwt beam="1">  1        1 0.81432014E-02 0.91363374E+02</pdfrwt>
<pdfrwt beam="2">  1       -1 0.85885047E-02 0.91363374E+02</pdfrwt>
<totfact> 0.56086859E+04</totfact>
</mgrwt>
</event>
<event>
 6    1  0.3075717E-002  0.9229196E+02  0.7546771E-02  0.1409276E+00
         -2   -1    0    0    0  501 -0.00000000000E+00  0.00000000000E+00  0.19923245429E+02  0.19923245429E+02  0.00000000000E+00 0.  1.
          2   -1    0    0  501    0  0.00000000000E+00 -0.00000000000E+00 -0.33123105239E+03  0.33123105239E+03  0.00000000000E+00 0. -1.
         23    2    1    2    0    0  0.13454958172E+02  0.29104813639E+01 -0.32120395995E+03  0.33420022323E+03  0.91259511918E+02 0.  0.
         13    1    3    3    0    0  0.29539859763E+02 -0.36862783438E+02 -0.20379675100E+03  0.20919986577E+03  0.00000000000E+00 0. -1.
        -13    1    3    3    0    0 -0.16084901591E+02  0.39773264801E+02 -0.11740720895E+03  0.12500035746E+03  0.00000000000E+00 0.  1.
         22    1    1    2    0    0 -0.13454958172E+02 -0.29104813639E+01  0.98961529911E+01  0.16954074590E+02  0.00000000000E+00 0.  1.
<mgrwt>
<rscale>  0 0.57355622E+02</rscale>
<asrwt>0</asrwt>
<pdfrwt beam="1">  1        2 0.50958627E-01 0.92291957E+02</pdfrwt>
<pdfrwt beam="2">  1       -2 0.30651145E-02 0.92291957E+02</pdfrwt>
<totfact> 0.35669166E+04</totfact>
</mgrwt>
</event>
<event>
 6    1  0.3075717E-002  0.9590063E+02  0.7546771E-02  0.1369540E+00
          2   -1    0    0  501    0  0.00000000000E+00  0.00000000000E+00  0.48462019901E+03  0.48462019901E+03  0.00000000000E+00 0. -1.
         -2   -1    0    0    0  501 -0.00000000000E+00 -0.00000000000E+00 -0.87290495424E+01  0.87290495424E+01  0.00000000000E+00 0.  1.
         23    2    1    2    0    0  0.15372143345E+02  0.17446563116E+02  0.44176331954E+03  0.45205283065E+03  0.93038948065E+02 0.  0.
         11    1    3    3    0    0 -0.18339464880E+02  0.15903018580E+02  0.28596170521E+02  0.37509771267E+02  0.00000000000E+00 0.  1.
        -11    1    3    3    0    0  0.33711608225E+02  0.15435445360E+01  0.41316714902E+03  0.41454305939E+03  0.00000000000E+00 0. -1.
         22    1    1    2    0    0 -0.15372143345E+02 -0.17446563116E+02  0.34127829931E+02  0.41296417900E+02  0.00000000000E+00 0. -1.
<mgrwt>
<rscale>  0 0.67295214E+02</rscale>
<asrwt>0</asrwt>
<pdfrwt beam="1">  1        2 0.74556933E-01 0.95900632E+02</pdfrwt>
<pdfrwt beam="2">  1       -2 0.13429311E-02 0.95900632E+02</pdfrwt>
<totfact> 0.78594841E+04</totfact>
</mgrwt>
</event>
<event>
 6    1  0.3075717E-002  0.9069671E+02  0.7546771E-02  0.1417358E+00
         -4   -1    0    0    0  501 -0.00000000000E+00  0.00000000000E+00  0.62022430356E+02  0.62022430356E+02  0.00000000000E+00 0.  1.
          4   -1    0    0  501    0  0.00000000000E+00 -0.00000000000E+00 -0.48500383872E+02  0.48500383872E+02  0.00000000000E+00 0. -1.
         23    2    1    2    0    0 -0.84341037655E+01  0.96208616103E+01 -0.16046380055E+01  0.90710906998E+02  0.89789747192E+02 0.  0.
         13    1    3    3    0    0 -0.34996777933E+02  0.27827098666E+02  0.22909285283E+02  0.50239001165E+02  0.00000000000E+00 0.  1.
        -13    1    3    3    0    0  0.26562674168E+02 -0.18206237056E+02 -0.24513923288E+02  0.40471905832E+02  0.00000000000E+00 0. -1.
         22    1    1    2    0    0  0.84341037655E+01 -0.96208616103E+01  0.15126684490E+02  0.19811907230E+02  0.00000000000E+00 0. -1.
<mgrwt>
<rscale>  0 0.55583785E+02</rscale>
<asrwt>0</asrwt>
<pdfrwt beam="1">  1        4 0.74615975E-02 0.90696713E+02</pdfrwt>
<pdfrwt beam="2">  1       -4 0.95419123E-02 0.90696713E+02</pdfrwt>
<totfact> 0.14693310E+04</totfact>
</mgrwt>
</event>
<event>
 6    1  0.3075717E-002  0.9981672E+02  0.7546771E-02  0.1368840E+00
         -2   -1    0    0    0  501 -0.00000000000E+00  0.00000000000E+00  0.12596399582E+03  0.12596399582E+03  0.00000000000E+00 0.  1.
          2   -1    0    0  501    0  0.00000000000E+00 -0.00000000000E+00 -0.10110557386E+03  0.10110557386E+03  0.00000000000E+00 0. -1.
         23    2    1    2    0    0 -0.13399941606E+01 -0.20819483448E+02 -0.75127650195E+02  0.12493014977E+03  0.97612150998E+02 0.  0.
         13    1    3    3    0    0 -0.79473988351E+01  0.18130195230E+02  0.16099737536E+02  0.25516008231E+02  0.00000000000E+00 0.  1.
        -13    1    3    3    0    0  0.66074046745E+01 -0.38949678678E+02 -0.91227387731E+02  0.99414141539E+02  0.00000000000E+00 0. -1.
         22    1    1    2    0    0  0.13399941606E+01  0.20819483448E+02  0.99986072155E+02  0.10213941991E+03  0.00000000000E+00 0.  1.
<mgrwt>
<rscale>  0 0.67490772E+02</rscale>
<asrwt>0</asrwt>
<pdfrwt beam="1">  1        2 0.15554704E-01 0.99816725E+02</pdfrwt>
<pdfrwt beam="2">  1       -2 0.19379076E-01 0.99816725E+02</pdfrwt>
<totfact> 0.76289999E+03</totfact>
</mgrwt>
</event>
<event>
 6    1  0.3075717E-002  0.1034555E+03  0.7546771E-02  0.1314420E+00
          2   -1    0    0  501    0  0.00000000000E+00  0.00000000000E+00  0.28423300052E+03  0.28423300052E+03  0.00000000000E+00 0.  1.
         -2   -1    0    0    0  501 -0.00000000000E+00 -0.00000000000E+00 -0.31559041182E+02  0.31559041182E+02  0.00000000000E+00 0. -1.
         23    2    1    2    0    0  0.44884402456E+02 -0.17040792967E+02  0.65242938833E+02  0.12230977984E+03  0.91640836788E+02 0.  0.
         13    1    3    3    0    0  0.57120482130E+02 -0.43370564893E+02  0.33082634039E+02  0.78982378116E+02  0.00000000000E+00 0.  1.
        -13    1    3    3    0    0 -0.12236079674E+02  0.26329771925E+02  0.32160304794E+02  0.43327401720E+02  0.00000000000E+00 0. -1.
         22    1    1    2    0    0 -0.44884402456E+02  0.17040792967E+02  0.18743102051E+03  0.19348226187E+03  0.00000000000E+00 0.  1.
<mgrwt>
<rscale>  0 0.85388429E+02</rscale>
<asrwt>0</asrwt>
<pdfrwt beam="1">  1        2 0.43728152E-01 0.10345550E+03</pdfrwt>
<pdfrwt beam="2">  1       -2 0.48552373E-02 0.10345550E+03</pdfrwt>
<totfact> 0.21551634E+04</totfact>
</mgrwt>
</event>
<event>
 6    1  0.3075717E-002  0.9213814E+02  0.7546771E-02  0.1402418E+00
         -2   -1    0    0    0  501 -0.00000000000E+00  0.00000000000E+00  0.28684657009E+01  0.28684657009E+01  0.00000000000E+00 0.  1.
          2   -1    0    0  501    0  0.00000000000E+00 -0.00000000000E+00 -0.13647525231E+04  0.13647525231E+04  0.00000000000E+00 0. -1.
         23    2    1    2    0    0  0.64179641171E+01 -0.14007999091E+02 -0.13159472005E+04  0.13191688565E+04  0.90840647162E+02 0.  0.
         13    1    3    3    0    0  0.40424451070E+02 -0.31946367377E+02 -0.88991293739E+03  0.89140324364E+03  0.00000000000E+00 0. -1.
        -13    1    3    3    0    0 -0.34006486953E+02  0.17938368286E+02 -0.42603426313E+03  0.42776561289E+03  0.00000000000E+00 0.  1.
         22    1    1    2    0    0 -0.64179641171E+01  0.14007999091E+02 -0.45936856908E+02  0.48452132301E+02  0.00000000000E+00 0.  1.
<mgrwt>
<rscale>  0 0.58920707E+02</rscale>
<asrwt>0</asrwt>
<pdfrwt beam="1">  1        2 0.20996239E+00 0.92138143E+02</pdfrwt>
<pdfrwt beam="2">  1       -2 0.44130144E-03 0.92138143E+02</pdfrwt>
<totfact> 0.10068361E+05</totfact>
</mgrwt>
</event>
<event>
 6    1  0.3075717E-002  0.8760177E+02  0.7546771E-02  0.1388983E+00
         -2   -1    0    0    0  501 -0.00000000000E+00  0.00000000000E+00  0.57167286791E+01  0.57167286791E+01  0.00000000000E+00 0.  1.
          2   -1    0    0  501    0  0.00000000000E+00 -0.00000000000E+00 -0.13209594825E+04  0.13209594825E+04  0.00000000000E+00 0. -1.
         23    2    1    2    0    0 -0.56044263534E+01 -0.21489547668E+02 -0.12903358512E+04  0.12933061040E+04  0.84739952600E+02 0.  0.
         13    1    3    3    0    0 -0.24425196832E+02  0.19956739662E+02 -0.85820579359E+03  0.85878521521E+03  0.00000000000E+00 0.  1.
        -13    1    3    3    0    0  0.18820770479E+02 -0.41446287330E+02 -0.43213005761E+03  0.43452088883E+03  0.00000000000E+00 0. -1.
         22    1    1    2    0    0  0.56044263534E+01  0.21489547668E+02 -0.24906902650E+02  0.33370107182E+02  0.00000000000E+00 0.  1.
<mgrwt>
<rscale>  0 0.62160381E+02</rscale>
<asrwt>0</asrwt>
<pdfrwt beam="1">  1        2 0.20322472E+00 0.87601768E+02</pdfrwt>
<pdfrwt beam="2">  1       -2 0.87949593E-03 0.87601768E+02</pdfrwt>
<totfact> 0.40061918E+04</totfact>
</mgrwt>
</event>
<event>
 6    1  0.3075717E-002  0.9788313E+02  0.7546771E-02  0.1317328E+00
         -1   -1    0    0    0  501 -0.00000000000E+00  0.00000000000E+00  0.22866491547E+02  0.22866491547E+02  0.00000000000E+00 0.  1.
          1   -1    0    0  501    0  0.00000000000E+00 -0.00000000000E+00 -0.69372199994E+03  0.69372199994E+03  0.00000000000E+00 0. -1.
         23    2    1    2    0    0  0.12713131207E+02  0.52273511560E+02 -0.65241734629E+03  0.65971925958E+03  0.81773858904E+02 0.  0.
         13    1    3    3    0    0  0.35185549238E+02  0.21236438482E+02 -0.14097108759E+03  0.14683956119E+03  0.00000000000E+00 0.  1.
        -13    1    3    3    0    0 -0.22472418031E+02  0.31037073078E+02 -0.51144625870E+03  0.51287969839E+03  0.00000000000E+00 0. -1.
         22    1    1    2    0    0 -0.12713131207E+02 -0.52273511560E+02 -0.18438162098E+02  0.56869231905E+02  0.00000000000E+00 0.  1.
<mgrwt>
<rscale>  0 0.84279298E+02</rscale>
<asrwt>0</asrwt>
<pdfrwt beam="1">  1        1 0.10672646E+00 0.97883133E+02</pdfrwt>
<pdfrwt beam="2">  1       -1 0.35179218E-02 0.97883133E+02</pdfrwt>
<totfact> 0.80074004E+03</totfact>
</mgrwt>
</event>
<event>
 6    1  0.3075717E-002  0.8315809E+02  0.7546771E-02  0.1412013E+00
          1   -1    0    0  501    0  0.00000000000E+00  0.00000000000E+00  0.25960727918E+03  0.25960727918E+03  0.00000000000E+00 0. -1.
         -1   -1    0    0    0  501 -0.00000000000E+00 -0.00000000000E+00 -0.10768849083E+02  0.10768849083E+02  0.00000000000E+00 0.  1.
         23    2    1    2    0    0 -0.16394297765E+02 -0.75099638703E+01  0.22867262999E+03  0.24332373372E+03  0.81179400889E+02 0.  0.
         13    1    3    3    0    0 -0.23921493543E+01  0.79654863327E+01 -0.43380550611E+01  0.93803023812E+01  0.00000000000E+00 0.  1.
        -13    1    3    3    0    0 -0.14002148411E+02 -0.15475450203E+02  0.23301068505E+03  0.23394343134E+03  0.00000000000E+00 0. -1.
         22    1    1    2    0    0  0.16394297765E+02  0.75099638703E+01  0.20165800107E+02  0.27052394542E+02  0.00000000000E+00 0.  1.
<mgrwt>
<rscale>  0 0.56746961E+02</rscale>
<asrwt>0</asrwt>
<pdfrwt beam="1">  1        1 0.39939577E-01 0.83158089E+02</pdfrwt>
<pdfrwt beam="2">  1       -1 0.16567462E-02 0.83158089E+02</pdfrwt>
<totfact> 0.80684941E+04</totfact>
</mgrwt>
</event>
<event>
 6    1  0.3075717E-002  0.1002950E+03  0.7546771E-02  0.1333199E+00
          2   -1    0    0  501    0  0.00000000000E+00  0.00000000000E+00  0.88516185562E+02  0.88516185562E+02  0.00000000000E+00 0. -1.
         -2   -1    0    0    0  501 -0.00000000000E+00 -0.00000000000E+00 -0.58925373869E+02  0.58925373869E+02  0.00000000000E+00 0.  1.
         23    2    1    2    0    0  0.23824467634E+02 -0.29278810766E+02  0.13582913708E+01  0.10030421519E+03  0.92920593048E+02 0.  0.
         13    1    3    3    0    0  0.30050389232E+02  0.21591426312E+02  0.24179950515E+02  0.44202778081E+02  0.00000000000E+00 0. -1.
        -13    1    3    3    0    0 -0.62259215974E+01 -0.50870237079E+02 -0.22821659144E+02  0.56101437114E+02  0.00000000000E+00 0.  1.
         22    1    1    2    0    0 -0.23824467634E+02  0.29278810766E+02  0.28232520322E+02  0.47137344236E+02  0.00000000000E+00 0. -1.
<mgrwt>
<rscale>  0 0.78556263E+02</rscale>
<asrwt>0</asrwt>
<pdfrwt beam="1">  1        2 0.13617875E-01 0.10029502E+03</pdfrwt>
<pdfrwt beam="2">  1       -2 0.90654421E-02 0.10029502E+03</pdfrwt>
<totfact> 0.30127829E+04</totfact>
</mgrwt>
</event>
<event>
 6    1  0.3075717E-002  0.9320532E+02  0.7546771E-02  0.1369603E+00
         -2   -1    0    0    0  501 -0.00000000000E+00  0.00000000000E+00  0.20382141464E+03  0.20382141464E+03  0.00000000000E+00 0.  1.
          2   -1    0    0  501    0  0.00000000000E+00 -0.00000000000E+00 -0.18239657538E+02  0.18239657538E+02  0.00000000000E+00 0. -1.
         23    2    1    2    0    0  0.19407674803E+02  0.16234471836E+02  0.12126219049E+03  0.15294361732E+03  0.89705157706E+02 0.  0.
         13    1    3    3    0    0 -0.22079351955E+02 -0.16709320717E+02  0.83268762118E+02  0.87751842866E+02  0.00000000000E+00 0.  1.
        -13    1    3    3    0    0  0.41487026758E+02  0.32943792553E+02  0.37993428375E+02  0.65191774455E+02  0.00000000000E+00 0. -1.
         22    1    1    2    0    0 -0.19407674803E+02 -0.16234471836E+02  0.64319566608E+02  0.69117454855E+02  0.00000000000E+00 0.  1.
<mgrwt>
<rscale>  0 0.67277730E+02</rscale>
<asrwt>0</asrwt>
<pdfrwt beam="1">  1        2 0.28061013E-02 0.93205318E+02</pdfrwt>
<pdfrwt beam="2">  1       -2 0.31357139E-01 0.93205318E+02</pdfrwt>
<totfact> 0.28339850E+04</totfact>
</mgrwt>
</event>
<event>
 6    1  0.3075717E-002  0.8836180E+02  0.7546771E-02  0.1411827E+00
          4   -1    0    0  501    0  0.00000000000E+00  0.00000000000E+00  0.45093555318E+02  0.45093555318E+02  0.00000000000E+00 0. -1.
         -4   -1    0    0    0  501 -0.00000000000E+00 -0.00000000000E+00 -0.78253791613E+02  0.78253791613E+02  0.00000000000E+00 0.  1.
         23    2    1    2    0    0  0.13555040727E+02  0.65949126636E+01 -0.16049321453E+01  0.88376370077E+02  0.87066497453E+02 0.  0.
         13    1    3    3    0    0  0.38648501910E+02 -0.14661486592E+02  0.23000255619E+02  0.47304097576E+02  0.00000000000E+00 0. -1.
        -13    1    3    3    0    0 -0.25093461184E+02  0.21256399255E+02 -0.24605187764E+02  0.41072272501E+02  0.00000000000E+00 0.  1.
         22    1    1    2    0    0 -0.13555040727E+02 -0.65949126636E+01 -0.31555304150E+02  0.34970976854E+02  0.00000000000E+00 0. -1.
<mgrwt>
<rscale>  0 0.56788067E+02</rscale>
<asrwt>0</asrwt>
<pdfrwt beam="1">  1        4 0.69374701E-02 0.88361796E+02</pdfrwt>
<pdfrwt beam="2">  1       -4 0.12039045E-01 0.88361796E+02</pdfrwt>
<totfact> 0.11107738E+04</totfact>
</mgrwt>
</event>
<event>
 6    1  0.3075717E-002  0.8984497E+02  0.7546771E-02  0.1420205E+00
          2   -1    0    0  501    0  0.00000000000E+00  0.00000000000E+00  0.55468868740E+03  0.55468868740E+03  0.00000000000E+00 0. -1.
         -2   -1    0    0    0  501 -0.00000000000E+00 -0.00000000000E+00 -0.48132713187E+01  0.48132713187E+01  0.00000000000E+00 0.  1.
         23    2    1    2    0    0 -0.94742278855E+00 -0.12561116021E+02  0.50313337329E+03  0.51109227157E+03  0.88957515105E+02 0.  0.
         13    1    3    3    0    0  0.11459223791E+02 -0.28865529934E+02  0.60690473995E+02  0.68175261364E+02  0.00000000000E+00 0.  1.
        -13    1    3    3    0    0 -0.12406646579E+02  0.16304413913E+02  0.44244289930E+03  0.44291701021E+03  0.00000000000E+00 0. -1.
         22    1    1    2    0    0  0.94742278855E+00  0.12561116021E+02  0.46742042788E+02  0.48409687147E+02  0.00000000000E+00 0. -1.
<mgrwt>
<rscale>  0 0.54977545E+02</rscale>
<asrwt>0</asrwt>
<pdfrwt beam="1">  1        2 0.85336671E-01 0.89844971E+02</pdfrwt>
<pdfrwt beam="2">  1       -2 0.74050372E-03 0.89844971E+02</pdfrwt>
<totfact> 0.15618559E+05</totfact>
</mgrwt>
</event>
<event>
 6    1  0.3075717E-002  0.9320836E+02  0.7546771E-02  0.1387315E+00
          2   -1    0    0  501    0  0.00000000000E+00  0.00000000000E+00  0.13471824695E+04  0.13471824695E+04  0.00000000000E+00 0. -1.
         -2   -1    0    0    0  501 -0.00000000000E+00 -0.00000000000E+00 -0.37531639616E+01  0.37531639616E+01  0.00000000000E+00 0.  1.
         23    2    1    2    0    0  0.96393783641E+01 -0.16302816098E+02  0.13025664377E+04  0.13058970567E+04  0.91263895688E+02 0.  0.
         13    1    3    3    0    0  0.50525924609E+01 -0.15605627155E+02  0.38835030889E+02  0.42157133603E+02  0.00000000000E+00 0.  1.
        -13    1    3    3    0    0  0.45867859032E+01 -0.69718894341E+00  0.12637314068E+04  0.12637399231E+04  0.00000000000E+00 0. -1.
         22    1    1    2    0    0 -0.96393783641E+01  0.16302816098E+02  0.40862867785E+02  0.45038576705E+02  0.00000000000E+00 0.  1.
<mgrwt>
<rscale>  0 0.62579556E+02</rscale>
<asrwt>0</asrwt>
<pdfrwt beam="1">  1        2 0.20725846E+00 0.93208358E+02</pdfrwt>
<pdfrwt beam="2">  1       -2 0.57741091E-03 0.93208358E+02</pdfrwt>
<totfact> 0.70636015E+04</totfact>
</mgrwt>
</event>
<event>
 6    1  0.3075717E-002  0.9376636E+02  0.7546771E-02  0.1388342E+00
          2   -1    0    0  501    0  0.00000000000E+00  0.00000000000E+00  0.61628163955E+03  0.61628163955E+03  0.00000000000E+00 0. -1.
         -2   -1    0    0    0  501 -0.00000000000E+00 -0.00000000000E+00 -0.51168183778E+01  0.51168183778E+01  0.00000000000E+00 0.  1.
         23    2    1    2    0    0  0.11237698203E+02  0.14440188785E+02  0.52570266532E+03  0.53399945910E+03  0.91963716120E+02 0.  0.
         13    1    3    3    0    0 -0.31361108538E+01  0.36938077798E+01  0.51037502301E+03  0.51039802461E+03  0.00000000000E+00 0. -1.
        -13    1    3    3    0    0  0.14373809057E+02  0.10746381005E+02  0.15327642308E+02  0.23601434495E+02  0.00000000000E+00 0.  1.
         22    1    1    2    0    0 -0.11237698203E+02 -0.14440188785E+02  0.85462155853E+02  0.87398998827E+02  0.00000000000E+00 0.  1.
<mgrwt>
<rscale>  0 0.62320979E+02</rscale>
<asrwt>0</asrwt>
<pdfrwt beam="1">  1        2 0.94812501E-01 0.93766359E+02</pdfrwt>
<pdfrwt beam="2">  1       -2 0.78720332E-03 0.93766359E+02</pdfrwt>
<totfact> 0.12826004E+05</totfact>
</mgrwt>
</event>
<event>
 6    1  0.3075717E-002  0.9058460E+02  0.7546771E-02  0.1390383E+00
         -2   -1    0    0    0  501 -0.00000000000E+00  0.00000000000E+00  0.12441836077E+03  0.12441836077E+03  0.00000000000E+00 0.  1.
          2   -1    0    0  501    0  0.00000000000E+00 -0.00000000000E+00 -0.53473755246E+02  0.53473755246E+02  0.00000000000E+00 0. -1.
         23    2    1    2    0    0  0.33632713863E+00 -0.19636060342E+02 -0.13150595228E+02  0.91534193559E+02  0.88430099253E+02 0.  0.
         13    1    3    3    0    0 -0.10900159853E+02 -0.26695545448E+02  0.32819347941E+02  0.43687243343E+02  0.00000000000E+00 0.  1.
        -13    1    3    3    0    0  0.11236486992E+02  0.70594851068E+01 -0.45969943170E+02  0.47846950216E+02  0.00000000000E+00 0. -1.
         22    1    1    2    0    0 -0.33632713863E+00  0.19636060342E+02  0.84095200747E+02  0.86357922453E+02  0.00000000000E+00 0.  1.
<mgrwt>
<rscale>  0 0.61811645E+02</rscale>
<asrwt>0</asrwt>
<pdfrwt beam="1">  1        2 0.82267316E-02 0.90584604E+02</pdfrwt>
<pdfrwt beam="2">  1       -2 0.19141286E-01 0.90584604E+02</pdfrwt>
<totfact> 0.16533207E+04</totfact>
</mgrwt>
</event>
<event>
 6    1  0.3075717E-002  0.1008486E+03  0.7546771E-02  0.1405900E+00
         -2   -1    0    0    0  501 -0.00000000000E+00  0.00000000000E+00  0.26542168846E+03  0.26542168846E+03  0.00000000000E+00 0. -1.
          2   -1    0    0  501    0  0.00000000000E+00 -0.00000000000E+00 -0.12357715060E+02  0.12357715060E+02  0.00000000000E+00 0.  1.
         23    2    1    2    0    0 -0.35859404863E+01  0.10530150493E+02  0.20523811474E+03  0.22867690058E+03  0.10023321843E+03 0.  0.
         13    1    3    3    0    0 -0.31607183723E+01 -0.13355675559E+02  0.20430875938E+03  0.20476921978E+03  0.00000000000E+00 0. -1.
        -13    1    3    3    0    0 -0.42522211396E+00  0.23885826051E+02  0.92935536553E+00  0.23907680803E+02  0.00000000000E+00 0.  1.
         22    1    1    2    0    0  0.35859404863E+01 -0.10530150493E+02  0.47825858658E+02  0.49102502939E+02  0.00000000000E+00 0.  1.
<mgrwt>
<rscale>  0 0.58118918E+02</rscale>
<asrwt>0</asrwt>
<pdfrwt beam="1">  1        2 0.19011871E-02 0.10084860E+03</pdfrwt>
<pdfrwt beam="2">  1       -2 0.40834102E-01 0.10084860E+03</pdfrwt>
<totfact> 0.29729830E+04</totfact>
</mgrwt>
</event>
<event>
 6    1  0.3075717E-002  0.9308979E+02  0.7546771E-02  0.1420505E+00
         -2   -1    0    0    0  501 -0.00000000000E+00  0.00000000000E+00  0.72079470905E+01  0.72079470905E+01  0.00000000000E+00 0.  1.
          2   -1    0    0  501    0  0.00000000000E+00 -0.00000000000E+00 -0.10412384158E+04  0.10412384158E+04  0.00000000000E+00 0. -1.
         23    2    1    2    0    0  0.99627061818E+01  0.52745104790E+01 -0.10329341577E+04  0.10371203807E+04  0.92404728795E+02 0.  0.
         13    1    3    3    0    0 -0.25919158755E+02  0.35208715905E+01 -0.86459645798E+03  0.86499204301E+03  0.00000000000E+00 0. -1.
        -13    1    3    3    0    0  0.35881864936E+02  0.17536388885E+01 -0.16833769976E+03  0.17212833770E+03  0.00000000000E+00 0.  1.
         22    1    1    2    0    0 -0.99627061818E+01 -0.52745104790E+01 -0.10963110124E+01  0.11325982213E+02  0.00000000000E+00 0.  1.
<mgrwt>
<rscale>  0 0.54914178E+02</rscale>
<asrwt>0</asrwt>
<pdfrwt beam="1">  1        2 0.16019043E+00 0.93089795E+02</pdfrwt>
<pdfrwt beam="2">  1       -2 0.11089156E-02 0.93089795E+02</pdfrwt>
<totfact> 0.41313527E+04</totfact>
</mgrwt>
</event>
<event>
 6    1  0.3075717E-002  0.1069506E+03  0.7546771E-02  0.1301138E+00
          2   -1    0    0  501    0  0.00000000000E+00  0.00000000000E+00  0.11857416149E+03  0.11857416149E+03  0.00000000000E+00 0. -1.
         -2   -1    0    0    0  501 -0.00000000000E+00 -0.00000000000E+00 -0.66880147061E+02  0.66880147061E+02  0.00000000000E+00 0.  1.
         23    2    1    2    0    0 -0.53946464105E+02 -0.12372609267E+02  0.69222619446E+02  0.12739783223E+03  0.91515759107E+02 0.  0.
         11    1    3    3    0    0 -0.73075329790E+02 -0.29597233598E+02  0.62986073663E+02  0.10091206834E+03  0.00000000000E+00 0. -1.
        -11    1    3    3    0    0  0.19128865686E+02  0.17224624331E+02  0.62365457830E+01  0.26485763894E+02  0.00000000000E+00 0.  1.
         22    1    1    2    0    0  0.53946464105E+02  0.12372609267E+02 -0.17528605013E+02  0.58056476324E+02  0.00000000000E+00 0.  1.
<mgrwt>
<rscale>  0 0.90711268E+02</rscale>
<asrwt>0</asrwt>
<pdfrwt beam="1">  1        2 0.18242179E-01 0.10695063E+03</pdfrwt>
<pdfrwt beam="2">  1       -2 0.10289253E-01 0.10695063E+03</pdfrwt>
<totfact> 0.17781108E+04</totfact>
</mgrwt>
</event>
<event>
 6    1  0.3075717E-002  0.9301498E+02  0.7546771E-02  0.1404981E+00
         -2   -1    0    0    0  501 -0.00000000000E+00  0.00000000000E+00  0.40515810738E+01  0.40515810738E+01  0.00000000000E+00 0.  1.
          2   -1    0    0  501    0  0.00000000000E+00 -0.00000000000E+00 -0.81884932452E+03  0.81884932452E+03  0.00000000000E+00 0. -1.
         23    2    1    2    0    0 -0.13702684810E+02  0.43742293247E+01 -0.77540991973E+03  0.78096884018E+03  0.91896073123E+02 0.  0.
         11    1    3    3    0    0 -0.45844607810E+02  0.60788563535E+01 -0.64461293168E+03  0.64626969002E+03  0.00000000000E+00 0. -1.
        -11    1    3    3    0    0  0.32141923000E+02 -0.17046270288E+01 -0.13079698806E+03  0.13469915015E+03  0.00000000000E+00 0.  1.
         22    1    1    2    0    0  0.13702684810E+02 -0.43742293247E+01 -0.39387823716E+02  0.41932065418E+02  0.00000000000E+00 0. -1.
<mgrwt>
<rscale>  0 0.58328936E+02</rscale>
<asrwt>0</asrwt>
<pdfrwt beam="1">  1        2 0.12597669E+00 0.93014976E+02</pdfrwt>
<pdfrwt beam="2">  1       -2 0.62332081E-03 0.93014976E+02</pdfrwt>
<totfact> 0.12742641E+05</totfact>
</mgrwt>
</event>
<event>
 6    1  0.3075717E-002  0.9740255E+02  0.7546771E-02  0.1338568E+00
          2   -1    0    0  501    0  0.00000000000E+00  0.00000000000E+00  0.32896276717E+03  0.32896276717E+03  0.00000000000E+00 0. -1.
         -2   -1    0    0    0  501 -0.00000000000E+00 -0.00000000000E+00 -0.14157872689E+02  0.14157872689E+02  0.00000000000E+00 0.  1.
         23    2    1    2    0    0  0.43953506546E+01 -0.37270397909E+02  0.20242362651E+03  0.22463878024E+03  0.89882452966E+02 0.  0.
         11    1    3    3    0    0  0.11188315359E+02 -0.86688669354E+01  0.19335828465E+03  0.19387561450E+03  0.00000000000E+00 0. -1.
        -11    1    3    3    0    0 -0.67929647041E+01 -0.28601530974E+02  0.90653418612E+01  0.30763165744E+02  0.00000000000E+00 0.  1.
         22    1    1    2    0    0 -0.43953506546E+01  0.37270397909E+02  0.11238126797E+03  0.11848185962E+03  0.00000000000E+00 0.  1.
<mgrwt>
<rscale>  0 0.76739429E+02</rscale>
<asrwt>0</asrwt>
<pdfrwt beam="1">  1        2 0.50609651E-01 0.97402551E+02</pdfrwt>
<pdfrwt beam="2">  1       -2 0.21781345E-02 0.97402551E+02</pdfrwt>
<totfact> 0.59329782E+04</totfact>
</mgrwt>
</event>
<event>
 6    1  0.3075717E-002  0.1047234E+03  0.7546771E-02  0.1350351E+00
         -2   -1    0    0    0  501 -0.00000000000E+00  0.00000000000E+00  0.14461221601E+02  0.14461221601E+02  0.00000000000E+00 0.  1.
          2   -1    0    0  501    0  0.00000000000E+00 -0.00000000000E+00 -0.37292876859E+03  0.37292876859E+03  0.00000000000E+00 0. -1.
         23    2    1    2    0    0  0.67260115205E+01  0.23718480322E+02 -0.34216852667E+03  0.35783557253E+03  0.10178010997E+03 0.  0.
         11    1    3    3    0    0 -0.21105077497E+02 -0.97976155583E+01 -0.14789765436E+02  0.27570903657E+02  0.00000000000E+00 0.  1.
        -11    1    3    3    0    0  0.27831089018E+02  0.33516095880E+02 -0.32737876124E+03  0.33026466887E+03  0.00000000000E+00 0. -1.
         22    1    1    2    0    0 -0.67260115205E+01 -0.23718480322E+02 -0.16299020315E+02  0.29554417656E+02  0.00000000000E+00 0.  1.
<mgrwt>
<rscale>  0 0.72946334E+02</rscale>
<asrwt>0</asrwt>
<pdfrwt beam="1">  1        2 0.57373651E-01 0.10472343E+03</pdfrwt>
<pdfrwt beam="2">  1       -2 0.22248036E-02 0.10472343E+03</pdfrwt>
<totfact> 0.50898831E+04</totfact>
</mgrwt>
</event>
<event>
 6    1  0.3075717E-002  0.1068435E+03  0.7546771E-02  0.1301899E+00
         -2   -1    0    0    0  501 -0.00000000000E+00  0.00000000000E+00  0.13928491792E+02  0.13928491792E+02  0.00000000000E+00 0. -1.
          2   -1    0    0  501    0  0.00000000000E+00 -0.00000000000E+00 -0.55203305543E+03  0.55203305543E+03  0.00000000000E+00 0.  1.
         23    2    1    2    0    0  0.50870844801E+02 -0.20222248199E+02 -0.44771597574E+03  0.46028809268E+03  0.91753752818E+02 0.  0.
         13    1    3    3    0    0  0.61236881412E+02  0.19902094489E+02 -0.30234587040E+03  0.30912630810E+03  0.00000000000E+00 0.  1.
        -13    1    3    3    0    0 -0.10366036612E+02 -0.40124342688E+02 -0.14537010534E+03  0.15116178458E+03  0.00000000000E+00 0. -1.
         22    1    1    2    0    0 -0.50870844801E+02  0.20222248199E+02 -0.90388587896E+02  0.10567345454E+03  0.00000000000E+00 0. -1.
<mgrwt>
<rscale>  0 0.90394701E+02</rscale>
<asrwt>0</asrwt>
<pdfrwt beam="1">  1        2 0.84928159E-01 0.10684350E+03</pdfrwt>
<pdfrwt beam="2">  1       -2 0.21428450E-02 0.10684350E+03</pdfrwt>
<totfact> 0.35330476E+04</totfact>
</mgrwt>
</event>
<event>
 6    1  0.3075717E-002  0.9381529E+02  0.7546771E-02  0.1418523E+00
         -2   -1    0    0    0  501 -0.00000000000E+00  0.00000000000E+00  0.38142008113E+01  0.38142008113E+01  0.00000000000E+00 0.  1.
          2   -1    0    0  501    0  0.00000000000E+00 -0.00000000000E+00 -0.16413726391E+04  0.16413726391E+04  0.00000000000E+00 0. -1.
         23    2    1    2    0    0 -0.10906953782E+02  0.31560608569E+01 -0.16269348102E+04  0.16296374401E+04  0.93125652588E+02 0.  0.
         13    1    3    3    0    0  0.38579606908E+02  0.15711876372E+02 -0.85696679018E+03  0.85797862946E+03  0.00000000000E+00 0. -1.
        -13    1    3    3    0    0 -0.49486560690E+02 -0.12555815515E+02 -0.76996801999E+03  0.77165881062E+03  0.00000000000E+00 0.  1.
         22    1    1    2    0    0  0.10906953782E+02 -0.31560608569E+01 -0.10623628106E+02  0.15549399830E+02  0.00000000000E+00 0.  1.
<mgrwt>
<rscale>  0 0.55334535E+02</rscale>
<asrwt>0</asrwt>
<pdfrwt beam="1">  1        2 0.25251885E+00 0.93815295E+02</pdfrwt>
<pdfrwt beam="2">  1       -2 0.58680016E-03 0.93815295E+02</pdfrwt>
<totfact> 0.48815688E+04</totfact>
</mgrwt>
</event>
<event>
 6    1  0.3075717E-002  0.8060900E+02  0.7546771E-02  0.1448714E+00
          2   -1    0    0  501    0  0.00000000000E+00  0.00000000000E+00  0.22177994510E+04  0.22177994510E+04  0.00000000000E+00 0. -1.
         -2   -1    0    0    0  501 -0.00000000000E+00 -0.00000000000E+00 -0.47299576186E+01  0.47299576186E+01  0.00000000000E+00 0.  1.
         23    2    1    2    0    0  0.23181222378E+00  0.11349286403E+02  0.22090001272E+04  0.22104703962E+04  0.79805705827E+02 0.  0.
         11    1    3    3    0    0 -0.28068998969E+02 -0.19537321580E+01  0.32638440446E+03  0.32759497134E+03  0.00000000000E+00 0. -1.
        -11    1    3    3    0    0  0.28300811193E+02  0.13303018561E+02  0.18826157227E+04  0.18828754249E+04  0.00000000000E+00 0.  1.
         22    1    1    2    0    0 -0.23181222378E+00 -0.11349286403E+02  0.40693662145E+01  0.12059012403E+02  0.00000000000E+00 0.  1.
<mgrwt>
<rscale>  0 0.49380153E+02</rscale>
<asrwt>0</asrwt>
<pdfrwt beam="1">  1        2 0.34119909E+00 0.80608999E+02</pdfrwt>
<pdfrwt beam="2">  1       -2 0.72768756E-03 0.80608999E+02</pdfrwt>
<totfact> 0.18318971E+04</totfact>
</mgrwt>
</event>
<event>
 6    1  0.3075717E-002  0.9312716E+02  0.7546771E-02  0.1395638E+00
          2   -1    0    0  501    0  0.00000000000E+00  0.00000000000E+00  0.13962845921E+03  0.13962845921E+03  0.00000000000E+00 0. -1.
         -2   -1    0    0    0  501 -0.00000000000E+00 -0.00000000000E+00 -0.63521093796E+02  0.63521093796E+02  0.00000000000E+00 0.  1.
         23    2    1    2    0    0  0.18249051349E+01  0.16515874461E+02  0.12249504652E+03  0.15387561115E+03  0.91632761039E+02 0.  0.
         11    1    3    3    0    0  0.24904285565E+02  0.65248545747E+01  0.12589259892E+03  0.12849802967E+03  0.00000000000E+00 0. -1.
        -11    1    3    3    0    0 -0.23079380430E+02  0.99910198866E+01 -0.33975523952E+01  0.25377581478E+02  0.00000000000E+00 0.  1.
         22    1    1    2    0    0 -0.18249051349E+01 -0.16515874461E+02 -0.46387681107E+02  0.49273941860E+02  0.00000000000E+00 0.  1.
<mgrwt>
<rscale>  0 0.60525923E+02</rscale>
<asrwt>0</asrwt>
<pdfrwt beam="1">  1        2 0.21481301E-01 0.93127157E+02</pdfrwt>
<pdfrwt beam="2">  1       -2 0.97724760E-02 0.93127157E+02</pdfrwt>
<totfact> 0.15814923E+04</totfact>
</mgrwt>
</event>
<event>
 6    1  0.3075717E-002  0.9665216E+02  0.7546771E-02  0.1360619E+00
          2   -1    0    0  501    0  0.00000000000E+00  0.00000000000E+00  0.28506653271E+03  0.28506653271E+03  0.00000000000E+00 0. -1.
         -2   -1    0    0    0  501 -0.00000000000E+00 -0.00000000000E+00 -0.13538292266E+02  0.13538292266E+02  0.00000000000E+00 0.  1.
         23    2    1    2    0    0 -0.14819693105E+02  0.21797727353E+02  0.22913301811E+03  0.24868369620E+03  0.92988582880E+02 0.  0.
         11    1    3    3    0    0 -0.30704540697E+02 -0.29662032132E+02  0.10708968147E+03  0.11528575301E+03  0.00000000000E+00 0. -1.
        -11    1    3    3    0    0  0.15884847592E+02  0.51459759485E+02  0.12204333664E+03  0.13339794319E+03  0.00000000000E+00 0.  1.
         22    1    1    2    0    0  0.14819693105E+02 -0.21797727353E+02  0.42395222335E+02  0.49921128776E+02  0.00000000000E+00 0. -1.
<mgrwt>
<rscale>  0 0.69845490E+02</rscale>
<asrwt>0</asrwt>
<pdfrwt beam="1">  1        2 0.43856385E-01 0.96652164E+02</pdfrwt>
<pdfrwt beam="2">  1       -2 0.20828144E-02 0.96652164E+02</pdfrwt>
<totfact> 0.73447647E+04</totfact>
</mgrwt>
</event>
<event>
 6    1  0.3075717E-002  0.9196780E+02  0.7546771E-02  0.1384529E+00
          2   -1    0    0  501    0  0.00000000000E+00  0.00000000000E+00  0.54345014484E+03  0.54345014484E+03  0.00000000000E+00 0. -1.
         -2   -1    0    0    0  501 -0.00000000000E+00 -0.00000000000E+00 -0.65701336595E+01  0.65701336595E+01  0.00000000000E+00 0.  1.
         23    2    1    2    0    0 -0.19712769190E+02 -0.60636068606E+01  0.49338411206E+03  0.50188241567E+03  0.89625423458E+02 0.  0.
         11    1    3    3    0    0 -0.20590427101E+02  0.16607601982E+02  0.40152423218E+02  0.48083211437E+02  0.00000000000E+00 0.  1.
        -11    1    3    3    0    0  0.87765791128E+00 -0.22671208843E+02  0.45323168884E+03  0.45379920423E+03  0.00000000000E+00 0. -1.
         22    1    1    2    0    0  0.19712769190E+02  0.60636068606E+01  0.43495899116E+02  0.48137862824E+02  0.00000000000E+00 0.  1.
<mgrwt>
<rscale>  0 0.63288022E+02</rscale>
<asrwt>0</asrwt>
<pdfrwt beam="1">  1        2 0.83607679E-01 0.91967805E+02</pdfrwt>
<pdfrwt beam="2">  1       -2 0.10107902E-02 0.91967805E+02</pdfrwt>
<totfact> 0.10329667E+05</totfact>
</mgrwt>
</event>
<event>
 6    1  0.3075717E-002  0.8486481E+02  0.7546771E-02  0.1416341E+00
          1   -1    0    0  501    0  0.00000000000E+00  0.00000000000E+00  0.51180430764E+01  0.51180430764E+01  0.00000000000E+00 0. -1.
         -1   -1    0    0    0  501 -0.00000000000E+00 -0.00000000000E+00 -0.49714145102E+03  0.49714145102E+03  0.00000000000E+00 0.  1.
         23    2    1    2    0    0  0.15587902809E+02 -0.29516756906E+01 -0.42414095385E+03  0.43254778290E+03  0.83368703124E+02 0.  0.
         11    1    3    3    0    0  0.17041213801E+02  0.61714196103E+01 -0.15631637898E+02  0.23934023715E+02  0.00000000000E+00 0. -1.
        -11    1    3    3    0    0 -0.14533109923E+01 -0.91230953009E+01 -0.40850931595E+03  0.40861375919E+03  0.00000000000E+00 0.  1.
         22    1    1    2    0    0 -0.15587902809E+02  0.29516756906E+01 -0.67882454098E+02  0.69711711195E+02  0.00000000000E+00 0.  1.
<mgrwt>
<rscale>  0 0.55802682E+02</rscale>
<asrwt>0</asrwt>
<pdfrwt beam="1">  1        1 0.78739119E-03 0.84864809E+02</pdfrwt>
<pdfrwt beam="2">  1       -1 0.76483305E-01 0.84864809E+02</pdfrwt>
<totfact> 0.35293128E+04</totfact>
</mgrwt>
</event>
<event>
 6    1  0.3075717E-002  0.9885058E+02  0.7546771E-02  0.1372018E+00
         -1   -1    0    0    0  501 -0.00000000000E+00  0.00000000000E+00  0.61133755607E+02  0.61133755607E+02  0.00000000000E+00 0.  1.
          1   -1    0    0  501    0  0.00000000000E+00 -0.00000000000E+00 -0.77855771425E+02  0.77855771425E+02  0.00000000000E+00 0. -1.
         23    2    1    2    0    0 -0.97268032630E+01  0.17908903076E+02 -0.41239258433E+02  0.10710795404E+03  0.96726924230E+02 0.  0.
         11    1    3    3    0    0 -0.24617555016E+02  0.26577508533E+02  0.21445237708E+02  0.42098529608E+02  0.00000000000E+00 0.  1.
        -11    1    3    3    0    0  0.14890751753E+02 -0.86686054568E+01 -0.62684496141E+02  0.65009424431E+02  0.00000000000E+00 0. -1.
         22    1    1    2    0    0  0.97268032630E+01 -0.17908903076E+02  0.24517242616E+02  0.31881572994E+02  0.00000000000E+00 0.  1.
<mgrwt>
<rscale>  0 0.66609293E+02</rscale>
<asrwt>0</asrwt>
<pdfrwt beam="1">  1        1 0.11977811E-01 0.98850581E+02</pdfrwt>
<pdfrwt beam="2">  1       -1 0.94051932E-02 0.98850581E+02</pdfrwt>
<totfact> 0.29796962E+04</totfact>
</mgrwt>
</event>
<event>
 6    1  0.3075717E-002  0.9333470E+02  0.7546771E-02  0.1417846E+00
         -1   -1    0    0    0  501 -0.00000000000E+00  0.00000000000E+00  0.60856490099E+02  0.60856490099E+02  0.00000000000E+00 0.  1.
          1   -1    0    0  501    0  0.00000000000E+00 -0.00000000000E+00 -0.46362055869E+02  0.46362055869E+02  0.00000000000E+00 0. -1.
         23    2    1    2    0    0  0.95586585881E+00 -0.11612469388E+02  0.75158905165E+01  0.93636823058E+02  0.92604551170E+02 0.  0.
         13    1    3    3    0    0  0.23148318544E+02 -0.26842312252E+02 -0.30701353976E+02  0.46892723469E+02  0.00000000000E+00 0. -1.
        -13    1    3    3    0    0 -0.22192452685E+02  0.15229842863E+02  0.38217244492E+02  0.46744099589E+02  0.00000000000E+00 0.  1.
         22    1    1    2    0    0 -0.95586585881E+00  0.11612469388E+02  0.69785437136E+01  0.13581722910E+02  0.00000000000E+00 0.  1.
<mgrwt>
<rscale>  0 0.55479185E+02</rscale>
<asrwt>0</asrwt>
<pdfrwt beam="1">  1        1 0.71326240E-02 0.93334699E+02</pdfrwt>
<pdfrwt beam="2">  1       -1 0.93625369E-02 0.93334699E+02</pdfrwt>
<totfact> 0.58934195E+04</totfact>
</mgrwt>
</event>
<event>
 6    1  0.3075717E-002  0.9577842E+02  0.7546771E-02  0.1354354E+00
         -1   -1    0    0    0  501 -0.00000000000E+00  0.00000000000E+00  0.24419984085E+03  0.24419984085E+03  0.00000000000E+00 0.  1.
          1   -1    0    0  501    0  0.00000000000E+00 -0.00000000000E+00 -0.16280753657E+02  0.16280753657E+02  0.00000000000E+00 0. -1.
         23    2    1    2    0    0  0.21264708365E+02  0.21311404486E+02  0.16659295681E+03  0.19216326105E+03  0.90923824467E+02 0.  0.
         11    1    3    3    0    0  0.31287398828E+02 -0.29948736478E+02  0.82280818562E+02  0.92983661173E+02  0.00000000000E+00 0. -1.
        -11    1    3    3    0    0 -0.10022690463E+02  0.51260140964E+02  0.84312138250E+02  0.99179599879E+02  0.00000000000E+00 0.  1.
         22    1    1    2    0    0 -0.21264708365E+02 -0.21311404486E+02  0.61326130382E+02  0.68317333457E+02  0.00000000000E+00 0. -1.
<mgrwt>
<rscale>  0 0.71715589E+02</rscale>
<asrwt>0</asrwt>
<pdfrwt beam="1">  1        1 0.25047315E-02 0.95778419E+02</pdfrwt>
<pdfrwt beam="2">  1       -1 0.37569204E-01 0.95778419E+02</pdfrwt>
<totfact> 0.26844299E+04</totfact>
</mgrwt>
</event>
<event>
 6    1  0.3075717E-002  0.9396270E+02  0.7546771E-02  0.1395443E+00
         -2   -1    0    0    0  501 -0.00000000000E+00  0.00000000000E+00  0.14494260348E+02  0.14494260348E+02  0.00000000000E+00 0.  1.
          2   -1    0    0  501    0  0.00000000000E+00 -0.00000000000E+00 -0.21138476502E+03  0.21138476502E+03  0.00000000000E+00 0. -1.
         23    2    1    2    0    0  0.75115736226E+01  0.14384257218E+02 -0.17499270218E+03  0.19862385433E+03  0.92550846032E+02 0.  0.
         13    1    3    3    0    0  0.44852252771E+02  0.18012882905E+02 -0.13679790665E+03  0.14508568432E+03  0.00000000000E+00 0. -1.
        -13    1    3    3    0    0 -0.37340679148E+02 -0.36286256874E+01 -0.38194795525E+02  0.53538170017E+02  0.00000000000E+00 0.  1.
         22    1    1    2    0    0 -0.75115736226E+01 -0.14384257218E+02 -0.21897802501E+02  0.27255171039E+02  0.00000000000E+00 0.  1.
<mgrwt>
<rscale>  0 0.60573029E+02</rscale>
<asrwt>0</asrwt>
<pdfrwt beam="1">  1        2 0.32520732E-01 0.93962704E+02</pdfrwt>
<pdfrwt beam="2">  1       -2 0.22298863E-02 0.93962704E+02</pdfrwt>
<totfact> 0.90877397E+04</totfact>
</mgrwt>
</event>
<event>
 6    1  0.3075717E-002  0.8998724E+02  0.7546771E-02  0.1430887E+00
         -2   -1    0    0    0  501 -0.00000000000E+00  0.00000000000E+00  0.56177128662E+01  0.56177128662E+01  0.00000000000E+00 0.  1.
          2   -1    0    0  501    0  0.00000000000E+00 -0.00000000000E+00 -0.45075215831E+03  0.45075215831E+03  0.00000000000E+00 0. -1.
         23    2    1    2    0    0 -0.62287472170E+01  0.86405352424E+01 -0.39910379841E+03  0.40912289659E+03  0.89354610783E+02 0.  0.
         11    1    3    3    0    0  0.28700192276E+02  0.34974780355E+02 -0.23325173667E+03  0.23759905083E+03  0.00000000000E+00 0. -1.
        -11    1    3    3    0    0 -0.34928939493E+02 -0.26334245112E+02 -0.16585206174E+03  0.17152384575E+03  0.00000000000E+00 0.  1.
         22    1    1    2    0    0  0.62287472170E+01 -0.86405352424E+01 -0.46030647043E+02  0.47246974595E+02  0.00000000000E+00 0. -1.
<mgrwt>
<rscale>  0 0.52782406E+02</rscale>
<asrwt>0</asrwt>
<pdfrwt beam="1">  1        2 0.69346520E-01 0.89987236E+02</pdfrwt>
<pdfrwt beam="2">  1       -2 0.86426310E-03 0.89987236E+02</pdfrwt>
<totfact> 0.15722418E+05</totfact>
</mgrwt>
</event>
<event>
 6    1  0.3075717E-002  0.8665399E+02  0.7546771E-02  0.1411129E+00
          1   -1    0    0  501    0  0.00000000000E+00  0.00000000000E+00  0.62612494419E+02  0.62612494419E+02  0.00000000000E+00 0. -1.
         -1   -1    0    0    0  501 -0.00000000000E+00 -0.00000000000E+00 -0.48598312422E+02  0.48598312422E+02  0.00000000000E+00 0.  1.
         23    2    1    2    0    0  0.16045921862E+02 -0.18990823326E+01  0.26693205313E+02  0.90672166322E+02  0.85134225864E+02 0.  0.
         11    1    3    3    0    0 -0.83469253434E+01  0.15315350498E+02  0.49898411737E+02  0.52859082639E+02  0.00000000000E+00 0. -1.
        -11    1    3    3    0    0  0.24392847206E+02 -0.17214432830E+02 -0.23205206423E+02  0.37813083683E+02  0.00000000000E+00 0.  1.
         22    1    1    2    0    0 -0.16045921862E+02  0.18990823326E+01 -0.12679023316E+02  0.20538640519E+02  0.00000000000E+00 0.  1.
<mgrwt>
<rscale>  0 0.56942659E+02</rscale>
<asrwt>0</asrwt>
<pdfrwt beam="1">  1        1 0.96326915E-02 0.86653993E+02</pdfrwt>
<pdfrwt beam="2">  1       -1 0.74766634E-02 0.86653993E+02</pdfrwt>
<totfact> 0.54850721E+04</totfact>
</mgrwt>
</event>
<event>
 6    1  0.3075717E-002  0.1033422E+03  0.7546771E-02  0.1318074E+00
          2   -1    0    0  501    0  0.00000000000E+00  0.00000000000E+00  0.19414649452E+04  0.19414649452E+04  0.00000000000E+00 0. -1.
         -2   -1    0    0    0  501 -0.00000000000E+00 -0.00000000000E+00 -0.75782997506E+01  0.75782997506E+01  0.00000000000E+00 0.  1.
         23    2    1    2    0    0  0.42926589024E+02 -0.13853815034E+02  0.18572102064E+04  0.18600831610E+04  0.92978463939E+02 0.  0.
         11    1    3    3    0    0 -0.59079765407E+01  0.29762322595E+02  0.30828792185E+03  0.30977756986E+03  0.00000000000E+00 0.  1.
        -11    1    3    3    0    0  0.48834565564E+02 -0.43616137629E+02  0.15489222846E+04  0.15503055911E+04  0.00000000000E+00 0. -1.
         22    1    1    2    0    0 -0.42926589024E+02  0.13853815034E+02  0.76676439083E+02  0.88960084008E+02  0.00000000000E+00 0.  1.
<mgrwt>
<rscale>  0 0.83997966E+02</rscale>
<asrwt>0</asrwt>
<pdfrwt beam="1">  1        2 0.29868652E+00 0.10334222E+03</pdfrwt>
<pdfrwt beam="2">  1       -2 0.11658938E-02 0.10334222E+03</pdfrwt>
<totfact> 0.13137168E+04</totfact>
</mgrwt>
</event>
<event>
 6    1  0.3075717E-002  0.9578695E+02  0.7546771E-02  0.1371611E+00
          2   -1    0    0  501    0  0.00000000000E+00  0.00000000000E+00  0.60223136559E+03  0.60223136559E+03  0.00000000000E+00 0.  1.
         -2   -1    0    0    0  501 -0.00000000000E+00 -0.00000000000E+00 -0.60062556516E+01  0.60062556516E+01  0.00000000000E+00 0. -1.
         23    2    1    2    0    0  0.13778269403E+02 -0.17850483992E+02  0.51993527934E+03  0.52868500507E+03  0.93094894601E+02 0.  0.
         13    1    3    3    0    0  0.26196600010E+02  0.66358232602E+01  0.47672320641E+03  0.47748854597E+03  0.00000000000E+00 0.  1.
        -13    1    3    3    0    0 -0.12418330607E+02 -0.24486307252E+02  0.43212072932E+02  0.51196459106E+02  0.00000000000E+00 0. -1.
         22    1    1    2    0    0 -0.13778269403E+02  0.17850483992E+02  0.76289830600E+02  0.79552616170E+02  0.00000000000E+00 0. -1.
<mgrwt>
<rscale>  0 0.66721230E+02</rscale>
<asrwt>0</asrwt>
<pdfrwt beam="1">  1        2 0.92650932E-01 0.95786951E+02</pdfrwt>
<pdfrwt beam="2">  1       -2 0.92403980E-03 0.95786951E+02</pdfrwt>
<totfact> 0.10526931E+05</totfact>
</mgrwt>
</event>
<event>
 6    1  0.3075717E-002  0.9507849E+02  0.7546771E-02  0.1411164E+00
         -1   -1    0    0    0  501 -0.00000000000E+00  0.00000000000E+00  0.27557142650E+01  0.27557142650E+01  0.00000000000E+00 0.  1.
          1   -1    0    0  501    0  0.00000000000E+00 -0.00000000000E+00 -0.12712086328E+04  0.12712086328E+04  0.00000000000E+00 0. -1.
         23    2    1    2    0    0  0.46270579638E+01  0.11316035362E+02 -0.12287203799E+04  0.12323934805E+04  0.94289216998E+02 0.  0.
         11    1    3    3    0    0  0.17432722434E+01 -0.64117302038E+00  0.13281609858E+01  0.22834431371E+01  0.00000000000E+00 0.  1.
        -11    1    3    3    0    0  0.28837857205E+01  0.11957208382E+02 -0.12300485409E+04  0.12301100373E+04  0.00000000000E+00 0. -1.
         22    1    1    2    0    0 -0.46270579638E+01 -0.11316035362E+02 -0.39732538635E+02  0.41570866579E+02  0.00000000000E+00 0.  1.
<mgrwt>
<rscale>  0 0.56934848E+02</rscale>
<asrwt>0</asrwt>
<pdfrwt beam="1">  1        1 0.19557031E+00 0.95078487E+02</pdfrwt>
<pdfrwt beam="2">  1       -1 0.42395657E-03 0.95078487E+02</pdfrwt>
<totfact> 0.60032585E+04</totfact>
</mgrwt>
</event>
<event>
 6    1  0.3075717E-002  0.9149853E+02  0.7546771E-02  0.1393521E+00
         -2   -1    0    0    0  501 -0.00000000000E+00  0.00000000000E+00  0.13450737855E+03  0.13450737855E+03  0.00000000000E+00 0.  1.
          2   -1    0    0  501    0  0.00000000000E+00 -0.00000000000E+00 -0.27547583243E+02  0.27547583243E+02  0.00000000000E+00 0. -1.
         23    2    1    2    0    0 -0.17947750624E+02 -0.25052999004E+01  0.54376860203E+02  0.10643694902E+03  0.89686024062E+02 0.  0.
         13    1    3    3    0    0  0.35708357512E+02 -0.18096660585E+01  0.33063279986E+02  0.48698482224E+02  0.00000000000E+00 0.  1.
        -13    1    3    3    0    0 -0.53656108137E+02 -0.69563384190E+00  0.21313580217E+02  0.57738466801E+02  0.00000000000E+00 0. -1.
         22    1    1    2    0    0  0.17947750624E+02  0.25052999004E+01  0.52582935101E+02  0.55618012765E+02  0.00000000000E+00 0.  1.
<mgrwt>
<rscale>  0 0.61039463E+02</rscale>
<asrwt>0</asrwt>
<pdfrwt beam="1">  1        2 0.42380898E-02 0.91498531E+02</pdfrwt>
<pdfrwt beam="2">  1       -2 0.20693442E-01 0.91498531E+02</pdfrwt>
<totfact> 0.33785280E+04</totfact>
</mgrwt>
</event>
<event>
 6    1  0.3075717E-002  0.9276930E+02  0.7546771E-02  0.1427240E+00
          3   -1    0    0  501    0  0.00000000000E+00  0.00000000000E+00  0.52425283400E+03  0.52425283400E+03  0.00000000000E+00 0. -1.
         -3   -1    0    0    0  501 -0.00000000000E+00 -0.00000000000E+00 -0.54529619209E+01  0.54529619209E+01  0.00000000000E+00 0.  1.
         23    2    1    2    0    0 -0.94778156334E+01  0.39684203999E+01  0.49727410977E+03  0.50585342093E+03  0.92198513388E+02 0.  0.
         11    1    3    3    0    0 -0.32240333971E+02  0.54508526336E+01  0.46599210123E+03  0.46713786973E+03  0.00000000000E+00 0. -1.
        -11    1    3    3    0    0  0.22762518338E+02 -0.14824322337E+01  0.31282008541E+02  0.38715551201E+02  0.00000000000E+00 0.  1.
         22    1    1    2    0    0  0.94778156334E+01 -0.39684203999E+01  0.21525762311E+02  0.23852374992E+02  0.00000000000E+00 0.  1.
<mgrwt>
<rscale>  0 0.53517961E+02</rscale>
<asrwt>0</asrwt>
<pdfrwt beam="1">  1        3 0.80654242E-01 0.92769301E+02</pdfrwt>
<pdfrwt beam="2">  1       -3 0.83891763E-03 0.92769301E+02</pdfrwt>
<totfact> 0.10842802E+04</totfact>
</mgrwt>
</event>
<event>
 6    1  0.3075717E-002  0.9325211E+02  0.7546771E-02  0.1407065E+00
         -2   -1    0    0    0  501 -0.00000000000E+00  0.00000000000E+00  0.31805763510E+02  0.31805763510E+02  0.00000000000E+00 0.  1.
          2   -1    0    0  501    0  0.00000000000E+00 -0.00000000000E+00 -0.18158275602E+03  0.18158275602E+03  0.00000000000E+00 0. -1.
         23    2    1    2    0    0 -0.13778887123E+02  0.99884389892E+00 -0.16702265731E+03  0.19129172397E+03  0.92223100066E+02 0.  0.
         13    1    3    3    0    0 -0.47593944249E+02 -0.21253109983E+02 -0.10504044042E+03  0.11726198164E+03  0.00000000000E+00 0. -1.
        -13    1    3    3    0    0  0.33815057126E+02  0.22251953882E+02 -0.61982216891E+02  0.74029742339E+02  0.00000000000E+00 0.  1.
         22    1    1    2    0    0  0.13778887123E+02 -0.99884389892E+00  0.17245664801E+02  0.22096795558E+02  0.00000000000E+00 0.  1.
<mgrwt>
<rscale>  0 0.57853822E+02</rscale>
<asrwt>0</asrwt>
<pdfrwt beam="1">  1        2 0.27935808E-01 0.93252108E+02</pdfrwt>
<pdfrwt beam="2">  1       -2 0.48931946E-02 0.93252108E+02</pdfrwt>
<totfact> 0.33873617E+04</totfact>
</mgrwt>
</event>
<event>
 6    1  0.3075717E-002  0.9255589E+02  0.7546771E-02  0.1367598E+00
          2   -1    0    0  501    0  0.00000000000E+00  0.00000000000E+00  0.73781329204E+03  0.73781329204E+03  0.00000000000E+00 0. -1.
         -2   -1    0    0    0  501 -0.00000000000E+00 -0.00000000000E+00 -0.18055880611E+02  0.18055880611E+02  0.00000000000E+00 0.  1.
         23    2    1    2    0    0 -0.18432785473E+01  0.26649237277E+02  0.72305381489E+03  0.72895364184E+03  0.88617228568E+02 0.  0.
         11    1    3    3    0    0  0.36247661029E+02  0.17318137326E+01  0.49930678109E+03  0.50062376467E+03  0.00000000000E+00 0. -1.
        -11    1    3    3    0    0 -0.38090939576E+02  0.24917423545E+02  0.22374703380E+03  0.22832987717E+03  0.00000000000E+00 0.  1.
         22    1    1    2    0    0  0.18432785473E+01 -0.26649237277E+02 -0.32964034599E+01  0.26915530815E+02  0.00000000000E+00 0.  1.
<mgrwt>
<rscale>  0 0.67839610E+02</rscale>
<asrwt>0</asrwt>
<pdfrwt beam="1">  1        2 0.11350971E+00 0.92555890E+02</pdfrwt>
<pdfrwt beam="2">  1       -2 0.27778283E-02 0.92555890E+02</pdfrwt>
<totfact> 0.17173775E+04</totfact>
</mgrwt>
</event>
<event>
 6    1  0.3075717E-002  0.9365313E+02  0.7546771E-02  0.1402174E+00
         -2   -1    0    0    0  501 -0.00000000000E+00  0.00000000000E+00  0.44617348775E+02  0.44617348775E+02  0.00000000000E+00 0. -1.
          2   -1    0    0  501    0  0.00000000000E+00 -0.00000000000E+00 -0.84510491273E+02  0.84510491273E+02  0.00000000000E+00 0.  1.
         23    2    1    2    0    0 -0.11525606984E+02  0.91710534000E+01 -0.54522641795E+02  0.10836802101E+03  0.92487629835E+02 0.  0.
         13    1    3    3    0    0  0.24781569903E+02 -0.67451424327E+01  0.13965245167E+02  0.29234418514E+02  0.00000000000E+00 0. -1.
        -13    1    3    3    0    0 -0.36307176887E+02  0.15916195833E+02 -0.68487886962E+02  0.79133602495E+02  0.00000000000E+00 0.  1.
         22    1    1    2    0    0  0.11525606984E+02 -0.91710534000E+01  0.14629499297E+02  0.20759819038E+02  0.00000000000E+00 0. -1.
<mgrwt>
<rscale>  0 0.58977472E+02</rscale>
<asrwt>0</asrwt>
<pdfrwt beam="1">  1        2 0.13001614E-01 0.93653134E+02</pdfrwt>
<pdfrwt beam="2">  1       -2 0.68642076E-02 0.93653134E+02</pdfrwt>
<totfact> 0.48262173E+04</totfact>
</mgrwt>
</event>
<event>
 6    1  0.3075717E-002  0.9275050E+02  0.7546771E-02  0.1425410E+00
          2   -1    0    0  501    0  0.00000000000E+00  0.00000000000E+00  0.73570735801E+03  0.73570735801E+03  0.00000000000E+00 0. -1.
         -2   -1    0    0    0  501 -0.00000000000E+00 -0.00000000000E+00 -0.36925270364E+01  0.36925270364E+01  0.00000000000E+00 0.  1.
         23    2    1    2    0    0 -0.72849324525E+00 -0.10547021474E+02  0.68214773863E+03  0.68842442759E+03  0.92145997289E+02 0.  0.
         11    1    3    3    0    0  0.49463375277E+01 -0.44937493778E+01  0.67975655996E+03  0.67978940919E+03  0.00000000000E+00 0. -1.
        -11    1    3    3    0    0 -0.56748307730E+01 -0.60532720958E+01  0.23911786765E+01  0.86350184036E+01  0.00000000000E+00 0.  1.
         22    1    1    2    0    0  0.72849324525E+00  0.10547021474E+02  0.49867092343E+02  0.50975457459E+02  0.00000000000E+00 0.  1.
<mgrwt>
<rscale>  0 0.53892462E+02</rscale>
<asrwt>0</asrwt>
<pdfrwt beam="1">  1        2 0.11318563E+00 0.92750500E+02</pdfrwt>
<pdfrwt beam="2">  1       -2 0.56808167E-03 0.92750500E+02</pdfrwt>
<totfact> 0.16517805E+05</totfact>
</mgrwt>
</event>
<event>
 6    1  0.3075717E-002  0.9343877E+02  0.7546771E-02  0.1390871E+00
          2   -1    0    0  501    0  0.00000000000E+00  0.00000000000E+00  0.22666094317E+03  0.22666094317E+03  0.00000000000E+00 0. -1.
         -2   -1    0    0    0  501 -0.00000000000E+00 -0.00000000000E+00 -0.16507234473E+02  0.16507234473E+02  0.00000000000E+00 0.  1.
         23    2    1    2    0    0 -0.14462671196E+00 -0.17753356148E+02  0.12432982001E+03  0.15552719156E+03  0.91736582675E+02 0.  0.
         11    1    3    3    0    0  0.36797373606E+02  0.15586464014E+02  0.77492536095E+02  0.87189894571E+02  0.00000000000E+00 0. -1.
        -11    1    3    3    0    0 -0.36942000318E+02 -0.33339820161E+02  0.46837283911E+02  0.68337296991E+02  0.00000000000E+00 0.  1.
         22    1    1    2    0    0  0.14462671196E+00  0.17753356148E+02  0.85823888692E+02  0.87640986083E+02  0.00000000000E+00 0. -1.
<mgrwt>
<rscale>  0 0.61690607E+02</rscale>
<asrwt>0</asrwt>
<pdfrwt beam="1">  1        2 0.34870912E-01 0.93438767E+02</pdfrwt>
<pdfrwt beam="2">  1       -2 0.25395747E-02 0.93438767E+02</pdfrwt>
<totfact> 0.69883474E+04</totfact>
</mgrwt>
</event>
<event>
 6    1  0.3075717E-002  0.9255437E+02  0.7546771E-02  0.1416337E+00
         -2   -1    0    0    0  501 -0.00000000000E+00  0.00000000000E+00  0.37521990421E+01  0.37521990421E+01  0.00000000000E+00 0.  1.
          2   -1    0    0  501    0  0.00000000000E+00 -0.00000000000E+00 -0.91745495717E+03  0.91745495717E+03  0.00000000000E+00 0. -1.
         23    2    1    2    0    0 -0.10795860146E+02 -0.57482087151E+01 -0.88724209913E+03  0.89205653059E+03  0.91742677067E+02 0.  0.
         11    1    3    3    0    0 -0.96159367971E+01  0.29410108558E+02 -0.74089491469E+03  0.74154075770E+03  0.00000000000E+00 0. -1.
        -11    1    3    3    0    0 -0.11799233494E+01 -0.35158317273E+02 -0.14634718444E+03  0.15051577288E+03  0.00000000000E+00 0.  1.
         22    1    1    2    0    0  0.10795860146E+02  0.57482087151E+01 -0.26460659003E+02  0.29150625630E+02  0.00000000000E+00 0. -1.
<mgrwt>
<rscale>  0 0.55803498E+02</rscale>
<asrwt>0</asrwt>
<pdfrwt beam="1">  1        2 0.14114677E+00 0.92554369E+02</pdfrwt>
<pdfrwt beam="2">  1       -2 0.57726200E-03 0.92554369E+02</pdfrwt>
<totfact> 0.12286238E+05</totfact>
</mgrwt>
</event>
<event>
 6    1  0.3075717E-002  0.9362594E+02  0.7546771E-02  0.1373209E+00
         -1   -1    0    0    0  501 -0.00000000000E+00  0.00000000000E+00  0.18579963043E+03  0.18579963043E+03  0.00000000000E+00 0.  1.
          1   -1    0    0  501    0  0.00000000000E+00 -0.00000000000E+00 -0.18552784838E+02  0.18552784838E+02  0.00000000000E+00 0. -1.
         23    2    1    2    0    0  0.14713369918E+02 -0.18348619571E+02  0.13907671827E+03  0.16765485176E+03  0.90623731205E+02 0.  0.
         13    1    3    3    0    0  0.12762223724E+02 -0.38646715661E+02  0.17369038450E+02  0.44250722959E+02  0.00000000000E+00 0. -1.
        -13    1    3    3    0    0  0.19511461937E+01  0.20298096089E+02  0.12170767982E+03  0.12340412880E+03  0.00000000000E+00 0.  1.
         22    1    1    2    0    0 -0.14713369918E+02  0.18348619571E+02  0.28170127319E+02  0.36697563511E+02  0.00000000000E+00 0.  1.
<mgrwt>
<rscale>  0 0.66283127E+02</rscale>
<asrwt>0</asrwt>
<pdfrwt beam="1">  1        1 0.28542747E-02 0.93625935E+02</pdfrwt>
<pdfrwt beam="2">  1       -1 0.28584557E-01 0.93625935E+02</pdfrwt>
<totfact> 0.35446398E+04</totfact>
</mgrwt>
</event>
<event>
 6    1  0.3075717E-002  0.9328693E+02  0.7546771E-02  0.1386681E+00
          3   -1    0    0  501    0  0.00000000000E+00  0.00000000000E+00  0.54068637018E+03  0.54068637018E+03  0.00000000000E+00 0. -1.
         -3   -1    0    0    0  501 -0.00000000000E+00 -0.00000000000E+00 -0.49946860738E+02  0.49946860738E+02  0.00000000000E+00 0.  1.
         23    2    1    2    0    0  0.18534294990E+02 -0.45543773910E+01  0.53466411142E+03  0.54274134117E+03  0.91313684291E+02 0.  0.
         13    1    3    3    0    0  0.52132594883E+01  0.28055362581E+01  0.52428870445E+03  0.52432212877E+03  0.00000000000E+00 0. -1.
        -13    1    3    3    0    0  0.13321035502E+02 -0.73599136491E+01  0.10375406968E+02  0.18419212402E+02  0.00000000000E+00 0.  1.
         22    1    1    2    0    0 -0.18534294990E+02  0.45543773910E+01 -0.43924601977E+02  0.47891889742E+02  0.00000000000E+00 0.  1.
<mgrwt>
<rscale>  0 0.62739695E+02</rscale>
<asrwt>0</asrwt>
<pdfrwt beam="1">  1        3 0.83182514E-01 0.93286930E+02</pdfrwt>
<pdfrwt beam="2">  1       -3 0.76841328E-02 0.93286930E+02</pdfrwt>
<totfact> 0.34371413E+02</totfact>
</mgrwt>
</event>
<event>
 6    1  0.3075717E-002  0.9435231E+02  0.7546771E-02  0.1372955E+00
         -4   -1    0    0    0  501 -0.00000000000E+00  0.00000000000E+00  0.19129846975E+02  0.19129846975E+02  0.00000000000E+00 0.  1.
          4   -1    0    0  501    0  0.00000000000E+00 -0.00000000000E+00 -0.22178830963E+03  0.22178830963E+03  0.00000000000E+00 0. -1.
         23    2    1    2    0    0  0.15645400354E+02 -0.16963223353E+02 -0.19496012905E+03  0.21659134343E+03  0.91486767524E+02 0.  0.
         11    1    3    3    0    0 -0.84900764276E+01  0.25188315259E+02 -0.14305686291E+03  0.14550532172E+03  0.00000000000E+00 0. -1.
        -11    1    3    3    0    0  0.24135476782E+02 -0.42151538612E+02 -0.51903266140E+02  0.71086021712E+02  0.00000000000E+00 0.  1.
         22    1    1    2    0    0 -0.15645400354E+02  0.16963223353E+02 -0.76983336028E+01  0.24326813170E+02  0.00000000000E+00 0. -1.
<mgrwt>
<rscale>  0 0.66352510E+02</rscale>
<asrwt>0</asrwt>
<pdfrwt beam="1">  1        4 0.34121278E-01 0.94352309E+02</pdfrwt>
<pdfrwt beam="2">  1       -4 0.29430534E-02 0.94352309E+02</pdfrwt>
<totfact> 0.68303230E+03</totfact>
</mgrwt>
</event>
<event>
 6    1  0.3075717E-002  0.9326808E+02  0.7546771E-02  0.1396832E+00
          2   -1    0    0  501    0  0.00000000000E+00  0.00000000000E+00  0.53599192340E+03  0.53599192340E+03  0.00000000000E+00 0. -1.
         -2   -1    0    0    0  501 -0.00000000000E+00 -0.00000000000E+00 -0.65055502306E+01  0.65055502306E+01  0.00000000000E+00 0.  1.
         23    2    1    2    0    0 -0.29719295756E+01  0.15955116851E+02  0.50188908247E+03  0.51048171856E+03  0.91845172751E+02 0.  0.
         13    1    3    3    0    0  0.11851788197E+02 -0.19491872351E+02  0.41318190056E+03  0.41381116578E+03  0.00000000000E+00 0. -1.
        -13    1    3    3    0    0 -0.14823717773E+02  0.35446989201E+02  0.88707181905E+02  0.96670552774E+02  0.00000000000E+00 0.  1.
         22    1    1    2    0    0  0.29719295756E+01 -0.15955116851E+02  0.27597290704E+02  0.32015755079E+02  0.00000000000E+00 0.  1.
<mgrwt>
<rscale>  0 0.60238805E+02</rscale>
<asrwt>0</asrwt>
<pdfrwt beam="1">  1        2 0.82460261E-01 0.93268075E+02</pdfrwt>
<pdfrwt beam="2">  1       -2 0.10008543E-02 0.93268075E+02</pdfrwt>
<totfact> 0.10656260E+05</totfact>
</mgrwt>
</event>
<event>
 6    1  0.3075717E-002  0.8982036E+02  0.7546771E-02  0.1422798E+00
         -3   -1    0    0    0  501 -0.00000000000E+00  0.00000000000E+00  0.10017131986E+03  0.10017131986E+03  0.00000000000E+00 0.  1.
          3   -1    0    0  501    0  0.00000000000E+00 -0.00000000000E+00 -0.57260252433E+02  0.57260252433E+02  0.00000000000E+00 0. -1.
         23    2    1    2    0    0 -0.77325685298E+01 -0.93267490419E+01 -0.21115393311E+02  0.92268940836E+02  0.88999532272E+02 0.  0.
         11    1    3    3    0    0 -0.62737435730E+01  0.38754217798E+02  0.11214138017E+01  0.39274760655E+02  0.00000000000E+00 0.  1.
        -11    1    3    3    0    0 -0.14588249568E+01 -0.48080966840E+02 -0.22236807113E+02  0.52994180181E+02  0.00000000000E+00 0. -1.
         22    1    1    2    0    0  0.77325685298E+01  0.93267490419E+01  0.64026460739E+02  0.65162631458E+02  0.00000000000E+00 0.  1.
<mgrwt>
<rscale>  0 0.54433315E+02</rscale>
<asrwt>0</asrwt>
<pdfrwt beam="1">  1        3 0.88092696E-02 0.89820363E+02</pdfrwt>
<pdfrwt beam="2">  1       -3 0.15410972E-01 0.89820363E+02</pdfrwt>
<totfact> 0.66877085E+03</totfact>
</mgrwt>
</event>
<event>
 6    1  0.3075717E-002  0.9999175E+02  0.7546771E-02  0.1390122E+00
          2   -1    0    0  501    0  0.00000000000E+00  0.00000000000E+00  0.91817241081E+02  0.91817241081E+02  0.00000000000E+00 0. -1.
         -2   -1    0    0    0  501 -0.00000000000E+00 -0.00000000000E+00 -0.38099795230E+02  0.38099795230E+02  0.00000000000E+00 0.  1.
         23    2    1    2    0    0  0.34296217125E+01 -0.14255643346E+02  0.56707955920E+02  0.11495278482E+03  0.98910893233E+02 0.  0.
         11    1    3    3    0    0  0.27480672905E+02 -0.21410688630E+02  0.75800323413E+02  0.83422383090E+02  0.00000000000E+00 0. -1.
        -11    1    3    3    0    0 -0.24051051193E+02  0.71550452846E+01 -0.19092367493E+02  0.31530401726E+02  0.00000000000E+00 0.  1.
         22    1    1    2    0    0 -0.34296217125E+01  0.14255643346E+02 -0.29905100690E+01  0.14964251494E+02  0.00000000000E+00 0. -1.
<mgrwt>
<rscale>  0 0.61876298E+02</rscale>
<asrwt>0</asrwt>
<pdfrwt beam="1">  1        2 0.14125729E-01 0.99991752E+02</pdfrwt>
<pdfrwt beam="2">  1       -2 0.58615070E-02 0.99991752E+02</pdfrwt>
<totfact> 0.56058354E+04</totfact>
</mgrwt>
</event>
<event>
 6    1  0.3075717E-002  0.9259827E+02  0.7546771E-02  0.1390883E+00
          2   -1    0    0  501    0  0.00000000000E+00  0.00000000000E+00  0.17882826536E+03  0.17882826536E+03  0.00000000000E+00 0. -1.
         -2   -1    0    0    0  501 -0.00000000000E+00 -0.00000000000E+00 -0.17351416989E+02  0.17351416989E+02  0.00000000000E+00 0.  1.
         23    2    1    2    0    0 -0.41667442829E+01  0.17755992954E+02  0.12696472507E+03  0.15714477876E+03  0.90784376599E+02 0.  0.
         11    1    3    3    0    0  0.10339724010E+02  0.40465537567E+02  0.12301218612E+03  0.12990907419E+03  0.00000000000E+00 0. -1.
        -11    1    3    3    0    0 -0.14506468293E+02 -0.22709544612E+02  0.39525389460E+01  0.27235704561E+02  0.00000000000E+00 0.  1.
         22    1    1    2    0    0  0.41667442829E+01 -0.17755992954E+02  0.34512123305E+02  0.39034903596E+02  0.00000000000E+00 0.  1.
<mgrwt>
<rscale>  0 0.61687688E+02</rscale>
<asrwt>0</asrwt>
<pdfrwt beam="1">  1        2 0.27512039E-01 0.92598273E+02</pdfrwt>
<pdfrwt beam="2">  1       -2 0.26694489E-02 0.92598273E+02</pdfrwt>
<totfact> 0.83626514E+04</totfact>
</mgrwt>
</event>
<event>
 6    1  0.3075717E-002  0.9626471E+02  0.7546771E-02  0.1365120E+00
          2   -1    0    0  501    0  0.00000000000E+00  0.00000000000E+00  0.34168944485E+03  0.34168944485E+03  0.00000000000E+00 0. -1.
         -2   -1    0    0    0  501 -0.00000000000E+00 -0.00000000000E+00 -0.22704314920E+02  0.22704314920E+02  0.00000000000E+00 0.  1.
         23    2    1    2    0    0 -0.24671061653E+02 -0.18796913385E+01  0.32497783353E+03  0.33893581368E+03  0.93030634666E+02 0.  0.
         13    1    3    3    0    0  0.17151949979E+02  0.30261160926E+02  0.65625085633E+02  0.74273677120E+02  0.00000000000E+00 0.  1.
        -13    1    3    3    0    0 -0.41823011632E+02 -0.32140852265E+02  0.25935274790E+03  0.26466213656E+03  0.00000000000E+00 0. -1.
         22    1    1    2    0    0  0.24671061653E+02  0.18796913385E+01 -0.59927036020E+01  0.25457946089E+02  0.00000000000E+00 0.  1.
<mgrwt>
<rscale>  0 0.68542745E+02</rscale>
<asrwt>0</asrwt>
<pdfrwt beam="1">  1        2 0.52567603E-01 0.96264705E+02</pdfrwt>
<pdfrwt beam="2">  1       -2 0.34929718E-02 0.96264705E+02</pdfrwt>
<totfact> 0.28667343E+04</totfact>
</mgrwt>
</event>
<event>
 6    1  0.3075717E-002  0.8682363E+02  0.7546771E-02  0.1369455E+00
          2   -1    0    0  501    0  0.00000000000E+00  0.00000000000E+00  0.88537724151E+02  0.88537724151E+02  0.00000000000E+00 0. -1.
         -2   -1    0    0    0  501 -0.00000000000E+00 -0.00000000000E+00 -0.90456011645E+02  0.90456011645E+02  0.00000000000E+00 0.  1.
         23    2    1    2    0    0  0.29571079029E+02 -0.10496106140E+02  0.62742584581E+02  0.10712131176E+03  0.80955089739E+02 0.  0.
         13    1    3    3    0    0  0.26872683497E+02 -0.15838300526E+02  0.81588422910E+02  0.87347945796E+02  0.00000000000E+00 0. -1.
        -13    1    3    3    0    0  0.26983955317E+01  0.53421943861E+01 -0.18845838329E+02  0.19773365966E+02  0.00000000000E+00 0.  1.
         22    1    1    2    0    0 -0.29571079029E+02  0.10496106140E+02 -0.64660872075E+02  0.71872424034E+02  0.00000000000E+00 0. -1.
<mgrwt>
<rscale>  0 0.67318881E+02</rscale>
<asrwt>0</asrwt>
<pdfrwt beam="1">  1        2 0.13621188E-01 0.86823635E+02</pdfrwt>
<pdfrwt beam="2">  1       -2 0.13916310E-01 0.86823635E+02</pdfrwt>
<totfact> 0.15098193E+04</totfact>
</mgrwt>
</event>
<event>
 6    1  0.3075717E-002  0.9981420E+02  0.7546771E-02  0.1334415E+00
          2   -1    0    0  501    0  0.00000000000E+00  0.00000000000E+00  0.10272256527E+04  0.10272256527E+04  0.00000000000E+00 0. -1.
         -2   -1    0    0    0  501 -0.00000000000E+00 -0.00000000000E+00 -0.57827224724E+01  0.57827224724E+01  0.00000000000E+00 0.  1.
         23    2    1    2    0    0 -0.25335134941E+02  0.27632987233E+02  0.90936826140E+03  0.91482977119E+03  0.92506347723E+02 0.  0.
         13    1    3    3    0    0 -0.52095797866E+02  0.22759816518E+02  0.33284429543E+03  0.33766448792E+03  0.00000000000E+00 0.  1.
        -13    1    3    3    0    0  0.26760662924E+02  0.48731707149E+01  0.57652396597E+03  0.57716528327E+03  0.00000000000E+00 0. -1.
         22    1    1    2    0    0  0.25335134941E+02 -0.27632987233E+02  0.11207466880E+03  0.11817860395E+03  0.00000000000E+00 0.  1.
<mgrwt>
<rscale>  0 0.78139608E+02</rscale>
<asrwt>0</asrwt>
<pdfrwt beam="1">  1        2 0.15803457E+00 0.99814204E+02</pdfrwt>
<pdfrwt beam="2">  1       -2 0.88965043E-03 0.99814204E+02</pdfrwt>
<totfact> 0.57951325E+04</totfact>
</mgrwt>
</event>
<event>
 6    1  0.3075717E-002  0.9210704E+02  0.7546771E-02  0.1406365E+00
          2   -1    0    0  501    0  0.00000000000E+00  0.00000000000E+00  0.33907526762E+03  0.33907526762E+03  0.00000000000E+00 0.  1.
         -2   -1    0    0    0  501 -0.00000000000E+00 -0.00000000000E+00 -0.12778087881E+02  0.12778087881E+02  0.00000000000E+00 0. -1.
         23    2    1    2    0    0  0.98485648482E+01 -0.10635588346E+02  0.32441438769E+03  0.33723641755E+03  0.90959311861E+02 0.  0.
         11    1    3    3    0    0  0.29509682470E+02  0.32976169023E+02  0.15273293675E+03  0.15901446177E+03  0.00000000000E+00 0.  1.
        -11    1    3    3    0    0 -0.19661117622E+02 -0.43611757369E+02  0.17168145094E+03  0.17822195578E+03  0.00000000000E+00 0. -1.
         22    1    1    2    0    0 -0.98485648482E+01  0.10635588346E+02  0.18827920461E+01  0.14616937946E+02  0.00000000000E+00 0. -1.
<mgrwt>
<rscale>  0 0.58013016E+02</rscale>
<asrwt>0</asrwt>
<pdfrwt beam="1">  1        2 0.52165419E-01 0.92107038E+02</pdfrwt>
<pdfrwt beam="2">  1       -2 0.19658599E-02 0.92107038E+02</pdfrwt>
<totfact> 0.66125027E+04</totfact>
</mgrwt>
</event>
<event>
 6    1  0.3075717E-002  0.9989297E+02  0.7546771E-02  0.1401896E+00
         -2   -1    0    0    0  501 -0.00000000000E+00  0.00000000000E+00  0.67428365052E+02  0.67428365052E+02  0.00000000000E+00 0.  1.
          2   -1    0    0  501    0  0.00000000000E+00 -0.00000000000E+00 -0.62776558317E+02  0.62776558317E+02  0.00000000000E+00 0. -1.
         23    2    1    2    0    0 -0.48395223616E+01  0.11189436323E+02 -0.20753428709E+02  0.10202602258E+03  0.99146255691E+02 0.  0.
         11    1    3    3    0    0 -0.30658391958E+02  0.46486542702E+02 -0.66805136322E+01  0.56085335982E+02  0.00000000000E+00 0. -1.
        -11    1    3    3    0    0  0.25818869596E+02 -0.35297106379E+02 -0.14072915077E+02  0.45940686594E+02  0.00000000000E+00 0.  1.
         22    1    1    2    0    0  0.48395223616E+01 -0.11189436323E+02  0.25405235445E+02  0.28178900794E+02  0.00000000000E+00 0.  1.
<mgrwt>
<rscale>  0 0.59042191E+02</rscale>
<asrwt>0</asrwt>
<pdfrwt beam="1">  1        2 0.96579321E-02 0.99892965E+02</pdfrwt>
<pdfrwt beam="2">  1       -2 0.10373595E-01 0.99892965E+02</pdfrwt>
<totfact> 0.36841967E+04</totfact>
</mgrwt>
</event>
<event>
 6    1  0.3075717E-002  0.9262510E+02  0.7546771E-02  0.1419307E+00
          1   -1    0    0  501    0  0.00000000000E+00  0.00000000000E+00  0.55421219460E+02  0.55421219460E+02  0.00000000000E+00 0. -1.
         -1   -1    0    0    0  501 -0.00000000000E+00 -0.00000000000E+00 -0.49406128906E+02  0.49406128906E+02  0.00000000000E+00 0.  1.
         23    2    1    2    0    0 -0.91508825191E+01  0.72198644854E+01  0.81288723668E+01  0.92981118264E+02  0.91888762608E+02 0.  0.
         13    1    3    3    0    0 -0.17939074766E+02 -0.23960536879E+02 -0.30386909809E+02  0.42653042315E+02  0.00000000000E+00 0.  1.
        -13    1    3    3    0    0  0.87881922467E+01  0.31180401364E+02  0.38515782176E+02  0.50328075950E+02  0.00000000000E+00 0. -1.
         22    1    1    2    0    0  0.91508825191E+01 -0.72198644854E+01 -0.21137818133E+01  0.11846230102E+02  0.00000000000E+00 0. -1.
<mgrwt>
<rscale>  0 0.55167718E+02</rscale>
<asrwt>0</asrwt>
<pdfrwt beam="1">  1        1 0.85263414E-02 0.92625103E+02</pdfrwt>
<pdfrwt beam="2">  1       -1 0.76009429E-02 0.92625103E+02</pdfrwt>
<totfact> 0.63465530E+04</totfact>
</mgrwt>
</event>
<event>
 6    1  0.3075717E-002  0.9297786E+02  0.7546771E-02  0.1403153E+00
          3   -1    0    0  501    0  0.00000000000E+00  0.00000000000E+00  0.11745032748E+02  0.11745032748E+02  0.00000000000E+00 0. -1.
         -3   -1    0    0    0  501 -0.00000000000E+00 -0.00000000000E+00 -0.27903506256E+03  0.27903506256E+03  0.00000000000E+00 0.  1.
         23    2    1    2    0    0 -0.33996442431E+01 -0.14426484757E+02 -0.25533890824E+03  0.27174039074E+03  0.91788892852E+02 0.  0.
         13    1    3    3    0    0 -0.23620046623E+02 -0.47462129156E+02 -0.12525073413E+03  0.13600848028E+03  0.00000000000E+00 0. -1.
        -13    1    3    3    0    0  0.20220402380E+02  0.33035644399E+02 -0.13008817411E+03  0.13573191046E+03  0.00000000000E+00 0.  1.
         22    1    1    2    0    0  0.33996442431E+01  0.14426484757E+02 -0.11951121567E+02  0.19039704571E+02  0.00000000000E+00 0.  1.
<mgrwt>
<rscale>  0 0.58750115E+02</rscale>
<asrwt>0</asrwt>
<pdfrwt beam="1">  1        3 0.18069282E-02 0.92977857E+02</pdfrwt>
<pdfrwt beam="2">  1       -3 0.42928468E-01 0.92977857E+02</pdfrwt>
<totfact> 0.12489899E+04</totfact>
</mgrwt>
</event>
<event>
 6    1  0.3075717E-002  0.9203581E+02  0.7546771E-02  0.1407162E+00
          2   -1    0    0  501    0  0.00000000000E+00  0.00000000000E+00  0.99672532724E+02  0.99672532724E+02  0.00000000000E+00 0. -1.
         -2   -1    0    0    0  501 -0.00000000000E+00 -0.00000000000E+00 -0.48126601663E+02  0.48126601663E+02  0.00000000000E+00 0.  1.
         23    2    1    2    0    0  0.13718304533E+02 -0.42053509827E+01  0.76058218067E+02  0.11939615795E+03  0.90910467724E+02 0.  0.
         11    1    3    3    0    0  0.18496681471E+02  0.41799879198E+02  0.35417848815E+02  0.57825436800E+02  0.00000000000E+00 0. -1.
        -11    1    3    3    0    0 -0.47783769381E+01 -0.46005230181E+02  0.40640369252E+02  0.61570721151E+02  0.00000000000E+00 0.  1.
         22    1    1    2    0    0 -0.13718304533E+02  0.42053509827E+01 -0.24512287006E+02  0.28402976436E+02  0.00000000000E+00 0.  1.
<mgrwt>
<rscale>  0 0.57832047E+02</rscale>
<asrwt>0</asrwt>
<pdfrwt beam="1">  1        2 0.15334236E-01 0.92035808E+02</pdfrwt>
<pdfrwt beam="2">  1       -2 0.74040926E-02 0.92035808E+02</pdfrwt>
<totfact> 0.35416827E+04</totfact>
</mgrwt>
</event>
<event>
 6    1  0.3075717E-002  0.9557805E+02  0.7546771E-02  0.1393860E+00
         -2   -1    0    0    0  501 -0.00000000000E+00  0.00000000000E+00  0.12489914212E+02  0.12489914212E+02  0.00000000000E+00 0.  1.
          2   -1    0    0  501    0  0.00000000000E+00 -0.00000000000E+00 -0.27880826033E+03  0.27880826033E+03  0.00000000000E+00 0. -1.
         23    2    1    2    0    0  0.16893892286E+01 -0.15722426769E+02 -0.25357424183E+03  0.27098904030E+03  0.94260888518E+02 0.  0.
         11    1    3    3    0    0  0.12161687040E+02  0.38181263399E+02 -0.12213761376E+03  0.12854303638E+03  0.00000000000E+00 0. -1.
        -11    1    3    3    0    0 -0.10472297811E+02 -0.53903690168E+02 -0.13143662807E+03  0.14244600392E+03  0.00000000000E+00 0.  1.
         22    1    1    2    0    0 -0.16893892286E+01  0.15722426769E+02 -0.12744104286E+02  0.20309134239E+02  0.00000000000E+00 0. -1.
<mgrwt>
<rscale>  0 0.60956737E+02</rscale>
<asrwt>0</asrwt>
<pdfrwt beam="1">  1        2 0.42893575E-01 0.95578051E+02</pdfrwt>
<pdfrwt beam="2">  1       -2 0.19215254E-02 0.95578051E+02</pdfrwt>
<totfact> 0.84285107E+04</totfact>
</mgrwt>
</event>
<event>
 6    1  0.3075717E-002  0.9538327E+02  0.7546771E-02  0.1382209E+00
         -2   -1    0    0    0  501 -0.00000000000E+00  0.00000000000E+00  0.27818923341E+02  0.27818923341E+02  0.00000000000E+00 0. -1.
          2   -1    0    0  501    0  0.00000000000E+00 -0.00000000000E+00 -0.13248849547E+03  0.13248849547E+03  0.00000000000E+00 0.  1.
         23    2    1    2    0    0 -0.13713559811E+01 -0.19147544238E+02 -0.10397475939E+03  0.14109825870E+03  0.93431573628E+02 0.  0.
         13    1    3    3    0    0 -0.10208447305E+02 -0.53587915468E+02 -0.84442081990E+02  0.10053030534E+03  0.00000000000E+00 0. -1.
        -13    1    3    3    0    0  0.88370913242E+01  0.34440371230E+02 -0.19532677397E+02  0.40567953360E+02  0.00000000000E+00 0.  1.
         22    1    1    2    0    0  0.13713559811E+01  0.19147544238E+02 -0.69481274515E+00  0.19209160115E+02  0.00000000000E+00 0. -1.
<mgrwt>
<rscale>  0 0.63886659E+02</rscale>
<asrwt>0</asrwt>
<pdfrwt beam="1">  1        2 0.20382845E-01 0.95383269E+02</pdfrwt>
<pdfrwt beam="2">  1       -2 0.42798344E-02 0.95383269E+02</pdfrwt>
<totfact> 0.58523848E+04</totfact>
</mgrwt>
</event>
<event>
 6    1  0.3075717E-002  0.1004286E+03  0.7546771E-02  0.1394340E+00
          2   -1    0    0  501    0  0.00000000000E+00  0.00000000000E+00  0.14722134911E+04  0.14722134911E+04  0.00000000000E+00 0. -1.
         -2   -1    0    0    0  501 -0.00000000000E+00 -0.00000000000E+00 -0.53088443615E+01  0.53088443615E+01  0.00000000000E+00 0.  1.
         23    2    1    2    0    0  0.11416313485E+02  0.72549729794E+01  0.14577128644E+04  0.14611682623E+04  0.99513460220E+02 0.  0.
         13    1    3    3    0    0  0.27381053326E+00  0.10050676976E+02  0.14401306547E+04  0.14401657522E+04  0.00000000000E+00 0. -1.
        -13    1    3    3    0    0  0.11142502952E+02 -0.27957039970E+01  0.17582209701E+02  0.21002510108E+02  0.00000000000E+00 0.  1.
         22    1    1    2    0    0 -0.11416313485E+02 -0.72549729794E+01  0.91917822646E+01  0.16354073123E+02  0.00000000000E+00 0.  1.
<mgrwt>
<rscale>  0 0.60840038E+02</rscale>
<asrwt>0</asrwt>
<pdfrwt beam="1">  1        2 0.22649406E+00 0.10042856E+03</pdfrwt>
<pdfrwt beam="2">  1       -2 0.81674646E-03 0.10042856E+03</pdfrwt>
<totfact> 0.37579642E+04</totfact>
</mgrwt>
</event>
<event>
 6    1  0.3075717E-002  0.9733401E+02  0.7546771E-02  0.1363956E+00
          1   -1    0    0  501    0  0.00000000000E+00  0.00000000000E+00  0.19435194536E+03  0.19435194536E+03  0.00000000000E+00 0. -1.
         -1   -1    0    0    0  501 -0.00000000000E+00 -0.00000000000E+00 -0.19073175986E+02  0.19073175986E+02  0.00000000000E+00 0.  1.
         23    2    1    2    0    0  0.17832760691E+02 -0.16662188842E+02  0.13824597863E+03  0.16907353196E+03  0.94224586554E+02 0.  0.
         11    1    3    3    0    0  0.26897346729E+02  0.63491903542E+01 -0.99365484475E+00  0.27654417896E+02  0.00000000000E+00 0.  1.
        -11    1    3    3    0    0 -0.90645860373E+01 -0.23011379196E+02  0.13923963348E+03  0.14141911407E+03  0.00000000000E+00 0. -1.
         22    1    1    2    0    0 -0.17832760691E+02  0.16662188842E+02  0.37032790744E+02  0.44351589387E+02  0.00000000000E+00 0.  1.
<mgrwt>
<rscale>  0 0.68876497E+02</rscale>
<asrwt>0</asrwt>
<pdfrwt beam="1">  1        1 0.29900298E-01 0.97334005E+02</pdfrwt>
<pdfrwt beam="2">  1       -1 0.29343349E-02 0.97334005E+02</pdfrwt>
<totfact> 0.51926332E+04</totfact>
</mgrwt>
</event>
<event>
 6    1  0.3075717E-002  0.9421821E+02  0.7546771E-02  0.1419931E+00
         -2   -1    0    0    0  501 -0.00000000000E+00  0.00000000000E+00  0.46973762746E+01  0.46973762746E+01  0.00000000000E+00 0.  1.
          2   -1    0    0  501    0  0.00000000000E+00 -0.00000000000E+00 -0.86346114853E+03  0.86346114853E+03  0.00000000000E+00 0. -1.
         23    2    1    2    0    0 -0.37735371812E+01  0.10299491609E+02 -0.84640990595E+03  0.85163771602E+03  0.93577515165E+02 0.  0.
         13    1    3    3    0    0  0.42413993694E+02 -0.10132953926E+02 -0.37217360635E+03  0.37471965105E+03  0.00000000000E+00 0. -1.
        -13    1    3    3    0    0 -0.46187530875E+02  0.20432445536E+02 -0.47423629960E+03  0.47691806497E+03  0.00000000000E+00 0.  1.
         22    1    1    2    0    0  0.37735371812E+01 -0.10299491609E+02 -0.12353866306E+02  0.16520808787E+02  0.00000000000E+00 0.  1.
<mgrwt>
<rscale>  0 0.55035504E+02</rscale>
<asrwt>0</asrwt>
<pdfrwt beam="1">  1        2 0.13284027E+00 0.94218207E+02</pdfrwt>
<pdfrwt beam="2">  1       -2 0.72267277E-03 0.94218207E+02</pdfrwt>
<totfact> 0.97014433E+04</totfact>
</mgrwt>
</event>
<event>
 6    1  0.3075717E-002  0.9575985E+02  0.7546771E-02  0.1415772E+00
         -2   -1    0    0    0  501 -0.00000000000E+00  0.00000000000E+00  0.11877433708E+02  0.11877433708E+02  0.00000000000E+00 0.  1.
          2   -1    0    0  501    0  0.00000000000E+00 -0.00000000000E+00 -0.20656985189E+04  0.20656985189E+04  0.00000000000E+00 0. -1.
         23    2    1    2    0    0 -0.51430060031E+01  0.98819799991E+01 -0.20617053548E+04  0.20639280316E+04  0.95109650202E+02 0.  0.
         11    1    3    3    0    0  0.24728823371E+02  0.25662397528E+02 -0.17559993129E+04  0.17563609140E+04  0.00000000000E+00 0. -1.
        -11    1    3    3    0    0 -0.29871829374E+02 -0.15780417529E+02 -0.30570604193E+03  0.30756711762E+03  0.00000000000E+00 0.  1.
         22    1    1    2    0    0  0.51430060031E+01 -0.98819799991E+01  0.78842696358E+01  0.13647920982E+02  0.00000000000E+00 0.  1.
<mgrwt>
<rscale>  0 0.55925625E+02</rscale>
<asrwt>0</asrwt>
<pdfrwt beam="1">  1        2 0.31779982E+00 0.95759854E+02</pdfrwt>
<pdfrwt beam="2">  1       -2 0.18272972E-02 0.95759854E+02</pdfrwt>
<totfact> 0.59657890E+03</totfact>
</mgrwt>
</event>
<event>
 6    1  0.3075717E-002  0.9342199E+02  0.7546771E-02  0.1408692E+00
         -2   -1    0    0    0  501 -0.00000000000E+00  0.00000000000E+00  0.19140140053E+02  0.19140140053E+02  0.00000000000E+00 0.  1.
          2   -1    0    0  501    0  0.00000000000E+00 -0.00000000000E+00 -0.26367277317E+03  0.26367277317E+03  0.00000000000E+00 0. -1.
         23    2    1    2    0    0  0.11166288720E+02  0.73974615228E+01 -0.25108502284E+03  0.26790176801E+03  0.92456801614E+02 0.  0.
         11    1    3    3    0    0  0.49786798087E+02  0.10660560174E+02 -0.17846818393E+03  0.18558896918E+03  0.00000000000E+00 0. -1.
        -11    1    3    3    0    0 -0.38620509368E+02 -0.32630986513E+01 -0.72616838911E+02  0.82312798823E+02  0.00000000000E+00 0.  1.
         22    1    1    2    0    0 -0.11166288720E+02 -0.73974615228E+01  0.65523897206E+01  0.14911145221E+02  0.00000000000E+00 0.  1.
<mgrwt>
<rscale>  0 0.57486677E+02</rscale>
<asrwt>0</asrwt>
<pdfrwt beam="1">  1        2 0.40565040E-01 0.93421992E+02</pdfrwt>
<pdfrwt beam="2">  1       -2 0.29446370E-02 0.93421992E+02</pdfrwt>
<totfact> 0.48075009E+04</totfact>
</mgrwt>
</event>
<event>
 6    1  0.3075717E-002  0.9209524E+02  0.7546771E-02  0.1383048E+00
         -2   -1    0    0    0  501 -0.00000000000E+00  0.00000000000E+00  0.50638260591E+01  0.50638260591E+01  0.00000000000E+00 0.  1.
          2   -1    0    0  501    0  0.00000000000E+00 -0.00000000000E+00 -0.97534395154E+03  0.97534395154E+03  0.00000000000E+00 0. -1.
         23    2    1    2    0    0 -0.20916974772E+02 -0.22559378026E+01 -0.93353070904E+03  0.93806242723E+03  0.89660044465E+02 0.  0.
         13    1    3    3    0    0 -0.54517209359E+01  0.37896780503E+02 -0.22564095359E+03  0.22886617743E+03  0.00000000000E+00 0.  1.
        -13    1    3    3    0    0 -0.15465253836E+02 -0.40152718306E+02 -0.70788975545E+03  0.70919624980E+03  0.00000000000E+00 0. -1.
         22    1    1    2    0    0  0.20916974772E+02  0.22559378026E+01 -0.36749416438E+02  0.42345350365E+02  0.00000000000E+00 0.  1.
<mgrwt>
<rscale>  0 0.63669350E+02</rscale>
<asrwt>0</asrwt>
<pdfrwt beam="1">  1        2 0.15005278E+00 0.92095237E+02</pdfrwt>
<pdfrwt beam="2">  1       -2 0.77905086E-03 0.92095237E+02</pdfrwt>
<totfact> 0.74299701E+04</totfact>
</mgrwt>
</event>
<event>
 6    1  0.3075717E-002  0.9119726E+02  0.7546771E-02  0.1412176E+00
         -2   -1    0    0    0  501 -0.00000000000E+00  0.00000000000E+00  0.71230933409E+02  0.71230933409E+02  0.00000000000E+00 0.  1.
          2   -1    0    0  501    0  0.00000000000E+00 -0.00000000000E+00 -0.10197229911E+03  0.10197229911E+03  0.00000000000E+00 0. -1.
         23    2    1    2    0    0 -0.89421123896E+01  0.10296201533E+02 -0.80479079268E+02  0.12162985478E+03  0.90171870531E+02 0.  0.
         13    1    3    3    0    0 -0.10720518291E+02  0.49145032218E+02 -0.57752434057E+02  0.76586600288E+02  0.00000000000E+00 0. -1.
        -13    1    3    3    0    0  0.17784059013E+01 -0.38848830685E+02 -0.22726645211E+02  0.45043254497E+02  0.00000000000E+00 0.  1.
         22    1    1    2    0    0  0.89421123896E+01 -0.10296201533E+02  0.49737713567E+02  0.51573377734E+02  0.00000000000E+00 0.  1.
<mgrwt>
<rscale>  0 0.56711039E+02</rscale>
<asrwt>0</asrwt>
<pdfrwt beam="1">  1        2 0.15688046E-01 0.91197255E+02</pdfrwt>
<pdfrwt beam="2">  1       -2 0.10958605E-01 0.91197255E+02</pdfrwt>
<totfact> 0.18819027E+04</totfact>
</mgrwt>
</event>
<event>
 6    1  0.3075717E-002  0.9379553E+02  0.7546771E-02  0.1414261E+00
         -4   -1    0    0    0  501 -0.00000000000E+00  0.00000000000E+00  0.27155667421E+03  0.27155667421E+03  0.00000000000E+00 0.  1.
          4   -1    0    0  501    0  0.00000000000E+00 -0.00000000000E+00 -0.11138044171E+02  0.11138044171E+02  0.00000000000E+00 0. -1.
         23    2    1    2    0    0 -0.69790058139E+01  0.99280498451E+01  0.19781241826E+03  0.21892316948E+03  0.93007142853E+02 0.  0.
         11    1    3    3    0    0  0.44082147928E+01 -0.23411865217E+02  0.17574353902E+03  0.17735089314E+03  0.00000000000E+00 0.  1.
        -11    1    3    3    0    0 -0.11387220607E+02  0.33339915062E+02  0.22068879249E+02  0.41572276348E+02  0.00000000000E+00 0. -1.
         22    1    1    2    0    0  0.69790058139E+01 -0.99280498451E+01  0.62606211778E+02  0.63771548900E+02  0.00000000000E+00 0.  1.
<mgrwt>
<rscale>  0 0.56253802E+02</rscale>
<asrwt>0</asrwt>
<pdfrwt beam="1">  1        4 0.17135455E-02 0.93795529E+02</pdfrwt>
<pdfrwt beam="2">  1       -4 0.41777945E-01 0.93795529E+02</pdfrwt>
<totfact> 0.10573409E+04</totfact>
</mgrwt>
</event>
<event>
 6    1  0.3075717E-002  0.9298523E+02  0.7546771E-02  0.1419501E+00
          4   -1    0    0  501    0  0.00000000000E+00  0.00000000000E+00  0.26640187548E+02  0.26640187548E+02  0.00000000000E+00 0. -1.
         -4   -1    0    0    0  501 -0.00000000000E+00 -0.00000000000E+00 -0.10295345428E+03  0.10295345428E+03  0.00000000000E+00 0.  1.
         23    2    1    2    0    0  0.76772811930E+01 -0.85445684402E+01 -0.64852213597E+02  0.11336693436E+03  0.92272974921E+02 0.  0.
         13    1    3    3    0    0  0.10414333635E+02  0.36383456884E+02 -0.55849821884E+02  0.67464189644E+02  0.00000000000E+00 0.  1.
        -13    1    3    3    0    0 -0.27370524418E+01 -0.44928025324E+02 -0.90023917131E+01  0.45902744713E+02  0.00000000000E+00 0. -1.
         22    1    1    2    0    0 -0.76772811930E+01  0.85445684402E+01 -0.11461053131E+02  0.16226707467E+02  0.00000000000E+00 0.  1.
<mgrwt>
<rscale>  0 0.55126670E+02</rscale>
<asrwt>0</asrwt>
<pdfrwt beam="1">  1        4 0.40984905E-02 0.92985226E+02</pdfrwt>
<pdfrwt beam="2">  1       -4 0.15838993E-01 0.92985226E+02</pdfrwt>
<totfact> 0.16352432E+04</totfact>
</mgrwt>
</event>
<event>
 6    1  0.3075717E-002  0.9401331E+02  0.7546771E-02  0.1416113E+00
         -2   -1    0    0    0  501 -0.00000000000E+00  0.00000000000E+00  0.40561702466E+01  0.40561702466E+01  0.00000000000E+00 0.  1.
          2   -1    0    0  501    0  0.00000000000E+00 -0.00000000000E+00 -0.74028286869E+03  0.74028286869E+03  0.00000000000E+00 0. -1.
         23    2    1    2    0    0 -0.11460275820E+02 -0.24084597880E+01 -0.69952756212E+03  0.70581676996E+03  0.93281101982E+02 0.  0.
         13    1    3    3    0    0 -0.38694868090E+02  0.31871098012E+02 -0.35700331778E+03  0.36050579553E+03  0.00000000000E+00 0.  1.
        -13    1    3    3    0    0  0.27234592270E+02 -0.34279557800E+02 -0.34252424434E+03  0.34531097443E+03  0.00000000000E+00 0. -1.
         22    1    1    2    0    0  0.11460275820E+02  0.24084597880E+01 -0.36699136322E+02  0.38522268978E+02  0.00000000000E+00 0.  1.
<mgrwt>
<rscale>  0 0.55851774E+02</rscale>
<asrwt>0</asrwt>
<pdfrwt beam="1">  1        2 0.11388973E+00 0.94013311E+02</pdfrwt>
<pdfrwt beam="2">  1       -2 0.62402585E-03 0.94013311E+02</pdfrwt>
<totfact> 0.14397439E+05</totfact>
</mgrwt>
</event>
<event>
 6    1  0.3075717E-002  0.9771085E+02  0.7546771E-02  0.1374608E+00
         -2   -1    0    0    0  501 -0.00000000000E+00  0.00000000000E+00  0.83284412304E+02  0.83284412304E+02  0.00000000000E+00 0.  1.
          2   -1    0    0  501    0  0.00000000000E+00 -0.00000000000E+00 -0.52831429822E+02  0.52831429822E+02  0.00000000000E+00 0. -1.
         23    2    1    2    0    0 -0.19942396562E+02  0.33392087463E+01 -0.21697771792E+01  0.97734936149E+02  0.95595817457E+02 0.  0.
         11    1    3    3    0    0 -0.58509315139E+02 -0.21263415672E+01 -0.44438168193E+01  0.58716341800E+02  0.00000000000E+00 0. -1.
        -11    1    3    3    0    0  0.38566918576E+02  0.54655503135E+01  0.22740396401E+01  0.39018594349E+02  0.00000000000E+00 0.  1.
         22    1    1    2    0    0  0.19942396562E+02 -0.33392087463E+01  0.32622759661E+02  0.38380905977E+02  0.00000000000E+00 0. -1.
<mgrwt>
<rscale>  0 0.65902596E+02</rscale>
<asrwt>0</asrwt>
<pdfrwt beam="1">  1        2 0.81279122E-02 0.97710848E+02</pdfrwt>
<pdfrwt beam="2">  1       -2 0.12812987E-01 0.97710848E+02</pdfrwt>
<totfact> 0.32549023E+04</totfact>
</mgrwt>
</event>
<event>
 6    1  0.3075717E-002  0.9949281E+02  0.7546771E-02  0.1363336E+00
          1   -1    0    0  501    0  0.00000000000E+00  0.00000000000E+00  0.19959882406E+04  0.19959882406E+04  0.00000000000E+00 0. -1.
         -1   -1    0    0    0  501 -0.00000000000E+00 -0.00000000000E+00 -0.39865221235E+01  0.39865221235E+01  0.00000000000E+00 0.  1.
         23    2    1    2    0    0 -0.96894212632E+01 -0.20957811480E+02  0.19456350918E+04  0.19481772838E+04  0.96776568342E+02 0.  0.
         13    1    3    3    0    0  0.39879377971E+02  0.75001596677E+01  0.99330086516E+03  0.99412938087E+03  0.00000000000E+00 0.  1.
        -13    1    3    3    0    0 -0.49568799234E+02 -0.28457971148E+02  0.95233422662E+03  0.95404790298E+03  0.00000000000E+00 0. -1.
         22    1    1    2    0    0  0.96894212632E+01  0.20957811480E+02  0.46366626657E+02  0.51797478838E+02  0.00000000000E+00 0.  1.
<mgrwt>
<rscale>  0 0.69055195E+02</rscale>
<asrwt>0</asrwt>
<pdfrwt beam="1">  1        1 0.30707432E+00 0.99492808E+02</pdfrwt>
<pdfrwt beam="2">  1       -1 0.61331269E-03 0.99492808E+02</pdfrwt>
<totfact> 0.12403833E+04</totfact>
</mgrwt>
</event>
<event>
 6    1  0.3075717E-002  0.9527979E+02  0.7546771E-02  0.1363947E+00
          4   -1    0    0  501    0  0.00000000000E+00  0.00000000000E+00  0.71131971611E+01  0.71131971611E+01  0.00000000000E+00 0. -1.
         -4   -1    0    0    0  501 -0.00000000000E+00 -0.00000000000E+00 -0.51729747837E+03  0.51729747837E+03  0.00000000000E+00 0.  1.
         23    2    1    2    0    0 -0.25797347401E+02  0.34136392961E+01 -0.39698155091E+03  0.40825554558E+03  0.91657420158E+02 0.  0.
         11    1    3    3    0    0 -0.30833903809E+02 -0.39623989777E+02 -0.25129618015E+03  0.25626267841E+03  0.00000000000E+00 0. -1.
        -11    1    3    3    0    0  0.50365564078E+01  0.43037629073E+02 -0.14568537076E+03  0.15199286717E+03  0.00000000000E+00 0.  1.
         22    1    1    2    0    0  0.25797347401E+02 -0.34136392961E+01 -0.11320273030E+03  0.11615512995E+03  0.00000000000E+00 0.  1.
<mgrwt>
<rscale>  0 0.68878978E+02</rscale>
<asrwt>0</asrwt>
<pdfrwt beam="1">  1        4 0.10943381E-02 0.95279792E+02</pdfrwt>
<pdfrwt beam="2">  1       -4 0.79584221E-01 0.95279792E+02</pdfrwt>
<totfact> 0.54968517E+03</totfact>
</mgrwt>
</event>
<event>
 6    1  0.3075717E-002  0.9243542E+02  0.7546771E-02  0.1392796E+00
          2   -1    0    0  501    0  0.00000000000E+00  0.00000000000E+00  0.67618889410E+03  0.67618889410E+03  0.00000000000E+00 0. -1.
         -2   -1    0    0    0  501 -0.00000000000E+00 -0.00000000000E+00 -0.45024261391E+01  0.45024261391E+01  0.00000000000E+00 0.  1.
         23    2    1    2    0    0 -0.37548487931E+01 -0.17380181155E+02  0.57525422749E+03  0.58263344657E+03  0.90709080193E+02 0.  0.
         13    1    3    3    0    0  0.29741654677E+02 -0.48026104468E+01  0.47896181263E+03  0.47990837568E+03  0.00000000000E+00 0. -1.
        -13    1    3    3    0    0 -0.33496503470E+02 -0.12577570708E+02  0.96292414864E+02  0.10272507089E+03  0.00000000000E+00 0.  1.
         22    1    1    2    0    0  0.37548487931E+01  0.17380181155E+02  0.96432240466E+02  0.98057873665E+02  0.00000000000E+00 0.  1.
<mgrwt>
<rscale>  0 0.61216546E+02</rscale>
<asrwt>0</asrwt>
<pdfrwt beam="1">  1        2 0.10402898E+00 0.92435420E+02</pdfrwt>
<pdfrwt beam="2">  1       -2 0.69268148E-03 0.92435420E+02</pdfrwt>
<totfact> 0.13788539E+05</totfact>
</mgrwt>
</event>
<event>
 6    1  0.3075717E-002  0.1219529E+03  0.7546771E-02  0.1259394E+00
         -2   -1    0    0    0  501 -0.00000000000E+00  0.00000000000E+00  0.12136881729E+02  0.12136881729E+02  0.00000000000E+00 0.  1.
          2   -1    0    0  501    0  0.00000000000E+00 -0.00000000000E+00 -0.15603242094E+04  0.15603242094E+04  0.00000000000E+00 0. -1.
         23    2    1    2    0    0  0.79223061603E+02 -0.23413891143E+02 -0.13769310127E+04  0.13823210659E+04  0.89710710679E+02 0.  0.
         11    1    3    3    0    0  0.16193907677E+01 -0.41946063102E+02 -0.43870674582E+03  0.44071045310E+03  0.00000000000E+00 0.  1.
        -11    1    3    3    0    0  0.77603670836E+02  0.18532171959E+02 -0.93822426692E+03  0.94161061282E+03  0.00000000000E+00 0. -1.
         22    1    1    2    0    0 -0.79223061603E+02  0.23413891143E+02 -0.17125631493E+03  0.19014002522E+03  0.00000000000E+00 0.  1.
<mgrwt>
<rscale>  0 0.11063768E+03</rscale>
<asrwt>0</asrwt>
<pdfrwt beam="1">  1        2 0.24004983E+00 0.12195292E+03</pdfrwt>
<pdfrwt beam="2">  1       -2 0.18672130E-02 0.12195292E+03</pdfrwt>
<totfact> 0.10518014E+04</totfact>
</mgrwt>
</event>
<event>
 6    1  0.3075717E-002  0.9987036E+02  0.7546771E-02  0.1334474E+00
          2   -1    0    0  501    0  0.00000000000E+00  0.00000000000E+00  0.18019202079E+03  0.18019202079E+03  0.00000000000E+00 0. -1.
         -2   -1    0    0    0  501 -0.00000000000E+00 -0.00000000000E+00 -0.26734383796E+02  0.26734383796E+02  0.00000000000E+00 0.  1.
         23    2    1    2    0    0 -0.94012721816E+01 -0.36186625855E+02  0.97085982441E+02  0.13928308085E+03  0.92607952221E+02 0.  0.
         13    1    3    3    0    0  0.28737894264E+02 -0.12991489674E+02  0.88333106364E+02  0.93794365773E+02  0.00000000000E+00 0. -1.
        -13    1    3    3    0    0 -0.38139166446E+02 -0.23195136181E+02  0.87528760771E+01  0.45488715076E+02  0.00000000000E+00 0.  1.
         22    1    1    2    0    0  0.94012721816E+01  0.36186625855E+02  0.56371654557E+02  0.67643323742E+02  0.00000000000E+00 0.  1.
<mgrwt>
<rscale>  0 0.78119644E+02</rscale>
<asrwt>0</asrwt>
<pdfrwt beam="1">  1        2 0.27721849E-01 0.99870359E+02</pdfrwt>
<pdfrwt beam="2">  1       -2 0.41129822E-02 0.99870359E+02</pdfrwt>
<totfact> 0.44547565E+04</totfact>
</mgrwt>
</event>
<event>
 6    1  0.3075717E-002  0.9420140E+02  0.7546771E-02  0.1395852E+00
         -3   -1    0    0    0  501 -0.00000000000E+00  0.00000000000E+00  0.13371006972E+03  0.13371006972E+03  0.00000000000E+00 0.  1.
          3   -1    0    0  501    0  0.00000000000E+00 -0.00000000000E+00 -0.49579948465E+02  0.49579948465E+02  0.00000000000E+00 0. -1.
         23    2    1    2    0    0  0.78239933747E+00  0.15980586955E+02 -0.34459522193E+01  0.94264404156E+02  0.92832709731E+02 0.  0.
         13    1    3    3    0    0  0.21068976160E+01 -0.12301732034E+02 -0.43476732319E+02  0.45232708096E+02  0.00000000000E+00 0. -1.
        -13    1    3    3    0    0 -0.13244982785E+01  0.28282318989E+02  0.40030780099E+02  0.49031696059E+02  0.00000000000E+00 0.  1.
         22    1    1    2    0    0 -0.78239933747E+00 -0.15980586955E+02  0.87576073476E+02  0.89025614031E+02  0.00000000000E+00 0. -1.
<mgrwt>
<rscale>  0 0.60474343E+02</rscale>
<asrwt>0</asrwt>
<pdfrwt beam="1">  1        3 0.76276844E-02 0.94201398E+02</pdfrwt>
<pdfrwt beam="2">  1       -3 0.20570780E-01 0.94201398E+02</pdfrwt>
<totfact> 0.51846729E+03</totfact>
</mgrwt>
</event>
<event>
 6    1  0.3075717E-002  0.9106021E+02  0.7546771E-02  0.1410154E+00
         -4   -1    0    0    0  501 -0.00000000000E+00  0.00000000000E+00  0.51510884379E+01  0.51510884379E+01  0.00000000000E+00 0.  1.
          4   -1    0    0  501    0  0.00000000000E+00 -0.00000000000E+00 -0.62797162893E+03  0.62797162893E+03  0.00000000000E+00 0. -1.
         23    2    1    2    0    0  0.14116827472E+02 -0.75926477459E+00 -0.59488140022E+03  0.60181046961E+03  0.89956098717E+02 0.  0.
         13    1    3    3    0    0  0.27082211756E+02  0.20651697832E+02 -0.54439903904E+03  0.54546333747E+03  0.00000000000E+00 0. -1.
        -13    1    3    3    0    0 -0.12965384284E+02 -0.21410962606E+02 -0.50482361181E+02  0.56347132134E+02  0.00000000000E+00 0.  1.
         22    1    1    2    0    0 -0.14116827472E+02  0.75926477459E+00 -0.27939140268E+02  0.31312247759E+02  0.00000000000E+00 0. -1.
<mgrwt>
<rscale>  0 0.57159386E+02</rscale>
<asrwt>0</asrwt>
<pdfrwt beam="1">  1        4 0.96610954E-01 0.91060205E+02</pdfrwt>
<pdfrwt beam="2">  1       -4 0.79247568E-03 0.91060205E+02</pdfrwt>
<totfact> 0.57011958E+03</totfact>
</mgrwt>
</event>
<event>
 6    1  0.3075717E-002  0.9246890E+02  0.7546771E-02  0.1391540E+00
         -2   -1    0    0    0  501 -0.00000000000E+00  0.00000000000E+00  0.69779389206E+01  0.69779389206E+01  0.00000000000E+00 0.  1.
          2   -1    0    0  501    0  0.00000000000E+00 -0.00000000000E+00 -0.18393571067E+04  0.18393571067E+04  0.00000000000E+00 0. -1.
         23    2    1    2    0    0  0.17844457850E+02 -0.31647081483E+01 -0.18240455679E+04  0.18263878919E+04  0.90675564864E+02 0.  0.
         13    1    3    3    0    0  0.22380700953E+00 -0.82946871436E+01 -0.17527036687E+04  0.17527233103E+04  0.00000000000E+00 0. -1.
        -13    1    3    3    0    0  0.17620650840E+02  0.51299789953E+01 -0.71341899136E+02  0.73664581672E+02  0.00000000000E+00 0.  1.
         22    1    1    2    0    0 -0.17844457850E+02  0.31647081483E+01 -0.83335999377E+01  0.19947153720E+02  0.00000000000E+00 0.  1.
<mgrwt>
<rscale>  0 0.61525308E+02</rscale>
<asrwt>0</asrwt>
<pdfrwt beam="1">  1        2 0.28297767E+00 0.92468904E+02</pdfrwt>
<pdfrwt beam="2">  1       -2 0.10735304E-02 0.92468904E+02</pdfrwt>
<totfact> 0.16531171E+04</totfact>
</mgrwt>
</event>
<event>
 6    1  0.3075717E-002  0.9304323E+02  0.7546771E-02  0.1422422E+00
         -3   -1    0    0    0  501 -0.00000000000E+00  0.00000000000E+00  0.89912469662E+01  0.89912469662E+01  0.00000000000E+00 0.  1.
          3   -1    0    0  501    0  0.00000000000E+00 -0.00000000000E+00 -0.30736780822E+03  0.30736780822E+03  0.00000000000E+00 0. -1.
         23    2    1    2    0    0 -0.98011527193E+01 -0.49104332057E+01 -0.27888274288E+03  0.29399426357E+03  0.92395171906E+02 0.  0.
         13    1    3    3    0    0 -0.26912005793E+02  0.75214934538E+01 -0.20277192688E+02  0.34525258332E+02  0.00000000000E+00 0.  1.
        -13    1    3    3    0    0  0.17110853074E+02 -0.12431926660E+02 -0.25860555019E+03  0.25946900524E+03  0.00000000000E+00 0. -1.
         22    1    1    2    0    0  0.98011527193E+01  0.49104332057E+01 -0.19493818375E+02  0.22364791609E+02  0.00000000000E+00 0.  1.
<mgrwt>
<rscale>  0 0.54511776E+02</rscale>
<asrwt>0</asrwt>
<pdfrwt beam="1">  1        3 0.47287354E-01 0.93043230E+02</pdfrwt>
<pdfrwt beam="2">  1       -3 0.13832688E-02 0.93043230E+02</pdfrwt>
<totfact> 0.15454779E+04</totfact>
</mgrwt>
</event>
<event>
 6    1  0.3075717E-002  0.9234473E+02  0.7546771E-02  0.1386047E+00
         -2   -1    0    0    0  501 -0.00000000000E+00  0.00000000000E+00  0.28612520021E+02  0.28612520021E+02  0.00000000000E+00 0.  1.
          2   -1    0    0  501    0  0.00000000000E+00 -0.00000000000E+00 -0.16065873899E+03  0.16065873899E+03  0.00000000000E+00 0. -1.
         23    2    1    2    0    0 -0.28131009755E+00 -0.19876640402E+02 -0.14012223365E+03  0.16781474526E+03  0.90179756021E+02 0.  0.
         11    1    3    3    0    0  0.38102272441E+02 -0.21773070604E+02 -0.35785653728E+02  0.56625637139E+02  0.00000000000E+00 0.  1.
        -11    1    3    3    0    0 -0.38383582538E+02  0.18964302019E+01 -0.10433657992E+03  0.11118910812E+03  0.00000000000E+00 0. -1.
         22    1    1    2    0    0  0.28131009755E+00  0.19876640402E+02  0.80760146804E+01  0.21456513747E+02  0.00000000000E+00 0.  1.
<mgrwt>
<rscale>  0 0.62900731E+02</rscale>
<asrwt>0</asrwt>
<pdfrwt beam="1">  1        2 0.24716729E-01 0.92344726E+02</pdfrwt>
<pdfrwt beam="2">  1       -2 0.44019263E-02 0.92344726E+02</pdfrwt>
<totfact> 0.45190147E+04</totfact>
</mgrwt>
</event>
<event>
 6    1  0.3075717E-002  0.9651519E+02  0.7546771E-02  0.1370391E+00
          1   -1    0    0  501    0  0.00000000000E+00  0.00000000000E+00  0.28920687225E+02  0.28920687225E+02  0.00000000000E+00 0. -1.
         -1   -1    0    0    0  501 -0.00000000000E+00 -0.00000000000E+00 -0.12582922093E+03  0.12582922093E+03  0.00000000000E+00 0.  1.
         23    2    1    2    0    0 -0.22201645401E+02 -0.36022387057E+01 -0.67731532055E+02  0.11790989448E+03  0.93857837179E+02 0.  0.
         13    1    3    3    0    0 -0.50529277782E+02 -0.14091211731E+02 -0.70163148977E+02  0.87605009193E+02  0.00000000000E+00 0.  1.
        -13    1    3    3    0    0  0.28327632381E+02  0.10488973026E+02  0.24316169227E+01  0.30304885288E+02  0.00000000000E+00 0. -1.
         22    1    1    2    0    0  0.22201645401E+02  0.36022387057E+01 -0.29177001646E+02  0.36840013671E+02  0.00000000000E+00 0. -1.
<mgrwt>
<rscale>  0 0.67058478E+02</rscale>
<asrwt>0</asrwt>
<pdfrwt beam="1">  1        1 0.44493365E-02 0.96515195E+02</pdfrwt>
<pdfrwt beam="2">  1       -1 0.19358342E-01 0.96515195E+02</pdfrwt>
<totfact> 0.36464042E+04</totfact>
</mgrwt>
</event>
<event>
 6    1  0.3075717E-002  0.8381972E+02  0.7546771E-02  0.1439007E+00
         -4   -1    0    0    0  501 -0.00000000000E+00  0.00000000000E+00  0.10076786524E+02  0.10076786524E+02  0.00000000000E+00 0. -1.
          4   -1    0    0  501    0  0.00000000000E+00 -0.00000000000E+00 -0.22622492218E+03  0.22622492218E+03  0.00000000000E+00 0.  1.
         23    2    1    2    0    0 -0.10601806445E+02  0.48621050499E+01 -0.18876467755E+03  0.20653776839E+03  0.83004264433E+02 0.  0.
         11    1    3    3    0    0  0.20865017964E+02  0.34199961900E+02 -0.77435413319E+02  0.87185030851E+02  0.00000000000E+00 0. -1.
        -11    1    3    3    0    0 -0.31466824409E+02 -0.29337856850E+02 -0.11132926423E+03  0.11935273753E+03  0.00000000000E+00 0.  1.
         22    1    1    2    0    0  0.10601806445E+02 -0.48621050499E+01 -0.27383458107E+02  0.29763940319E+02  0.00000000000E+00 0. -1.
<mgrwt>
<rscale>  0 0.51193798E+02</rscale>
<asrwt>0</asrwt>
<pdfrwt beam="1">  1        4 0.34803835E-01 0.83819725E+02</pdfrwt>
<pdfrwt beam="2">  1       -4 0.15502748E-02 0.83819725E+02</pdfrwt>
<totfact> 0.16924523E+04</totfact>
</mgrwt>
</event>
<event>
 6    1  0.3075717E-002  0.9340999E+02  0.7546771E-02  0.1388958E+00
         -2   -1    0    0    0  501 -0.00000000000E+00  0.00000000000E+00  0.31160470909E+02  0.31160470909E+02  0.00000000000E+00 0. -1.
          2   -1    0    0  501    0  0.00000000000E+00 -0.00000000000E+00 -0.10498286636E+03  0.10498286636E+03  0.00000000000E+00 0.  1.
         23    2    1    2    0    0  0.13932396179E+02 -0.11904047035E+02 -0.71577987076E+02  0.11768106850E+03  0.91594801439E+02 0.  0.
         13    1    3    3    0    0 -0.26634230041E+02 -0.32095626690E+02 -0.55872426726E+02  0.69722589816E+02  0.00000000000E+00 0.  1.
        -13    1    3    3    0    0  0.40566626221E+02  0.20191579655E+02 -0.15705560351E+02  0.47958478685E+02  0.00000000000E+00 0. -1.
         22    1    1    2    0    0 -0.13932396179E+02  0.11904047035E+02 -0.22444083755E+01  0.18462268768E+02  0.00000000000E+00 0. -1.
<mgrwt>
<rscale>  0 0.62166724E+02</rscale>
<asrwt>0</asrwt>
<pdfrwt beam="1">  1        2 0.16151210E-01 0.93409987E+02</pdfrwt>
<pdfrwt beam="2">  1       -2 0.47939187E-02 0.93409987E+02</pdfrwt>
<totfact> 0.64195388E+04</totfact>
</mgrwt>
</event>
<event>
 6    1  0.3075717E-002  0.9357781E+02  0.7546771E-02  0.1380374E+00
          2   -1    0    0  501    0  0.00000000000E+00  0.00000000000E+00  0.67662888195E+02  0.67662888195E+02  0.00000000000E+00 0. -1.
         -2   -1    0    0    0  501 -0.00000000000E+00 -0.00000000000E+00 -0.50677852663E+02  0.50677852663E+02  0.00000000000E+00 0.  1.
         23    2    1    2    0    0 -0.17580392294E+02 -0.11386622931E+02  0.23354140732E+02  0.96448028006E+02  0.91203513320E+02 0.  0.
         13    1    3    3    0    0  0.65077639540E+01 -0.47071824353E+02  0.10955594140E+00  0.47519676368E+02  0.00000000000E+00 0. -1.
        -13    1    3    3    0    0 -0.24088156248E+02  0.35685201422E+02  0.23244584791E+02  0.48928351638E+02  0.00000000000E+00 0.  1.
         22    1    1    2    0    0  0.17580392294E+02  0.11386622931E+02 -0.63691051995E+01  0.21892712852E+02  0.00000000000E+00 0.  1.
<mgrwt>
<rscale>  0 0.64365589E+02</rscale>
<asrwt>0</asrwt>
<pdfrwt beam="1">  1        2 0.10409675E-01 0.93577808E+02</pdfrwt>
<pdfrwt beam="2">  1       -2 0.77965927E-02 0.93577808E+02</pdfrwt>
<totfact> 0.51837794E+04</totfact>
</mgrwt>
</event>
<event>
 6    1  0.3075717E-002  0.9220613E+02  0.7546771E-02  0.1414112E+00
         -4   -1    0    0    0  501 -0.00000000000E+00  0.00000000000E+00  0.30872333281E+02  0.30872333281E+02  0.00000000000E+00 0.  1.
          4   -1    0    0  501    0  0.00000000000E+00 -0.00000000000E+00 -0.92141311986E+02  0.92141311986E+02  0.00000000000E+00 0. -1.
         23    2    1    2    0    0 -0.33911058710E+01  0.12346304599E+02 -0.60301307983E+02  0.11017358207E+03  0.91312866593E+02 0.  0.
         13    1    3    3    0    0  0.43244062235E+02  0.45805572872E+01 -0.38629068086E+02  0.58165585399E+02  0.00000000000E+00 0.  1.
        -13    1    3    3    0    0 -0.46635168106E+02  0.77657473117E+01 -0.21672239897E+02  0.52007996671E+02  0.00000000000E+00 0. -1.
         22    1    1    2    0    0  0.33911058710E+01 -0.12346304599E+02 -0.96767072180E+00  0.12840063197E+02  0.00000000000E+00 0.  1.
<mgrwt>
<rscale>  0 0.56286265E+02</rscale>
<asrwt>0</asrwt>
<pdfrwt beam="1">  1        4 0.14175586E-01 0.92206130E+02</pdfrwt>
<pdfrwt beam="2">  1       -4 0.47495899E-02 0.92206130E+02</pdfrwt>
<totfact> 0.15649829E+04</totfact>
</mgrwt>
</event>
<event>
 6    1  0.3075717E-002  0.9304021E+02  0.7546771E-02  0.1400770E+00
         -4   -1    0    0    0  501 -0.00000000000E+00  0.00000000000E+00  0.81679522623E+02  0.81679522623E+02  0.00000000000E+00 0.  1.
          4   -1    0    0  501    0  0.00000000000E+00 -0.00000000000E+00 -0.47870092442E+02  0.47870092442E+02  0.00000000000E+00 0. -1.
         23    2    1    2    0    0 -0.84817337522E+01 -0.12804646488E+02  0.69068980341E+00  0.93042769908E+02  0.91763724862E+02 0.  0.
         11    1    3    3    0    0 -0.66150914677E+01 -0.31418979994E+02 -0.38191048372E+02  0.49894567989E+02  0.00000000000E+00 0. -1.
        -11    1    3    3    0    0 -0.18666422845E+01  0.18614333506E+02  0.38881738176E+02  0.43148201919E+02  0.00000000000E+00 0.  1.
         22    1    1    2    0    0  0.84817337522E+01  0.12804646488E+02  0.33118740378E+02  0.36506845157E+02  0.00000000000E+00 0.  1.
<mgrwt>
<rscale>  0 0.59305328E+02</rscale>
<asrwt>0</asrwt>
<pdfrwt beam="1">  1        4 0.73646296E-02 0.93040206E+02</pdfrwt>
<pdfrwt beam="2">  1       -4 0.12566080E-01 0.93040206E+02</pdfrwt>
<totfact> 0.95167917E+03</totfact>
</mgrwt>
</event>
<event>
 6    1  0.3075717E-002  0.9398386E+02  0.7546771E-02  0.1402978E+00
         -2   -1    0    0    0  501 -0.00000000000E+00  0.00000000000E+00  0.67479989405E+01  0.67479989405E+01  0.00000000000E+00 0.  1.
          2   -1    0    0  501    0  0.00000000000E+00 -0.00000000000E+00 -0.44872228972E+03  0.44872228972E+03  0.00000000000E+00 0. -1.
         23    2    1    2    0    0 -0.14216998254E+02 -0.22278156159E+01 -0.40574433052E+03  0.41648700734E+03  0.92875612169E+02 0.  0.
         13    1    3    3    0    0 -0.12681803697E+01  0.43042335981E+02 -0.13569708402E+03  0.14236554913E+03  0.00000000000E+00 0. -1.
        -13    1    3    3    0    0 -0.12948817884E+02 -0.45270151597E+02 -0.27004724650E+03  0.27412145822E+03  0.00000000000E+00 0.  1.
         22    1    1    2    0    0  0.14216998254E+02  0.22278156159E+01 -0.36229960260E+02  0.38983281317E+02  0.00000000000E+00 0.  1.
<mgrwt>
<rscale>  0 0.58790729E+02</rscale>
<asrwt>0</asrwt>
<pdfrwt beam="1">  1        2 0.69034221E-01 0.93983858E+02</pdfrwt>
<pdfrwt beam="2">  1       -2 0.10381533E-02 0.93983858E+02</pdfrwt>
<totfact> 0.12271017E+05</totfact>
</mgrwt>
</event>
<event>
 6    1  0.3075717E-002  0.9284410E+02  0.7546771E-02  0.1394563E+00
         -2   -1    0    0    0  501 -0.00000000000E+00  0.00000000000E+00  0.58894427854E+02  0.58894427854E+02  0.00000000000E+00 0.  1.
          2   -1    0    0  501    0  0.00000000000E+00 -0.00000000000E+00 -0.17396799047E+03  0.17396799047E+03  0.00000000000E+00 0. -1.
         23    2    1    2    0    0  0.10919236719E+01  0.17023857198E+02 -0.15989984293E+03  0.18489993905E+03  0.91263484923E+02 0.  0.
         11    1    3    3    0    0 -0.15244021212E+02  0.24404353684E+02 -0.16400502993E+03  0.16651006728E+03  0.00000000000E+00 0. -1.
        -11    1    3    3    0    0  0.16335944884E+02 -0.73804964855E+01  0.41051869986E+01  0.18389871776E+02  0.00000000000E+00 0.  1.
         22    1    1    2    0    0 -0.10919236719E+01 -0.17023857198E+02  0.44826280316E+02  0.47962479274E+02  0.00000000000E+00 0.  1.
<mgrwt>
<rscale>  0 0.60785938E+02</rscale>
<asrwt>0</asrwt>
<pdfrwt beam="1">  1        2 0.26764306E-01 0.92844104E+02</pdfrwt>
<pdfrwt beam="2">  1       -2 0.90606813E-02 0.92844104E+02</pdfrwt>
<totfact> 0.13970508E+04</totfact>
</mgrwt>
</event>
<event>
 6    1  0.3075717E-002  0.1037410E+03  0.7546771E-02  0.1318670E+00
         -2   -1    0    0    0  501 -0.00000000000E+00  0.00000000000E+00  0.32490099813E+01  0.32490099813E+01  0.00000000000E+00 0.  1.
          2   -1    0    0  501    0  0.00000000000E+00 -0.00000000000E+00 -0.27331646594E+04  0.27331646594E+04  0.00000000000E+00 0. -1.
         23    2    1    2    0    0  0.21828134815E+02 -0.38336185940E+02 -0.25085984789E+04  0.25107426243E+04  0.93893910966E+02 0.  0.
         11    1    3    3    0    0 -0.40510881044E+01  0.29955006549E+02 -0.62897312742E+03  0.62969906205E+03  0.00000000000E+00 0. -1.
        -11    1    3    3    0    0  0.25879222920E+02 -0.68291192489E+02 -0.18796253515E+04  0.18810435622E+04  0.00000000000E+00 0.  1.
         22    1    1    2    0    0 -0.21828134815E+02  0.38336185940E+02 -0.22131717056E+03  0.22567104512E+03  0.00000000000E+00 0.  1.
<mgrwt>
<rscale>  0 0.83774019E+02</rscale>
<asrwt>0</asrwt>
<pdfrwt beam="1">  1        2 0.42048861E+00 0.10374101E+03</pdfrwt>
<pdfrwt beam="2">  1       -2 0.49984562E-03 0.10374101E+03</pdfrwt>
<totfact> 0.16859053E+04</totfact>
</mgrwt>
</event>
<event>
 6    1  0.3075717E-002  0.9373049E+02  0.7546771E-02  0.1385563E+00
          2   -1    0    0  501    0  0.00000000000E+00  0.00000000000E+00  0.23430321421E+03  0.23430321421E+03  0.00000000000E+00 0. -1.
         -2   -1    0    0    0  501 -0.00000000000E+00 -0.00000000000E+00 -0.35508478004E+02  0.35508478004E+02  0.00000000000E+00 0.  1.
         23    2    1    2    0    0  0.34029611676E+01 -0.18854574442E+02  0.22125504532E+03  0.24028982562E+03  0.91751458263E+02 0.  0.
         11    1    3    3    0    0  0.51565163495E+01 -0.26108614648E+02  0.92816186773E+01  0.28185064573E+02  0.00000000000E+00 0.  1.
        -11    1    3    3    0    0 -0.17535551820E+01  0.72540402060E+01  0.21197342664E+03  0.21210476105E+03  0.00000000000E+00 0. -1.
         22    1    1    2    0    0 -0.34029611676E+01  0.18854574442E+02 -0.22460309112E+02  0.29521866599E+02  0.00000000000E+00 0.  1.
<mgrwt>
<rscale>  0 0.63023866E+02</rscale>
<asrwt>0</asrwt>
<pdfrwt beam="1">  1        2 0.36046648E-01 0.93730492E+02</pdfrwt>
<pdfrwt beam="2">  1       -2 0.54628429E-02 0.93730492E+02</pdfrwt>
<totfact> 0.21922938E+04</totfact>
</mgrwt>
</event>
<event>
 6    1  0.3075717E-002  0.8946081E+02  0.7546771E-02  0.1432271E+00
          2   -1    0    0  501    0  0.00000000000E+00  0.00000000000E+00  0.13265348237E+02  0.13265348237E+02  0.00000000000E+00 0. -1.
         -2   -1    0    0    0  501 -0.00000000000E+00 -0.00000000000E+00 -0.19177377682E+03  0.19177377682E+03  0.00000000000E+00 0.  1.
         23    2    1    2    0    0 -0.10582930743E+02 -0.83848692651E+00 -0.15043526968E+03  0.17502573247E+03  0.88828684450E+02 0.  0.
         11    1    3    3    0    0 -0.21927988153E+02 -0.15488342047E+02 -0.15385844051E+03  0.15618305004E+03  0.00000000000E+00 0.  1.
        -11    1    3    3    0    0  0.11345057410E+02  0.14649855121E+02  0.34231708325E+01  0.18842682432E+02  0.00000000000E+00 0. -1.
         22    1    1    2    0    0  0.10582930743E+02  0.83848692651E+00 -0.28073158911E+02  0.30013392589E+02  0.00000000000E+00 0.  1.
<mgrwt>
<rscale>  0 0.52506833E+02</rscale>
<asrwt>0</asrwt>
<pdfrwt beam="1">  1        2 0.20408227E-02 0.89460811E+02</pdfrwt>
<pdfrwt beam="2">  1       -2 0.29503660E-01 0.89460811E+02</pdfrwt>
<totfact> 0.48136079E+04</totfact>
</mgrwt>
</event>
<event>
 6    1  0.3075717E-002  0.9197640E+02  0.7546771E-02  0.1398985E+00
          1   -1    0    0  501    0  0.00000000000E+00  0.00000000000E+00  0.37764974140E+02  0.37764974140E+02  0.00000000000E+00 0. -1.
         -1   -1    0    0    0  501 -0.00000000000E+00 -0.00000000000E+00 -0.84193813654E+02  0.84193813654E+02  0.00000000000E+00 0.  1.
         23    2    1    2    0    0 -0.32658912062E+01  0.16024648913E+02 -0.25591910829E+02  0.95470431575E+02  0.90510783816E+02 0.  0.
         13    1    3    3    0    0 -0.23051680637E+02  0.38243481475E+02  0.13217998570E+02  0.46568866657E+02  0.00000000000E+00 0. -1.
        -13    1    3    3    0    0  0.19785789431E+02 -0.22218832562E+02 -0.38809909399E+02  0.48901564918E+02  0.00000000000E+00 0.  1.
         22    1    1    2    0    0  0.32658912062E+01 -0.16024648913E+02 -0.20836928685E+02  0.26488356219E+02  0.00000000000E+00 0.  1.
<mgrwt>
<rscale>  0 0.59726039E+02</rscale>
<asrwt>0</asrwt>
<pdfrwt beam="1">  1        1 0.58099961E-02 0.91976396E+02</pdfrwt>
<pdfrwt beam="2">  1       -1 0.12952894E-01 0.91976396E+02</pdfrwt>
<totfact> 0.47260695E+04</totfact>
</mgrwt>
</event>
<event>
 6    1  0.3075717E-002  0.9600738E+02  0.7546771E-02  0.1355161E+00
          2   -1    0    0  501    0  0.00000000000E+00  0.00000000000E+00  0.14359328318E+03  0.14359328318E+03  0.00000000000E+00 0. -1.
         -2   -1    0    0    0  501 -0.00000000000E+00 -0.00000000000E+00 -0.50049977120E+02  0.50049977120E+02  0.00000000000E+00 0.  1.
         23    2    1    2    0    0 -0.66672308454E+01 -0.28721634143E+02  0.12024041545E+03  0.15386738967E+03  0.91367564599E+02 0.  0.
         11    1    3    3    0    0 -0.22480993963E+02 -0.39040430517E+02  0.12625360493E+03  0.13405044969E+03  0.00000000000E+00 0. -1.
        -11    1    3    3    0    0  0.15813763117E+02  0.10318796374E+02 -0.60131894756E+01  0.19816939981E+02  0.00000000000E+00 0.  1.
         22    1    1    2    0    0  0.66672308454E+01  0.28721634143E+02 -0.26697109388E+02  0.39775870634E+02  0.00000000000E+00 0.  1.
<mgrwt>
<rscale>  0 0.71471010E+02</rscale>
<asrwt>0</asrwt>
<pdfrwt beam="1">  1        2 0.22091274E-01 0.96007375E+02</pdfrwt>
<pdfrwt beam="2">  1       -2 0.76999966E-02 0.96007375E+02</pdfrwt>
<totfact> 0.22199707E+04</totfact>
</mgrwt>
</event>
<event>
 6    1  0.3075717E-002  0.1015893E+03  0.7546771E-02  0.1323646E+00
          1   -1    0    0  501    0  0.00000000000E+00  0.00000000000E+00  0.53440928127E+03  0.53440928127E+03  0.00000000000E+00 0. -1.
         -1   -1    0    0    0  501 -0.00000000000E+00 -0.00000000000E+00 -0.11955945497E+02  0.11955945497E+02  0.00000000000E+00 0.  1.
         23    2    1    2    0    0 -0.42768637040E+02 -0.43420498710E+01  0.45629391005E+03  0.46746605489E+03  0.92045480129E+02 0.  0.
         11    1    3    3    0    0 -0.18697768383E+02  0.24928192813E+02  0.46817041827E+02  0.56239281155E+02  0.00000000000E+00 0.  1.
        -11    1    3    3    0    0 -0.24070868656E+02 -0.29270242684E+02  0.40947686822E+03  0.41122677373E+03  0.00000000000E+00 0. -1.
         22    1    1    2    0    0  0.42768637040E+02  0.43420498710E+01  0.66159425724E+02  0.78899171881E+02  0.00000000000E+00 0.  1.
<mgrwt>
<rscale>  0 0.81935841E+02</rscale>
<asrwt>0</asrwt>
<pdfrwt beam="1">  1        1 0.82216794E-01 0.10158927E+03</pdfrwt>
<pdfrwt beam="2">  1       -1 0.18393766E-02 0.10158927E+03</pdfrwt>
<totfact> 0.29060885E+04</totfact>
</mgrwt>
</event>
<event>
 6    1  0.3075717E-002  0.9211409E+02  0.7546771E-02  0.1425052E+00
         -2   -1    0    0    0  501 -0.00000000000E+00  0.00000000000E+00  0.39246463253E+01  0.39246463253E+01  0.00000000000E+00 0.  1.
          2   -1    0    0  501    0  0.00000000000E+00 -0.00000000000E+00 -0.67840555548E+03  0.67840555548E+03  0.00000000000E+00 0. -1.
         23    2    1    2    0    0 -0.88341499488E+01  0.63026779268E+01 -0.61631208086E+03  0.62315775434E+03  0.91472617871E+02 0.  0.
         11    1    3    3    0    0 -0.25898715592E+02 -0.21184275642E+02 -0.52878603056E+03  0.52984354589E+03  0.00000000000E+00 0. -1.
        -11    1    3    3    0    0  0.17064565643E+02  0.27486953569E+02 -0.87526050302E+02  0.93314208450E+02  0.00000000000E+00 0.  1.
         22    1    1    2    0    0  0.88341499488E+01 -0.63026779268E+01 -0.58168828290E+02  0.59172447465E+02  0.00000000000E+00 0.  1.
<mgrwt>
<rscale>  0 0.53966223E+02</rscale>
<asrwt>0</asrwt>
<pdfrwt beam="1">  1        2 0.10436999E+00 0.92114091E+02</pdfrwt>
<pdfrwt beam="2">  1       -2 0.60379230E-03 0.92114091E+02</pdfrwt>
<totfact> 0.16655188E+05</totfact>
</mgrwt>
</event>
<event>
 6    1  0.3075717E-002  0.8106807E+02  0.7546771E-02  0.1442490E+00
          1   -1    0    0  501    0  0.00000000000E+00  0.00000000000E+00  0.49240392045E+02  0.49240392045E+02  0.00000000000E+00 0. -1.
         -1   -1    0    0    0  501 -0.00000000000E+00 -0.00000000000E+00 -0.54538507753E+02  0.54538507753E+02  0.00000000000E+00 0.  1.
         23    2    1    2    0    0 -0.45493718077E+01 -0.11361698590E+02  0.12656206717E+02  0.82050055549E+02  0.80138923554E+02 0.  0.
         13    1    3    3    0    0  0.18142343251E+02 -0.81716066470E+01  0.41017144153E+02  0.45588659646E+02  0.00000000000E+00 0. -1.
        -13    1    3    3    0    0 -0.22691715059E+02 -0.31900919429E+01 -0.28360937437E+02  0.36461395903E+02  0.00000000000E+00 0.  1.
         22    1    1    2    0    0  0.45493718077E+01  0.11361698590E+02 -0.17954322425E+02  0.21728844249E+02  0.00000000000E+00 0.  1.
<mgrwt>
<rscale>  0 0.50532515E+02</rscale>
<asrwt>0</asrwt>
<pdfrwt beam="1">  1        1 0.75754450E-02 0.81068070E+02</pdfrwt>
<pdfrwt beam="2">  1       -1 0.83905396E-02 0.81068070E+02</pdfrwt>
<totfact> 0.62765787E+04</totfact>
</mgrwt>
</event>
<event>
 6    1  0.3075717E-002  0.9068048E+02  0.7546771E-02  0.1433254E+00
          2   -1    0    0  501    0  0.00000000000E+00  0.00000000000E+00  0.81318149868E+03  0.81318149868E+03  0.00000000000E+00 0. -1.
         -2   -1    0    0    0  501 -0.00000000000E+00 -0.00000000000E+00 -0.33326843259E+01  0.33326843259E+01  0.00000000000E+00 0.  1.
         23    2    1    2    0    0 -0.98364914524E+01  0.20272445392E+01  0.77370770391E+03  0.77900356919E+03  0.90122602274E+02 0.  0.
         11    1    3    3    0    0  0.97717395960E+01  0.12236696192E+02  0.22181085668E+02  0.27151872676E+02  0.00000000000E+00 0.  1.
        -11    1    3    3    0    0 -0.19608231048E+02 -0.10209451653E+02  0.75152661824E+03  0.75185169651E+03  0.00000000000E+00 0. -1.
         22    1    1    2    0    0  0.98364914524E+01 -0.20272445392E+01  0.36141110445E+02  0.37510613814E+02  0.00000000000E+00 0. -1.
<mgrwt>
<rscale>  0 0.52312276E+02</rscale>
<asrwt>0</asrwt>
<pdfrwt beam="1">  1        2 0.12510469E+00 0.90680482E+02</pdfrwt>
<pdfrwt beam="2">  1       -2 0.51272131E-03 0.90680482E+02</pdfrwt>
<totfact> 0.16844992E+05</totfact>
</mgrwt>
</event>
<event>
 6    1  0.3075717E-002  0.9144377E+02  0.7546771E-02  0.1419687E+00
          2   -1    0    0  501    0  0.00000000000E+00  0.00000000000E+00  0.17786024547E+04  0.17786024547E+04  0.00000000000E+00 0. -1.
         -2   -1    0    0    0  501 -0.00000000000E+00 -0.00000000000E+00 -0.23615157770E+01  0.23615157770E+01  0.00000000000E+00 0.  1.
         23    2    1    2    0    0 -0.40750616910E+01 -0.11332793660E+02  0.17462882096E+04  0.17486807808E+04  0.90647249978E+02 0.  0.
         11    1    3    3    0    0  0.17825290053E+02 -0.35798309100E+02  0.40040852938E+03  0.40240060922E+03  0.00000000000E+00 0.  1.
        -11    1    3    3    0    0 -0.21900351744E+02  0.24465515440E+02  0.13458796802E+04  0.13462801716E+04  0.00000000000E+00 0. -1.
         22    1    1    2    0    0  0.40750616910E+01  0.11332793660E+02  0.29952729381E+02  0.32283189701E+02  0.00000000000E+00 0.  1.
<mgrwt>
<rscale>  0 0.55087229E+02</rscale>
<asrwt>0</asrwt>
<pdfrwt beam="1">  1        2 0.27363008E+00 0.91443766E+02</pdfrwt>
<pdfrwt beam="2">  1       -2 0.36331154E-03 0.91443766E+02</pdfrwt>
<totfact> 0.81290727E+04</totfact>
</mgrwt>
</event>
<event>
 6    1  0.3075717E-002  0.9833214E+02  0.7546771E-02  0.1347026E+00
         -2   -1    0    0    0  501 -0.00000000000E+00  0.00000000000E+00  0.44051939017E+01  0.44051939017E+01  0.00000000000E+00 0.  1.
          2   -1    0    0  501    0  0.00000000000E+00 -0.00000000000E+00 -0.97507478038E+03  0.97507478038E+03  0.00000000000E+00 0. -1.
         23    2    1    2    0    0 -0.31417550523E+02  0.25640464452E+01 -0.78785251895E+03  0.79396523904E+03  0.93142752593E+02 0.  0.
         13    1    3    3    0    0  0.33949003718E+01  0.42531251460E+02 -0.44489280063E+03  0.44693404071E+03  0.00000000000E+00 0.  1.
        -13    1    3    3    0    0 -0.34812450895E+02 -0.39967205014E+02 -0.34295971833E+03  0.34703119832E+03  0.00000000000E+00 0. -1.
         22    1    1    2    0    0  0.31417550523E+02 -0.25640464452E+01 -0.18281706753E+03  0.18551473525E+03  0.00000000000E+00 0.  1.
<mgrwt>
<rscale>  0 0.73990348E+02</rscale>
<asrwt>0</asrwt>
<pdfrwt beam="1">  1        2 0.15001136E+00 0.98332137E+02</pdfrwt>
<pdfrwt beam="2">  1       -2 0.67772278E-03 0.98332137E+02</pdfrwt>
<totfact> 0.91195998E+04</totfact>
</mgrwt>
</event>
<event>
 6    1  0.3075717E-002  0.9137850E+02  0.7546771E-02  0.1404041E+00
         -2   -1    0    0    0  501 -0.00000000000E+00  0.00000000000E+00  0.44867769492E+01  0.44867769492E+01  0.00000000000E+00 0.  1.
          2   -1    0    0  501    0  0.00000000000E+00 -0.00000000000E+00 -0.85511096336E+03  0.85511096336E+03  0.00000000000E+00 0. -1.
         23    2    1    2    0    0  0.12270953968E+02 -0.92996370538E+01 -0.82227921995E+03  0.82734100948E+03  0.90072031356E+02 0.  0.
         13    1    3    3    0    0  0.22837424758E+02 -0.38091578686E+02 -0.22885067426E+03  0.23312045695E+03  0.00000000000E+00 0. -1.
        -13    1    3    3    0    0 -0.10566470790E+02  0.28791941632E+02 -0.59342854569E+03  0.59422055253E+03  0.00000000000E+00 0.  1.
         22    1    1    2    0    0 -0.12270953968E+02  0.92996370538E+01 -0.28344966462E+02  0.32256730838E+02  0.00000000000E+00 0.  1.
<mgrwt>
<rscale>  0 0.58545053E+02</rscale>
<asrwt>0</asrwt>
<pdfrwt beam="1">  1        2 0.13155557E+00 0.91378501E+02</pdfrwt>
<pdfrwt beam="2">  1       -2 0.69027320E-03 0.91378501E+02</pdfrwt>
<totfact> 0.10433964E+05</totfact>
</mgrwt>
</event>
<event>
 6    1  0.3075717E-002  0.1052493E+03  0.7546771E-02  0.1320769E+00
         -1   -1    0    0    0  501 -0.00000000000E+00  0.00000000000E+00  0.63342116031E+02  0.63342116031E+02  0.00000000000E+00 0.  1.
          1   -1    0    0  501    0  0.00000000000E+00 -0.00000000000E+00 -0.86251752690E+02  0.86251752690E+02  0.00000000000E+00 0. -1.
         23    2    1    2    0    0  0.11532106507E+02  0.39021296918E+02 -0.56674938580E+01  0.10540175877E+03  0.97065746642E+02 0.  0.
         13    1    3    3    0    0 -0.52161625466E+01  0.64344074346E+02  0.17873694352E+02  0.66983857794E+02  0.00000000000E+00 0.  1.
        -13    1    3    3    0    0  0.16748269054E+02 -0.25322777428E+02 -0.23541188210E+02  0.38417900974E+02  0.00000000000E+00 0. -1.
         22    1    1    2    0    0 -0.11532106507E+02 -0.39021296918E+02 -0.17242142801E+02  0.44192109952E+02  0.00000000000E+00 0.  1.
<mgrwt>
<rscale>  0 0.82991849E+02</rscale>
<asrwt>0</asrwt>
<pdfrwt beam="1">  1        1 0.13269500E-01 0.10524928E+03</pdfrwt>
<pdfrwt beam="2">  1       -1 0.97449410E-02 0.10524928E+03</pdfrwt>
<totfact> 0.24913512E+04</totfact>
</mgrwt>
</event>
<event>
 6    1  0.3075717E-002  0.1266888E+03  0.7546771E-02  0.1285037E+00
         -2   -1    0    0    0  501 -0.00000000000E+00  0.00000000000E+00  0.39914747170E+02  0.39914747170E+02  0.00000000000E+00 0.  1.
          2   -1    0    0  501    0  0.00000000000E+00 -0.00000000000E+00 -0.19356681141E+03  0.19356681141E+03  0.00000000000E+00 0. -1.
         23    2    1    2    0    0 -0.44236970974E+02  0.79980345382E+01 -0.13403739062E+03  0.18443450384E+03  0.11844486467E+03 0.  0.
         13    1    3    3    0    0 -0.62879134154E+02  0.70897733689E+01 -0.14810902339E+03  0.16106002983E+03  0.00000000000E+00 0. -1.
        -13    1    3    3    0    0  0.18642163180E+02  0.90826116930E+00  0.14071632774E+02  0.23374474012E+02  0.00000000000E+00 0.  1.
         22    1    1    2    0    0  0.44236970974E+02 -0.79980345382E+01 -0.19614673625E+02  0.49047054742E+02  0.00000000000E+00 0.  1.
<mgrwt>
<rscale>  0 0.97779161E+02</rscale>
<asrwt>0</asrwt>
<pdfrwt beam="1">  1        2 0.29779509E-01 0.12668885E+03</pdfrwt>
<pdfrwt beam="2">  1       -2 0.61407304E-02 0.12668885E+03</pdfrwt>
<totfact> 0.23269472E+04</totfact>
</mgrwt>
</event>
<event>
 6    1  0.3075717E-002  0.9399566E+02  0.7546771E-02  0.1381771E+00
          2   -1    0    0  501    0  0.00000000000E+00  0.00000000000E+00  0.48725537380E+02  0.48725537380E+02  0.00000000000E+00 0. -1.
         -2   -1    0    0    0  501 -0.00000000000E+00 -0.00000000000E+00 -0.75342415368E+02  0.75342415368E+02  0.00000000000E+00 0.  1.
         23    2    1    2    0    0  0.13237461558E+02 -0.15261796006E+02 -0.44862249189E+01  0.94102662643E+02  0.91798867622E+02 0.  0.
         11    1    3    3    0    0  0.27335332515E+02  0.18887545927E+02  0.29104184753E+02  0.44170276941E+02  0.00000000000E+00 0. -1.
        -11    1    3    3    0    0 -0.14097870958E+02 -0.34149341933E+02 -0.33590409672E+02  0.49932385702E+02  0.00000000000E+00 0.  1.
         22    1    1    2    0    0 -0.13237461558E+02  0.15261796006E+02 -0.22130653069E+02  0.29965290105E+02  0.00000000000E+00 0. -1.
<mgrwt>
<rscale>  0 0.64000551E+02</rscale>
<asrwt>0</asrwt>
<pdfrwt beam="1">  1        2 0.74962365E-02 0.93995664E+02</pdfrwt>
<pdfrwt beam="2">  1       -2 0.11591141E-01 0.93995664E+02</pdfrwt>
<totfact> 0.41984382E+04</totfact>
</mgrwt>
</event>
<event>
 6    1  0.3075717E-002  0.1007439E+03  0.7546771E-02  0.1327734E+00
         -2   -1    0    0    0  501 -0.00000000000E+00  0.00000000000E+00  0.71674850110E+01  0.71674850110E+01  0.00000000000E+00 0.  1.
          2   -1    0    0  501    0  0.00000000000E+00 -0.00000000000E+00 -0.22329620129E+04  0.22329620129E+04  0.00000000000E+00 0. -1.
         23    2    1    2    0    0 -0.32673800843E+02  0.24769241463E+02 -0.21616772269E+04  0.21640235135E+04  0.92023045292E+02 0.  0.
         11    1    3    3    0    0  0.11203214675E+02  0.33722603836E+02 -0.35132598281E+03  0.35311849601E+03  0.00000000000E+00 0.  1.
        -11    1    3    3    0    0 -0.43877015519E+02 -0.89533623724E+01 -0.18103512441E+04  0.18109050175E+04  0.00000000000E+00 0. -1.
         22    1    1    2    0    0  0.32673800843E+02 -0.24769241463E+02 -0.64117300944E+02  0.76105984420E+02  0.00000000000E+00 0.  1.
<mgrwt>
<rscale>  0 0.80466113E+02</rscale>
<asrwt>0</asrwt>
<pdfrwt beam="1">  1        2 0.34353264E+00 0.10074390E+03</pdfrwt>
<pdfrwt beam="2">  1       -2 0.11026899E-02 0.10074390E+03</pdfrwt>
<totfact> 0.10103589E+04</totfact>
</mgrwt>
</event>
<event>
 6    1  0.3075717E-002  0.9299030E+02  0.7546771E-02  0.1415859E+00
         -2   -1    0    0    0  501 -0.00000000000E+00  0.00000000000E+00  0.13491952049E+02  0.13491952049E+02  0.00000000000E+00 0.  1.
          2   -1    0    0  501    0  0.00000000000E+00 -0.00000000000E+00 -0.27090515745E+03  0.27090515745E+03  0.00000000000E+00 0. -1.
         23    2    1    2    0    0  0.48182416748E+01  0.11152708506E+02 -0.25575475799E+03  0.27213542904E+03  0.92193259738E+02 0.  0.
         11    1    3    3    0    0  0.37936374344E+02 -0.12507885066E+02 -0.19471440753E+03  0.19876950517E+03  0.00000000000E+00 0. -1.
        -11    1    3    3    0    0 -0.33118132669E+02  0.23660593572E+02 -0.61040350464E+02  0.73365923864E+02  0.00000000000E+00 0.  1.
         22    1    1    2    0    0 -0.48182416748E+01 -0.11152708506E+02 -0.16584474047E+01  0.12261680458E+02  0.00000000000E+00 0.  1.
<mgrwt>
<rscale>  0 0.55906644E+02</rscale>
<asrwt>0</asrwt>
<pdfrwt beam="1">  1        2 0.41677715E-01 0.92990298E+02</pdfrwt>
<pdfrwt beam="2">  1       -2 0.20756850E-02 0.92990298E+02</pdfrwt>
<totfact> 0.77438007E+04</totfact>
</mgrwt>
</event>
<event>
 6    1  0.3075717E-002  0.1236474E+03  0.7546771E-02  0.1256501E+00
         -1   -1    0    0    0  501 -0.00000000000E+00  0.00000000000E+00  0.84116245484E+01  0.84116245484E+01  0.00000000000E+00 0.  1.
          1   -1    0    0  501    0  0.00000000000E+00 -0.00000000000E+00 -0.15756559056E+04  0.15756559056E+04  0.00000000000E+00 0. -1.
         23    2    1    2    0    0  0.64751182174E+02  0.53373689200E+02 -0.12432283312E+04  0.12493619849E+04  0.90814202695E+02 0.  0.
         13    1    3    3    0    0  0.67419475134E+02  0.94729874410E+01 -0.99035126685E+03  0.99268864951E+03  0.00000000000E+00 0. -1.
        -13    1    3    3    0    0 -0.26682929599E+01  0.43900701759E+02 -0.25287706440E+03  0.25667333540E+03  0.00000000000E+00 0.  1.
         22    1    1    2    0    0 -0.64751182174E+02 -0.53373689200E+02 -0.32401594984E+03  0.33470554528E+03  0.00000000000E+00 0.  1.
<mgrwt>
<rscale>  0 0.11222683E+03</rscale>
<asrwt>0</asrwt>
<pdfrwt beam="1">  1        1 0.24240850E+00 0.12364742E+03</pdfrwt>
<pdfrwt beam="2">  1       -1 0.12940966E-02 0.12364742E+03</pdfrwt>
<totfact> 0.80317047E+03</totfact>
</mgrwt>
</event>
<event>
 6    1  0.3075717E-002  0.9702930E+02  0.7546771E-02  0.1412178E+00
         -4   -1    0    0    0  501 -0.00000000000E+00  0.00000000000E+00  0.23544199899E+02  0.23544199899E+02  0.00000000000E+00 0.  1.
          4   -1    0    0  501    0  0.00000000000E+00 -0.00000000000E+00 -0.13759553462E+03  0.13759553462E+03  0.00000000000E+00 0. -1.
         23    2    1    2    0    0  0.59179925150E+01  0.96530472944E+01 -0.11415043706E+03  0.14981658219E+03  0.96366394866E+02 0.  0.
         11    1    3    3    0    0 -0.23484747471E+02 -0.17643106948E+02 -0.59227866305E+00  0.29379642281E+02  0.00000000000E+00 0.  1.
        -11    1    3    3    0    0  0.29402739986E+02  0.27296154243E+02 -0.11355815840E+03  0.12043693991E+03  0.00000000000E+00 0. -1.
         22    1    1    2    0    0 -0.59179925150E+01 -0.96530472944E+01  0.99102339781E-01  0.11323152333E+02  0.00000000000E+00 0. -1.
<mgrwt>
<rscale>  0 0.56710682E+02</rscale>
<asrwt>0</asrwt>
<pdfrwt beam="1">  1        4 0.21168544E-01 0.97029305E+02</pdfrwt>
<pdfrwt beam="2">  1       -4 0.36221846E-02 0.97029305E+02</pdfrwt>
<totfact> 0.12044604E+04</totfact>
</mgrwt>
</event>
<event>
 6    1  0.3075717E-002  0.9332698E+02  0.7546771E-02  0.1396423E+00
          1   -1    0    0  501    0  0.00000000000E+00  0.00000000000E+00  0.20660681112E+02  0.20660681112E+02  0.00000000000E+00 0. -1.
         -1   -1    0    0    0  501 -0.00000000000E+00 -0.00000000000E+00 -0.17564783460E+03  0.17564783460E+03  0.00000000000E+00 0.  1.
         23    2    1    2    0    0 -0.16227481253E+02 -0.15859675414E+01 -0.91268459194E+02  0.13053680110E+03  0.91891666413E+02 0.  0.
         13    1    3    3    0    0  0.16739298170E+02  0.37220875790E+02 -0.52724276459E+02  0.66674185604E+02  0.00000000000E+00 0. -1.
        -13    1    3    3    0    0 -0.32966779423E+02 -0.38806843332E+02 -0.38544182735E+02  0.63862615493E+02  0.00000000000E+00 0.  1.
         22    1    1    2    0    0  0.16227481253E+02  0.15859675414E+01 -0.63718694294E+02  0.65771714615E+02  0.00000000000E+00 0.  1.
<mgrwt>
<rscale>  0 0.60337076E+02</rscale>
<asrwt>0</asrwt>
<pdfrwt beam="1">  1        1 0.31785664E-02 0.93326978E+02</pdfrwt>
<pdfrwt beam="2">  1       -1 0.27022743E-01 0.93326978E+02</pdfrwt>
<totfact> 0.33538837E+04</totfact>
</mgrwt>
</event>
<event>
 6    1  0.3075717E-002  0.9833841E+02  0.7546771E-02  0.1378246E+00
          2   -1    0    0  501    0  0.00000000000E+00  0.00000000000E+00  0.41378328176E+02  0.41378328176E+02  0.00000000000E+00 0. -1.
         -2   -1    0    0    0  501 -0.00000000000E+00 -0.00000000000E+00 -0.98539587641E+02  0.98539587641E+02  0.00000000000E+00 0.  1.
         23    2    1    2    0    0  0.18226321373E+02 -0.41225452657E+01 -0.23019417594E+02  0.10099671932E+03  0.96546618570E+02 0.  0.
         13    1    3    3    0    0 -0.39647143138E+01 -0.16847013337E+02  0.34194320921E+02  0.38324827478E+02  0.00000000000E+00 0. -1.
        -13    1    3    3    0    0  0.22191035687E+02  0.12724468071E+02 -0.57213738514E+02  0.62671891844E+02  0.00000000000E+00 0.  1.
         22    1    1    2    0    0 -0.18226321373E+02  0.41225452657E+01 -0.34141841871E+02  0.38921196495E+02  0.00000000000E+00 0.  1.
<mgrwt>
<rscale>  0 0.64927065E+02</rscale>
<asrwt>0</asrwt>
<pdfrwt beam="1">  1        2 0.63658967E-02 0.98338414E+02</pdfrwt>
<pdfrwt beam="2">  1       -2 0.15159937E-01 0.98338414E+02</pdfrwt>
<totfact> 0.33776632E+04</totfact>
</mgrwt>
</event>
<event>
 6    1  0.3075717E-002  0.1072983E+03  0.7546771E-02  0.1299568E+00
         -2   -1    0    0    0  501 -0.00000000000E+00  0.00000000000E+00  0.59627601671E+02  0.59627601671E+02  0.00000000000E+00 0. -1.
          2   -1    0    0  501    0  0.00000000000E+00 -0.00000000000E+00 -0.15345625077E+03  0.15345625077E+03  0.00000000000E+00 0.  1.
         23    2    1    2    0    0  0.46103989399E+02 -0.32520558681E+02 -0.11072879172E+03  0.15418750794E+03  0.91267506343E+02 0.  0.
         13    1    3    3    0    0  0.19693283627E+01 -0.26076853025E+02 -0.10618069619E+03  0.10935364997E+03  0.00000000000E+00 0.  1.
        -13    1    3    3    0    0  0.44134661036E+02 -0.64437056561E+01 -0.45480955223E+01  0.44833857967E+02  0.00000000000E+00 0. -1.
         22    1    1    2    0    0 -0.46103989399E+02  0.32520558681E+02  0.16900142615E+02  0.58896344503E+02  0.00000000000E+00 0. -1.
<mgrwt>
<rscale>  0 0.91369653E+02</rscale>
<asrwt>0</asrwt>
<pdfrwt beam="1">  1        2 0.23608654E-01 0.10729829E+03</pdfrwt>
<pdfrwt beam="2">  1       -2 0.91734773E-02 0.10729829E+03</pdfrwt>
<totfact> 0.15943383E+04</totfact>
</mgrwt>
</event>
<event>
 6    1  0.3075717E-002  0.9262684E+02  0.7546771E-02  0.1370553E+00
          2   -1    0    0  501    0  0.00000000000E+00  0.00000000000E+00  0.13511351053E+03  0.13511351053E+03  0.00000000000E+00 0. -1.
         -2   -1    0    0    0  501 -0.00000000000E+00 -0.00000000000E+00 -0.40854653313E+02  0.40854653313E+02  0.00000000000E+00 0.  1.
         23    2    1    2    0    0 -0.13080316859E+02  0.21746297775E+02  0.11174972998E+03  0.14514728153E+03  0.89082742601E+02 0.  0.
         13    1    3    3    0    0 -0.15266668220E+02 -0.29353514201E+02  0.16358593894E+02  0.36909396482E+02  0.00000000000E+00 0.  1.
        -13    1    3    3    0    0  0.21863513609E+01  0.51099811976E+02  0.95391136085E+02  0.10823788505E+03  0.00000000000E+00 0. -1.
         22    1    1    2    0    0  0.13080316859E+02 -0.21746297775E+02 -0.17490872766E+02  0.30820882307E+02  0.00000000000E+00 0.  1.
<mgrwt>
<rscale>  0 0.67013614E+02</rscale>
<asrwt>0</asrwt>
<pdfrwt beam="1">  1        2 0.20786694E-01 0.92626838E+02</pdfrwt>
<pdfrwt beam="2">  1       -2 0.62853313E-02 0.92626838E+02</pdfrwt>
<totfact> 0.32173091E+04</totfact>
</mgrwt>
</event>
<event>
 6    1  0.3075717E-002  0.1189896E+03  0.7546771E-02  0.1267233E+00
         -2   -1    0    0    0  501 -0.00000000000E+00  0.00000000000E+00  0.59184339015E+02  0.59184339015E+02  0.00000000000E+00 0.  1.
          2   -1    0    0  501    0  0.00000000000E+00 -0.00000000000E+00 -0.67946334665E+03  0.67946334665E+03  0.00000000000E+00 0. -1.
         23    2    1    2    0    0  0.29809663138E+01  0.76241925374E+02 -0.64696433878E+03  0.65781561132E+03  0.91306108793E+02 0.  0.
         13    1    3    3    0    0  0.18648908363E+02  0.92275790433E+02 -0.56725414540E+03  0.57501292921E+03  0.00000000000E+00 0. -1.
        -13    1    3    3    0    0 -0.15667942049E+02 -0.16033865059E+02 -0.79710193381E+02  0.82802682116E+02  0.00000000000E+00 0.  1.
         22    1    1    2    0    0 -0.29809663138E+01 -0.76241925374E+02  0.26685331142E+02  0.80832074345E+02  0.00000000000E+00 0.  1.
<mgrwt>
<rscale>  0 0.10647879E+03</rscale>
<asrwt>0</asrwt>
<pdfrwt beam="1">  1        2 0.10453282E+00 0.11898959E+03</pdfrwt>
<pdfrwt beam="2">  1       -2 0.91052833E-02 0.11898959E+03</pdfrwt>
<totfact> 0.32570477E+03</totfact>
</mgrwt>
</event>
<event>
 6    1  0.3075717E-002  0.9629055E+02  0.7546771E-02  0.1377444E+00
         -2   -1    0    0    0  501 -0.00000000000E+00  0.00000000000E+00  0.21964887321E+02  0.21964887321E+02  0.00000000000E+00 0.  1.
          2   -1    0    0  501    0  0.00000000000E+00 -0.00000000000E+00 -0.16516384718E+03  0.16516384718E+03  0.00000000000E+00 0. -1.
         23    2    1    2    0    0 -0.48811587508E+01 -0.19567710796E+02 -0.13388297739E+03  0.16491368226E+03  0.94154925236E+02 0.  0.
         13    1    3    3    0    0  0.35035378924E+02  0.19700564556E+02 -0.59715006104E+02  0.71982442124E+02  0.00000000000E+00 0.  1.
        -13    1    3    3    0    0 -0.39916537675E+02 -0.39268275352E+02 -0.74167971287E+02  0.92931240140E+02  0.00000000000E+00 0. -1.
         22    1    1    2    0    0  0.48811587508E+01  0.19567710796E+02 -0.93159824683E+01  0.22215052237E+02  0.00000000000E+00 0.  1.
<mgrwt>
<rscale>  0 0.65140313E+02</rscale>
<asrwt>0</asrwt>
<pdfrwt beam="1">  1        2 0.25409823E-01 0.96290555E+02</pdfrwt>
<pdfrwt beam="2">  1       -2 0.33792134E-02 0.96290555E+02</pdfrwt>
<totfact> 0.65032834E+04</totfact>
</mgrwt>
</event>
<event>
 6    1  0.3075717E-002  0.9914898E+02  0.7546771E-02  0.1372320E+00
          2   -1    0    0  501    0  0.00000000000E+00  0.00000000000E+00  0.13112288457E+03  0.13112288457E+03  0.00000000000E+00 0. -1.
         -2   -1    0    0    0  501 -0.00000000000E+00 -0.00000000000E+00 -0.28089430472E+02  0.28089430472E+02  0.00000000000E+00 0.  1.
         23    2    1    2    0    0 -0.11128001642E+02  0.16733971090E+02  0.95754492351E+02  0.13783846436E+03  0.97090994651E+02 0.  0.
         13    1    3    3    0    0  0.13529010857E+02 -0.68537185163E+01 -0.15370202834E+02  0.21592839726E+02  0.00000000000E+00 0.  1.
        -13    1    3    3    0    0 -0.24657012498E+02  0.23587689606E+02  0.11112469519E+03  0.11624562463E+03  0.00000000000E+00 0. -1.
         22    1    1    2    0    0  0.11128001642E+02 -0.16733971090E+02  0.72789617482E+01  0.21373850685E+02  0.00000000000E+00 0. -1.
<mgrwt>
<rscale>  0 0.66526517E+02</rscale>
<asrwt>0</asrwt>
<pdfrwt beam="1">  1        2 0.20172751E-01 0.99148976E+02</pdfrwt>
<pdfrwt beam="2">  1       -2 0.43214509E-02 0.99148976E+02</pdfrwt>
<totfact> 0.58674154E+04</totfact>
</mgrwt>
</event>
<event>
 6    1  0.3075717E-002  0.9261932E+02  0.7546771E-02  0.1410089E+00
          2   -1    0    0  501    0  0.00000000000E+00  0.00000000000E+00  0.50138836051E+03  0.50138836051E+03  0.00000000000E+00 0. -1.
         -2   -1    0    0    0  501 -0.00000000000E+00 -0.00000000000E+00 -0.64641472418E+01  0.64641472418E+01  0.00000000000E+00 0.  1.
         23    2    1    2    0    0  0.12749616673E+02  0.42807165519E+01  0.47410444721E+03  0.48306662632E+03  0.91637663348E+02 0.  0.
         13    1    3    3    0    0  0.24622234638E+02  0.42537411433E+02  0.19481694643E+03  0.20092119954E+03  0.00000000000E+00 0. -1.
        -13    1    3    3    0    0 -0.11872617966E+02 -0.38256694881E+02  0.27928750078E+03  0.28214542678E+03  0.00000000000E+00 0.  1.
         22    1    1    2    0    0 -0.12749616673E+02 -0.42807165519E+01  0.20819766064E+02  0.24785881434E+02  0.00000000000E+00 0.  1.
<mgrwt>
<rscale>  0 0.57174081E+02</rscale>
<asrwt>0</asrwt>
<pdfrwt beam="1">  1        2 0.77136641E-01 0.92619321E+02</pdfrwt>
<pdfrwt beam="2">  1       -2 0.99448458E-03 0.92619321E+02</pdfrwt>
<totfact> 0.11551476E+05</totfact>
</mgrwt>
</event>
<event>
 6    1  0.3075717E-002  0.1165109E+03  0.7546771E-02  0.1274503E+00
         -2   -1    0    0    0  501 -0.00000000000E+00  0.00000000000E+00  0.44807340644E+03  0.44807340644E+03  0.00000000000E+00 0.  1.
          2   -1    0    0  501    0  0.00000000000E+00 -0.00000000000E+00 -0.19812533317E+02  0.19812533317E+02  0.00000000000E+00 0. -1.
         23    2    1    2    0    0  0.54528107991E+02 -0.44890083597E+02  0.23929136738E+03  0.26614871397E+03  0.92662534396E+02 0.  0.
         11    1    3    3    0    0  0.32609508080E+02 -0.30018233655E+02  0.23520863874E+03  0.23934823607E+03  0.00000000000E+00 0.  1.
        -11    1    3    3    0    0  0.21918599911E+02 -0.14871849942E+02  0.40827286334E+01  0.26800477903E+02  0.00000000000E+00 0. -1.
         22    1    1    2    0    0 -0.54528107991E+02  0.44890083597E+02  0.18896950574E+03  0.20173722578E+03  0.00000000000E+00 0. -1.
<mgrwt>
<rscale>  0 0.10280644E+03</rscale>
<asrwt>0</asrwt>
<pdfrwt beam="1">  1        2 0.30480824E-02 0.11651086E+03</pdfrwt>
<pdfrwt beam="2">  1       -2 0.68934363E-01 0.11651086E+03</pdfrwt>
<totfact> 0.56307702E+03</totfact>
</mgrwt>
</event>
<event>
 6    1  0.3075717E-002  0.9469764E+02  0.7546771E-02  0.1361645E+00
         -1   -1    0    0    0  501 -0.00000000000E+00  0.00000000000E+00  0.14752336998E+02  0.14752336998E+02  0.00000000000E+00 0.  1.
          1   -1    0    0  501    0  0.00000000000E+00 -0.00000000000E+00 -0.26021275823E+03  0.26021275823E+03  0.00000000000E+00 0. -1.
         23    2    1    2    0    0  0.26934732897E+02  0.57719527976E+01 -0.16942899659E+03  0.19409747001E+03  0.90602691480E+02 0.  0.
         13    1    3    3    0    0 -0.58553302784E+01  0.43436814080E+02 -0.92840780554E+02  0.10266670465E+03  0.00000000000E+00 0. -1.
        -13    1    3    3    0    0  0.32790063175E+02 -0.37664861282E+02 -0.76588216038E+02  0.91430765360E+02  0.00000000000E+00 0.  1.
         22    1    1    2    0    0 -0.26934732897E+02 -0.57719527976E+01 -0.76031424645E+02  0.80867625220E+02  0.00000000000E+00 0.  1.
<mgrwt>
<rscale>  0 0.69545646E+02</rscale>
<asrwt>0</asrwt>
<pdfrwt beam="1">  1        1 0.40032729E-01 0.94697640E+02</pdfrwt>
<pdfrwt beam="2">  1       -1 0.22695905E-02 0.94697640E+02</pdfrwt>
<totfact> 0.52339091E+04</totfact>
</mgrwt>
</event>
<event>
 6    1  0.3075717E-002  0.9755406E+02  0.7546771E-02  0.1361486E+00
         -1   -1    0    0    0  501 -0.00000000000E+00  0.00000000000E+00  0.64820771105E+02  0.64820771105E+02  0.00000000000E+00 0.  1.
          1   -1    0    0  501    0  0.00000000000E+00 -0.00000000000E+00 -0.95419240177E+02  0.95419240177E+02  0.00000000000E+00 0. -1.
         23    2    1    2    0    0 -0.16410049445E+02 -0.19208889940E+02 -0.65244315562E+02  0.11736104377E+03  0.94225913140E+02 0.  0.
         11    1    3    3    0    0 -0.20773158297E+02  0.29815320701E+01  0.20107350885E+02  0.29064053377E+02  0.00000000000E+00 0.  1.
        -11    1    3    3    0    0  0.43631088520E+01 -0.22190422011E+02 -0.85351666447E+02  0.88296990397E+02  0.00000000000E+00 0. -1.
         22    1    1    2    0    0  0.16410049445E+02  0.19208889940E+02  0.34645846490E+02  0.42878967508E+02  0.00000000000E+00 0.  1.
<mgrwt>
<rscale>  0 0.69592054E+02</rscale>
<asrwt>0</asrwt>
<pdfrwt beam="1">  1        1 0.14679883E-01 0.97554056E+02</pdfrwt>
<pdfrwt beam="2">  1       -1 0.99724264E-02 0.97554056E+02</pdfrwt>
<totfact> 0.20940538E+04</totfact>
</mgrwt>
</event>
<event>
 6    1  0.3075717E-002  0.1719263E+03  0.7546771E-02  0.1183626E+00
          2   -1    0    0  501    0  0.00000000000E+00  0.00000000000E+00  0.18073014592E+03  0.18073014592E+03  0.00000000000E+00 0. -1.
         -2   -1    0    0    0  501 -0.00000000000E+00 -0.00000000000E+00 -0.15081490295E+03  0.15081490295E+03  0.00000000000E+00 0.  1.
         23    2    1    2    0    0  0.20697149639E+01 -0.14433922635E+03 -0.31291997793E+02  0.17475084520E+03  0.93384007143E+02 0.  0.
         13    1    3    3    0    0 -0.14402025527E+02 -0.41385585298E+02 -0.52467219838E+02  0.68359301980E+02  0.00000000000E+00 0.  1.
        -13    1    3    3    0    0  0.16471740491E+02 -0.10295364105E+03  0.21175222045E+02  0.10639154322E+03  0.00000000000E+00 0. -1.
         22    1    1    2    0    0 -0.20697149639E+01  0.14433922635E+03  0.61207240765E+02  0.15679420367E+03  0.00000000000E+00 0.  1.
<mgrwt>
<rscale>  0 0.16457508E+03</rscale>
<asrwt>0</asrwt>
<pdfrwt beam="1">  1        2 0.27804638E-01 0.17192635E+03</pdfrwt>
<pdfrwt beam="2">  1       -2 0.23202293E-01 0.17192635E+03</pdfrwt>
<totfact> 0.30236016E+03</totfact>
</mgrwt>
</event>
<event>
 6    1  0.3075717E-002  0.9281349E+02  0.7546771E-02  0.1423601E+00
          2   -1    0    0  501    0  0.00000000000E+00  0.00000000000E+00  0.62021242394E+03  0.62021242394E+03  0.00000000000E+00 0.  1.
         -2   -1    0    0    0  501 -0.00000000000E+00 -0.00000000000E+00 -0.43516424648E+01  0.43516424648E+01  0.00000000000E+00 0. -1.
         23    2    1    2    0    0 -0.90170015281E+01  0.60280653356E+01  0.56339680215E+03  0.57099063068E+03  0.92177544817E+02 0.  0.
         13    1    3    3    0    0 -0.24624762932E+02 -0.24920897959E+02  0.94014134366E+02  0.10032989368E+03  0.00000000000E+00 0.  1.
        -13    1    3    3    0    0  0.15607761404E+02  0.30948963295E+02  0.46938266778E+03  0.47066073701E+03  0.00000000000E+00 0. -1.
         22    1    1    2    0    0  0.90170015281E+01 -0.60280653356E+01  0.52463979329E+02  0.53573435725E+02  0.00000000000E+00 0. -1.
<mgrwt>
<rscale>  0 0.54266210E+02</rscale>
<asrwt>0</asrwt>
<pdfrwt beam="1">  1        2 0.95417226E-01 0.92813489E+02</pdfrwt>
<pdfrwt beam="2">  1       -2 0.66948395E-03 0.92813489E+02</pdfrwt>
<totfact> 0.15975824E+05</totfact>
</mgrwt>
</event>
<event>
 6    1  0.3075717E-002  0.9397702E+02  0.7546771E-02  0.1378020E+00
          2   -1    0    0  501    0  0.00000000000E+00  0.00000000000E+00  0.22255879095E+03  0.22255879095E+03  0.00000000000E+00 0. -1.
         -2   -1    0    0    0  501 -0.00000000000E+00 -0.00000000000E+00 -0.26443673780E+02  0.26443673780E+02  0.00000000000E+00 0.  1.
         23    2    1    2    0    0  0.19472047310E+02  0.90924480549E+01  0.20518049729E+03  0.22567834943E+03  0.91486871708E+02 0.  0.
         11    1    3    3    0    0  0.31804804235E+01 -0.26179464635E+02  0.17365081651E+03  0.17564192523E+03  0.00000000000E+00 0. -1.
        -11    1    3    3    0    0  0.16291566887E+02  0.35271912690E+02  0.31529680778E+02  0.50036424197E+02  0.00000000000E+00 0.  1.
         22    1    1    2    0    0 -0.19472047310E+02 -0.90924480549E+01 -0.90653801161E+01  0.23324115305E+02  0.00000000000E+00 0.  1.
<mgrwt>
<rscale>  0 0.64987063E+02</rscale>
<asrwt>0</asrwt>
<pdfrwt beam="1">  1        2 0.34239813E-01 0.93977023E+02</pdfrwt>
<pdfrwt beam="2">  1       -2 0.40682576E-02 0.93977023E+02</pdfrwt>
<totfact> 0.35848986E+04</totfact>
</mgrwt>
</event>
<event>
 6    1  0.3075717E-002  0.8780328E+02  0.7546771E-02  0.1396691E+00
         -2   -1    0    0    0  501 -0.00000000000E+00  0.00000000000E+00  0.19730111716E+02  0.19730111716E+02  0.00000000000E+00 0. -1.
          2   -1    0    0  501    0  0.00000000000E+00 -0.00000000000E+00 -0.55553183584E+03  0.55553183584E+03  0.00000000000E+00 0.  1.
         23    2    1    2    0    0  0.10678150322E+02 -0.16311965793E+02 -0.54616828278E+03  0.55318099059E+03  0.85611401761E+02 0.  0.
         11    1    3    3    0    0 -0.69128100503E+01 -0.10959931889E+02 -0.91851217447E+01  0.15883120326E+02  0.00000000000E+00 0. -1.
        -11    1    3    3    0    0  0.17590960373E+02 -0.53520339037E+01 -0.53698316104E+03  0.53729787026E+03  0.00000000000E+00 0.  1.
         22    1    1    2    0    0 -0.10678150322E+02  0.16311965793E+02  0.10366558655E+02  0.22080956969E+02  0.00000000000E+00 0. -1.
<mgrwt>
<rscale>  0 0.60272710E+02</rscale>
<asrwt>0</asrwt>
<pdfrwt beam="1">  1        2 0.85466440E-01 0.87803276E+02</pdfrwt>
<pdfrwt beam="2">  1       -2 0.30354017E-02 0.87803276E+02</pdfrwt>
<totfact> 0.20756086E+04</totfact>
</mgrwt>
</event>
<event>
 6    1  0.3075717E-002  0.1012966E+03  0.7546771E-02  0.1340844E+00
         -2   -1    0    0    0  501 -0.00000000000E+00  0.00000000000E+00  0.52214503156E+01  0.52214503156E+01  0.00000000000E+00 0.  1.
          2   -1    0    0  501    0  0.00000000000E+00 -0.00000000000E+00 -0.10824973517E+04  0.10824973517E+04  0.00000000000E+00 0. -1.
         23    2    1    2    0    0 -0.31376536204E+01 -0.31920041803E+02 -0.98153644171E+03  0.98674960831E+03  0.96084697790E+02 0.  0.
         11    1    3    3    0    0  0.15926056931E+02 -0.50308249629E+02 -0.88712765010E+03  0.88869568854E+03  0.00000000000E+00 0. -1.
        -11    1    3    3    0    0 -0.19063710551E+02  0.18388207825E+02 -0.94408791619E+02  0.98053919768E+02  0.00000000000E+00 0.  1.
         22    1    1    2    0    0  0.31376536204E+01  0.31920041803E+02 -0.95739459622E+02  0.10096919366E+03  0.00000000000E+00 0.  1.
<mgrwt>
<rscale>  0 0.75986084E+02</rscale>
<asrwt>0</asrwt>
<pdfrwt beam="1">  1        2 0.16653806E+00 0.10129661E+03</pdfrwt>
<pdfrwt beam="2">  1       -2 0.80330001E-03 0.10129661E+03</pdfrwt>
<totfact> 0.62339573E+04</totfact>
</mgrwt>
</event>
<event>
 6    1  0.3075717E-002  0.9251120E+02  0.7546771E-02  0.1423063E+00
         -1   -1    0    0    0  501 -0.00000000000E+00  0.00000000000E+00  0.16014290670E+02  0.16014290670E+02  0.00000000000E+00 0.  1.
          1   -1    0    0  501    0  0.00000000000E+00 -0.00000000000E+00 -0.35122372169E+03  0.35122372169E+03  0.00000000000E+00 0. -1.
         23    2    1    2    0    0 -0.70778165667E+01  0.84773670671E+01 -0.34198819023E+03  0.35427989459E+03  0.91849660934E+02 0.  0.
         13    1    3    3    0    0 -0.15668176000E+02 -0.34901468346E+02 -0.24122961145E+03  0.24424440561E+03  0.00000000000E+00 0. -1.
        -13    1    3    3    0    0  0.85903594329E+01  0.43378835413E+02 -0.10075857878E+03  0.11003548898E+03  0.00000000000E+00 0.  1.
         22    1    1    2    0    0  0.70778165667E+01 -0.84773670671E+01  0.67787592093E+01  0.12958117771E+02  0.00000000000E+00 0. -1.
<mgrwt>
<rscale>  0 0.54378028E+02</rscale>
<asrwt>0</asrwt>
<pdfrwt beam="1">  1        1 0.54034419E-01 0.92511196E+02</pdfrwt>
<pdfrwt beam="2">  1       -1 0.24637370E-02 0.92511196E+02</pdfrwt>
<totfact> 0.32142170E+04</totfact>
</mgrwt>
</event>
<event>
 6    1  0.3075717E-002  0.9594849E+02  0.7546771E-02  0.1368078E+00
          2   -1    0    0  501    0  0.00000000000E+00  0.00000000000E+00  0.40418503222E+03  0.40418503222E+03  0.00000000000E+00 0. -1.
         -2   -1    0    0    0  501 -0.00000000000E+00 -0.00000000000E+00 -0.90673492373E+01  0.90673492373E+01  0.00000000000E+00 0.  1.
         23    2    1    2    0    0 -0.22778457035E+02 -0.68557977335E+01  0.33861832323E+03  0.35194954530E+03  0.92952964170E+02 0.  0.
         11    1    3    3    0    0  0.21117123584E+02 -0.28800676678E+02  0.66904915412E+02  0.75839828532E+02  0.00000000000E+00 0.  1.
        -11    1    3    3    0    0 -0.43895580619E+02  0.21944878944E+02  0.27171340781E+03  0.27610971677E+03  0.00000000000E+00 0. -1.
         22    1    1    2    0    0  0.22778457035E+02  0.68557977335E+01  0.56499359753E+02  0.61302836150E+02  0.00000000000E+00 0. -1.
<mgrwt>
<rscale>  0 0.67704456E+02</rscale>
<asrwt>0</asrwt>
<pdfrwt beam="1">  1        2 0.62182299E-01 0.95948495E+02</pdfrwt>
<pdfrwt beam="2">  1       -2 0.13949771E-02 0.95948495E+02</pdfrwt>
<totfact> 0.90342813E+04</totfact>
</mgrwt>
</event>
<event>
 6    1  0.3075717E-002  0.9257892E+02  0.7546771E-02  0.1379442E+00
         -2   -1    0    0    0  501 -0.00000000000E+00  0.00000000000E+00  0.98438769139E+01  0.98438769139E+01  0.00000000000E+00 0.  1.
          2   -1    0    0  501    0  0.00000000000E+00 -0.00000000000E+00 -0.35344167530E+03  0.35344167530E+03  0.00000000000E+00 0. -1.
         23    2    1    2    0    0 -0.21879070650E+02 -0.19106347263E+01 -0.30647408698E+03  0.32015187389E+03  0.89936155711E+02 0.  0.
         11    1    3    3    0    0 -0.55644983483E+02  0.66596841940E+01 -0.21741785381E+03  0.22452447247E+03  0.00000000000E+00 0. -1.
        -11    1    3    3    0    0  0.33765912833E+02 -0.85703189203E+01 -0.89056233173E+02  0.95627401422E+02  0.00000000000E+00 0.  1.
         22    1    1    2    0    0  0.21879070650E+02  0.19106347263E+01 -0.37123711399E+02  0.43133678323E+02  0.00000000000E+00 0.  1.
<mgrwt>
<rscale>  0 0.64610592E+02</rscale>
<asrwt>0</asrwt>
<pdfrwt beam="1">  1        2 0.54375638E-01 0.92578920E+02</pdfrwt>
<pdfrwt beam="2">  1       -2 0.15144427E-02 0.92578920E+02</pdfrwt>
<totfact> 0.92047480E+04</totfact>
</mgrwt>
</event>
<event>
 6    1  0.3075717E-002  0.9121855E+02  0.7546771E-02  0.1430951E+00
         -3   -1    0    0    0  501 -0.00000000000E+00  0.00000000000E+00  0.98704780104E+01  0.98704780104E+01  0.00000000000E+00 0.  1.
          3   -1    0    0  501    0  0.00000000000E+00 -0.00000000000E+00 -0.45441857999E+03  0.45441857999E+03  0.00000000000E+00 0. -1.
         23    2    1    2    0    0 -0.73213867279E+01 -0.71250872373E+01 -0.44481263349E+03  0.45406949105E+03  0.90644659067E+02 0.  0.
         13    1    3    3    0    0  0.23275576224E+02 -0.20003526162E+02 -0.38011687852E+03  0.38135381845E+03  0.00000000000E+00 0. -1.
        -13    1    3    3    0    0 -0.30596962951E+02  0.12878438925E+02 -0.64695754972E+02  0.72715672605E+02  0.00000000000E+00 0.  1.
         22    1    1    2    0    0  0.73213867279E+01  0.71250872373E+01  0.26453151028E+00  0.10219566952E+02  0.00000000000E+00 0.  1.
<mgrwt>
<rscale>  0 0.52769637E+02</rscale>
<asrwt>0</asrwt>
<pdfrwt beam="1">  1        3 0.69910558E-01 0.91218550E+02</pdfrwt>
<pdfrwt beam="2">  1       -3 0.15185349E-02 0.91218550E+02</pdfrwt>
<totfact> 0.60608080E+03</totfact>
</mgrwt>
</event>
<event>
 6    1  0.3075717E-002  0.9263484E+02  0.7546771E-02  0.1393319E+00
         -2   -1    0    0    0  501 -0.00000000000E+00  0.00000000000E+00  0.18089029382E+02  0.18089029382E+02  0.00000000000E+00 0.  1.
          2   -1    0    0  501    0  0.00000000000E+00 -0.00000000000E+00 -0.23825840266E+03  0.23825840266E+03  0.00000000000E+00 0. -1.
         23    2    1    2    0    0 -0.16455378792E+02 -0.60127295422E+01 -0.22013076680E+03  0.23882790299E+03  0.90963071341E+02 0.  0.
         11    1    3    3    0    0 -0.48770095081E+01  0.20999957772E+02 -0.55741637194E+01  0.22267796239E+02  0.00000000000E+00 0.  1.
        -11    1    3    3    0    0 -0.11578369284E+02 -0.27012687315E+02 -0.21455660308E+03  0.21656010675E+03  0.00000000000E+00 0. -1.
         22    1    1    2    0    0  0.16455378792E+02  0.60127295422E+01 -0.38606478628E-01  0.17519529051E+02  0.00000000000E+00 0.  1.
<mgrwt>
<rscale>  0 0.61088730E+02</rscale>
<asrwt>0</asrwt>
<pdfrwt beam="1">  1        2 0.36655138E-01 0.92634836E+02</pdfrwt>
<pdfrwt beam="2">  1       -2 0.27829276E-02 0.92634836E+02</pdfrwt>
<totfact> 0.57992864E+04</totfact>
</mgrwt>
</event>
<event>
 6    1  0.3075717E-002  0.9518203E+02  0.7546771E-02  0.1363307E+00
          2   -1    0    0  501    0  0.00000000000E+00  0.00000000000E+00  0.32554158648E+02  0.32554158648E+02  0.00000000000E+00 0. -1.
         -2   -1    0    0    0  501 -0.00000000000E+00 -0.00000000000E+00 -0.11365672930E+03  0.11365672930E+03  0.00000000000E+00 0.  1.
         23    2    1    2    0    0  0.24614783403E+02 -0.94964686431E+01 -0.65786550127E+02  0.11570431548E+03  0.91452435535E+02 0.  0.
         13    1    3    3    0    0  0.11306201311E+02 -0.14414513695E+02  0.20941347332E+02  0.27823522804E+02  0.00000000000E+00 0. -1.
        -13    1    3    3    0    0  0.13308582093E+02  0.49180450518E+01 -0.86727897459E+02  0.87880792680E+02  0.00000000000E+00 0.  1.
         22    1    1    2    0    0 -0.24614783403E+02  0.94964686431E+01 -0.15316020520E+02  0.30506572460E+02  0.00000000000E+00 0. -1.
<mgrwt>
<rscale>  0 0.69063386E+02</rscale>
<asrwt>0</asrwt>
<pdfrwt beam="1">  1        2 0.50083321E-02 0.95182028E+02</pdfrwt>
<pdfrwt beam="2">  1       -2 0.17485651E-01 0.95182028E+02</pdfrwt>
<totfact> 0.36204530E+04</totfact>
</mgrwt>
</event>
<event>
 6    1  0.3075717E-002  0.9768632E+02  0.7546771E-02  0.1357002E+00
          2   -1    0    0  501    0  0.00000000000E+00  0.00000000000E+00  0.86721999448E+03  0.86721999448E+03  0.00000000000E+00 0. -1.
         -2   -1    0    0    0  501 -0.00000000000E+00 -0.00000000000E+00 -0.45183040651E+01  0.45183040651E+01  0.00000000000E+00 0.  1.
         23    2    1    2    0    0 -0.27074867716E+02 -0.17808557673E+01  0.70152266810E+03  0.70829137400E+03  0.93842403606E+02 0.  0.
         13    1    3    3    0    0 -0.23962703316E+02 -0.25566509164E+02  0.94378957359E+02  0.10067395459E+03  0.00000000000E+00 0.  1.
        -13    1    3    3    0    0 -0.31121644000E+01  0.23785653397E+02  0.60714371074E+03  0.60761741941E+03  0.00000000000E+00 0. -1.
         22    1    1    2    0    0  0.27074867716E+02  0.17808557673E+01  0.16117902232E+03  0.16344692455E+03  0.00000000000E+00 0.  1.
<mgrwt>
<rscale>  0 0.70917146E+02</rscale>
<asrwt>0</asrwt>
<pdfrwt beam="1">  1        2 0.13341833E+00 0.97686317E+02</pdfrwt>
<pdfrwt beam="2">  1       -2 0.69512439E-03 0.97686317E+02</pdfrwt>
<totfact> 0.10240103E+05</totfact>
</mgrwt>
</event>
<event>
 6    1  0.3075717E-002  0.1044225E+03  0.7546771E-02  0.1314382E+00
         -4   -1    0    0    0  501 -0.00000000000E+00  0.00000000000E+00  0.36839830126E+02  0.36839830126E+02  0.00000000000E+00 0.  1.
          4   -1    0    0  501    0  0.00000000000E+00 -0.00000000000E+00 -0.15502877750E+03  0.15502877750E+03  0.00000000000E+00 0. -1.
         23    2    1    2    0    0  0.45308791839E+02  0.11397597010E+02 -0.81143158704E+02  0.13224325820E+03  0.93387768472E+02 0.  0.
         11    1    3    3    0    0  0.34752393257E+02  0.51627135945E+02 -0.55466423499E+02  0.83364345729E+02  0.00000000000E+00 0. -1.
        -11    1    3    3    0    0  0.10556398582E+02 -0.40229538935E+02 -0.25676735205E+02  0.48878912474E+02  0.00000000000E+00 0.  1.
         22    1    1    2    0    0 -0.45308791839E+02 -0.11397597010E+02 -0.37045788670E+02  0.59625349423E+02  0.00000000000E+00 0. -1.
<mgrwt>
<rscale>  0 0.85402824E+02</rscale>
<asrwt>0</asrwt>
<pdfrwt beam="1">  1        4 0.23850581E-01 0.10442254E+03</pdfrwt>
<pdfrwt beam="2">  1       -4 0.56676662E-02 0.10442254E+03</pdfrwt>
<totfact> 0.48645494E+03</totfact>
</mgrwt>
</event>
<event>
 6    1  0.3075717E-002  0.9098047E+02  0.7546771E-02  0.1413672E+00
         -2   -1    0    0    0  501 -0.00000000000E+00  0.00000000000E+00  0.31055108608E+02  0.31055108608E+02  0.00000000000E+00 0.  1.
          2   -1    0    0  501    0  0.00000000000E+00 -0.00000000000E+00 -0.32655547080E+03  0.32655547080E+03  0.00000000000E+00 0. -1.
         23    2    1    2    0    0 -0.10433012541E+02  0.84400004990E+01 -0.31835896827E+03  0.33110402869E+03  0.89985353129E+02 0.  0.
         13    1    3    3    0    0 -0.15442488830E+01  0.49105488929E+02 -0.16067791787E+03  0.16802121008E+03  0.00000000000E+00 0.  1.
        -13    1    3    3    0    0 -0.88887636582E+01 -0.40665488430E+02 -0.15768105041E+03  0.16308281861E+03  0.00000000000E+00 0. -1.
         22    1    1    2    0    0  0.10433012541E+02 -0.84400004990E+01  0.22858606078E+02  0.26506550718E+02  0.00000000000E+00 0.  1.
<mgrwt>
<rscale>  0 0.56382550E+02</rscale>
<asrwt>0</asrwt>
<pdfrwt beam="1">  1        2 0.50239307E-01 0.90980466E+02</pdfrwt>
<pdfrwt beam="2">  1       -2 0.47777087E-02 0.90980466E+02</pdfrwt>
<totfact> 0.18837741E+04</totfact>
</mgrwt>
</event>
<event>
 6    1  0.3075717E-002  0.8717241E+02  0.7546771E-02  0.1416518E+00
         -3   -1    0    0    0  501 -0.00000000000E+00  0.00000000000E+00  0.38283499683E+02  0.38283499683E+02  0.00000000000E+00 0.  1.
          3   -1    0    0  501    0  0.00000000000E+00 -0.00000000000E+00 -0.71203573683E+02  0.71203573683E+02  0.00000000000E+00 0. -1.
         23    2    1    2    0    0  0.14585773710E+02 -0.59558030087E+00 -0.36421408980E+02  0.94475116223E+02  0.85941427977E+02 0.  0.
         13    1    3    3    0    0  0.27368169713E+02 -0.33883351524E+02 -0.39348515597E+02  0.58697563013E+02  0.00000000000E+00 0. -1.
        -13    1    3    3    0    0 -0.12782396003E+02  0.33287771223E+02  0.29271066168E+01  0.35777553211E+02  0.00000000000E+00 0.  1.
         22    1    1    2    0    0 -0.14585773710E+02  0.59558030087E+00  0.35013349807E+01  0.15011957143E+02  0.00000000000E+00 0.  1.
<mgrwt>
<rscale>  0 0.55764407E+02</rscale>
<asrwt>0</asrwt>
<pdfrwt beam="1">  1        3 0.10954396E-01 0.87172407E+02</pdfrwt>
<pdfrwt beam="2">  1       -3 0.58897692E-02 0.87172407E+02</pdfrwt>
<totfact> 0.22359993E+04</totfact>
</mgrwt>
</event>
<event>
 6    1  0.3075717E-002  0.9312256E+02  0.7546771E-02  0.1375555E+00
          1   -1    0    0  501    0  0.00000000000E+00  0.00000000000E+00  0.12725955187E+02  0.12725955187E+02  0.00000000000E+00 0. -1.
         -1   -1    0    0    0  501 -0.00000000000E+00 -0.00000000000E+00 -0.26498919663E+03  0.26498919663E+03  0.00000000000E+00 0.  1.
         23    2    1    2    0    0  0.80697097143E+01  0.21535584660E+02 -0.20440719711E+03  0.22461992980E+03  0.90238068534E+02 0.  0.
         13    1    3    3    0    0  0.18023789155E+01 -0.21597742374E+02 -0.16321813305E+03  0.16465075160E+03  0.00000000000E+00 0.  1.
        -13    1    3    3    0    0  0.62673307987E+01  0.43133327033E+02 -0.41189064055E+02  0.59969178201E+02  0.00000000000E+00 0. -1.
         22    1    1    2    0    0 -0.80697097143E+01 -0.21535584660E+02 -0.47856044334E+02  0.53095222015E+02  0.00000000000E+00 0.  1.
<mgrwt>
<rscale>  0 0.65646720E+02</rscale>
<asrwt>0</asrwt>
<pdfrwt beam="1">  1        1 0.19578392E-02 0.93122557E+02</pdfrwt>
<pdfrwt beam="2">  1       -1 0.40767570E-01 0.93122557E+02</pdfrwt>
<totfact> 0.32605735E+04</totfact>
</mgrwt>
</event>
<event>
 6    1  0.3075717E-002  0.9792303E+02  0.7546771E-02  0.1415128E+00
         -2   -1    0    0    0  501 -0.00000000000E+00  0.00000000000E+00  0.44003082241E+01  0.44003082241E+01  0.00000000000E+00 0.  1.
          2   -1    0    0  501    0  0.00000000000E+00 -0.00000000000E+00 -0.70630243053E+03  0.70630243053E+03  0.00000000000E+00 0. -1.
         23    2    1    2    0    0  0.10835678344E+01  0.10466446838E+02 -0.66979731827E+03  0.67691754864E+03  0.97356044860E+02 0.  0.
         13    1    3    3    0    0  0.42035590081E+02  0.13153191772E+02 -0.51128264605E+03  0.51317632588E+03  0.00000000000E+00 0. -1.
        -13    1    3    3    0    0 -0.40952022247E+02 -0.26867449345E+01 -0.15851467222E+03  0.16374122277E+03  0.00000000000E+00 0.  1.
         22    1    1    2    0    0 -0.10835678344E+01 -0.10466446838E+02 -0.32104804042E+02  0.33785190117E+02  0.00000000000E+00 0.  1.
<mgrwt>
<rscale>  0 0.56065049E+02</rscale>
<asrwt>0</asrwt>
<pdfrwt beam="1">  1        2 0.10866182E+00 0.97923032E+02</pdfrwt>
<pdfrwt beam="2">  1       -2 0.67697108E-03 0.97923032E+02</pdfrwt>
<totfact> 0.13650332E+05</totfact>
</mgrwt>
</event>
<event>
 6    1  0.3075717E-002  0.9404613E+02  0.7546771E-02  0.1371471E+00
          4   -1    0    0  501    0  0.00000000000E+00  0.00000000000E+00  0.35228307904E+02  0.35228307904E+02  0.00000000000E+00 0. -1.
         -4   -1    0    0    0  501 -0.00000000000E+00 -0.00000000000E+00 -0.19446431638E+03  0.19446431638E+03  0.00000000000E+00 0.  1.
         23    2    1    2    0    0 -0.15869036306E+00  0.23879676203E+02 -0.30659839251E+02  0.98917644219E+02  0.90963786623E+02 0.  0.
         11    1    3    3    0    0  0.44429257032E+02  0.21562879477E+02 -0.16911966479E+02  0.52200874149E+02  0.00000000000E+00 0. -1.
        -11    1    3    3    0    0 -0.44587947395E+02  0.23167967264E+01 -0.13747872772E+02  0.46716770070E+02  0.00000000000E+00 0.  1.
         22    1    1    2    0    0  0.15869036306E+00 -0.23879676203E+02 -0.12857616923E+03  0.13077498007E+03  0.00000000000E+00 0.  1.
<mgrwt>
<rscale>  0 0.66759827E+02</rscale>
<asrwt>0</asrwt>
<pdfrwt beam="1">  1        4 0.54197397E-02 0.94046130E+02</pdfrwt>
<pdfrwt beam="2">  1       -4 0.29917587E-01 0.94046130E+02</pdfrwt>
<totfact> 0.33420797E+03</totfact>
</mgrwt>
</event>
<event>
 6    1  0.3075717E-002  0.9337378E+02  0.7546771E-02  0.1414260E+00
          2   -1    0    0  501    0  0.00000000000E+00  0.00000000000E+00  0.75234243978E+02  0.75234243978E+02  0.00000000000E+00 0. -1.
         -2   -1    0    0    0  501 -0.00000000000E+00 -0.00000000000E+00 -0.52104446944E+02  0.52104446944E+02  0.00000000000E+00 0.  1.
         23    2    1    2    0    0  0.83466454342E+01 -0.90359063587E+01  0.43915822393E+02  0.10318557634E+03  0.92559978472E+02 0.  0.
         11    1    3    3    0    0  0.47107463241E+02 -0.20255366711E+02  0.14621738446E+02  0.53321554823E+02  0.00000000000E+00 0. -1.
        -11    1    3    3    0    0 -0.38760817807E+02  0.11219460353E+02  0.29294083946E+02  0.49864021518E+02  0.00000000000E+00 0.  1.
         22    1    1    2    0    0 -0.83466454342E+01  0.90359063587E+01 -0.20786025359E+02  0.24153114581E+02  0.00000000000E+00 0.  1.
<mgrwt>
<rscale>  0 0.56254031E+02</rscale>
<asrwt>0</asrwt>
<pdfrwt beam="1">  1        2 0.11574499E-01 0.93373785E+02</pdfrwt>
<pdfrwt beam="2">  1       -2 0.80160688E-02 0.93373785E+02</pdfrwt>
<totfact> 0.43730826E+04</totfact>
</mgrwt>
</event>
<event>
 6    1  0.3075717E-002  0.9768921E+02  0.7546771E-02  0.1332098E+00
          2   -1    0    0  501    0  0.00000000000E+00  0.00000000000E+00  0.21035654452E+03  0.21035654452E+03  0.00000000000E+00 0. -1.
         -2   -1    0    0    0  501 -0.00000000000E+00 -0.00000000000E+00 -0.60451290943E+02  0.60451290943E+02  0.00000000000E+00 0.  1.
         23    2    1    2    0    0  0.23261170309E+02  0.34543206172E+02  0.18959261856E+03  0.21328043263E+03  0.88367792758E+02 0.  0.
         13    1    3    3    0    0 -0.14562452901E+02 -0.22421266567E+02  0.33446666461E+02  0.42818894501E+02  0.00000000000E+00 0.  1.
        -13    1    3    3    0    0  0.37823623209E+02  0.56964472739E+02  0.15614595209E+03  0.17046153813E+03  0.00000000000E+00 0. -1.
         22    1    1    2    0    0 -0.23261170309E+02 -0.34543206172E+02 -0.39687364981E+02  0.57527402826E+02  0.00000000000E+00 0.  1.
<mgrwt>
<rscale>  0 0.78936152E+02</rscale>
<asrwt>0</asrwt>
<pdfrwt beam="1">  1        2 0.32362545E-01 0.97689211E+02</pdfrwt>
<pdfrwt beam="2">  1       -2 0.93001987E-02 0.97689211E+02</pdfrwt>
<totfact> 0.10996006E+04</totfact>
</mgrwt>
</event>
<event>
 6    1  0.3075717E-002  0.9552020E+02  0.7546771E-02  0.1366542E+00
         -2   -1    0    0    0  501 -0.00000000000E+00  0.00000000000E+00  0.22614915053E+02  0.22614915053E+02  0.00000000000E+00 0.  1.
          2   -1    0    0  501    0  0.00000000000E+00 -0.00000000000E+00 -0.45860192981E+03  0.45860192981E+03  0.00000000000E+00 0. -1.
         23    2    1    2    0    0  0.16619349578E+02 -0.18316486217E+02 -0.44481542430E+03  0.45495589928E+03  0.92262734318E+02 0.  0.
         13    1    3    3    0    0  0.34648777679E+02 -0.27315903639E+02 -0.42285791551E+03  0.42515351709E+03  0.00000000000E+00 0. -1.
        -13    1    3    3    0    0 -0.18029428101E+02  0.89994174221E+01 -0.21957508789E+02  0.29802382183E+02  0.00000000000E+00 0.  1.
         22    1    1    2    0    0 -0.16619349578E+02  0.18316486217E+02  0.88284095477E+01  0.26260945582E+02  0.00000000000E+00 0.  1.
<mgrwt>
<rscale>  0 0.68137848E+02</rscale>
<asrwt>0</asrwt>
<pdfrwt beam="1">  1        2 0.70554141E-01 0.95520200E+02</pdfrwt>
<pdfrwt beam="2">  1       -2 0.34792178E-02 0.95520200E+02</pdfrwt>
<totfact> 0.21113548E+04</totfact>
</mgrwt>
</event>
<event>
 6    1  0.3075717E-002  0.9729297E+02  0.7546771E-02  0.1342941E+00
         -1   -1    0    0    0  501 -0.00000000000E+00  0.00000000000E+00  0.20200131348E+02  0.20200131348E+02  0.00000000000E+00 0.  1.
          1   -1    0    0  501    0  0.00000000000E+00 -0.00000000000E+00 -0.22208950952E+03  0.22208950952E+03  0.00000000000E+00 0. -1.
         23    2    1    2    0    0 -0.90621089444E+01 -0.33714557912E+02 -0.16463151591E+03  0.19123142376E+03  0.90813700340E+02 0.  0.
         11    1    3    3    0    0 -0.32570904540E+02  0.79050551724E+01 -0.12414400770E+03  0.12858883454E+03  0.00000000000E+00 0. -1.
        -11    1    3    3    0    0  0.23508795596E+02 -0.41619613084E+02 -0.40487508209E+02  0.62642589223E+02  0.00000000000E+00 0.  1.
         22    1    1    2    0    0  0.90621089444E+01  0.33714557912E+02 -0.37257862263E+02  0.51058217106E+02  0.00000000000E+00 0.  1.
<mgrwt>
<rscale>  0 0.75301277E+02</rscale>
<asrwt>0</asrwt>
<pdfrwt beam="1">  1        1 0.34167618E-01 0.97292967E+02</pdfrwt>
<pdfrwt beam="2">  1       -1 0.31077124E-02 0.97292967E+02</pdfrwt>
<totfact> 0.40571158E+04</totfact>
</mgrwt>
</event>
<event>
 6    1  0.3075717E-002  0.9465943E+02  0.7546771E-02  0.1408060E+00
         -2   -1    0    0    0  501 -0.00000000000E+00  0.00000000000E+00  0.26863294758E+03  0.26863294758E+03  0.00000000000E+00 0. -1.
          2   -1    0    0  501    0  0.00000000000E+00 -0.00000000000E+00 -0.12163478249E+02  0.12163478249E+02  0.00000000000E+00 0.  1.
         23    2    1    2    0    0 -0.13002219270E+02  0.20661183642E+00  0.24754074292E+03  0.26502231572E+03  0.93761975393E+02 0.  0.
         11    1    3    3    0    0 -0.60538788611E+00 -0.25135048003E+02  0.23090810005E+03  0.23227287358E+03  0.00000000000E+00 0. -1.
        -11    1    3    3    0    0 -0.12396831383E+02  0.25341659840E+02  0.16632642876E+02  0.32749442145E+02  0.00000000000E+00 0.  1.
         22    1    1    2    0    0  0.13002219270E+02 -0.20661183642E+00  0.89287264077E+01  0.15774110106E+02  0.00000000000E+00 0.  1.
<mgrwt>
<rscale>  0 0.57628990E+02</rscale>
<asrwt>0</asrwt>
<pdfrwt beam="1">  1        2 0.18713046E-02 0.94659434E+02</pdfrwt>
<pdfrwt beam="2">  1       -2 0.41328141E-01 0.94659434E+02</pdfrwt>
<totfact> 0.29433478E+04</totfact>
</mgrwt>
</event>
<event>
 6    1  0.3075717E-002  0.9613775E+02  0.7546771E-02  0.1344078E+00
          2   -1    0    0  501    0  0.00000000000E+00  0.00000000000E+00  0.19454973920E+03  0.19454973920E+03  0.00000000000E+00 0. -1.
         -2   -1    0    0    0  501 -0.00000000000E+00 -0.00000000000E+00 -0.37237438532E+02  0.37237438532E+02  0.00000000000E+00 0.  1.
         23    2    1    2    0    0 -0.33736319322E+02 -0.10994990258E+02  0.16899821586E+03  0.19442958593E+03  0.89350086000E+02 0.  0.
         13    1    3    3    0    0  0.16768292562E+02 -0.32796883530E+02  0.41028793122E+02  0.55137764461E+02  0.00000000000E+00 0. -1.
        -13    1    3    3    0    0 -0.50504611884E+02  0.21801893272E+02  0.12796942274E+03  0.13929182147E+03  0.00000000000E+00 0.  1.
         22    1    1    2    0    0  0.33736319322E+02  0.10994990258E+02 -0.11685915185E+02  0.37357591811E+02  0.00000000000E+00 0.  1.
<mgrwt>
<rscale>  0 0.74933313E+02</rscale>
<asrwt>0</asrwt>
<pdfrwt beam="1">  1        2 0.29930728E-01 0.96137750E+02</pdfrwt>
<pdfrwt beam="2">  1       -2 0.57288368E-02 0.96137750E+02</pdfrwt>
<totfact> 0.24950421E+04</totfact>
</mgrwt>
</event>
<event>
 6    1  0.3075717E-002  0.1093240E+03  0.7546771E-02  0.1299088E+00
          2   -1    0    0  501    0  0.00000000000E+00  0.00000000000E+00  0.68854148664E+03  0.68854148664E+03  0.00000000000E+00 0. -1.
         -2   -1    0    0    0  501 -0.00000000000E+00 -0.00000000000E+00 -0.10617291348E+02  0.10617291348E+02  0.00000000000E+00 0.  1.
         23    2    1    2    0    0 -0.52718872339E+02 -0.10809871049E+02  0.54304090937E+03  0.55393607441E+03  0.95160981886E+02 0.  0.
         13    1    3    3    0    0  0.88730127961E+01  0.29630092235E+02  0.95882969623E+02  0.10074828329E+03  0.00000000000E+00 0.  1.
        -13    1    3    3    0    0 -0.61591885135E+02 -0.40439963284E+02  0.44715793975E+03  0.45318779112E+03  0.00000000000E+00 0. -1.
         22    1    1    2    0    0  0.52718872339E+02  0.10809871049E+02  0.13488328592E+03  0.14522270357E+03  0.00000000000E+00 0.  1.
<mgrwt>
<rscale>  0 0.91572286E+02</rscale>
<asrwt>0</asrwt>
<pdfrwt beam="1">  1        2 0.10592942E+00 0.10932404E+03</pdfrwt>
<pdfrwt beam="2">  1       -2 0.16334300E-02 0.10932404E+03</pdfrwt>
<totfact> 0.40744581E+04</totfact>
</mgrwt>
</event>
<event>
 6    1  0.3075717E-002  0.9728040E+02  0.7546771E-02  0.1343049E+00
         -1   -1    0    0    0  501 -0.00000000000E+00  0.00000000000E+00  0.11063744503E+03  0.11063744503E+03  0.00000000000E+00 0.  1.
          1   -1    0    0  501    0  0.00000000000E+00 -0.00000000000E+00 -0.42225003794E+02  0.42225003794E+02  0.00000000000E+00 0. -1.
         23    2    1    2    0    0  0.50378311981E+00  0.34855724360E+02  0.31889685571E+02  0.10237396500E+03  0.90820159354E+02 0.  0.
         13    1    3    3    0    0  0.45528652252E+02  0.19911581516E+02  0.13492465484E+02  0.51491512690E+02  0.00000000000E+00 0. -1.
        -13    1    3    3    0    0 -0.45024869132E+02  0.14944142844E+02  0.18397220088E+02  0.50882452306E+02  0.00000000000E+00 0.  1.
         22    1    1    2    0    0 -0.50378311981E+00 -0.34855724360E+02  0.36522755670E+02  0.50488483833E+02  0.00000000000E+00 0.  1.
<mgrwt>
<rscale>  0 0.75266009E+02</rscale>
<asrwt>0</asrwt>
<pdfrwt beam="1">  1        1 0.64961545E-02 0.97280402E+02</pdfrwt>
<pdfrwt beam="2">  1       -1 0.17021145E-01 0.97280402E+02</pdfrwt>
<totfact> 0.26830134E+04</totfact>
</mgrwt>
</event>
<event>
 6    1  0.3075717E-002  0.9301788E+02  0.7546771E-02  0.1406001E+00
         -2   -1    0    0    0  501 -0.00000000000E+00  0.00000000000E+00  0.87010256457E+02  0.87010256457E+02  0.00000000000E+00 0.  1.
          2   -1    0    0  501    0  0.00000000000E+00 -0.00000000000E+00 -0.52380783861E+02  0.52380783861E+02  0.00000000000E+00 0. -1.
         23    2    1    2    0    0  0.85730744003E+01 -0.11262366498E+02 -0.90675764890E+01  0.93458801068E+02  0.91934694484E+02 0.  0.
         11    1    3    3    0    0  0.21723264722E+02  0.24137847041E+02  0.26247807747E+02  0.41755039234E+02  0.00000000000E+00 0.  1.
        -11    1    3    3    0    0 -0.13150190322E+02 -0.35400213538E+02 -0.35315384236E+02  0.51703761834E+02  0.00000000000E+00 0. -1.
         22    1    1    2    0    0 -0.85730744003E+01  0.11262366498E+02  0.43697049085E+02  0.45932239250E+02  0.00000000000E+00 0. -1.
<mgrwt>
<rscale>  0 0.58095888E+02</rscale>
<asrwt>0</asrwt>
<pdfrwt beam="1">  1        2 0.80585821E-02 0.93017883E+02</pdfrwt>
<pdfrwt beam="2">  1       -2 0.13386193E-01 0.93017883E+02</pdfrwt>
<totfact> 0.30487720E+04</totfact>
</mgrwt>
</event>
<event>
 6    1  0.3075717E-002  0.8544699E+02  0.7546771E-02  0.1424443E+00
          2   -1    0    0  501    0  0.00000000000E+00  0.00000000000E+00  0.44714003735E+03  0.44714003735E+03  0.00000000000E+00 0. -1.
         -2   -1    0    0    0  501 -0.00000000000E+00 -0.00000000000E+00 -0.23075479818E+02  0.23075479818E+02  0.00000000000E+00 0.  1.
         23    2    1    2    0    0 -0.12866374665E+02  0.47714501130E+01  0.44055347987E+03  0.44876336359E+03  0.84337877266E+02 0.  0.
         11    1    3    3    0    0 -0.25397296711E+02 -0.39315235872E+01  0.42863093832E+03  0.42940069963E+03  0.00000000000E+00 0. -1.
        -11    1    3    3    0    0  0.12530922045E+02  0.87029737002E+01  0.11922541546E+02  0.19362663955E+02  0.00000000000E+00 0.  1.
         22    1    1    2    0    0  0.12866374665E+02 -0.47714501130E+01 -0.16488922339E+02  0.21452153577E+02  0.00000000000E+00 0.  1.
<mgrwt>
<rscale>  0 0.54091851E+02</rscale>
<asrwt>0</asrwt>
<pdfrwt beam="1">  1        2 0.68790768E-01 0.85446989E+02</pdfrwt>
<pdfrwt beam="2">  1       -2 0.35500742E-02 0.85446989E+02</pdfrwt>
<totfact> 0.20822095E+04</totfact>
</mgrwt>
</event>
<event>
 6    1  0.3075717E-002  0.9587276E+02  0.7546771E-02  0.1365074E+00
         -2   -1    0    0    0  501 -0.00000000000E+00  0.00000000000E+00  0.22794308747E+02  0.22794308747E+02  0.00000000000E+00 0.  1.
          2   -1    0    0  501    0  0.00000000000E+00 -0.00000000000E+00 -0.27262853214E+03  0.27262853214E+03  0.00000000000E+00 0. -1.
         23    2    1    2    0    0  0.24624686949E+02  0.46858257922E+01 -0.25262114934E+03  0.27020183522E+03  0.92537854375E+02 0.  0.
         13    1    3    3    0    0 -0.92080315490E+01 -0.36144563611E+02 -0.15146578695E+03  0.15599071107E+03  0.00000000000E+00 0. -1.
        -13    1    3    3    0    0  0.33832718498E+02  0.40830389403E+02 -0.10115536239E+03  0.11421112415E+03  0.00000000000E+00 0.  1.
         22    1    1    2    0    0 -0.24624686949E+02 -0.46858257922E+01  0.27869259441E+01  0.25221005668E+02  0.00000000000E+00 0.  1.
<mgrwt>
<rscale>  0 0.68555941E+02</rscale>
<asrwt>0</asrwt>
<pdfrwt beam="1">  1        2 0.41942848E-01 0.95872763E+02</pdfrwt>
<pdfrwt beam="2">  1       -2 0.35068170E-02 0.95872763E+02</pdfrwt>
<totfact> 0.36088253E+04</totfact>
</mgrwt>
</event>
<event>
 6    1  0.3075717E-002  0.9447781E+02  0.7546771E-02  0.1388003E+00
         -1   -1    0    0    0  501 -0.00000000000E+00  0.00000000000E+00  0.39100784099E+02  0.39100784099E+02  0.00000000000E+00 0.  1.
          1   -1    0    0  501    0  0.00000000000E+00 -0.00000000000E+00 -0.28201647308E+03  0.28201647308E+03  0.00000000000E+00 0. -1.
         23    2    1    2    0    0  0.53631250555E+01 -0.17167263677E+02 -0.27143106458E+03  0.28740368873E+03  0.92750091261E+02 0.  0.
         11    1    3    3    0    0  0.25312960367E+02 -0.32213345322E+02 -0.25314769827E+03  0.25644142161E+03  0.00000000000E+00 0.  1.
        -11    1    3    3    0    0 -0.19949835312E+02  0.15046081646E+02 -0.18283366306E+02  0.30962267122E+02  0.00000000000E+00 0. -1.
         22    1    1    2    0    0 -0.53631250555E+01  0.17167263677E+02  0.28515375590E+02  0.33713568449E+02  0.00000000000E+00 0.  1.
<mgrwt>
<rscale>  0 0.62406235E+02</rscale>
<asrwt>0</asrwt>
<pdfrwt beam="1">  1        1 0.43387148E-01 0.94477815E+02</pdfrwt>
<pdfrwt beam="2">  1       -1 0.60155054E-02 0.94477815E+02</pdfrwt>
<totfact> 0.11523523E+04</totfact>
</mgrwt>
</event>
<event>
 6    1  0.3075717E-002  0.9385404E+02  0.7546771E-02  0.1370517E+00
          2   -1    0    0  501    0  0.00000000000E+00  0.00000000000E+00  0.59565043720E+03  0.59565043720E+03  0.00000000000E+00 0. -1.
         -2   -1    0    0    0  501 -0.00000000000E+00 -0.00000000000E+00 -0.19962395889E+02  0.19962395889E+02  0.00000000000E+00 0.  1.
         23    2    1    2    0    0 -0.87092609103E+01 -0.22802511221E+02  0.58270513365E+03  0.59021509051E+03  0.90624359516E+02 0.  0.
         13    1    3    3    0    0 -0.15649097924E+02  0.22682492963E+02  0.42611289563E+03  0.42700303228E+03  0.00000000000E+00 0. -1.
        -13    1    3    3    0    0  0.69398370140E+01 -0.45485004184E+02  0.15659223802E+03  0.16321205823E+03  0.00000000000E+00 0.  1.
         22    1    1    2    0    0  0.87092609103E+01  0.22802511221E+02 -0.70170923343E+01  0.25397742585E+02  0.00000000000E+00 0.  1.
<mgrwt>
<rscale>  0 0.67023608E+02</rscale>
<asrwt>0</asrwt>
<pdfrwt beam="1">  1        2 0.91638515E-01 0.93854037E+02</pdfrwt>
<pdfrwt beam="2">  1       -2 0.30711383E-02 0.93854037E+02</pdfrwt>
<totfact> 0.19010495E+04</totfact>
</mgrwt>
</event>
<event>
 6    1  0.3075717E-002  0.9272970E+02  0.7546771E-02  0.1418380E+00
          2   -1    0    0  501    0  0.00000000000E+00  0.00000000000E+00  0.10682355232E+04  0.10682355232E+04  0.00000000000E+00 0. -1.
         -2   -1    0    0    0  501 -0.00000000000E+00 -0.00000000000E+00 -0.21929688324E+02  0.21929688324E+02  0.00000000000E+00 0.  1.
         23    2    1    2    0    0 -0.66965726435E+01 -0.96961565551E+01  0.10644766119E+04  0.10685079569E+04  0.91977916529E+02 0.  0.
         11    1    3    3    0    0  0.29401212047E+02 -0.20448042965E+02  0.84965435302E+03  0.85040876838E+03  0.00000000000E+00 0. -1.
        -11    1    3    3    0    0 -0.36097784691E+02  0.10751886410E+02  0.21482225890E+03  0.21809918854E+03  0.00000000000E+00 0.  1.
         22    1    1    2    0    0  0.66965726435E+01  0.96961565551E+01 -0.18170777065E+02  0.21657254587E+02  0.00000000000E+00 0.  1.
<mgrwt>
<rscale>  0 0.55365101E+02</rscale>
<asrwt>0</asrwt>
<pdfrwt beam="1">  1        2 0.16434389E+00 0.92729697E+02</pdfrwt>
<pdfrwt beam="2">  1       -2 0.33737990E-02 0.92729697E+02</pdfrwt>
<totfact> 0.80531565E+03</totfact>
</mgrwt>
</event>
<event>
 6    1  0.3075717E-002  0.9265595E+02  0.7546771E-02  0.1411056E+00
         -2   -1    0    0    0  501 -0.00000000000E+00  0.00000000000E+00  0.15701716393E+01  0.15701716393E+01  0.00000000000E+00 0.  1.
          2   -1    0    0  501    0  0.00000000000E+00 -0.00000000000E+00 -0.23727691433E+04  0.23727691433E+04  0.00000000000E+00 0. -1.
         23    2    1    2    0    0 -0.11779826781E+02  0.60267860462E+01 -0.23033077586E+04  0.23051706567E+04  0.91706266438E+02 0.  0.
         13    1    3    3    0    0  0.27861264036E+02  0.17572538664E+02 -0.38150182186E+03  0.38292125069E+03  0.00000000000E+00 0.  1.
        -13    1    3    3    0    0 -0.39641090817E+02 -0.11545752618E+02 -0.19218059368E+04  0.19222494061E+04  0.00000000000E+00 0. -1.
         22    1    1    2    0    0  0.11779826781E+02 -0.60267860462E+01 -0.67891213043E+02  0.69168658202E+02  0.00000000000E+00 0. -1.
<mgrwt>
<rscale>  0 0.56958897E+02</rscale>
<asrwt>0</asrwt>
<pdfrwt beam="1">  1        2 0.36504243E+00 0.92655954E+02</pdfrwt>
<pdfrwt beam="2">  1       -2 0.24156419E-03 0.92655954E+02</pdfrwt>
<totfact> 0.71874320E+04</totfact>
</mgrwt>
</event>
<event>
 6    1  0.3075717E-002  0.9298183E+02  0.7546771E-02  0.1403237E+00
          2   -1    0    0  501    0  0.00000000000E+00  0.00000000000E+00  0.20823297243E+03  0.20823297243E+03  0.00000000000E+00 0. -1.
         -2   -1    0    0    0  501 -0.00000000000E+00 -0.00000000000E+00 -0.13957874178E+02  0.13957874178E+02  0.00000000000E+00 0.  1.
         23    2    1    2    0    0 -0.14320313730E+02 -0.37381930240E+01  0.16967176389E+03  0.19347901048E+03  0.91796375531E+02 0.  0.
         13    1    3    3    0    0 -0.27008529511E+02 -0.57543784699E+00  0.17661803145E+03  0.17867210422E+03  0.00000000000E+00 0. -1.
        -13    1    3    3    0    0  0.12688215781E+02 -0.31627551770E+01 -0.69462675518E+01  0.14806906258E+02  0.00000000000E+00 0.  1.
         22    1    1    2    0    0  0.14320313730E+02  0.37381930240E+01  0.24603334359E+02  0.28711836131E+02  0.00000000000E+00 0.  1.
<mgrwt>
<rscale>  0 0.58730722E+02</rscale>
<asrwt>0</asrwt>
<pdfrwt beam="1">  1        2 0.32035840E-01 0.92981826E+02</pdfrwt>
<pdfrwt beam="2">  1       -2 0.21473654E-02 0.92981826E+02</pdfrwt>
<totfact> 0.97346818E+04</totfact>
</mgrwt>
</event>
<event>
 6    1  0.3075717E-002  0.7938572E+02  0.7546771E-02  0.1385662E+00
          1   -1    0    0  501    0  0.00000000000E+00  0.00000000000E+00  0.79739277189E+03  0.79739277189E+03  0.00000000000E+00 0. -1.
         -1   -1    0    0    0  501 -0.00000000000E+00 -0.00000000000E+00 -0.74823727184E+01  0.74823727184E+01  0.00000000000E+00 0.  1.
         23    2    1    2    0    0  0.31236316059E+02  0.39451177488E+01  0.74928038756E+03  0.75347408199E+03  0.72875384404E+02 0.  0.
         13    1    3    3    0    0 -0.55528207632E+01 -0.16424821344E+02  0.52495175879E+03  0.52523800094E+03  0.00000000000E+00 0. -1.
        -13    1    3    3    0    0  0.36789136822E+02  0.20369939093E+02  0.22432862876E+03  0.22823608104E+03  0.00000000000E+00 0.  1.
         22    1    1    2    0    0 -0.31236316059E+02 -0.39451177488E+01  0.40630011618E+02  0.51401062626E+02  0.00000000000E+00 0.  1.
<mgrwt>
<rscale>  0 0.62998597E+02</rscale>
<asrwt>0</asrwt>
<pdfrwt beam="1">  1        1 0.12267574E+00 0.79385723E+02</pdfrwt>
<pdfrwt beam="2">  1       -1 0.11511349E-02 0.79385723E+02</pdfrwt>
<totfact> 0.31670058E+04</totfact>
</mgrwt>
</event>
<event>
 6    1  0.3075717E-002  0.9069967E+02  0.7546771E-02  0.1396890E+00
         -2   -1    0    0    0  501 -0.00000000000E+00  0.00000000000E+00  0.18138877637E+02  0.18138877637E+02  0.00000000000E+00 0.  1.
          2   -1    0    0  501    0  0.00000000000E+00 -0.00000000000E+00 -0.17851505622E+03  0.17851505622E+03  0.00000000000E+00 0. -1.
         23    2    1    2    0    0  0.48952418087E+01 -0.16938279761E+02 -0.15229791940E+03  0.17725994033E+03  0.88969441253E+02 0.  0.
         11    1    3    3    0    0 -0.21722267646E+02  0.24243256262E+01 -0.14065991254E+03  0.14234797246E+03  0.00000000000E+00 0. -1.
        -11    1    3    3    0    0  0.26617509454E+02 -0.19362605387E+02 -0.11638006862E+02  0.34911967871E+02  0.00000000000E+00 0.  1.
         22    1    1    2    0    0 -0.48952418087E+01  0.16938279761E+02 -0.80782591780E+01  0.19393993528E+02  0.00000000000E+00 0.  1.
<mgrwt>
<rscale>  0 0.60224944E+02</rscale>
<asrwt>0</asrwt>
<pdfrwt beam="1">  1        2 0.27463854E-01 0.90699670E+02</pdfrwt>
<pdfrwt beam="2">  1       -2 0.27905967E-02 0.90699670E+02</pdfrwt>
<totfact> 0.78326439E+04</totfact>
</mgrwt>
</event>
<event>
 6    1  0.3075717E-002  0.9903281E+02  0.7546771E-02  0.1336794E+00
          4   -1    0    0  501    0  0.00000000000E+00  0.00000000000E+00  0.14392471478E+03  0.14392471478E+03  0.00000000000E+00 0. -1.
         -4   -1    0    0    0  501 -0.00000000000E+00 -0.00000000000E+00 -0.37652299961E+02  0.37652299961E+02  0.00000000000E+00 0.  1.
         23    2    1    2    0    0  0.29060582721E+02 -0.22616303094E+02  0.42142480726E+02  0.10762660514E+03  0.91931946667E+02 0.  0.
         13    1    3    3    0    0  0.28837421880E+02 -0.74618823871E+00  0.67937029855E+02  0.73807816139E+02  0.00000000000E+00 0. -1.
        -13    1    3    3    0    0  0.22316084046E+00 -0.21870114855E+02 -0.25794549130E+02  0.33818788999E+02  0.00000000000E+00 0.  1.
         22    1    1    2    0    0 -0.29060582721E+02  0.22616303094E+02  0.64129934097E+02  0.73950409606E+02  0.00000000000E+00 0.  1.
<mgrwt>
<rscale>  0 0.77333448E+02</rscale>
<asrwt>0</asrwt>
<pdfrwt beam="1">  1        4 0.22142264E-01 0.99032810E+02</pdfrwt>
<pdfrwt beam="2">  1       -4 0.57926616E-02 0.99032810E+02</pdfrwt>
<totfact> 0.52981748E+03</totfact>
</mgrwt>
</event>
<event>
 6    1  0.3075717E-002  0.1010912E+03  0.7546771E-02  0.1319888E+00
          2   -1    0    0  501    0  0.00000000000E+00  0.00000000000E+00  0.45244034830E+03  0.45244034830E+03  0.00000000000E+00 0. -1.
         -2   -1    0    0    0  501 -0.00000000000E+00 -0.00000000000E+00 -0.17568273913E+02  0.17568273913E+02  0.00000000000E+00 0.  1.
         23    2    1    2    0    0  0.46669386279E+01  0.46414418313E+02  0.39774019068E+03  0.41038601466E+03  0.89684687671E+02 0.  0.
         13    1    3    3    0    0  0.79647440756E+01 -0.20596286871E+01  0.30986007939E+03  0.30996926948E+03  0.00000000000E+00 0. -1.
        -13    1    3    3    0    0 -0.32978054477E+01  0.48474047000E+02  0.87880111290E+02  0.10041674519E+03  0.00000000000E+00 0.  1.
         22    1    1    2    0    0 -0.46669386279E+01 -0.46414418313E+02  0.37131883701E+02  0.59622607547E+02  0.00000000000E+00 0.  1.
<mgrwt>
<rscale>  0 0.83319027E+02</rscale>
<asrwt>0</asrwt>
<pdfrwt beam="1">  1        2 0.69606199E-01 0.10109116E+03</pdfrwt>
<pdfrwt beam="2">  1       -2 0.27028117E-02 0.10109116E+03</pdfrwt>
<totfact> 0.31142491E+04</totfact>
</mgrwt>
</event>
<event>
 6    1  0.3075717E-002  0.9367615E+02  0.7546771E-02  0.1417787E+00
         -1   -1    0    0    0  501 -0.00000000000E+00  0.00000000000E+00  0.17943067843E+02  0.17943067843E+02  0.00000000000E+00 0.  1.
          1   -1    0    0  501    0  0.00000000000E+00 -0.00000000000E+00 -0.22328995200E+03  0.22328995200E+03  0.00000000000E+00 0. -1.
         23    2    1    2    0    0 -0.78345972947E+01 -0.84665143124E+01 -0.20908202633E+03  0.22910808411E+03  0.92963206129E+02 0.  0.
         11    1    3    3    0    0 -0.78205086170E+01  0.25149258735E+02 -0.18709654056E+03  0.18894115766E+03  0.00000000000E+00 0. -1.
        -11    1    3    3    0    0 -0.14088677713E-01 -0.33615773047E+02 -0.21985485769E+02  0.40166926451E+02  0.00000000000E+00 0.  1.
         22    1    1    2    0    0  0.78345972947E+01  0.84665143124E+01  0.37351421715E+01  0.12124935728E+02  0.00000000000E+00 0.  1.
<mgrwt>
<rscale>  0 0.55491803E+02</rscale>
<asrwt>0</asrwt>
<pdfrwt beam="1">  1        1 0.34352299E-01 0.93676147E+02</pdfrwt>
<pdfrwt beam="2">  1       -1 0.27604721E-02 0.93676147E+02</pdfrwt>
<totfact> 0.47578827E+04</totfact>
</mgrwt>
</event>
<event>
 6    1  0.3075717E-002  0.1703406E+03  0.7546771E-02  0.1185129E+00
         -2   -1    0    0    0  501 -0.00000000000E+00  0.00000000000E+00  0.14559176145E+02  0.14559176145E+02  0.00000000000E+00 0.  1.
          2   -1    0    0  501    0  0.00000000000E+00 -0.00000000000E+00 -0.22697645084E+04  0.22697645084E+04  0.00000000000E+00 0. -1.
         23    2    1    2    0    0  0.46218709247E+02 -0.13588587968E+03 -0.17742496156E+04  0.17824078123E+04  0.91732053750E+02 0.  0.
         11    1    3    3    0    0  0.25997204564E+02 -0.23534788756E+02 -0.14564521731E+03  0.14980744392E+03  0.00000000000E+00 0.  1.
        -11    1    3    3    0    0  0.20221504684E+02 -0.11235109092E+03 -0.16286043982E+04  0.16326003684E+04  0.00000000000E+00 0. -1.
         22    1    1    2    0    0 -0.46218709247E+02  0.13588587968E+03 -0.48095571667E+03  0.50191587222E+03  0.00000000000E+00 0.  1.
<mgrwt>
<rscale>  0 0.16320182E+03</rscale>
<asrwt>0</asrwt>
<pdfrwt beam="1">  1        2 0.34919473E+00 0.17034057E+03</pdfrwt>
<pdfrwt beam="2">  1       -2 0.22398720E-02 0.17034057E+03</pdfrwt>
<totfact> 0.35043899E+03</totfact>
</mgrwt>
</event>
<event>
 6    1  0.3075717E-002  0.9829752E+02  0.7546771E-02  0.1338347E+00
          1   -1    0    0  501    0  0.00000000000E+00  0.00000000000E+00  0.11485647399E+03  0.11485647399E+03  0.00000000000E+00 0. -1.
         -1   -1    0    0    0  501 -0.00000000000E+00 -0.00000000000E+00 -0.45009355323E+02  0.45009355323E+02  0.00000000000E+00 0.  1.
         23    2    1    2    0    0  0.17112879377E+02 -0.32412824993E+02  0.73915959828E+02  0.12298768764E+03  0.91208334758E+02 0.  0.
         13    1    3    3    0    0 -0.34567640568E+01  0.31040184447E+02  0.28585476919E+02  0.42338773706E+02  0.00000000000E+00 0. -1.
        -13    1    3    3    0    0  0.20569643434E+02 -0.63453009440E+02  0.45330482910E+02  0.80648913935E+02  0.00000000000E+00 0.  1.
         22    1    1    2    0    0 -0.17112879377E+02  0.32412824993E+02 -0.40688411645E+01  0.36878141669E+02  0.00000000000E+00 0. -1.
<mgrwt>
<rscale>  0 0.76812920E+02</rscale>
<asrwt>0</asrwt>
<pdfrwt beam="1">  1        1 0.17670227E-01 0.98297519E+02</pdfrwt>
<pdfrwt beam="2">  1       -1 0.69245162E-02 0.98297519E+02</pdfrwt>
<totfact> 0.28576474E+04</totfact>
</mgrwt>
</event>
<event>
 6    1  0.3075717E-002  0.9471145E+02  0.7546771E-02  0.1366775E+00
          2   -1    0    0  501    0  0.00000000000E+00  0.00000000000E+00  0.49616066259E+02  0.49616066259E+02  0.00000000000E+00 0. -1.
         -2   -1    0    0    0  501 -0.00000000000E+00 -0.00000000000E+00 -0.74622752607E+02  0.74622752607E+02  0.00000000000E+00 0.  1.
         23    2    1    2    0    0 -0.77732993232E+01 -0.24048411169E+02 -0.11012361753E+02  0.95349523565E+02  0.91277101567E+02 0.  0.
         13    1    3    3    0    0 -0.35732541968E+02 -0.26394728513E+02  0.23991650209E+02  0.50488568295E+02  0.00000000000E+00 0. -1.
        -13    1    3    3    0    0  0.27959242644E+02  0.23463173443E+01 -0.35004011961E+02  0.44860955270E+02  0.00000000000E+00 0.  1.
         22    1    1    2    0    0  0.77732993232E+01  0.24048411169E+02 -0.13994324596E+02  0.28889295301E+02  0.00000000000E+00 0.  1.
<mgrwt>
<rscale>  0 0.68071961E+02</rscale>
<asrwt>0</asrwt>
<pdfrwt beam="1">  1        2 0.76332410E-02 0.94711454E+02</pdfrwt>
<pdfrwt beam="2">  1       -2 0.11480423E-01 0.94711454E+02</pdfrwt>
<totfact> 0.41713895E+04</totfact>
</mgrwt>
</event>
<event>
 6    1  0.3075717E-002  0.8792800E+02  0.7546771E-02  0.1429119E+00
          1   -1    0    0  501    0  0.00000000000E+00  0.00000000000E+00  0.39698012627E+03  0.39698012627E+03  0.00000000000E+00 0. -1.
         -1   -1    0    0    0  501 -0.00000000000E+00 -0.00000000000E+00 -0.70396640669E+01  0.70396640669E+01  0.00000000000E+00 0.  1.
         23    2    1    2    0    0 -0.87601145713E+00  0.11694916706E+02  0.37419429679E+03  0.38438614070E+03  0.87142383137E+02 0.  0.
         11    1    3    3    0    0 -0.25126628837E+02  0.34021971120E+02  0.10526395057E+03  0.11344311917E+03  0.00000000000E+00 0.  1.
        -11    1    3    3    0    0  0.24250617380E+02 -0.22327054413E+02  0.26893034622E+03  0.27094302153E+03  0.00000000000E+00 0. -1.
         22    1    1    2    0    0  0.87601145713E+00 -0.11694916706E+02  0.15746165409E+02  0.19633649634E+02  0.00000000000E+00 0. -1.
<mgrwt>
<rscale>  0 0.53137171E+02</rscale>
<asrwt>0</asrwt>
<pdfrwt beam="1">  1        1 0.61073848E-01 0.87928001E+02</pdfrwt>
<pdfrwt beam="2">  1       -1 0.10830256E-02 0.87928001E+02</pdfrwt>
<totfact> 0.88277310E+04</totfact>
</mgrwt>
</event>
<event>
 6    1  0.3075717E-002  0.9151385E+02  0.7546771E-02  0.1385054E+00
         -2   -1    0    0    0  501 -0.00000000000E+00  0.00000000000E+00  0.52045325615E+01  0.52045325615E+01  0.00000000000E+00 0. -1.
          2   -1    0    0  501    0  0.00000000000E+00 -0.00000000000E+00 -0.88921619696E+03  0.88921619696E+03  0.00000000000E+00 0.  1.
         23    2    1    2    0    0  0.19863078196E+02  0.60214947082E+01 -0.84746265310E+03  0.85238942570E+03  0.89129032162E+02 0.  0.
         11    1    3    3    0    0 -0.26785424115E+02  0.29030089018E+02 -0.36488567618E+03  0.36701738609E+03  0.00000000000E+00 0. -1.
        -11    1    3    3    0    0  0.46648502311E+02 -0.23008594309E+02 -0.48257697692E+03  0.48537203961E+03  0.00000000000E+00 0.  1.
         22    1    1    2    0    0 -0.19863078196E+02 -0.60214947082E+01 -0.36549011301E+02  0.42031303822E+02  0.00000000000E+00 0. -1.
<mgrwt>
<rscale>  0 0.63153818E+02</rscale>
<asrwt>0</asrwt>
<pdfrwt beam="1">  1        2 0.13680238E+00 0.91513849E+02</pdfrwt>
<pdfrwt beam="2">  1       -2 0.80069798E-03 0.91513849E+02</pdfrwt>
<totfact> 0.80579628E+04</totfact>
</mgrwt>
</event>
<event>
 6    1  0.3075717E-002  0.9137479E+02  0.7546771E-02  0.1415200E+00
          1   -1    0    0  501    0  0.00000000000E+00  0.00000000000E+00  0.26097896266E+03  0.26097896266E+03  0.00000000000E+00 0. -1.
         -1   -1    0    0    0  501 -0.00000000000E+00 -0.00000000000E+00 -0.17709407154E+02  0.17709407154E+02  0.00000000000E+00 0.  1.
         23    2    1    2    0    0 -0.10102610523E+02  0.80799125867E+01  0.24847532802E+03  0.26474391593E+03  0.90454434153E+02 0.  0.
         13    1    3    3    0    0 -0.33613755606E+02 -0.30981103892E+02  0.12960037821E+03  0.13742623984E+03  0.00000000000E+00 0.  1.
        -13    1    3    3    0    0  0.23511145084E+02  0.39061016478E+02  0.11887494981E+03  0.12731767609E+03  0.00000000000E+00 0. -1.
         22    1    1    2    0    0  0.10102610523E+02 -0.80799125867E+01 -0.52057725139E+01  0.13944453888E+02  0.00000000000E+00 0.  1.
<mgrwt>
<rscale>  0 0.56049569E+02</rscale>
<asrwt>0</asrwt>
<pdfrwt beam="1">  1        1 0.40150607E-01 0.91374791E+02</pdfrwt>
<pdfrwt beam="2">  1       -1 0.27245244E-02 0.91374791E+02</pdfrwt>
<totfact> 0.39943514E+04</totfact>
</mgrwt>
</event>
<event>
 6    1  0.3075717E-002  0.9170095E+02  0.7546771E-02  0.1428545E+00
          2   -1    0    0  501    0  0.00000000000E+00  0.00000000000E+00  0.38318159544E+03  0.38318159544E+03  0.00000000000E+00 0. -1.
         -2   -1    0    0    0  501 -0.00000000000E+00 -0.00000000000E+00 -0.24889177397E+02  0.24889177397E+02  0.00000000000E+00 0.  1.
         23    2    1    2    0    0  0.99047923569E+01 -0.32660649450E+01  0.37627213494E+03  0.38728514532E+03  0.91105939186E+02 0.  0.
         11    1    3    3    0    0  0.31012459498E+02  0.27737215537E+02  0.97573785276E+02  0.10607435761E+03  0.00000000000E+00 0.  1.
        -11    1    3    3    0    0 -0.21107667141E+02 -0.31003280482E+02  0.27869834967E+03  0.28121078770E+03  0.00000000000E+00 0. -1.
         22    1    1    2    0    0 -0.99047923569E+01  0.32660649450E+01 -0.17979716898E+02  0.20785627525E+02  0.00000000000E+00 0.  1.
<mgrwt>
<rscale>  0 0.53253121E+02</rscale>
<asrwt>0</asrwt>
<pdfrwt beam="1">  1        2 0.58951010E-01 0.91700950E+02</pdfrwt>
<pdfrwt beam="2">  1       -2 0.38291045E-02 0.91700950E+02</pdfrwt>
<totfact> 0.22099616E+04</totfact>
</mgrwt>
</event>
<event>
 6    1  0.3075717E-002  0.9597828E+02  0.7546771E-02  0.1387380E+00
          2   -1    0    0  501    0  0.00000000000E+00  0.00000000000E+00  0.44093059200E+03  0.44093059200E+03  0.00000000000E+00 0. -1.
         -2   -1    0    0    0  501 -0.00000000000E+00 -0.00000000000E+00 -0.17917728838E+02  0.17917728838E+02  0.00000000000E+00 0.  1.
         23    2    1    2    0    0  0.13995320610E+02  0.10217409225E+02  0.42968964791E+03  0.44027834763E+03  0.94401087999E+02 0.  0.
         13    1    3    3    0    0 -0.35184047655E+02  0.18237398839E+02  0.27286308781E+03  0.27572592300E+03  0.00000000000E+00 0. -1.
        -13    1    3    3    0    0  0.49179368266E+02 -0.80199896140E+01  0.15682656011E+03  0.16455242463E+03  0.00000000000E+00 0.  1.
         22    1    1    2    0    0 -0.13995320610E+02 -0.10217409225E+02 -0.66767847542E+01  0.18569973207E+02  0.00000000000E+00 0. -1.
<mgrwt>
<rscale>  0 0.62563020E+02</rscale>
<asrwt>0</asrwt>
<pdfrwt beam="1">  1        2 0.67835468E-01 0.95978278E+02</pdfrwt>
<pdfrwt beam="2">  1       -2 0.27565740E-02 0.95978278E+02</pdfrwt>
<totfact> 0.30931549E+04</totfact>
</mgrwt>
</event>
<event>
 6    1  0.3075717E-002  0.9457415E+02  0.7546771E-02  0.1401159E+00
          2   -1    0    0  501    0  0.00000000000E+00  0.00000000000E+00  0.85856398655E+03  0.85856398655E+03  0.00000000000E+00 0.  1.
         -2   -1    0    0    0  501 -0.00000000000E+00 -0.00000000000E+00 -0.35243516489E+01  0.35243516489E+01  0.00000000000E+00 0. -1.
         23    2    1    2    0    0  0.14179422082E+02  0.31913497870E+01  0.77389837548E+03  0.77965567049E+03  0.93450672780E+02 0.  0.
         13    1    3    3    0    0 -0.13197688701E+02  0.40121648429E+02  0.23219802667E+03  0.23600815504E+03  0.00000000000E+00 0. -1.
        -13    1    3    3    0    0  0.27377110783E+02 -0.36930298642E+02  0.54170034881E+03  0.54364751545E+03  0.00000000000E+00 0.  1.
         22    1    1    2    0    0 -0.14179422082E+02 -0.31913497870E+01  0.81141259423E+02  0.82432667704E+02  0.00000000000E+00 0. -1.
<mgrwt>
<rscale>  0 0.59214290E+02</rscale>
<asrwt>0</asrwt>
<pdfrwt beam="1">  1        2 0.13208660E+00 0.94574145E+02</pdfrwt>
<pdfrwt beam="2">  1       -2 0.54220863E-03 0.94574145E+02</pdfrwt>
<totfact> 0.14646019E+05</totfact>
</mgrwt>
</event>
<event>
 6    1  0.3075717E-002  0.9183712E+02  0.7546771E-02  0.1419861E+00
         -2   -1    0    0    0  501 -0.00000000000E+00  0.00000000000E+00  0.35383807094E+02  0.35383807094E+02  0.00000000000E+00 0.  1.
          2   -1    0    0  501    0  0.00000000000E+00 -0.00000000000E+00 -0.88949933483E+02  0.88949933483E+02  0.00000000000E+00 0. -1.
         23    2    1    2    0    0  0.37399585459E+01 -0.11251954535E+02 -0.61081799585E+02  0.11029525368E+03  0.91068452128E+02 0.  0.
         11    1    3    3    0    0  0.38957787363E+02  0.20383625494E+02 -0.23521401548E+02  0.49864393261E+02  0.00000000000E+00 0. -1.
        -11    1    3    3    0    0 -0.35217828817E+02 -0.31635580029E+02 -0.37560398037E+02  0.60430860419E+02  0.00000000000E+00 0.  1.
         22    1    1    2    0    0 -0.37399585459E+01  0.11251954535E+02  0.75156731956E+01  0.14038486898E+02  0.00000000000E+00 0. -1.
<mgrwt>
<rscale>  0 0.55050270E+02</rscale>
<asrwt>0</asrwt>
<pdfrwt beam="1">  1        2 0.13684605E-01 0.91837121E+02</pdfrwt>
<pdfrwt beam="2">  1       -2 0.54436626E-02 0.91837121E+02</pdfrwt>
<totfact> 0.64222588E+04</totfact>
</mgrwt>
</event>
<event>
 6    1  0.3075717E-002  0.9527329E+02  0.7546771E-02  0.1377798E+00
          2   -1    0    0  501    0  0.00000000000E+00  0.00000000000E+00  0.78760148808E+03  0.78760148808E+03  0.00000000000E+00 0. -1.
         -2   -1    0    0    0  501 -0.00000000000E+00 -0.00000000000E+00 -0.46982728498E+01  0.46982728498E+01  0.00000000000E+00 0.  1.
         23    2    1    2    0    0  0.19764087517E+02  0.61545364906E+01  0.71476267269E+03  0.72108437627E+03  0.92997322290E+02 0.  0.
         13    1    3    3    0    0 -0.69783632283E+01  0.37289079521E+02  0.54925959488E+03  0.55056813890E+03  0.00000000000E+00 0. -1.
        -13    1    3    3    0    0  0.26742450745E+02 -0.31134543030E+02  0.16550307781E+03  0.17051623737E+03  0.00000000000E+00 0.  1.
         22    1    1    2    0    0 -0.19764087517E+02 -0.61545364906E+01  0.68140542544E+02  0.71215384665E+02  0.00000000000E+00 0.  1.
<mgrwt>
<rscale>  0 0.65046195E+02</rscale>
<asrwt>0</asrwt>
<pdfrwt beam="1">  1        2 0.12116935E+00 0.95273288E+02</pdfrwt>
<pdfrwt beam="2">  1       -2 0.72281184E-03 0.95273288E+02</pdfrwt>
<totfact> 0.10885223E+05</totfact>
</mgrwt>
</event>
<event>
 6    1  0.3075717E-002  0.9520072E+02  0.7546771E-02  0.1404777E+00
          1   -1    0    0  501    0  0.00000000000E+00  0.00000000000E+00  0.26131397183E+04  0.26131397183E+04  0.00000000000E+00 0. -1.
         -1   -1    0    0    0  501 -0.00000000000E+00 -0.00000000000E+00 -0.15408098240E+01  0.15408098240E+01  0.00000000000E+00 0.  1.
         23    2    1    2    0    0  0.13279403195E+02 -0.21909116453E+01  0.25425765992E+04  0.25443582570E+04  0.94244545474E+02 0.  0.
         11    1    3    3    0    0  0.29194569575E+02  0.40057016012E+01  0.24524884010E+04  0.24526654328E+04  0.00000000000E+00 0. -1.
        -11    1    3    3    0    0 -0.15915166380E+02 -0.61966132465E+01  0.90088198227E+02  0.91692824127E+02  0.00000000000E+00 0.  1.
         22    1    1    2    0    0 -0.13279403195E+02  0.21909116453E+01  0.69022309322E+02  0.70322271203E+02  0.00000000000E+00 0. -1.
<mgrwt>
<rscale>  0 0.58375789E+02</rscale>
<asrwt>0</asrwt>
<pdfrwt beam="1">  1        1 0.40201795E+00 0.95200720E+02</pdfrwt>
<pdfrwt beam="2">  1       -1 0.23704976E-03 0.95200720E+02</pdfrwt>
<totfact> 0.18876447E+04</totfact>
</mgrwt>
</event>
<event>
 6    1  0.3075717E-002  0.9411905E+02  0.7546771E-02  0.1382343E+00
         -2   -1    0    0    0  501 -0.00000000000E+00  0.00000000000E+00  0.38375145587E+02  0.38375145587E+02  0.00000000000E+00 0.  1.
          2   -1    0    0  501    0  0.00000000000E+00 -0.00000000000E+00 -0.38266871933E+03  0.38266871933E+03  0.00000000000E+00 0. -1.
         23    2    1    2    0    0  0.18075919869E+02  0.84115945878E+01 -0.37378115603E+03  0.38544876256E+03  0.91983162365E+02 0.  0.
         13    1    3    3    0    0 -0.20338875319E+02  0.39659482617E+02 -0.18188032507E+03  0.18726184090E+03  0.00000000000E+00 0. -1.
        -13    1    3    3    0    0  0.38414795188E+02 -0.31247888030E+02 -0.19190083096E+03  0.19818692166E+03  0.00000000000E+00 0.  1.
         22    1    1    2    0    0 -0.18075919869E+02 -0.84115945878E+01  0.29487582283E+02  0.35595102353E+02  0.00000000000E+00 0.  1.
<mgrwt>
<rscale>  0 0.63851992E+02</rscale>
<asrwt>0</asrwt>
<pdfrwt beam="1">  1        2 0.58872110E-01 0.94119052E+02</pdfrwt>
<pdfrwt beam="2">  1       -2 0.59038686E-02 0.94119052E+02</pdfrwt>
<totfact> 0.11672267E+04</totfact>
</mgrwt>
</event>
<event>
 6    1  0.3075717E-002  0.1207867E+03  0.7546771E-02  0.1262331E+00
         -1   -1    0    0    0  501 -0.00000000000E+00  0.00000000000E+00  0.20158824168E+02  0.20158824168E+02  0.00000000000E+00 0.  1.
          1   -1    0    0  501    0  0.00000000000E+00 -0.00000000000E+00 -0.64648290594E+03  0.64648290594E+03  0.00000000000E+00 0. -1.
         23    2    1    2    0    0  0.45827152367E+02  0.65893567006E+02 -0.20664548901E+03  0.23935703428E+03  0.90262626061E+02 0.  0.
         13    1    3    3    0    0  0.56456618852E+02  0.80435960547E+02 -0.19360921505E+03  0.21712167491E+03  0.00000000000E+00 0. -1.
        -13    1    3    3    0    0 -0.10629466485E+02 -0.14542393541E+02 -0.13036273956E+02  0.22235359370E+02  0.00000000000E+00 0.  1.
         22    1    1    2    0    0 -0.45827152367E+02 -0.65893567006E+02 -0.41967859277E+03  0.42728469583E+03  0.00000000000E+00 0.  1.
<mgrwt>
<rscale>  0 0.10905429E+03</rscale>
<asrwt>0</asrwt>
<pdfrwt beam="1">  1        1 0.99458906E-01 0.12078672E+03</pdfrwt>
<pdfrwt beam="2">  1       -1 0.31013577E-02 0.12078672E+03</pdfrwt>
<totfact> 0.10765339E+04</totfact>
</mgrwt>
</event>
<event>
 6    1  0.3075717E-002  0.7470787E+02  0.7546771E-02  0.1444455E+00
         -2   -1    0    0    0  501 -0.00000000000E+00  0.00000000000E+00  0.26735401459E+01  0.26735401459E+01  0.00000000000E+00 0.  1.
          2   -1    0    0  501    0  0.00000000000E+00 -0.00000000000E+00 -0.14817719926E+04  0.14817719926E+04  0.00000000000E+00 0. -1.
         23    2    1    2    0    0 -0.71195663976E+01  0.13415605463E+02 -0.14470843337E+04  0.14490115026E+04  0.73147788806E+02 0.  0.
         11    1    3    3    0    0  0.24323415857E+02 -0.15750429126E+02 -0.78845670664E+03  0.78898902580E+03  0.00000000000E+00 0. -1.
        -11    1    3    3    0    0 -0.31442982255E+02  0.29166034590E+02 -0.65862762708E+03  0.66002247679E+03  0.00000000000E+00 0.  1.
         22    1    1    2    0    0  0.71195663976E+01 -0.13415605463E+02 -0.32014118727E+02  0.35434030162E+02  0.00000000000E+00 0.  1.
<mgrwt>
<rscale>  0 0.50164660E+02</rscale>
<asrwt>0</asrwt>
<pdfrwt beam="1">  1        2 0.22796512E+00 0.74707869E+02</pdfrwt>
<pdfrwt beam="2">  1       -2 0.41131351E-03 0.74707869E+02</pdfrwt>
<totfact> 0.94269938E+04</totfact>
</mgrwt>
</event>
<event>
 6    1  0.3075717E-002  0.9422498E+02  0.7546771E-02  0.1422388E+00
          4   -1    0    0  501    0  0.00000000000E+00  0.00000000000E+00  0.17286149782E+03  0.17286149782E+03  0.00000000000E+00 0. -1.
         -4   -1    0    0    0  501 -0.00000000000E+00 -0.00000000000E+00 -0.15884020634E+02  0.15884020634E+02  0.00000000000E+00 0.  1.
         23    2    1    2    0    0 -0.52350879967E+01  0.91717753070E+01  0.14206540137E+03  0.17047265294E+03  0.93631295666E+02 0.  0.
         13    1    3    3    0    0 -0.23185914584E+02  0.16367958653E+01  0.14823813819E+03  0.15004936305E+03  0.00000000000E+00 0. -1.
        -13    1    3    3    0    0  0.17950826588E+02  0.75349794418E+01 -0.61727368264E+01  0.20423289899E+02  0.00000000000E+00 0.  1.
         22    1    1    2    0    0  0.52350879967E+01 -0.91717753070E+01  0.14912075817E+02  0.18272865506E+02  0.00000000000E+00 0.  1.
<mgrwt>
<rscale>  0 0.54518933E+02</rscale>
<asrwt>0</asrwt>
<pdfrwt beam="1">  1        4 0.26594075E-01 0.94224981E+02</pdfrwt>
<pdfrwt beam="2">  1       -4 0.24436956E-02 0.94224981E+02</pdfrwt>
<totfact> 0.14528947E+04</totfact>
</mgrwt>
</event>
<event>
 6    1  0.3075717E-002  0.1012767E+03  0.7546771E-02  0.1327306E+00
          2   -1    0    0  501    0  0.00000000000E+00  0.00000000000E+00  0.67520926055E+03  0.67520926055E+03  0.00000000000E+00 0. -1.
         -2   -1    0    0    0  501 -0.00000000000E+00 -0.00000000000E+00 -0.10083663366E+02  0.10083663366E+02  0.00000000000E+00 0.  1.
         23    2    1    2    0    0 -0.36462088170E+02  0.18000367977E+02  0.60019984451E+03  0.60868450087E+03  0.92754898138E+02 0.  0.
         13    1    3    3    0    0 -0.65611472961E+02  0.14391645960E+02  0.49218162309E+03  0.49674413430E+03  0.00000000000E+00 0.  1.
        -13    1    3    3    0    0  0.29149384791E+02  0.36087220174E+01  0.10801822142E+03  0.11194036657E+03  0.00000000000E+00 0. -1.
         22    1    1    2    0    0  0.36462088170E+02 -0.18000367977E+02  0.64925752669E+02  0.76608423040E+02  0.00000000000E+00 0. -1.
<mgrwt>
<rscale>  0 0.80618100E+02</rscale>
<asrwt>0</asrwt>
<pdfrwt beam="1">  1        2 0.10387831E+00 0.10127669E+03</pdfrwt>
<pdfrwt beam="2">  1       -2 0.15513334E-02 0.10127669E+03</pdfrwt>
<totfact> 0.44506239E+04</totfact>
</mgrwt>
</event>
<event>
 6    1  0.3075717E-002  0.9376324E+02  0.7546771E-02  0.1409144E+00
          2   -1    0    0  501    0  0.00000000000E+00  0.00000000000E+00  0.25378737840E+03  0.25378737840E+03  0.00000000000E+00 0. -1.
         -2   -1    0    0    0  501 -0.00000000000E+00 -0.00000000000E+00 -0.11669946542E+02  0.11669946542E+02  0.00000000000E+00 0.  1.
         23    2    1    2    0    0 -0.34669188514E+00  0.13150787983E+02  0.22582465757E+03  0.24451650562E+03  0.92835780466E+02 0.  0.
         11    1    3    3    0    0 -0.19986298951E+02  0.43390694021E+02  0.17986035050E+03  0.18609661511E+03  0.00000000000E+00 0. -1.
        -11    1    3    3    0    0  0.19639607066E+02 -0.30239906039E+02  0.45964307071E+02  0.58419890512E+02  0.00000000000E+00 0.  1.
         22    1    1    2    0    0  0.34669188514E+00 -0.13150787983E+02  0.16292774284E+02  0.20940819318E+02  0.00000000000E+00 0.  1.
<mgrwt>
<rscale>  0 0.57385229E+02</rscale>
<asrwt>0</asrwt>
<pdfrwt beam="1">  1        2 0.39044208E-01 0.93763242E+02</pdfrwt>
<pdfrwt beam="2">  1       -2 0.17953766E-02 0.93763242E+02</pdfrwt>
<totfact> 0.10225676E+05</totfact>
</mgrwt>
</event>
<event>
 6    1  0.3075717E-002  0.9883401E+02  0.7546771E-02  0.1349947E+00
          2   -1    0    0  501    0  0.00000000000E+00  0.00000000000E+00  0.67904789425E+03  0.67904789425E+03  0.00000000000E+00 0. -1.
         -2   -1    0    0    0  501 -0.00000000000E+00 -0.00000000000E+00 -0.64608976542E+01  0.64608976542E+01  0.00000000000E+00 0.  1.
         23    2    1    2    0    0 -0.16096542758E+01  0.29487933849E+02  0.57894028951E+03  0.58731594605E+03  0.94318780914E+02 0.  0.
         13    1    3    3    0    0 -0.40358099815E+02  0.77555267143E+01  0.13392768254E+03  0.14009121516E+03  0.00000000000E+00 0. -1.
        -13    1    3    3    0    0  0.38748445540E+02  0.21732407135E+02  0.44501260697E+03  0.44722473089E+03  0.00000000000E+00 0.  1.
         22    1    1    2    0    0  0.16096542758E+01 -0.29487933849E+02  0.93646707085E+02  0.98192845857E+02  0.00000000000E+00 0.  1.
<mgrwt>
<rscale>  0 0.73072240E+02</rscale>
<asrwt>0</asrwt>
<pdfrwt beam="1">  1        2 0.10446885E+00 0.98834011E+02</pdfrwt>
<pdfrwt beam="2">  1       -2 0.99398479E-03 0.98834011E+02</pdfrwt>
<totfact> 0.83129713E+04</totfact>
</mgrwt>
</event>
<event>
 6    1  0.3075717E-002  0.9101108E+02  0.7546771E-02  0.1427907E+00
          2   -1    0    0  501    0  0.00000000000E+00  0.00000000000E+00  0.18573356337E+03  0.18573356337E+03  0.00000000000E+00 0. -1.
         -2   -1    0    0    0  501 -0.00000000000E+00 -0.00000000000E+00 -0.18402424478E+02  0.18402424478E+02  0.00000000000E+00 0.  1.
         23    2    1    2    0    0 -0.73690784751E+01 -0.78575728251E+01  0.17018488027E+03  0.19299199358E+03  0.90371297136E+02 0.  0.
         11    1    3    3    0    0  0.33433640050E+02 -0.23321903492E+02  0.46513035404E+02  0.61848055200E+02  0.00000000000E+00 0.  1.
        -11    1    3    3    0    0 -0.40802718525E+02  0.15464330667E+02  0.12367184487E+03  0.13114393838E+03  0.00000000000E+00 0. -1.
         22    1    1    2    0    0  0.73690784751E+01  0.78575728251E+01 -0.28537413810E+01  0.11143994263E+02  0.00000000000E+00 0.  1.
<mgrwt>
<rscale>  0 0.53382497E+02</rscale>
<asrwt>0</asrwt>
<pdfrwt beam="1">  1        2 0.28574393E-01 0.91011077E+02</pdfrwt>
<pdfrwt beam="2">  1       -2 0.28311424E-02 0.91011077E+02</pdfrwt>
<totfact> 0.73539549E+04</totfact>
</mgrwt>
</event>
<event>
 6    1  0.3075717E-002  0.9510597E+02  0.7546771E-02  0.1361327E+00
         -1   -1    0    0    0  501 -0.00000000000E+00  0.00000000000E+00  0.74763286115E+02  0.74763286115E+02  0.00000000000E+00 0.  1.
          1   -1    0    0  501    0  0.00000000000E+00 -0.00000000000E+00 -0.50628629165E+02  0.50628629165E+02  0.00000000000E+00 0. -1.
         23    2    1    2    0    0 -0.20494316465E+02  0.18093057353E+02  0.13505489102E+02  0.96060107616E+02  0.91092097942E+02 0.  0.
         11    1    3    3    0    0 -0.12905826048E+02  0.40257841693E+02  0.41714254804E+02  0.59391356422E+02  0.00000000000E+00 0.  1.
        -11    1    3    3    0    0 -0.75884904168E+01 -0.22164784340E+02 -0.28208765703E+02  0.36668751194E+02  0.00000000000E+00 0. -1.
         22    1    1    2    0    0  0.20494316465E+02 -0.18093057353E+02  0.10629167848E+02  0.29331807665E+02  0.00000000000E+00 0. -1.
<mgrwt>
<rscale>  0 0.69638309E+02</rscale>
<asrwt>0</asrwt>
<pdfrwt beam="1">  1        1 0.77890198E-02 0.95105973E+02</pdfrwt>
<pdfrwt beam="2">  1       -1 0.11502044E-01 0.95105973E+02</pdfrwt>
<totfact> 0.38479722E+04</totfact>
</mgrwt>
</event>
<event>
 6    1  0.3075717E-002  0.1256863E+03  0.7546771E-02  0.1293910E+00
          2   -1    0    0  501    0  0.00000000000E+00  0.00000000000E+00  0.95304419638E+03  0.95304419638E+03  0.00000000000E+00 0. -1.
         -2   -1    0    0    0  501 -0.00000000000E+00 -0.00000000000E+00 -0.14222422302E+02  0.14222422302E+02  0.00000000000E+00 0.  1.
         23    2    1    2    0    0  0.11080768604E+02 -0.37375812583E+02  0.91036804938E+03  0.91900328635E+03  0.11948774073E+03 0.  0.
         11    1    3    3    0    0  0.83279011033E+01 -0.52763201428E+02  0.16417012650E+03  0.17264165139E+03  0.00000000000E+00 0.  1.
        -11    1    3    3    0    0  0.27528675007E+01  0.15387388845E+02  0.74619792288E+03  0.74636163495E+03  0.00000000000E+00 0. -1.
         22    1    1    2    0    0 -0.11080768604E+02  0.37375812583E+02  0.28453724699E+02  0.48263332337E+02  0.00000000000E+00 0.  1.
<mgrwt>
<rscale>  0 0.93796585E+02</rscale>
<asrwt>0</asrwt>
<pdfrwt beam="1">  1        2 0.14662213E+00 0.12568634E+03</pdfrwt>
<pdfrwt beam="2">  1       -2 0.21880657E-02 0.12568634E+03</pdfrwt>
<totfact> 0.18041399E+04</totfact>
</mgrwt>
</event>
<event>
 6    1  0.3075717E-002  0.9352199E+02  0.7546771E-02  0.1375732E+00
         -2   -1    0    0    0  501 -0.00000000000E+00  0.00000000000E+00  0.12587425051E+02  0.12587425051E+02  0.00000000000E+00 0.  1.
          2   -1    0    0  501    0  0.00000000000E+00 -0.00000000000E+00 -0.43165170869E+03  0.43165170869E+03  0.00000000000E+00 0. -1.
         23    2    1    2    0    0 -0.22099302677E+02 -0.49129266903E+01 -0.40883720614E+03  0.41939745220E+03  0.90740540886E+02 0.  0.
         13    1    3    3    0    0 -0.34024313418E+01 -0.46710578048E+02 -0.17768049393E+03  0.18374931990E+03  0.00000000000E+00 0. -1.
        -13    1    3    3    0    0 -0.18696871336E+02  0.41797651358E+02 -0.23115671221E+03  0.23564813230E+03  0.00000000000E+00 0.  1.
         22    1    1    2    0    0  0.22099302677E+02  0.49129266903E+01 -0.10227077497E+02  0.24841681538E+02  0.00000000000E+00 0.  1.
<mgrwt>
<rscale>  0 0.65599227E+02</rscale>
<asrwt>0</asrwt>
<pdfrwt beam="1">  1        2 0.66407953E-01 0.93521986E+02</pdfrwt>
<pdfrwt beam="2">  1       -2 0.19365270E-02 0.93521986E+02</pdfrwt>
<totfact> 0.52517525E+04</totfact>
</mgrwt>
</event>
<event>
 6    1  0.3075717E-002  0.8962729E+02  0.7546771E-02  0.1403563E+00
          2   -1    0    0  501    0  0.00000000000E+00  0.00000000000E+00  0.11412822104E+04  0.11412822104E+04  0.00000000000E+00 0.  1.
         -2   -1    0    0    0  501 -0.00000000000E+00 -0.00000000000E+00 -0.29645449641E+01  0.29645449641E+01  0.00000000000E+00 0. -1.
         23    2    1    2    0    0  0.10709698048E+02  0.12473415208E+02  0.10782892974E+04  0.10820077909E+04  0.88106566874E+02 0.  0.
         13    1    3    3    0    0  0.46454401431E+02  0.19485023424E+02  0.48727094349E+03  0.48986799234E+03  0.00000000000E+00 0. -1.
        -13    1    3    3    0    0 -0.35744703383E+02 -0.70116082154E+01  0.59101835387E+03  0.59213979860E+03  0.00000000000E+00 0.  1.
         22    1    1    2    0    0 -0.10709698048E+02 -0.12473415208E+02  0.60028368085E+02  0.62238964437E+02  0.00000000000E+00 0. -1.
<mgrwt>
<rscale>  0 0.58655357E+02</rscale>
<asrwt>0</asrwt>
<pdfrwt beam="1">  1        2 0.17558153E+00 0.89627289E+02</pdfrwt>
<pdfrwt beam="2">  1       -2 0.45608475E-03 0.89627289E+02</pdfrwt>
<totfact> 0.12623558E+05</totfact>
</mgrwt>
</event>
<event>
 6    1  0.3075717E-002  0.9556246E+02  0.7546771E-02  0.1359929E+00
         -2   -1    0    0    0  501 -0.00000000000E+00  0.00000000000E+00  0.37705471946E+01  0.37705471946E+01  0.00000000000E+00 0.  1.
          2   -1    0    0  501    0  0.00000000000E+00 -0.00000000000E+00 -0.23200974489E+04  0.23200974489E+04  0.00000000000E+00 0. -1.
         23    2    1    2    0    0 -0.26573975196E+02  0.74118275216E+01 -0.22500504538E+04  0.22520788682E+04  0.91493564577E+02 0.  0.
         11    1    3    3    0    0 -0.36784499795E+01  0.77156931050E+01 -0.18161313519E+02  0.20072274985E+02  0.00000000000E+00 0.  1.
        -11    1    3    3    0    0 -0.22895525216E+02 -0.30386558347E+00 -0.22318891403E+04  0.22320065932E+04  0.00000000000E+00 0. -1.
         22    1    1    2    0    0  0.26573975196E+02 -0.74118275216E+01 -0.66276447928E+02  0.71789127971E+02  0.00000000000E+00 0.  1.
<mgrwt>
<rscale>  0 0.70048125E+02</rscale>
<asrwt>0</asrwt>
<pdfrwt beam="1">  1        2 0.35693864E+00 0.95562460E+02</pdfrwt>
<pdfrwt beam="2">  1       -2 0.58008325E-03 0.95562460E+02</pdfrwt>
<totfact> 0.22542848E+04</totfact>
</mgrwt>
</event>
<event>
 6    1  0.3075717E-002  0.9168945E+02  0.7546771E-02  0.1399939E+00
          2   -1    0    0  501    0  0.00000000000E+00  0.00000000000E+00  0.62976117171E+03  0.62976117171E+03  0.00000000000E+00 0.  1.
         -2   -1    0    0    0  501 -0.00000000000E+00 -0.00000000000E+00 -0.50174243962E+01  0.50174243962E+01  0.00000000000E+00 0. -1.
         23    2    1    2    0    0  0.10129416272E+02 -0.12719832135E+02  0.57934559234E+03  0.58655628095E+03  0.90236113393E+02 0.  0.
         13    1    3    3    0    0  0.18563170607E+02  0.33515891811E+02  0.37112587997E+03  0.37309827806E+03  0.00000000000E+00 0.  1.
        -13    1    3    3    0    0 -0.84337543348E+01 -0.46235723946E+02  0.20821971237E+03  0.21345800290E+03  0.00000000000E+00 0. -1.
         22    1    1    2    0    0 -0.10129416272E+02  0.12719832135E+02  0.45398154976E+02  0.48222315153E+02  0.00000000000E+00 0. -1.
<mgrwt>
<rscale>  0 0.59500696E+02</rscale>
<asrwt>0</asrwt>
<pdfrwt beam="1">  1        2 0.96886272E-01 0.91689451E+02</pdfrwt>
<pdfrwt beam="2">  1       -2 0.77191194E-03 0.91689451E+02</pdfrwt>
<totfact> 0.12825412E+05</totfact>
</mgrwt>
</event>
<event>
 6    1  0.3075717E-002  0.9705846E+02  0.7546771E-02  0.1346826E+00
          2   -1    0    0  501    0  0.00000000000E+00  0.00000000000E+00  0.32030736025E+03  0.32030736025E+03  0.00000000000E+00 0. -1.
         -2   -1    0    0    0  501 -0.00000000000E+00 -0.00000000000E+00 -0.17890449530E+02  0.17890449530E+02  0.00000000000E+00 0.  1.
         23    2    1    2    0    0  0.28884626973E+02 -0.15734810375E+02  0.28480095170E+03  0.30088523891E+03  0.91315053373E+02 0.  0.
         13    1    3    3    0    0  0.48061598278E+02 -0.88786555281E+01  0.27301448817E+03  0.27735475208E+03  0.00000000000E+00 0. -1.
        -13    1    3    3    0    0 -0.19176971306E+02 -0.68561548474E+01  0.11786463529E+02  0.23530486826E+02  0.00000000000E+00 0.  1.
         22    1    1    2    0    0 -0.28884626973E+02  0.15734810375E+02  0.17615959026E+02  0.37312570875E+02  0.00000000000E+00 0.  1.
<mgrwt>
<rscale>  0 0.74054037E+02</rscale>
<asrwt>0</asrwt>
<pdfrwt beam="1">  1        2 0.49278051E-01 0.97058461E+02</pdfrwt>
<pdfrwt beam="2">  1       -2 0.27523771E-02 0.97058461E+02</pdfrwt>
<totfact> 0.43464338E+04</totfact>
</mgrwt>
</event>
<event>
 6    1  0.3075717E-002  0.9209457E+02  0.7546771E-02  0.1393891E+00
         -1   -1    0    0    0  501 -0.00000000000E+00  0.00000000000E+00  0.84255954182E+01  0.84255954182E+01  0.00000000000E+00 0.  1.
          1   -1    0    0  501    0  0.00000000000E+00 -0.00000000000E+00 -0.40854914844E+03  0.40854914844E+03  0.00000000000E+00 0. -1.
         23    2    1    2    0    0  0.52334303727E+00 -0.17659410679E+02 -0.37575135303E+03  0.38687270396E+03  0.90384075446E+02 0.  0.
         11    1    3    3    0    0  0.22016835009E+02 -0.53950260516E+01 -0.19905635603E+02  0.30167559707E+02  0.00000000000E+00 0.  1.
        -11    1    3    3    0    0 -0.21493491972E+02 -0.12264384627E+02 -0.35584571742E+03  0.35670514425E+03  0.00000000000E+00 0. -1.
         22    1    1    2    0    0 -0.52334303727E+00  0.17659410679E+02 -0.24372199995E+02  0.30102039898E+02  0.00000000000E+00 0.  1.
<mgrwt>
<rscale>  0 0.60949090E+02</rscale>
<asrwt>0</asrwt>
<pdfrwt beam="1">  1        1 0.62853711E-01 0.92094570E+02</pdfrwt>
<pdfrwt beam="2">  1       -1 0.12962455E-02 0.92094570E+02</pdfrwt>
<totfact> 0.66510929E+04</totfact>
</mgrwt>
</event>
<event>
 6    1  0.3075717E-002  0.9368585E+02  0.7546771E-02  0.1425614E+00
         -1   -1    0    0    0  501 -0.00000000000E+00  0.00000000000E+00  0.64498078337E+01  0.64498078337E+01  0.00000000000E+00 0.  1.
          1   -1    0    0  501    0  0.00000000000E+00 -0.00000000000E+00 -0.73018545535E+03  0.73018545535E+03  0.00000000000E+00 0. -1.
         23    2    1    2    0    0  0.58469990183E+01 -0.83904200169E+01 -0.71948733759E+03  0.72556120870E+03  0.93126001006E+02 0.  0.
         13    1    3    3    0    0  0.33615755232E+02 -0.31149367460E+02 -0.56931180063E+03  0.57115341934E+03  0.00000000000E+00 0. -1.
        -13    1    3    3    0    0 -0.27768756214E+02  0.22758947443E+02 -0.15017553696E+03  0.15440778935E+03  0.00000000000E+00 0.  1.
         22    1    1    2    0    0 -0.58469990183E+01  0.83904200169E+01 -0.42483099238E+01  0.11074054487E+02  0.00000000000E+00 0.  1.
<mgrwt>
<rscale>  0 0.53850530E+02</rscale>
<asrwt>0</asrwt>
<pdfrwt beam="1">  1        1 0.11233620E+00 0.93685851E+02</pdfrwt>
<pdfrwt beam="2">  1       -1 0.99227834E-03 0.93685851E+02</pdfrwt>
<totfact> 0.45209376E+04</totfact>
</mgrwt>
</event>
<event>
 6    1  0.3075717E-002  0.9317975E+02  0.7546771E-02  0.1406418E+00
         -2   -1    0    0    0  501 -0.00000000000E+00  0.00000000000E+00  0.32068610059E+02  0.32068610059E+02  0.00000000000E+00 0.  1.
          2   -1    0    0  501    0  0.00000000000E+00 -0.00000000000E+00 -0.12310248320E+03  0.12310248320E+03  0.00000000000E+00 0. -1.
         23    2    1    2    0    0  0.13945848495E+02 -0.10924975227E+01 -0.10143668558E+03  0.13773840133E+03  0.92123752523E+02 0.  0.
         13    1    3    3    0    0  0.32718504467E+02 -0.26112078804E+02 -0.97632981407E+02  0.10622871670E+03  0.00000000000E+00 0. -1.
        -13    1    3    3    0    0 -0.18772655973E+02  0.25019581282E+02 -0.38037041690E+01  0.31509684625E+02  0.00000000000E+00 0.  1.
         22    1    1    2    0    0 -0.13945848495E+02  0.10924975227E+01  0.10402812440E+02  0.17432691925E+02  0.00000000000E+00 0.  1.
<mgrwt>
<rscale>  0 0.58000873E+02</rscale>
<asrwt>0</asrwt>
<pdfrwt beam="1">  1        2 0.18938844E-01 0.93179751E+02</pdfrwt>
<pdfrwt beam="2">  1       -2 0.49336323E-02 0.93179751E+02</pdfrwt>
<totfact> 0.51317328E+04</totfact>
</mgrwt>
</event>
<event>
 6    1  0.3075717E-002  0.8467931E+02  0.7546771E-02  0.1441270E+00
         -2   -1    0    0    0  501 -0.00000000000E+00  0.00000000000E+00  0.26174043836E+02  0.26174043836E+02  0.00000000000E+00 0. -1.
          2   -1    0    0  501    0  0.00000000000E+00 -0.00000000000E+00 -0.96080373011E+02  0.96080373011E+02  0.00000000000E+00 0.  1.
         23    2    1    2    0    0  0.10933620797E+02 -0.21691189108E+00 -0.71962651072E+02  0.11112699243E+03  0.83970198176E+02 0.  0.
         13    1    3    3    0    0  0.40851939457E+02  0.34843927478E+01 -0.99730911291E+01  0.42195787667E+02  0.00000000000E+00 0. -1.
        -13    1    3    3    0    0 -0.29918318660E+02 -0.37013046389E+01 -0.61989559943E+02  0.68931204758E+02  0.00000000000E+00 0.  1.
         22    1    1    2    0    0 -0.10933620797E+02  0.21691189108E+00  0.20563218967E+01  0.11127424421E+02  0.00000000000E+00 0. -1.
<mgrwt>
<rscale>  0 0.50762773E+02</rscale>
<asrwt>0</asrwt>
<pdfrwt beam="1">  1        2 0.14781596E-01 0.84679309E+02</pdfrwt>
<pdfrwt beam="2">  1       -2 0.40267759E-02 0.84679309E+02</pdfrwt>
<totfact> 0.90604893E+04</totfact>
</mgrwt>
</event>
<event>
 6    1  0.3075717E-002  0.8752324E+02  0.7546771E-02  0.1392258E+00
          2   -1    0    0  501    0  0.00000000000E+00  0.00000000000E+00  0.27842680018E+04  0.27842680018E+04  0.00000000000E+00 0. -1.
         -2   -1    0    0    0  501 -0.00000000000E+00 -0.00000000000E+00 -0.27010229784E+01  0.27010229784E+01  0.00000000000E+00 0.  1.
         23    2    1    2    0    0 -0.10451723637E+02 -0.18361262194E+02  0.27277449982E+04  0.27291487854E+04  0.84934936960E+02 0.  0.
         13    1    3    3    0    0 -0.42552340654E+02 -0.47822507293E+00  0.20220552210E+04  0.20225029660E+04  0.00000000000E+00 0. -1.
        -13    1    3    3    0    0  0.32100617017E+02 -0.17883037121E+02  0.70568977713E+03  0.70664581947E+03  0.00000000000E+00 0.  1.
         22    1    1    2    0    0  0.10451723637E+02  0.18361262194E+02  0.53821980615E+02  0.57820239309E+02  0.00000000000E+00 0.  1.
<mgrwt>
<rscale>  0 0.61348644E+02</rscale>
<asrwt>0</asrwt>
<pdfrwt beam="1">  1        2 0.42834663E+00 0.87523243E+02</pdfrwt>
<pdfrwt beam="2">  1       -2 0.41554422E-03 0.87523243E+02</pdfrwt>
<totfact> 0.20339510E+04</totfact>
</mgrwt>
</event>
<event>
 6    1  0.3075717E-002  0.9349041E+02  0.7546771E-02  0.1357571E+00
         -2   -1    0    0    0  501 -0.00000000000E+00  0.00000000000E+00  0.23822779797E+02  0.23822779797E+02  0.00000000000E+00 0.  1.
          2   -1    0    0  501    0  0.00000000000E+00 -0.00000000000E+00 -0.55293595213E+03  0.55293595213E+03  0.00000000000E+00 0. -1.
         23    2    1    2    0    0 -0.26769610581E+02 -0.14941647651E+02 -0.53702090729E+03  0.54509807563E+03  0.88320961828E+02 0.  0.
         13    1    3    3    0    0 -0.15311211322E+02  0.41052403560E+01 -0.50938812892E+03  0.50963472417E+03  0.00000000000E+00 0. -1.
        -13    1    3    3    0    0 -0.11458399259E+02 -0.19046888007E+02 -0.27632778373E+02  0.35463351463E+02  0.00000000000E+00 0.  1.
         22    1    1    2    0    0  0.26769610581E+02  0.14941647651E+02  0.79077349583E+01  0.31660656300E+02  0.00000000000E+00 0.  1.
<mgrwt>
<rscale>  0 0.70747074E+02</rscale>
<asrwt>0</asrwt>
<pdfrwt beam="1">  1        2 0.85067067E-01 0.93490412E+02</pdfrwt>
<pdfrwt beam="2">  1       -2 0.36650432E-02 0.93490412E+02</pdfrwt>
<totfact> 0.15940236E+04</totfact>
</mgrwt>
</event>
<event>
 6    1  0.3075717E-002  0.9265893E+02  0.7546771E-02  0.1412843E+00
         -4   -1    0    0    0  501 -0.00000000000E+00  0.00000000000E+00  0.11865647751E+02  0.11865647751E+02  0.00000000000E+00 0.  1.
          4   -1    0    0  501    0  0.00000000000E+00 -0.00000000000E+00 -0.31029835038E+03  0.31029835038E+03  0.00000000000E+00 0. -1.
         23    2    1    2    0    0  0.24112987732E+01 -0.12639831384E+02 -0.29446349515E+03  0.30869795539E+03  0.91761091894E+02 0.  0.
         13    1    3    3    0    0  0.44570590343E+02 -0.36818384762E+01 -0.19887971599E+03  0.20384610590E+03  0.00000000000E+00 0. -1.
        -13    1    3    3    0    0 -0.42159291570E+02 -0.89579929080E+01 -0.95583779161E+02  0.10485184949E+03  0.00000000000E+00 0.  1.
         22    1    1    2    0    0 -0.24112987732E+01  0.12639831384E+02 -0.39692074808E+01  0.13466042745E+02  0.00000000000E+00 0. -1.
<mgrwt>
<rscale>  0 0.56564162E+02</rscale>
<asrwt>0</asrwt>
<pdfrwt beam="1">  1        4 0.47738216E-01 0.92658932E+02</pdfrwt>
<pdfrwt beam="2">  1       -4 0.18254840E-02 0.92658932E+02</pdfrwt>
<totfact> 0.73438820E+03</totfact>
</mgrwt>
</event>
<event>
 6    1  0.3075717E-002  0.8852473E+02  0.7546771E-02  0.1430230E+00
          2   -1    0    0  501    0  0.00000000000E+00  0.00000000000E+00  0.21513666793E+04  0.21513666793E+04  0.00000000000E+00 0. -1.
         -2   -1    0    0    0  501 -0.00000000000E+00 -0.00000000000E+00 -0.30266842243E+01  0.30266842243E+01  0.00000000000E+00 0.  1.
         23    2    1    2    0    0 -0.11166695636E+01 -0.11244806781E+02  0.21353170753E+04  0.21371512908E+04  0.87800543137E+02 0.  0.
         13    1    3    3    0    0 -0.16652872535E+02 -0.20833180267E+02  0.20259969780E+03  0.20434768683E+03  0.00000000000E+00 0.  1.
        -13    1    3    3    0    0  0.15536202972E+02  0.95883734863E+01  0.19327173775E+04  0.19328036040E+04  0.00000000000E+00 0. -1.
         22    1    1    2    0    0  0.11166695636E+01  0.11244806781E+02  0.13022919844E+02  0.17242072721E+02  0.00000000000E+00 0.  1.
<mgrwt>
<rscale>  0 0.52913829E+02</rscale>
<asrwt>0</asrwt>
<pdfrwt beam="1">  1        2 0.33097827E+00 0.88524731E+02</pdfrwt>
<pdfrwt beam="2">  1       -2 0.46564545E-03 0.88524731E+02</pdfrwt>
<totfact> 0.37227464E+04</totfact>
</mgrwt>
</event>
<event>
 6    1  0.3075717E-002  0.9415444E+02  0.7546771E-02  0.1407846E+00
         -2   -1    0    0    0  501 -0.00000000000E+00  0.00000000000E+00  0.46856083191E+01  0.46856083191E+01  0.00000000000E+00 0.  1.
          2   -1    0    0  501    0  0.00000000000E+00 -0.00000000000E+00 -0.62794782681E+03  0.62794782681E+03  0.00000000000E+00 0. -1.
         23    2    1    2    0    0 -0.30261079454E+01 -0.12908674367E+02 -0.57128121822E+03  0.57898815955E+03  0.93216240003E+02 0.  0.
         11    1    3    3    0    0 -0.38910410480E+02 -0.32832941713E+02 -0.25303324661E+03  0.25810433161E+03  0.00000000000E+00 0. -1.
        -11    1    3    3    0    0  0.35884302535E+02  0.19924267346E+02 -0.31824797161E+03  0.32088382794E+03  0.00000000000E+00 0.  1.
         22    1    1    2    0    0  0.30261079454E+01  0.12908674367E+02 -0.51981000271E+02  0.53645275583E+02  0.00000000000E+00 0. -1.
<mgrwt>
<rscale>  0 0.57677343E+02</rscale>
<asrwt>0</asrwt>
<pdfrwt beam="1">  1        2 0.96607323E-01 0.94154440E+02</pdfrwt>
<pdfrwt beam="2">  1       -2 0.72086308E-03 0.94154440E+02</pdfrwt>
<totfact> 0.14225690E+05</totfact>
</mgrwt>
</event>
<event>
 6    1  0.3075717E-002  0.9268366E+02  0.7546771E-02  0.1421264E+00
         -1   -1    0    0    0  501 -0.00000000000E+00  0.00000000000E+00  0.12113891386E+03  0.12113891386E+03  0.00000000000E+00 0.  1.
          1   -1    0    0  501    0  0.00000000000E+00 -0.00000000000E+00 -0.26905338973E+02  0.26905338973E+02  0.00000000000E+00 0. -1.
         23    2    1    2    0    0  0.15978557546E+01  0.11175691464E+02  0.56247429009E+02  0.10841602424E+03  0.91993542269E+02 0.  0.
         11    1    3    3    0    0  0.27554148855E+02  0.42025776679E+02  0.19626366839E+02  0.53949896199E+02  0.00000000000E+00 0.  1.
        -11    1    3    3    0    0 -0.25956293101E+02 -0.30850085215E+02  0.36621062170E+02  0.54466128041E+02  0.00000000000E+00 0. -1.
         22    1    1    2    0    0 -0.15978557546E+01 -0.11175691464E+02  0.37986145875E+02  0.39628228590E+02  0.00000000000E+00 0. -1.
<mgrwt>
<rscale>  0 0.54754464E+02</rscale>
<asrwt>0</asrwt>
<pdfrwt beam="1">  1        1 0.41392830E-02 0.92683661E+02</pdfrwt>
<pdfrwt beam="2">  1       -1 0.18636756E-01 0.92683661E+02</pdfrwt>
<totfact> 0.42483775E+04</totfact>
</mgrwt>
</event>
<event>
 6    1  0.3075717E-002  0.9207910E+02  0.7546771E-02  0.1422949E+00
          1   -1    0    0  501    0  0.00000000000E+00  0.00000000000E+00  0.11587206406E+03  0.11587206406E+03  0.00000000000E+00 0. -1.
         -1   -1    0    0    0  501 -0.00000000000E+00 -0.00000000000E+00 -0.26556419242E+02  0.26556419242E+02  0.00000000000E+00 0.  1.
         23    2    1    2    0    0 -0.81445859627E+01  0.77162046415E+01  0.92750469039E+02  0.13069510732E+03  0.91393038445E+02 0.  0.
         13    1    3    3    0    0 -0.39047573768E+02  0.11001333339E+02  0.90924869354E+02  0.99564422458E+02  0.00000000000E+00 0. -1.
        -13    1    3    3    0    0  0.30902987805E+02 -0.32851286979E+01  0.18255996854E+01  0.31130684863E+02  0.00000000000E+00 0.  1.
         22    1    1    2    0    0  0.81445859627E+01 -0.77162046415E+01 -0.34348242177E+01  0.11733375984E+02  0.00000000000E+00 0. -1.
<mgrwt>
<rscale>  0 0.54401749E+02</rscale>
<asrwt>0</asrwt>
<pdfrwt beam="1">  1        1 0.17826471E-01 0.92079105E+02</pdfrwt>
<pdfrwt beam="2">  1       -1 0.40856030E-02 0.92079105E+02</pdfrwt>
<totfact> 0.60820900E+04</totfact>
</mgrwt>
</event>
<event>
 6    1  0.3075717E-002  0.9000419E+02  0.7546771E-02  0.1395026E+00
         -2   -1    0    0    0  501 -0.00000000000E+00  0.00000000000E+00  0.41441790094E+01  0.41441790094E+01  0.00000000000E+00 0.  1.
          2   -1    0    0  501    0  0.00000000000E+00 -0.00000000000E+00 -0.71750653813E+03  0.71750653813E+03  0.00000000000E+00 0. -1.
         23    2    1    2    0    0  0.11016857938E+02 -0.14970314031E+02 -0.61448268891E+03  0.62103923349E+03  0.88064028433E+02 0.  0.
         11    1    3    3    0    0  0.41013084000E+02 -0.54192810141E+00 -0.50361700748E+03  0.50528453070E+03  0.00000000000E+00 0. -1.
        -11    1    3    3    0    0 -0.29996226062E+02 -0.14428385929E+02 -0.11086568144E+03  0.11575470279E+03  0.00000000000E+00 0.  1.
         22    1    1    2    0    0 -0.11016857938E+02  0.14970314031E+02 -0.98879670212E+02  0.10061148365E+03  0.00000000000E+00 0.  1.
<mgrwt>
<rscale>  0 0.60673653E+02</rscale>
<asrwt>0</asrwt>
<pdfrwt beam="1">  1        2 0.11038557E+00 0.90004192E+02</pdfrwt>
<pdfrwt beam="2">  1       -2 0.63756630E-03 0.90004192E+02</pdfrwt>
<totfact> 0.14402930E+05</totfact>
</mgrwt>
</event>
<event>
 6    1  0.3075717E-002  0.8997510E+02  0.7546771E-02  0.1372340E+00
          2   -1    0    0  501    0  0.00000000000E+00  0.00000000000E+00  0.14031006011E+02  0.14031006011E+02  0.00000000000E+00 0. -1.
         -2   -1    0    0    0  501 -0.00000000000E+00 -0.00000000000E+00 -0.24675007071E+03  0.24675007071E+03  0.00000000000E+00 0.  1.
         23    2    1    2    0    0 -0.23551496435E+02  0.12961111118E+02 -0.19129951797E+03  0.21140251622E+03  0.85865330044E+02 0.  0.
         13    1    3    3    0    0 -0.91737965119E+01  0.39952125664E+02 -0.16807580963E+03  0.17300233718E+03  0.00000000000E+00 0.  1.
        -13    1    3    3    0    0 -0.14377699923E+02 -0.26991014546E+02 -0.23223708342E+02  0.38400179042E+02  0.00000000000E+00 0. -1.
         22    1    1    2    0    0  0.23551496435E+02 -0.12961111118E+02 -0.41419546729E+02  0.49378560499E+02  0.00000000000E+00 0. -1.
<mgrwt>
<rscale>  0 0.66520998E+02</rscale>
<asrwt>0</asrwt>
<pdfrwt beam="1">  1        2 0.21586165E-02 0.89975098E+02</pdfrwt>
<pdfrwt beam="2">  1       -2 0.37961547E-01 0.89975098E+02</pdfrwt>
<totfact> 0.28265239E+04</totfact>
</mgrwt>
</event>
<event>
 6    1  0.3075717E-002  0.9229434E+02  0.7546771E-02  0.1401998E+00
         -2   -1    0    0    0  501 -0.00000000000E+00  0.00000000000E+00  0.11750062952E+03  0.11750062952E+03  0.00000000000E+00 0.  1.
          2   -1    0    0  501    0  0.00000000000E+00 -0.00000000000E+00 -0.25025069619E+02  0.25025069619E+02  0.00000000000E+00 0. -1.
         23    2    1    2    0    0 -0.15236963059E+02  0.24455119550E+01  0.72981777332E+02  0.11766301363E+03  0.90995051412E+02 0.  0.
         13    1    3    3    0    0 -0.13067451756E+02  0.32603642963E+02 -0.36189261349E+01  0.35310798012E+02  0.00000000000E+00 0. -1.
        -13    1    3    3    0    0 -0.21695113027E+01 -0.30158131008E+02  0.76600703467E+02  0.82352215616E+02  0.00000000000E+00 0.  1.
         22    1    1    2    0    0  0.15236963059E+02 -0.24455119550E+01  0.19493782567E+02  0.24862685510E+02  0.00000000000E+00 0. -1.
<mgrwt>
<rscale>  0 0.59018288E+02</rscale>
<asrwt>0</asrwt>
<pdfrwt beam="1">  1        2 0.38500108E-02 0.92294339E+02</pdfrwt>
<pdfrwt beam="2">  1       -2 0.18077020E-01 0.92294339E+02</pdfrwt>
<totfact> 0.48059671E+04</totfact>
</mgrwt>
</event>
<event>
 6    1  0.3075717E-002  0.9066203E+02  0.7546771E-02  0.1410260E+00
         -2   -1    0    0    0  501 -0.00000000000E+00  0.00000000000E+00  0.33044946185E+01  0.33044946185E+01  0.00000000000E+00 0.  1.
          2   -1    0    0  501    0  0.00000000000E+00 -0.00000000000E+00 -0.87848814273E+03  0.87848814273E+03  0.00000000000E+00 0. -1.
         23    2    1    2    0    0  0.12215910664E+02 -0.74350940633E+01 -0.81003948923E+03  0.81509728119E+03  0.89527060655E+02 0.  0.
         11    1    3    3    0    0  0.50381826375E+02 -0.15432527899E+01 -0.53320532748E+03  0.53558251588E+03  0.00000000000E+00 0. -1.
        -11    1    3    3    0    0 -0.38165915711E+02 -0.58918412735E+01 -0.27683416175E+03  0.27951476531E+03  0.00000000000E+00 0.  1.
         22    1    1    2    0    0 -0.12215910664E+02  0.74350940633E+01 -0.65144158872E+02  0.66695356152E+02  0.00000000000E+00 0.  1.
<mgrwt>
<rscale>  0 0.57135780E+02</rscale>
<asrwt>0</asrwt>
<pdfrwt beam="1">  1        2 0.13515191E+00 0.90662030E+02</pdfrwt>
<pdfrwt beam="2">  1       -2 0.50838421E-03 0.90662030E+02</pdfrwt>
<totfact> 0.15478847E+05</totfact>
</mgrwt>
</event>
<event>
 6    1  0.3075717E-002  0.9147531E+02  0.7546771E-02  0.1387301E+00
          2   -1    0    0  501    0  0.00000000000E+00  0.00000000000E+00  0.11174753138E+03  0.11174753138E+03  0.00000000000E+00 0. -1.
         -2   -1    0    0    0  501 -0.00000000000E+00 -0.00000000000E+00 -0.33643034534E+02  0.33643034534E+02  0.00000000000E+00 0.  1.
         23    2    1    2    0    0 -0.15935693798E+02 -0.12152517898E+02  0.84319130506E+02  0.12440839015E+03  0.89253020921E+02 0.  0.
         13    1    3    3    0    0 -0.90105568236E+01 -0.16673216952E+02  0.10260429934E+03  0.10433996617E+03  0.00000000000E+00 0. -1.
        -13    1    3    3    0    0 -0.69251369748E+01  0.45206990543E+01 -0.18285168831E+02  0.20068423985E+02  0.00000000000E+00 0.  1.
         22    1    1    2    0    0  0.15935693798E+02  0.12152517898E+02 -0.62146336590E+01  0.20982175760E+02  0.00000000000E+00 0.  1.
<mgrwt>
<rscale>  0 0.62582971E+02</rscale>
<asrwt>0</asrwt>
<pdfrwt beam="1">  1        2 0.17191928E-01 0.91475307E+02</pdfrwt>
<pdfrwt beam="2">  1       -2 0.51758515E-02 0.91475307E+02</pdfrwt>
<totfact> 0.53185066E+04</totfact>
</mgrwt>
</event>
<event>
 6    1  0.3075717E-002  0.1335198E+03  0.7546771E-02  0.1236628E+00
         -2   -1    0    0    0  501 -0.00000000000E+00  0.00000000000E+00  0.46425088879E+02  0.46425088879E+02  0.00000000000E+00 0.  1.
          2   -1    0    0  501    0  0.00000000000E+00 -0.00000000000E+00 -0.32316244798E+03  0.32316244798E+03  0.00000000000E+00 0. -1.
         23    2    1    2    0    0  0.82098135559E+02  0.55944839815E+02 -0.21352665656E+03  0.25183558622E+03  0.89205383585E+02 0.  0.
         13    1    3    3    0    0  0.42871935975E+02 -0.15379634287E+02 -0.41918195448E+02  0.61900493978E+02  0.00000000000E+00 0. -1.
        -13    1    3    3    0    0  0.39226199584E+02  0.71324474102E+02 -0.17160846111E+03  0.18993509224E+03  0.00000000000E+00 0.  1.
         22    1    1    2    0    0 -0.82098135559E+02 -0.55944839815E+02 -0.63210702548E+02  0.11775195065E+03  0.00000000000E+00 0.  1.
<mgrwt>
<rscale>  0 0.12400764E+03</rscale>
<asrwt>0</asrwt>
<pdfrwt beam="1">  1        2 0.49717299E-01 0.13351977E+03</pdfrwt>
<pdfrwt beam="2">  1       -2 0.71423215E-02 0.13351977E+03</pdfrwt>
<totfact> 0.10754980E+04</totfact>
</mgrwt>
</event>
<event>
 6    1  0.3075717E-002  0.9276009E+02  0.7546771E-02  0.1404162E+00
          4   -1    0    0  501    0  0.00000000000E+00  0.00000000000E+00  0.57636633395E+02  0.57636633395E+02  0.00000000000E+00 0.  1.
         -4   -1    0    0    0  501 -0.00000000000E+00 -0.00000000000E+00 -0.51975614563E+02  0.51975614563E+02  0.00000000000E+00 0. -1.
         23    2    1    2    0    0 -0.13453846219E+02  0.59007647326E+01  0.12149174478E+02  0.93552323731E+02  0.91589354362E+02 0.  0.
         11    1    3    3    0    0  0.46400496440E+01  0.23826673503E+02 -0.33445401525E+02  0.41325964164E+02  0.00000000000E+00 0. -1.
        -11    1    3    3    0    0 -0.18093895863E+02 -0.17925908770E+02  0.45594576003E+02  0.52226359567E+02  0.00000000000E+00 0.  1.
         22    1    1    2    0    0  0.13453846219E+02 -0.59007647326E+01 -0.64881556453E+01  0.16059924227E+02  0.00000000000E+00 0.  1.
<mgrwt>
<rscale>  0 0.58517209E+02</rscale>
<asrwt>0</asrwt>
<pdfrwt beam="1">  1        4 0.88671744E-02 0.92760093E+02</pdfrwt>
<pdfrwt beam="2">  1       -4 0.79962484E-02 0.92760093E+02</pdfrwt>
<totfact> 0.14918110E+04</totfact>
</mgrwt>
</event>
<event>
 6    1  0.3075717E-002  0.1004495E+03  0.7546771E-02  0.1333201E+00
          2   -1    0    0  501    0  0.00000000000E+00  0.00000000000E+00  0.17008453781E+03  0.17008453781E+03  0.00000000000E+00 0. -1.
         -2   -1    0    0    0  501 -0.00000000000E+00 -0.00000000000E+00 -0.38313034761E+02  0.38313034761E+02  0.00000000000E+00 0.  1.
         23    2    1    2    0    0 -0.32466372921E+02  0.18910036612E+02  0.13761278900E+03  0.17037421821E+03  0.93158143385E+02 0.  0.
         11    1    3    3    0    0  0.31068999218E+02  0.15371641156E+01  0.24979892130E+02  0.39895370618E+02  0.00000000000E+00 0.  1.
        -11    1    3    3    0    0 -0.63535372139E+02  0.17372872497E+02  0.11263289687E+03  0.13047884759E+03  0.00000000000E+00 0. -1.
         22    1    1    2    0    0  0.32466372921E+02 -0.18910036612E+02 -0.58412859500E+01  0.38023354361E+02  0.00000000000E+00 0.  1.
<mgrwt>
<rscale>  0 0.78555533E+02</rscale>
<asrwt>0</asrwt>
<pdfrwt beam="1">  1        2 0.26166852E-01 0.10044946E+03</pdfrwt>
<pdfrwt beam="2">  1       -2 0.58943131E-02 0.10044946E+03</pdfrwt>
<totfact> 0.27775105E+04</totfact>
</mgrwt>
</event>
<event>
 6    1  0.3075717E-002  0.9190187E+02  0.7546771E-02  0.1422850E+00
         -1   -1    0    0    0  501 -0.00000000000E+00  0.00000000000E+00  0.71665396359E+02  0.71665396359E+02  0.00000000000E+00 0.  1.
          1   -1    0    0  501    0  0.00000000000E+00 -0.00000000000E+00 -0.45106418371E+02  0.45106418371E+02  0.00000000000E+00 0. -1.
         23    2    1    2    0    0  0.11055584562E+02 -0.23448868475E+01  0.45305619328E+01  0.92013471525E+02  0.91204322848E+02 0.  0.
         13    1    3    3    0    0  0.50424164036E+02  0.55751543332E+01 -0.42440685219E+01  0.50908651349E+02  0.00000000000E+00 0. -1.
        -13    1    3    3    0    0 -0.39368579474E+02 -0.79200411806E+01  0.87746304547E+01  0.41104820176E+02  0.00000000000E+00 0.  1.
         22    1    1    2    0    0 -0.11055584562E+02  0.23448868475E+01  0.22028416055E+02  0.24758343205E+02  0.00000000000E+00 0. -1.
<mgrwt>
<rscale>  0 0.54422376E+02</rscale>
<asrwt>0</asrwt>
<pdfrwt beam="1">  1        1 0.69394490E-02 0.91901866E+02</pdfrwt>
<pdfrwt beam="2">  1       -1 0.11025446E-01 0.91901866E+02</pdfrwt>
<totfact> 0.47638756E+04</totfact>
</mgrwt>
</event>
<event>
 6    1  0.3075717E-002  0.9424792E+02  0.7546771E-02  0.1363681E+00
         -2   -1    0    0    0  501 -0.00000000000E+00  0.00000000000E+00  0.66279320252E+01  0.66279320252E+01  0.00000000000E+00 0.  1.
          2   -1    0    0  501    0  0.00000000000E+00 -0.00000000000E+00 -0.58510568086E+03  0.58510568086E+03  0.00000000000E+00 0. -1.
         23    2    1    2    0    0 -0.26002051849E+02 -0.72956221846E+01 -0.49816062521E+03  0.50699771051E+03  0.90295831315E+02 0.  0.
         13    1    3    3    0    0 -0.56641921219E+02 -0.32901763868E+01 -0.22288474559E+03  0.22999291797E+03  0.00000000000E+00 0.  1.
        -13    1    3    3    0    0  0.30639869370E+02 -0.40054457978E+01 -0.27527587962E+03  0.27700479254E+03  0.00000000000E+00 0. -1.
         22    1    1    2    0    0  0.26002051849E+02  0.72956221846E+01 -0.80317123629E+02  0.84735902376E+02  0.00000000000E+00 0.  1.
<mgrwt>
<rscale>  0 0.68955600E+02</rscale>
<asrwt>0</asrwt>
<pdfrwt beam="1">  1        2 0.90016322E-01 0.94247918E+02</pdfrwt>
<pdfrwt beam="2">  1       -2 0.10196811E-02 0.94247918E+02</pdfrwt>
<totfact> 0.94351199E+04</totfact>
</mgrwt>
</event>
<event>
 6    1  0.3075717E-002  0.9057493E+02  0.7546771E-02  0.1429695E+00
          3   -1    0    0  501    0  0.00000000000E+00  0.00000000000E+00  0.47248889446E+02  0.47248889446E+02  0.00000000000E+00 0. -1.
         -3   -1    0    0    0  501 -0.00000000000E+00 -0.00000000000E+00 -0.74518848974E+02  0.74518848974E+02  0.00000000000E+00 0.  1.
         23    2    1    2    0    0 -0.86092532648E+01  0.62453643626E+01  0.20293550568E+01  0.90597662179E+02  0.89948286768E+02 0.  0.
         13    1    3    3    0    0  0.87669113929E+01 -0.21233761299E+02 -0.34656205463E+02  0.41578647541E+02  0.00000000000E+00 0.  1.
        -13    1    3    3    0    0 -0.17376164658E+02  0.27479125662E+02  0.36685560520E+02  0.49019014637E+02  0.00000000000E+00 0. -1.
         22    1    1    2    0    0  0.86092532648E+01 -0.62453643626E+01 -0.29299314585E+02  0.31170076242E+02  0.00000000000E+00 0. -1.
<mgrwt>
<rscale>  0 0.53021287E+02</rscale>
<asrwt>0</asrwt>
<pdfrwt beam="1">  1        3 0.72690599E-02 0.90574931E+02</pdfrwt>
<pdfrwt beam="2">  1       -3 0.11464438E-01 0.90574931E+02</pdfrwt>
<totfact> 0.14993630E+04</totfact>
</mgrwt>
</event>
<event>
 6    1  0.3075717E-002  0.9334995E+02  0.7546771E-02  0.1380021E+00
         -2   -1    0    0    0  501 -0.00000000000E+00  0.00000000000E+00  0.39158338620E+02  0.39158338620E+02  0.00000000000E+00 0.  1.
          2   -1    0    0  501    0  0.00000000000E+00 -0.00000000000E+00 -0.16228915256E+03  0.16228915256E+03  0.00000000000E+00 0. -1.
         23    2    1    2    0    0 -0.20120240317E+02  0.67471070363E+01 -0.14404755759E+03  0.17165055026E+03  0.90905803086E+02 0.  0.
         11    1    3    3    0    0 -0.39903539969E+02  0.36601482962E+02 -0.10812170387E+03  0.12092255333E+03  0.00000000000E+00 0. -1.
        -11    1    3    3    0    0  0.19783299652E+02 -0.29854375926E+02 -0.35925853715E+02  0.50727996927E+02  0.00000000000E+00 0.  1.
         22    1    1    2    0    0  0.20120240317E+02 -0.67471070363E+01  0.20916743642E+02  0.29796940923E+02  0.00000000000E+00 0.  1.
<mgrwt>
<rscale>  0 0.64458327E+02</rscale>
<asrwt>0</asrwt>
<pdfrwt beam="1">  1        2 0.24967562E-01 0.93349947E+02</pdfrwt>
<pdfrwt beam="2">  1       -2 0.60243597E-02 0.93349947E+02</pdfrwt>
<totfact> 0.28050471E+04</totfact>
</mgrwt>
</event>
<event>
 6    1  0.3075717E-002  0.9399792E+02  0.7546771E-02  0.1375504E+00
          1   -1    0    0  501    0  0.00000000000E+00  0.00000000000E+00  0.39452140925E+03  0.39452140925E+03  0.00000000000E+00 0. -1.
         -1   -1    0    0    0  501 -0.00000000000E+00 -0.00000000000E+00 -0.96116609488E+01  0.96116609488E+01  0.00000000000E+00 0.  1.
         23    2    1    2    0    0  0.11480481412E+02 -0.19211190352E+02  0.35200049135E+03  0.36433494862E+03  0.91294784003E+02 0.  0.
         13    1    3    3    0    0  0.15199846764E+02  0.35767477578E+02  0.15016281166E+03  0.15511034072E+03  0.00000000000E+00 0. -1.
        -13    1    3    3    0    0 -0.37193653529E+01 -0.54978667930E+02  0.20183767969E+03  0.20922460789E+03  0.00000000000E+00 0.  1.
         22    1    1    2    0    0 -0.11480481412E+02  0.19211190352E+02  0.32909256949E+02  0.39798121578E+02  0.00000000000E+00 0. -1.
<mgrwt>
<rscale>  0 0.65660540E+02</rscale>
<asrwt>0</asrwt>
<pdfrwt beam="1">  1        1 0.60695589E-01 0.93997920E+02</pdfrwt>
<pdfrwt beam="2">  1       -1 0.14787174E-02 0.93997920E+02</pdfrwt>
<totfact> 0.57788087E+04</totfact>
</mgrwt>
</event>
<event>
 6    1  0.3075717E-002  0.9064226E+02  0.7546771E-02  0.1398350E+00
         -2   -1    0    0    0  501 -0.00000000000E+00  0.00000000000E+00  0.71778612598E+01  0.71778612598E+01  0.00000000000E+00 0. -1.
          2   -1    0    0  501    0  0.00000000000E+00 -0.00000000000E+00 -0.45830400406E+03  0.45830400406E+03  0.00000000000E+00 0.  1.
         23    2    1    2    0    0  0.17128183882E+02 -0.21273694747E+01 -0.42200807461E+03  0.43163275486E+03  0.88983816758E+02 0.  0.
         13    1    3    3    0    0 -0.34463153052E+02 -0.14816397119E+02 -0.17516477508E+03  0.17913663213E+03  0.00000000000E+00 0. -1.
        -13    1    3    3    0    0  0.51591336934E+02  0.12689027644E+02 -0.24684329953E+03  0.25249612273E+03  0.00000000000E+00 0.  1.
         22    1    1    2    0    0 -0.17128183882E+02  0.21273694747E+01 -0.29118068182E+02  0.33849110455E+02  0.00000000000E+00 0.  1.
<mgrwt>
<rscale>  0 0.59876574E+02</rscale>
<asrwt>0</asrwt>
<pdfrwt beam="1">  1        2 0.70508322E-01 0.90642264E+02</pdfrwt>
<pdfrwt beam="2">  1       -2 0.11042861E-02 0.90642264E+02</pdfrwt>
<totfact> 0.10933025E+05</totfact>
</mgrwt>
</event>
<event>
 6    1  0.3075717E-002  0.9168029E+02  0.7546771E-02  0.1420420E+00
          2   -1    0    0  501    0  0.00000000000E+00  0.00000000000E+00  0.17175783305E+04  0.17175783305E+04  0.00000000000E+00 0. -1.
         -2   -1    0    0    0  501 -0.00000000000E+00 -0.00000000000E+00 -0.18869205843E+01  0.18869205843E+01  0.00000000000E+00 0.  1.
         23    2    1    2    0    0 -0.63819801562E+01  0.99445132888E+01  0.16602122604E+04  0.16627417194E+04  0.90915635896E+02 0.  0.
         13    1    3    3    0    0 -0.61733273268E+00 -0.32179857107E+01  0.16206062590E+04  0.16206095715E+04  0.00000000000E+00 0. -1.
        -13    1    3    3    0    0 -0.57646474235E+01  0.13162499000E+02  0.39606001360E+02  0.42132147863E+02  0.00000000000E+00 0.  1.
         22    1    1    2    0    0  0.63819801562E+01 -0.99445132888E+01  0.55479149519E+02  0.56723531684E+02  0.00000000000E+00 0.  1.
<mgrwt>
<rscale>  0 0.54932152E+02</rscale>
<asrwt>0</asrwt>
<pdfrwt beam="1">  1        2 0.26424157E+00 0.91680292E+02</pdfrwt>
<pdfrwt beam="2">  1       -2 0.29029685E-03 0.91680292E+02</pdfrwt>
<totfact> 0.11930018E+05</totfact>
</mgrwt>
</event>
<event>
 6    1  0.3075717E-002  0.9395404E+02  0.7546771E-02  0.1365782E+00
          4   -1    0    0  501    0  0.00000000000E+00  0.00000000000E+00  0.31619621271E+02  0.31619621271E+02  0.00000000000E+00 0. -1.
         -4   -1    0    0    0  501 -0.00000000000E+00 -0.00000000000E+00 -0.12886219979E+03  0.12886219979E+03  0.00000000000E+00 0.  1.
         23    2    1    2    0    0 -0.20309181980E+02  0.16743667776E+02 -0.50070708018E+02  0.10646331821E+03  0.90191734879E+02 0.  0.
         13    1    3    3    0    0 -0.22522117323E+02 -0.27822766733E+02 -0.50427192822E+02  0.61840552174E+02  0.00000000000E+00 0.  1.
        -13    1    3    3    0    0  0.22129353429E+01  0.44566434508E+02  0.35648480332E+00  0.44622766040E+02  0.00000000000E+00 0. -1.
         22    1    1    2    0    0  0.20309181980E+02 -0.16743667776E+02 -0.47171870501E+02  0.54018502847E+02  0.00000000000E+00 0. -1.
<mgrwt>
<rscale>  0 0.68353953E+02</rscale>
<asrwt>0</asrwt>
<pdfrwt beam="1">  1        4 0.48645571E-02 0.93954044E+02</pdfrwt>
<pdfrwt beam="2">  1       -4 0.19824954E-01 0.93954044E+02</pdfrwt>
<totfact> 0.84196716E+03</totfact>
</mgrwt>
</event>
<event>
 6    1  0.3075717E-002  0.9191252E+02  0.7546771E-02  0.1415022E+00
          1   -1    0    0  501    0  0.00000000000E+00  0.00000000000E+00  0.70211884279E+03  0.70211884279E+03  0.00000000000E+00 0. -1.
         -1   -1    0    0    0  501 -0.00000000000E+00 -0.00000000000E+00 -0.16283540751E+02  0.16283540751E+02  0.00000000000E+00 0.  1.
         23    2    1    2    0    0 -0.26740912224E+01  0.12461943558E+02  0.69603540644E+03  0.70207777235E+03  0.91024505514E+02 0.  0.
         11    1    3    3    0    0  0.15766128836E+02  0.25118323143E+02  0.75154802773E+02  0.80794463647E+02  0.00000000000E+00 0.  1.
        -11    1    3    3    0    0 -0.18440220059E+02 -0.12656379586E+02  0.62088060367E+03  0.62128330870E+03  0.00000000000E+00 0. -1.
         22    1    1    2    0    0  0.26740912224E+01 -0.12461943558E+02 -0.10200104396E+02  0.16324611199E+02  0.00000000000E+00 0.  1.
<mgrwt>
<rscale>  0 0.56088166E+02</rscale>
<asrwt>0</asrwt>
<pdfrwt beam="1">  1        1 0.10801826E+00 0.91912520E+02</pdfrwt>
<pdfrwt beam="2">  1       -1 0.25051607E-02 0.91912520E+02</pdfrwt>
<totfact> 0.12784859E+04</totfact>
</mgrwt>
</event>
<event>
 6    1  0.3075717E-002  0.9547961E+02  0.7546771E-02  0.1364616E+00
          4   -1    0    0  501    0  0.00000000000E+00  0.00000000000E+00  0.31298198574E+02  0.31298198574E+02  0.00000000000E+00 0. -1.
         -4   -1    0    0    0  501 -0.00000000000E+00 -0.00000000000E+00 -0.17802788555E+03  0.17802788555E+03  0.00000000000E+00 0.  1.
         23    2    1    2    0    0 -0.66503957639E+01  0.24692280343E+02 -0.47096111411E+02  0.10646313719E+03  0.91991409368E+02 0.  0.
         11    1    3    3    0    0  0.16900666397E+02  0.21919900619E+00 -0.65629578623E+02  0.67771101239E+02  0.00000000000E+00 0.  1.
        -11    1    3    3    0    0 -0.23551062161E+02  0.24473081337E+02  0.18533467212E+02  0.38692035950E+02  0.00000000000E+00 0. -1.
         22    1    1    2    0    0  0.66503957639E+01 -0.24692280343E+02 -0.99633575562E+02  0.10286294693E+03  0.00000000000E+00 0.  1.
<mgrwt>
<rscale>  0 0.68687059E+02</rscale>
<asrwt>0</asrwt>
<pdfrwt beam="1">  1        4 0.48151074E-02 0.95479610E+02</pdfrwt>
<pdfrwt beam="2">  1       -4 0.27388906E-01 0.95479610E+02</pdfrwt>
<totfact> 0.47787755E+03</totfact>
</mgrwt>
</event>
<event>
 6    1  0.3075717E-002  0.8695442E+02  0.7546771E-02  0.1397603E+00
          2   -1    0    0  501    0  0.00000000000E+00  0.00000000000E+00  0.12702057632E+03  0.12702057632E+03  0.00000000000E+00 0. -1.
         -2   -1    0    0    0  501 -0.00000000000E+00 -0.00000000000E+00 -0.27518157558E+02  0.27518157558E+02  0.00000000000E+00 0.  1.
         23    2    1    2    0    0  0.17529872453E+02 -0.91706668527E+01  0.10262496965E+03  0.13451005736E+03  0.84673925014E+02 0.  0.
         13    1    3    3    0    0 -0.33867659819E+02 -0.14133365081E+01  0.30449274024E+02  0.45565054486E+02  0.00000000000E+00 0. -1.
        -13    1    3    3    0    0  0.51397532272E+02 -0.77573303446E+01  0.72175695626E+02  0.88945002877E+02  0.00000000000E+00 0.  1.
         22    1    1    2    0    0 -0.17529872453E+02  0.91706668527E+01 -0.31225508913E+01  0.20028676512E+02  0.00000000000E+00 0.  1.
<mgrwt>
<rscale>  0 0.60054563E+02</rscale>
<asrwt>0</asrwt>
<pdfrwt beam="1">  1        2 0.19541627E-01 0.86954420E+02</pdfrwt>
<pdfrwt beam="2">  1       -2 0.42335628E-02 0.86954420E+02</pdfrwt>
<totfact> 0.61528322E+04</totfact>
</mgrwt>
</event>
<event>
 6    1  0.3075717E-002  0.9513338E+02  0.7546771E-02  0.1372198E+00
         -2   -1    0    0    0  501 -0.00000000000E+00  0.00000000000E+00  0.19045617625E+02  0.19045617625E+02  0.00000000000E+00 0.  1.
          2   -1    0    0  501    0  0.00000000000E+00 -0.00000000000E+00 -0.20319281717E+03  0.20319281717E+03  0.00000000000E+00 0. -1.
         23    2    1    2    0    0  0.13034851977E+02 -0.18701169321E+02 -0.17162922647E+03  0.19623188274E+03  0.92361893246E+02 0.  0.
         13    1    3    3    0    0 -0.34010021858E+02 -0.58680252681E+01 -0.12146181568E+03  0.12626990131E+03  0.00000000000E+00 0. -1.
        -13    1    3    3    0    0  0.47044873836E+02 -0.12833144053E+02 -0.50167410789E+02  0.69961981431E+02  0.00000000000E+00 0.  1.
         22    1    1    2    0    0 -0.13034851977E+02  0.18701169321E+02 -0.12517973076E+02  0.26006552059E+02  0.00000000000E+00 0.  1.
<mgrwt>
<rscale>  0 0.66559897E+02</rscale>
<asrwt>0</asrwt>
<pdfrwt beam="1">  1        2 0.31260436E-01 0.95133382E+02</pdfrwt>
<pdfrwt beam="2">  1       -2 0.29300948E-02 0.95133382E+02</pdfrwt>
<totfact> 0.63939226E+04</totfact>
</mgrwt>
</event>
<event>
 6    1  0.3075717E-002  0.9034004E+02  0.7546771E-02  0.1432169E+00
          2   -1    0    0  501    0  0.00000000000E+00  0.00000000000E+00  0.11603897055E+03  0.11603897055E+03  0.00000000000E+00 0. -1.
         -2   -1    0    0    0  501 -0.00000000000E+00 -0.00000000000E+00 -0.23696688973E+02  0.23696688973E+02  0.00000000000E+00 0.  1.
         23    2    1    2    0    0 -0.30338008554E+01 -0.98692791552E+01  0.92652977023E+02  0.12940593783E+03  0.89748069477E+02 0.  0.
         13    1    3    3    0    0  0.31329211744E+02  0.78742220063E+01  0.38312609273E+01  0.32530008316E+02  0.00000000000E+00 0. -1.
        -13    1    3    3    0    0 -0.34363012600E+02 -0.17743501161E+02  0.88821716096E+02  0.96875929511E+02  0.00000000000E+00 0.  1.
         22    1    1    2    0    0  0.30338008554E+01  0.98692791552E+01 -0.31069544663E+00  0.10329721697E+02  0.00000000000E+00 0.  1.
<mgrwt>
<rscale>  0 0.52527076E+02</rscale>
<asrwt>0</asrwt>
<pdfrwt beam="1">  1        2 0.17852149E-01 0.90340039E+02</pdfrwt>
<pdfrwt beam="2">  1       -2 0.36456445E-02 0.90340039E+02</pdfrwt>
<totfact> 0.85323311E+04</totfact>
</mgrwt>
</event>
<event>
 6    1  0.3075717E-002  0.9944215E+02  0.7546771E-02  0.1406491E+00
         -2   -1    0    0    0  501 -0.00000000000E+00  0.00000000000E+00  0.26127079629E+03  0.26127079629E+03  0.00000000000E+00 0.  1.
          2   -1    0    0  501    0  0.00000000000E+00 -0.00000000000E+00 -0.12805698888E+02  0.12805698888E+02  0.00000000000E+00 0. -1.
         23    2    1    2    0    0 -0.79850986991E+01 -0.82696412324E+01  0.18955944904E+03  0.21405962942E+03  0.98775459791E+02 0.  0.
         13    1    3    3    0    0 -0.23643846198E+02 -0.34501687630E+02  0.29677320981E+02  0.51284903168E+02  0.00000000000E+00 0. -1.
        -13    1    3    3    0    0  0.15658747499E+02  0.26232046397E+02  0.15988212806E+03  0.16277472625E+03  0.00000000000E+00 0.  1.
         22    1    1    2    0    0  0.79850986991E+01  0.82696412324E+01  0.58905648355E+02  0.60016865758E+02  0.00000000000E+00 0.  1.
<mgrwt>
<rscale>  0 0.57984345E+02</rscale>
<asrwt>0</asrwt>
<pdfrwt beam="1">  1        2 0.19701077E-02 0.99442145E+02</pdfrwt>
<pdfrwt beam="2">  1       -2 0.40195503E-01 0.99442145E+02</pdfrwt>
<totfact> 0.29128951E+04</totfact>
</mgrwt>
</event>
<event>
 6    1  0.3075717E-002  0.9183130E+02  0.7546771E-02  0.1404391E+00
          2   -1    0    0  501    0  0.00000000000E+00  0.00000000000E+00  0.44179027962E+02  0.44179027962E+02  0.00000000000E+00 0. -1.
         -2   -1    0    0    0  501 -0.00000000000E+00 -0.00000000000E+00 -0.70821677729E+02  0.70821677729E+02  0.00000000000E+00 0.  1.
         23    2    1    2    0    0  0.38735247647E+01 -0.14581074368E+02 -0.97432157106E+01  0.92346726012E+02  0.90583528464E+02 0.  0.
         13    1    3    3    0    0  0.19904656761E+02 -0.49492322829E+02 -0.74451737451E+01  0.53862008799E+02  0.00000000000E+00 0.  1.
        -13    1    3    3    0    0 -0.16031131996E+02  0.34911248460E+02 -0.22980419655E+01  0.38484717214E+02  0.00000000000E+00 0. -1.
         22    1    1    2    0    0 -0.38735247647E+01  0.14581074368E+02 -0.16899434057E+02  0.22653979679E+02  0.00000000000E+00 0. -1.
<mgrwt>
<rscale>  0 0.58464525E+02</rscale>
<asrwt>0</asrwt>
<pdfrwt beam="1">  1        2 0.67967737E-02 0.91831299E+02</pdfrwt>
<pdfrwt beam="2">  1       -2 0.10895643E-01 0.91831299E+02</pdfrwt>
<totfact> 0.52154966E+04</totfact>
</mgrwt>
</event>
<event>
 6    1  0.3075717E-002  0.1110154E+03  0.7546771E-02  0.1286862E+00
         -2   -1    0    0    0  501 -0.00000000000E+00  0.00000000000E+00  0.16734897685E+02  0.16734897685E+02  0.00000000000E+00 0.  1.
          2   -1    0    0  501    0  0.00000000000E+00 -0.00000000000E+00 -0.65618290561E+03  0.65618290561E+03  0.00000000000E+00 0. -1.
         23    2    1    2    0    0 -0.58182006167E+02  0.27953925548E+02 -0.55828779221E+03  0.56921848599E+03  0.90320861735E+02 0.  0.
         11    1    3    3    0    0 -0.10833388317E+02 -0.32418216623E+02 -0.16056222286E+03  0.16416007578E+03  0.00000000000E+00 0.  1.
        -11    1    3    3    0    0 -0.47348617851E+02  0.60372142171E+02 -0.39772556935E+03  0.40505841020E+03  0.00000000000E+00 0. -1.
         22    1    1    2    0    0  0.58182006167E+02 -0.27953925548E+02 -0.81160215719E+02  0.10369931731E+03  0.00000000000E+00 0.  1.
<mgrwt>
<rscale>  0 0.96941518E+02</rscale>
<asrwt>0</asrwt>
<pdfrwt beam="1">  1        2 0.10095119E+00 0.11101543E+03</pdfrwt>
<pdfrwt beam="2">  1       -2 0.25746004E-02 0.11101543E+03</pdfrwt>
<totfact> 0.22359697E+04</totfact>
</mgrwt>
</event>
<event>
 6    1  0.3075717E-002  0.9226452E+02  0.7546771E-02  0.1397367E+00
         -2   -1    0    0    0  501 -0.00000000000E+00  0.00000000000E+00  0.46267423601E+03  0.46267423601E+03  0.00000000000E+00 0.  1.
          2   -1    0    0  501    0  0.00000000000E+00 -0.00000000000E+00 -0.64091268352E+01  0.64091268352E+01  0.00000000000E+00 0. -1.
         23    2    1    2    0    0 -0.13990963586E+02  0.89761729444E+01  0.38311814643E+03  0.39407138445E+03  0.90754741925E+02 0.  0.
         11    1    3    3    0    0  0.17308036268E+02 -0.32553170950E+02  0.21351856524E+03  0.21667822862E+03  0.00000000000E+00 0.  1.
        -11    1    3    3    0    0 -0.31298999854E+02  0.41529343894E+02  0.16959958119E+03  0.17739315583E+03  0.00000000000E+00 0. -1.
         22    1    1    2    0    0  0.13990963586E+02 -0.89761729444E+01  0.73146962752E+02  0.75011978394E+02  0.00000000000E+00 0.  1.
<mgrwt>
<rscale>  0 0.60110777E+02</rscale>
<asrwt>0</asrwt>
<pdfrwt beam="1">  1        2 0.98601987E-03 0.92264521E+02</pdfrwt>
<pdfrwt beam="2">  1       -2 0.71180626E-01 0.92264521E+02</pdfrwt>
<totfact> 0.23684758E+04</totfact>
</mgrwt>
</event>
<event>
 6    1  0.3075717E-002  0.1016583E+03  0.7546771E-02  0.1371136E+00
         -2   -1    0    0    0  501 -0.00000000000E+00  0.00000000000E+00  0.58169120936E+02  0.58169120936E+02  0.00000000000E+00 0.  1.
          2   -1    0    0  501    0  0.00000000000E+00 -0.00000000000E+00 -0.75360417103E+02  0.75360417103E+02  0.00000000000E+00 0. -1.
         23    2    1    2    0    0 -0.18813608700E+02 -0.27434469537E+01 -0.34964653272E+02  0.10750319376E+03  0.99864564874E+02 0.  0.
         11    1    3    3    0    0 -0.37095889104E+02  0.30461928320E+02  0.96491976124E+01  0.48960607431E+02  0.00000000000E+00 0.  1.
        -11    1    3    3    0    0  0.18282280404E+02 -0.33205375273E+02 -0.44613850885E+02  0.58542586333E+02  0.00000000000E+00 0. -1.
         22    1    1    2    0    0  0.18813608700E+02  0.27434469537E+01  0.17773357105E+02  0.26026344274E+02  0.00000000000E+00 0.  1.
<mgrwt>
<rscale>  0 0.66852464E+02</rscale>
<asrwt>0</asrwt>
<pdfrwt beam="1">  1        2 0.11593910E-01 0.10165830E+03</pdfrwt>
<pdfrwt beam="2">  1       -2 0.89490955E-02 0.10165830E+03</pdfrwt>
<totfact> 0.37254251E+04</totfact>
</mgrwt>
</event>
<event>
 6    1  0.3075717E-002  0.8366940E+02  0.7546771E-02  0.1437829E+00
          1   -1    0    0  501    0  0.00000000000E+00  0.00000000000E+00  0.43562007086E+03  0.43562007086E+03  0.00000000000E+00 0. -1.
         -1   -1    0    0    0  501 -0.00000000000E+00 -0.00000000000E+00 -0.69607697421E+01  0.69607697421E+01  0.00000000000E+00 0.  1.
         23    2    1    2    0    0  0.59017228630E+01  0.10373922430E+02  0.41886940109E+03  0.42714417186E+03  0.82813765672E+02 0.  0.
         11    1    3    3    0    0  0.40404684308E+02  0.12138625440E+02  0.14220978318E+03  0.14833579195E+03  0.00000000000E+00 0.  1.
        -11    1    3    3    0    0 -0.34502961445E+02 -0.17647030100E+01  0.27665961791E+03  0.27880837991E+03  0.00000000000E+00 0. -1.
         22    1    1    2    0    0 -0.59017228630E+01 -0.10373922430E+02  0.97899000306E+01  0.15436668745E+02  0.00000000000E+00 0.  1.
<mgrwt>
<rscale>  0 0.51420022E+02</rscale>
<asrwt>0</asrwt>
<pdfrwt beam="1">  1        1 0.67018451E-01 0.83669399E+02</pdfrwt>
<pdfrwt beam="2">  1       -1 0.10708880E-02 0.83669399E+02</pdfrwt>
<totfact> 0.79310023E+04</totfact>
</mgrwt>
</event>
<event>
 6    1  0.3075717E-002  0.9525339E+02  0.7546771E-02  0.1347536E+00
         -1   -1    0    0    0  501 -0.00000000000E+00  0.00000000000E+00  0.32642778291E+03  0.32642778291E+03  0.00000000000E+00 0.  1.
          1   -1    0    0  501    0  0.00000000000E+00 -0.00000000000E+00 -0.13461705303E+02  0.13461705303E+02  0.00000000000E+00 0. -1.
         23    2    1    2    0    0  0.12893662322E+02 -0.31867049234E+02  0.19507532964E+03  0.21708890266E+03  0.88833845301E+02 0.  0.
         13    1    3    3    0    0 -0.23632391955E+02  0.13759426756E+02  0.11343310883E+03  0.11668282630E+03  0.00000000000E+00 0.  1.
        -13    1    3    3    0    0  0.36526054278E+02 -0.45626475990E+02  0.81642220807E+02  0.10040607636E+03  0.00000000000E+00 0. -1.
         22    1    1    2    0    0 -0.12893662322E+02  0.31867049234E+02  0.11789074797E+03  0.12280058555E+03  0.00000000000E+00 0.  1.
<mgrwt>
<rscale>  0 0.73828877E+02</rscale>
<asrwt>0</asrwt>
<pdfrwt beam="1">  1        1 0.20710318E-02 0.95253385E+02</pdfrwt>
<pdfrwt beam="2">  1       -1 0.50219653E-01 0.95253385E+02</pdfrwt>
<totfact> 0.20900870E+04</totfact>
</mgrwt>
</event>
<event>
 6    1  0.3075717E-002  0.9128509E+02  0.7546771E-02  0.1394819E+00
         -2   -1    0    0    0  501 -0.00000000000E+00  0.00000000000E+00  0.10485760863E+03  0.10485760863E+03  0.00000000000E+00 0.  1.
          2   -1    0    0  501    0  0.00000000000E+00 -0.00000000000E+00 -0.32515032594E+02  0.32515032594E+02  0.00000000000E+00 0. -1.
         23    2    1    2    0    0  0.15577070763E+02  0.87668317844E+01  0.38443830588E+02  0.99049966263E+02  0.89517960396E+02 0.  0.
         13    1    3    3    0    0  0.51086406492E+02 -0.16553260054E+01  0.34861198401E+02  0.61869735626E+02  0.00000000000E+00 0.  1.
        -13    1    3    3    0    0 -0.35509335729E+02  0.10422157790E+02  0.35826321866E+01  0.37180230638E+02  0.00000000000E+00 0. -1.
         22    1    1    2    0    0 -0.15577070763E+02 -0.87668317844E+01  0.33898745445E+02  0.38322674956E+02  0.00000000000E+00 0. -1.
<mgrwt>
<rscale>  0 0.60723831E+02</rscale>
<asrwt>0</asrwt>
<pdfrwt beam="1">  1        2 0.50023128E-02 0.91285090E+02</pdfrwt>
<pdfrwt beam="2">  1       -2 0.16131940E-01 0.91285090E+02</pdfrwt>
<totfact> 0.41151142E+04</totfact>
</mgrwt>
</event>
<event>
 6    1  0.3075717E-002  0.9360910E+02  0.7546771E-02  0.1394072E+00
          2   -1    0    0  501    0  0.00000000000E+00  0.00000000000E+00  0.39307306580E+03  0.39307306580E+03  0.00000000000E+00 0. -1.
         -2   -1    0    0    0  501 -0.00000000000E+00 -0.00000000000E+00 -0.84949561354E+01  0.84949561354E+01  0.00000000000E+00 0.  1.
         23    2    1    2    0    0  0.16447941637E+02  0.32958256409E+01  0.35881805263E+03  0.37082753089E+03  0.92093786589E+02 0.  0.
         13    1    3    3    0    0  0.36423848150E+02  0.29849151383E+02  0.10803308976E+03  0.11785082535E+03  0.00000000000E+00 0.  1.
        -13    1    3    3    0    0 -0.19975906512E+02 -0.26553325742E+02  0.25078496287E+03  0.25297670555E+03  0.00000000000E+00 0. -1.
         22    1    1    2    0    0 -0.16447941637E+02 -0.32958256409E+01  0.25760057034E+02  0.30740491036E+02  0.00000000000E+00 0. -1.
<mgrwt>
<rscale>  0 0.60905080E+02</rscale>
<asrwt>0</asrwt>
<pdfrwt beam="1">  1        2 0.60472765E-01 0.93609096E+02</pdfrwt>
<pdfrwt beam="2">  1       -2 0.13069166E-02 0.93609096E+02</pdfrwt>
<totfact> 0.10173674E+05</totfact>
</mgrwt>
</event>
<event>
 6    1  0.3075717E-002  0.9155919E+02  0.7546771E-02  0.1431150E+00
          2   -1    0    0  501    0  0.00000000000E+00  0.00000000000E+00  0.46878193272E+03  0.46878193272E+03  0.00000000000E+00 0. -1.
         -2   -1    0    0    0  501 -0.00000000000E+00 -0.00000000000E+00 -0.60770253232E+01  0.60770253232E+01  0.00000000000E+00 0.  1.
         23    2    1    2    0    0  0.96591520664E+01 -0.28544343575E+01  0.44640802445E+03  0.45570078987E+03  0.91003508596E+02 0.  0.
         13    1    3    3    0    0  0.12174237595E+02  0.25363620288E+02  0.40227370987E+03  0.40325632413E+03  0.00000000000E+00 0. -1.
        -13    1    3    3    0    0 -0.25150855283E+01 -0.28218054645E+02  0.44134314576E+02  0.52444465735E+02  0.00000000000E+00 0.  1.
         22    1    1    2    0    0 -0.96591520664E+01  0.28544343575E+01  0.16296882947E+02  0.19158168178E+02  0.00000000000E+00 0. -1.
<mgrwt>
<rscale>  0 0.52729830E+02</rscale>
<asrwt>0</asrwt>
<pdfrwt beam="1">  1        2 0.72120269E-01 0.91559192E+02</pdfrwt>
<pdfrwt beam="2">  1       -2 0.93492735E-03 0.91559192E+02</pdfrwt>
<totfact> 0.13529494E+05</totfact>
</mgrwt>
</event>
<event>
 6    1  0.3075717E-002  0.9548971E+02  0.7546771E-02  0.1360523E+00
         -2   -1    0    0    0  501 -0.00000000000E+00  0.00000000000E+00  0.26110462371E+03  0.26110462371E+03  0.00000000000E+00 0.  1.
          2   -1    0    0  501    0  0.00000000000E+00 -0.00000000000E+00 -0.14526025648E+02  0.14526025648E+02  0.00000000000E+00 0. -1.
         23    2    1    2    0    0 -0.24950931712E+02  0.11267564176E+02  0.19937124774E+03  0.22105921983E+03  0.91481021272E+02 0.  0.
         11    1    3    3    0    0  0.30669527398E+02 -0.10869522647E+02  0.98793638953E+02  0.10401417947E+03  0.00000000000E+00 0.  1.
        -11    1    3    3    0    0 -0.55620459110E+02  0.22137086822E+02  0.10057760878E+03  0.11704504036E+03  0.00000000000E+00 0. -1.
         22    1    1    2    0    0  0.24950931712E+02 -0.11267564176E+02  0.47207350320E+02  0.54571429521E+02  0.00000000000E+00 0.  1.
<mgrwt>
<rscale>  0 0.69873803E+02</rscale>
<asrwt>0</asrwt>
<pdfrwt beam="1">  1        2 0.22347734E-02 0.95489708E+02</pdfrwt>
<pdfrwt beam="2">  1       -2 0.40169939E-01 0.95489708E+02</pdfrwt>
<totfact> 0.24468561E+04</totfact>
</mgrwt>
</event>
<event>
 6    1  0.3075717E-002  0.8935942E+02  0.7546771E-02  0.1416568E+00
          2   -1    0    0  501    0  0.00000000000E+00  0.00000000000E+00  0.25989579268E+04  0.25989579268E+04  0.00000000000E+00 0. -1.
         -2   -1    0    0    0  501 -0.00000000000E+00 -0.00000000000E+00 -0.16048942812E+01  0.16048942812E+01  0.00000000000E+00 0.  1.
         23    2    1    2    0    0 -0.12018060998E+02 -0.62405325066E+01  0.25422581182E+04  0.25438281085E+04  0.88327388880E+02 0.  0.
         13    1    3    3    0    0  0.24817501439E+02  0.16001971200E+02  0.18490385701E+04  0.18492743456E+04  0.00000000000E+00 0. -1.
        -13    1    3    3    0    0 -0.36835562437E+02 -0.22242503707E+02  0.69321954812E+03  0.69455376288E+03  0.00000000000E+00 0.  1.
         22    1    1    2    0    0  0.12018060998E+02  0.62405325066E+01  0.55094914261E+02  0.56734712597E+02  0.00000000000E+00 0.  1.
<mgrwt>
<rscale>  0 0.55753696E+02</rscale>
<asrwt>0</asrwt>
<pdfrwt beam="1">  1        2 0.39983631E+00 0.89359418E+02</pdfrwt>
<pdfrwt beam="2">  1       -2 0.24690889E-03 0.89359418E+02</pdfrwt>
<totfact> 0.52912698E+04</totfact>
</mgrwt>
</event>
<event>
 6    1  0.3075717E-002  0.1163860E+03  0.7546771E-02  0.1273741E+00
         -2   -1    0    0    0  501 -0.00000000000E+00  0.00000000000E+00  0.35201899192E+02  0.35201899192E+02  0.00000000000E+00 0.  1.
          2   -1    0    0  501    0  0.00000000000E+00 -0.00000000000E+00 -0.29988539227E+03  0.29988539227E+03  0.00000000000E+00 0. -1.
         23    2    1    2    0    0  0.71876539173E+02 -0.18449600897E+01 -0.22410984312E+03  0.25252905848E+03  0.91520832794E+02 0.  0.
         11    1    3    3    0    0  0.67025058349E+02 -0.25628546894E+02 -0.21490562667E+03  0.22656921511E+03  0.00000000000E+00 0. -1.
        -11    1    3    3    0    0  0.48514808236E+01  0.23783586804E+02 -0.92042164486E+01  0.25959843371E+02  0.00000000000E+00 0.  1.
         22    1    1    2    0    0 -0.71876539173E+02  0.18449600897E+01 -0.40573649958E+02  0.82558232976E+02  0.00000000000E+00 0.  1.
<mgrwt>
<rscale>  0 0.10318300E+03</rscale>
<asrwt>0</asrwt>
<pdfrwt beam="1">  1        2 0.46136213E-01 0.11638601E+03</pdfrwt>
<pdfrwt beam="2">  1       -2 0.54156770E-02 0.11638601E+03</pdfrwt>
<totfact> 0.17501677E+04</totfact>
</mgrwt>
</event>
<event>
 6    1  0.3075717E-002  0.9678617E+02  0.7546771E-02  0.1345722E+00
          2   -1    0    0  501    0  0.00000000000E+00  0.00000000000E+00  0.23428138677E+03  0.23428138677E+03  0.00000000000E+00 0. -1.
         -2   -1    0    0    0  501 -0.00000000000E+00 -0.00000000000E+00 -0.18248447368E+02  0.18248447368E+02  0.00000000000E+00 0.  1.
         23    2    1    2    0    0 -0.74375451076E+01 -0.32976839155E+02  0.16576756179E+03  0.19195428474E+03  0.90690539154E+02 0.  0.
         13    1    3    3    0    0  0.19940029707E+02 -0.17315801783E+02  0.15701705804E+03  0.15922248048E+03  0.00000000000E+00 0. -1.
        -13    1    3    3    0    0 -0.27377574814E+02 -0.15661037372E+02  0.87505037508E+01  0.32731804261E+02  0.00000000000E+00 0.  1.
         22    1    1    2    0    0  0.74375451076E+01  0.32976839155E+02  0.50265377616E+02  0.60575549397E+02  0.00000000000E+00 0. -1.
<mgrwt>
<rscale>  0 0.74405620E+02</rscale>
<asrwt>0</asrwt>
<pdfrwt beam="1">  1        2 0.36043288E-01 0.96786171E+02</pdfrwt>
<pdfrwt beam="2">  1       -2 0.28074536E-02 0.96786171E+02</pdfrwt>
<totfact> 0.58628558E+04</totfact>
</mgrwt>
</event>
<event>
 6    1  0.3075717E-002  0.9226741E+02  0.7546771E-02  0.1415243E+00
          2   -1    0    0  501    0  0.00000000000E+00  0.00000000000E+00  0.37215518250E+03  0.37215518250E+03  0.00000000000E+00 0. -1.
         -2   -1    0    0    0  501 -0.00000000000E+00 -0.00000000000E+00 -0.93852964894E+01  0.93852964894E+01  0.00000000000E+00 0.  1.
         23    2    1    2    0    0  0.71233494587E+01 -0.10339701845E+02  0.35495526732E+03  0.36675130028E+03  0.91409096455E+02 0.  0.
         11    1    3    3    0    0  0.28064687571E+02 -0.28296879437E+02  0.31876109858E+03  0.32124286458E+03  0.00000000000E+00 0. -1.
        -11    1    3    3    0    0 -0.20941338112E+02  0.17957177592E+02  0.36194168740E+02  0.45508435699E+02  0.00000000000E+00 0.  1.
         22    1    1    2    0    0 -0.71233494587E+01  0.10339701845E+02  0.78146186932E+01  0.14789178715E+02  0.00000000000E+00 0.  1.
<mgrwt>
<rscale>  0 0.56040050E+02</rscale>
<asrwt>0</asrwt>
<pdfrwt beam="1">  1        2 0.57254632E-01 0.92267407E+02</pdfrwt>
<pdfrwt beam="2">  1       -2 0.14438921E-02 0.92267407E+02</pdfrwt>
<totfact> 0.93292624E+04</totfact>
</mgrwt>
</event>
<event>
 6    1  0.3075717E-002  0.9342312E+02  0.7546771E-02  0.1355404E+00
         -2   -1    0    0    0  501 -0.00000000000E+00  0.00000000000E+00  0.92297508530E+01  0.92297508530E+01  0.00000000000E+00 0.  1.
          2   -1    0    0  501    0  0.00000000000E+00 -0.00000000000E+00 -0.53432983918E+03  0.53432983918E+03  0.00000000000E+00 0. -1.
         23    2    1    2    0    0 -0.16429505746E+02  0.27307924825E+02 -0.47559147081E+03  0.48468043730E+03  0.87819290503E+02 0.  0.
         11    1    3    3    0    0 -0.31318788054E+02  0.29709102022E+02 -0.10166955846E+03  0.11045449898E+03  0.00000000000E+00 0.  1.
        -11    1    3    3    0    0  0.14889282309E+02 -0.24011771969E+01 -0.37392191235E+03  0.37422593832E+03  0.00000000000E+00 0. -1.
         22    1    1    2    0    0  0.16429505746E+02 -0.27307924825E+02 -0.49508617522E+02  0.58879152730E+02  0.00000000000E+00 0. -1.
<mgrwt>
<rscale>  0 0.71397640E+02</rscale>
<asrwt>0</asrwt>
<pdfrwt beam="1">  1        2 0.82204587E-01 0.93423119E+02</pdfrwt>
<pdfrwt beam="2">  1       -2 0.14199617E-02 0.93423119E+02</pdfrwt>
<totfact> 0.65059937E+04</totfact>
</mgrwt>
</event>
<event>
 6    1  0.3075717E-002  0.9480877E+02  0.7546771E-02  0.1362513E+00
          2   -1    0    0  501    0  0.00000000000E+00  0.00000000000E+00  0.56048298749E+03  0.56048298749E+03  0.00000000000E+00 0.  1.
         -2   -1    0    0    0  501 -0.00000000000E+00 -0.00000000000E+00 -0.50270767457E+02  0.50270767457E+02  0.00000000000E+00 0. -1.
         23    2    1    2    0    0 -0.26832619965E+02  0.34482096393E+01  0.55248755118E+03  0.56056328507E+03  0.90867060691E+02 0.  0.
         11    1    3    3    0    0  0.12823750978E+01 -0.40804703094E+02  0.19281065333E+03  0.19708530214E+03  0.00000000000E+00 0. -1.
        -11    1    3    3    0    0 -0.28114995063E+02  0.44252912733E+02  0.35967689784E+03  0.36347798293E+03  0.00000000000E+00 0.  1.
         22    1    1    2    0    0  0.26832619965E+02 -0.34482096393E+01 -0.42275331139E+02  0.50190469881E+02  0.00000000000E+00 0. -1.
<mgrwt>
<rscale>  0 0.69293314E+02</rscale>
<asrwt>0</asrwt>
<pdfrwt beam="1">  1        2 0.86228148E-01 0.94808767E+02</pdfrwt>
<pdfrwt beam="2">  1       -2 0.77339646E-02 0.94808767E+02</pdfrwt>
<totfact> 0.51538029E+03</totfact>
</mgrwt>
</event>
<event>
 6    1  0.3075717E-002  0.1053110E+03  0.7546771E-02  0.1305959E+00
         -2   -1    0    0    0  501 -0.00000000000E+00  0.00000000000E+00  0.38622952072E+02  0.38622952072E+02  0.00000000000E+00 0.  1.
          2   -1    0    0  501    0  0.00000000000E+00 -0.00000000000E+00 -0.83415352907E+03  0.83415352907E+03  0.00000000000E+00 0. -1.
         23    2    1    2    0    0 -0.39354458858E+02  0.35603445155E+02 -0.81075529253E+03  0.81756624022E+03  0.90961717465E+02 0.  0.
         13    1    3    3    0    0 -0.67980231193E+02  0.35136642485E+02 -0.60937443260E+03  0.61416047950E+03  0.00000000000E+00 0. -1.
        -13    1    3    3    0    0  0.28625772335E+02  0.46680266967E+00 -0.20138085993E+03  0.20340576072E+03  0.00000000000E+00 0.  1.
         22    1    1    2    0    0  0.39354458858E+02 -0.35603445155E+02  0.15224715536E+02  0.55210240916E+02  0.00000000000E+00 0.  1.
<mgrwt>
<rscale>  0 0.88729242E+02</rscale>
<asrwt>0</asrwt>
<pdfrwt beam="1">  1        2 0.12833132E+00 0.10531103E+03</pdfrwt>
<pdfrwt beam="2">  1       -2 0.59419922E-02 0.10531103E+03</pdfrwt>
<totfact> 0.48568413E+03</totfact>
</mgrwt>
</event>
<event>
 6    1  0.3075717E-002  0.9394750E+02  0.7546771E-02  0.1383620E+00
         -2   -1    0    0    0  501 -0.00000000000E+00  0.00000000000E+00  0.18389891750E+03  0.18389891750E+03  0.00000000000E+00 0.  1.
          2   -1    0    0  501    0  0.00000000000E+00 -0.00000000000E+00 -0.23276322101E+02  0.23276322101E+02  0.00000000000E+00 0. -1.
         23    2    1    2    0    0  0.16334523438E+02 -0.10895865937E+02  0.77568997166E+02  0.12183218640E+03  0.91872715051E+02 0.  0.
         13    1    3    3    0    0  0.12756987425E+02 -0.43373313809E+02  0.76835860886E+02  0.89150067847E+02  0.00000000000E+00 0.  1.
        -13    1    3    3    0    0  0.35775360127E+01  0.32477447872E+02  0.73313627994E+00  0.32682118552E+02  0.00000000000E+00 0. -1.
         22    1    1    2    0    0 -0.16334523438E+02  0.10895865937E+02  0.83053598229E+02  0.85343053198E+02  0.00000000000E+00 0.  1.
<mgrwt>
<rscale>  0 0.63521699E+02</rscale>
<asrwt>0</asrwt>
<pdfrwt beam="1">  1        2 0.35809727E-02 0.93947498E+02</pdfrwt>
<pdfrwt beam="2">  1       -2 0.28292140E-01 0.93947498E+02</pdfrwt>
<totfact> 0.24662898E+04</totfact>
</mgrwt>
</event>
<event>
 6    1  0.3075717E-002  0.1168187E+03  0.7546771E-02  0.1285135E+00
         -2   -1    0    0    0  501 -0.00000000000E+00  0.00000000000E+00  0.41251021691E+02  0.41251021691E+02  0.00000000000E+00 0.  1.
          2   -1    0    0  501    0  0.00000000000E+00 -0.00000000000E+00 -0.30494586803E+03  0.30494586803E+03  0.00000000000E+00 0. -1.
         23    2    1    2    0    0 -0.10623658392E+02 -0.56237395837E+02 -0.26429574952E+03  0.28896169170E+03  0.10183864318E+03 0.  0.
         11    1    3    3    0    0 -0.23899086491E+02 -0.82694854707E+02 -0.21302775043E+03  0.22976167605E+03  0.00000000000E+00 0. -1.
        -11    1    3    3    0    0  0.13275428099E+02  0.26457458870E+02 -0.51267999095E+02  0.59200015644E+02  0.00000000000E+00 0.  1.
         22    1    1    2    0    0  0.10623658392E+02  0.56237395837E+02  0.60090318472E+00  0.57235198024E+02  0.00000000000E+00 0.  1.
<mgrwt>
<rscale>  0 0.97733663E+02</rscale>
<asrwt>0</asrwt>
<pdfrwt beam="1">  1        2 0.46914749E-01 0.11681873E+03</pdfrwt>
<pdfrwt beam="2">  1       -2 0.63463110E-02 0.11681873E+03</pdfrwt>
<totfact> 0.13542099E+04</totfact>
</mgrwt>
</event>
<event>
 6    1  0.3075717E-002  0.9403472E+02  0.7546771E-02  0.1402995E+00
         -1   -1    0    0    0  501 -0.00000000000E+00  0.00000000000E+00  0.60973012007E+01  0.60973012007E+01  0.00000000000E+00 0.  1.
          1   -1    0    0  501    0  0.00000000000E+00 -0.00000000000E+00 -0.48281809593E+03  0.48281809593E+03  0.00000000000E+00 0. -1.
         23    2    1    2    0    0 -0.12048162505E+02 -0.78195233976E+01 -0.40546203121E+03  0.41622348187E+03  0.92931291509E+02 0.  0.
         13    1    3    3    0    0  0.14413633946E+02  0.28845041465E+02 -0.29655443005E+03  0.29830239564E+03  0.00000000000E+00 0. -1.
        -13    1    3    3    0    0 -0.26461796451E+02 -0.36664564863E+02 -0.10890760116E+03  0.11792108623E+03  0.00000000000E+00 0.  1.
         22    1    1    2    0    0  0.12048162505E+02  0.78195233976E+01 -0.71258763524E+02  0.72691915265E+02  0.00000000000E+00 0.  1.
<mgrwt>
<rscale>  0 0.58786744E+02</rscale>
<asrwt>0</asrwt>
<pdfrwt beam="1">  1        1 0.74279713E-01 0.94034718E+02</pdfrwt>
<pdfrwt beam="2">  1       -1 0.93804626E-03 0.94034718E+02</pdfrwt>
<totfact> 0.85352084E+04</totfact>
</mgrwt>
</event>
<event>
 6    1  0.3075717E-002  0.8813755E+02  0.7546771E-02  0.1425355E+00
         -1   -1    0    0    0  501 -0.00000000000E+00  0.00000000000E+00  0.23604575873E+02  0.23604575873E+02  0.00000000000E+00 0.  1.
          1   -1    0    0  501    0  0.00000000000E+00 -0.00000000000E+00 -0.12812323045E+03  0.12812323045E+03  0.00000000000E+00 0. -1.
         23    2    1    2    0    0 -0.98833961080E+01 -0.73735994420E+01 -0.10752881693E+03  0.13903479389E+03  0.87270705012E+02 0.  0.
         13    1    3    3    0    0  0.13153212581E+02  0.10492738998E+02 -0.10856732182E+03  0.10986340582E+03  0.00000000000E+00 0.  1.
        -13    1    3    3    0    0 -0.23036608689E+02 -0.17866338440E+02  0.10385048841E+01  0.29171388064E+02  0.00000000000E+00 0. -1.
         22    1    1    2    0    0  0.98833961080E+01  0.73735994420E+01  0.30101623523E+01  0.12693012438E+02  0.00000000000E+00 0.  1.
<mgrwt>
<rscale>  0 0.53903822E+02</rscale>
<asrwt>0</asrwt>
<pdfrwt beam="1">  1        1 0.19711267E-01 0.88137548E+02</pdfrwt>
<pdfrwt beam="2">  1       -1 0.36314731E-02 0.88137548E+02</pdfrwt>
<totfact> 0.63166067E+04</totfact>
</mgrwt>
</event>
<event>
 6    1  0.3075717E-002  0.9327441E+02  0.7546771E-02  0.1401120E+00
          2   -1    0    0  501    0  0.00000000000E+00  0.00000000000E+00  0.56165816590E+02  0.56165816590E+02  0.00000000000E+00 0. -1.
         -2   -1    0    0    0  501 -0.00000000000E+00 -0.00000000000E+00 -0.92524568829E+02  0.92524568829E+02  0.00000000000E+00 0.  1.
         23    2    1    2    0    0 -0.14610503078E+02 -0.40425738974E+01  0.15595897560E+02  0.94569272720E+02  0.92034266000E+02 0.  0.
         13    1    3    3    0    0 -0.45779142158E+02  0.20019011469E+02 -0.48535856680E+01  0.50200079390E+02  0.00000000000E+00 0.  1.
        -13    1    3    3    0    0  0.31168639080E+02 -0.24061585366E+02  0.20449483228E+02  0.44369193330E+02  0.00000000000E+00 0. -1.
         22    1    1    2    0    0  0.14610503078E+02  0.40425738974E+01 -0.51954649800E+02  0.54121112699E+02  0.00000000000E+00 0. -1.
<mgrwt>
<rscale>  0 0.59223328E+02</rscale>
<asrwt>0</asrwt>
<pdfrwt beam="1">  1        2 0.86408950E-02 0.93274409E+02</pdfrwt>
<pdfrwt beam="2">  1       -2 0.14234549E-01 0.93274409E+02</pdfrwt>
<totfact> 0.25351726E+04</totfact>
</mgrwt>
</event>
<event>
 6    1  0.3075717E-002  0.9084375E+02  0.7546771E-02  0.1421666E+00
          1   -1    0    0  501    0  0.00000000000E+00  0.00000000000E+00  0.14430203878E+02  0.14430203878E+02  0.00000000000E+00 0. -1.
         -1   -1    0    0    0  501 -0.00000000000E+00 -0.00000000000E+00 -0.18430549281E+03  0.18430549281E+03  0.00000000000E+00 0.  1.
         23    2    1    2    0    0 -0.11170953865E+02  0.41457990451E+01 -0.14418829631E+03  0.17041963323E+03  0.90058918140E+02 0.  0.
         13    1    3    3    0    0 -0.59687728577E+01  0.14431380389E+02  0.81706720671E+01  0.17625290676E+02  0.00000000000E+00 0. -1.
        -13    1    3    3    0    0 -0.52021810073E+01 -0.10285581344E+02 -0.15235896838E+03  0.15279434255E+03  0.00000000000E+00 0.  1.
         22    1    1    2    0    0  0.11170953865E+02 -0.41457990451E+01 -0.25686992615E+02  0.28316063455E+02  0.00000000000E+00 0.  1.
<mgrwt>
<rscale>  0 0.54669973E+02</rscale>
<asrwt>0</asrwt>
<pdfrwt beam="1">  1        1 0.22200315E-02 0.90843748E+02</pdfrwt>
<pdfrwt beam="2">  1       -1 0.28354689E-01 0.90843748E+02</pdfrwt>
<totfact> 0.50523189E+04</totfact>
</mgrwt>
</event>
<event>
 6    1  0.3075717E-002  0.1010936E+03  0.7546771E-02  0.1401937E+00
         -2   -1    0    0    0  501 -0.00000000000E+00  0.00000000000E+00  0.11097216209E+02  0.11097216209E+02  0.00000000000E+00 0. -1.
          2   -1    0    0  501    0  0.00000000000E+00 -0.00000000000E+00 -0.34714475308E+03  0.34714475308E+03  0.00000000000E+00 0.  1.
         23    2    1    2    0    0 -0.96478108652E+01 -0.67142773160E+01 -0.32976760733E+03  0.34491533095E+03  0.10040791257E+03 0.  0.
         13    1    3    3    0    0  0.49535557552E+01 -0.35631626268E+02 -0.29579048020E+03  0.29797006340E+03  0.00000000000E+00 0.  1.
        -13    1    3    3    0    0 -0.14601366620E+02  0.28917348952E+02 -0.33977127130E+02  0.46945267553E+02  0.00000000000E+00 0. -1.
         22    1    1    2    0    0  0.96478108652E+01  0.67142773160E+01 -0.62799295429E+01  0.13326638339E+02  0.00000000000E+00 0. -1.
<mgrwt>
<rscale>  0 0.59032497E+02</rscale>
<asrwt>0</asrwt>
<pdfrwt beam="1">  1        2 0.53406888E-01 0.10109357E+03</pdfrwt>
<pdfrwt beam="2">  1       -2 0.17072639E-02 0.10109357E+03</pdfrwt>
<totfact> 0.80001602E+04</totfact>
</mgrwt>
</event>
<event>
 6    1  0.3075717E-002  0.9160184E+02  0.7546771E-02  0.1404277E+00
         -2   -1    0    0    0  501 -0.00000000000E+00  0.00000000000E+00  0.17926942585E+02  0.17926942585E+02  0.00000000000E+00 0. -1.
          2   -1    0    0  501    0  0.00000000000E+00 -0.00000000000E+00 -0.16444295830E+03  0.16444295830E+03  0.00000000000E+00 0.  1.
         23    2    1    2    0    0 -0.10562988732E+02  0.10968448940E+02 -0.13557200194E+03  0.16361743330E+03  0.90327255940E+02 0.  0.
         13    1    3    3    0    0 -0.43542988988E+02  0.18869830287E+02 -0.11384822899E+03  0.12334294317E+03  0.00000000000E+00 0. -1.
        -13    1    3    3    0    0  0.32980000255E+02 -0.79013813470E+01 -0.21723772950E+02  0.40274490130E+02  0.00000000000E+00 0.  1.
         22    1    1    2    0    0  0.10562988732E+02 -0.10968448940E+02 -0.10944013775E+02  0.18752467587E+02  0.00000000000E+00 0.  1.
<mgrwt>
<rscale>  0 0.58490710E+02</rscale>
<asrwt>0</asrwt>
<pdfrwt beam="1">  1        2 0.25298916E-01 0.91601838E+02</pdfrwt>
<pdfrwt beam="2">  1       -2 0.27579912E-02 0.91601838E+02</pdfrwt>
<totfact> 0.87213160E+04</totfact>
</mgrwt>
</event>
<event>
 6    1  0.3075717E-002  0.9302451E+02  0.7546771E-02  0.1408938E+00
         -2   -1    0    0    0  501 -0.00000000000E+00  0.00000000000E+00  0.10624063552E+02  0.10624063552E+02  0.00000000000E+00 0.  1.
          2   -1    0    0  501    0  0.00000000000E+00 -0.00000000000E+00 -0.55756476814E+03  0.55756476814E+03  0.00000000000E+00 0. -1.
         23    2    1    2    0    0  0.13498959212E+02  0.65242134468E+00 -0.54681732861E+03  0.55467355237E+03  0.92037553623E+02 0.  0.
         13    1    3    3    0    0 -0.19072575494E+02  0.47770255494E+01 -0.47822140830E+03  0.47862542605E+03  0.00000000000E+00 0. -1.
        -13    1    3    3    0    0  0.32571534706E+02 -0.41246042047E+01 -0.68595920312E+02  0.76048126318E+02  0.00000000000E+00 0.  1.
         22    1    1    2    0    0 -0.13498959212E+02 -0.65242134468E+00 -0.12337597394E+00  0.13515279318E+02  0.00000000000E+00 0.  1.
<mgrwt>
<rscale>  0 0.57431448E+02</rscale>
<asrwt>0</asrwt>
<pdfrwt beam="1">  1        2 0.85779185E-01 0.93024507E+02</pdfrwt>
<pdfrwt beam="2">  1       -2 0.16344715E-02 0.93024507E+02</pdfrwt>
<totfact> 0.50761128E+04</totfact>
</mgrwt>
</event>
<event>
 6    1  0.3075717E-002  0.9336168E+02  0.7546771E-02  0.1376790E+00
         -3   -1    0    0    0  501 -0.00000000000E+00  0.00000000000E+00  0.74460149983E+01  0.74460149983E+01  0.00000000000E+00 0.  1.
          3   -1    0    0  501    0  0.00000000000E+00 -0.00000000000E+00 -0.51764406469E+03  0.51764406469E+03  0.00000000000E+00 0. -1.
         23    2    1    2    0    0 -0.16512385395E+02 -0.15083012918E+02 -0.46910773699E+03  0.47830792553E+03  0.90643513655E+02 0.  0.
         11    1    3    3    0    0  0.41997545561E+01 -0.29198299944E+02 -0.43490550725E+03  0.43590478191E+03  0.00000000000E+00 0. -1.
        -11    1    3    3    0    0 -0.20712139951E+02  0.14115287026E+02 -0.34202229740E+02  0.42403143614E+02  0.00000000000E+00 0.  1.
         22    1    1    2    0    0  0.16512385395E+02  0.15083012918E+02 -0.41090312704E+02  0.46782154164E+02  0.00000000000E+00 0.  1.
<mgrwt>
<rscale>  0 0.65315264E+02</rscale>
<asrwt>0</asrwt>
<pdfrwt beam="1">  1        3 0.79637545E-01 0.93361677E+02</pdfrwt>
<pdfrwt beam="2">  1       -3 0.11455408E-02 0.93361677E+02</pdfrwt>
<totfact> 0.70362834E+03</totfact>
</mgrwt>
</event>
<event>
 6    1  0.3075717E-002  0.9420413E+02  0.7546771E-02  0.1359827E+00
         -3   -1    0    0    0  501 -0.00000000000E+00  0.00000000000E+00  0.11158723384E+03  0.11158723384E+03  0.00000000000E+00 0.  1.
          3   -1    0    0  501    0  0.00000000000E+00 -0.00000000000E+00 -0.44674392039E+02  0.44674392039E+02  0.00000000000E+00 0. -1.
         23    2    1    2    0    0 -0.71597266089E+01 -0.27945992894E+02  0.12974872811E+02  0.95093458482E+02  0.89678193100E+02 0.  0.
         11    1    3    3    0    0 -0.33721367616E+02 -0.15175916243E+02 -0.26742665088E+02  0.45635613327E+02  0.00000000000E+00 0. -1.
        -11    1    3    3    0    0  0.26561641007E+02 -0.12770076651E+02  0.39717537899E+02  0.49457845155E+02  0.00000000000E+00 0.  1.
         22    1    1    2    0    0  0.71597266089E+01  0.27945992894E+02  0.53937968993E+02  0.61168167400E+02  0.00000000000E+00 0. -1.
<mgrwt>
<rscale>  0 0.70078299E+02</rscale>
<asrwt>0</asrwt>
<pdfrwt beam="1">  1        3 0.68729834E-02 0.94204132E+02</pdfrwt>
<pdfrwt beam="2">  1       -3 0.17167267E-01 0.94204132E+02</pdfrwt>
<totfact> 0.83840938E+03</totfact>
</mgrwt>
</event>
<event>
 6    1  0.3075717E-002  0.9171046E+02  0.7546771E-02  0.1400716E+00
          2   -1    0    0  501    0  0.00000000000E+00  0.00000000000E+00  0.11434638311E+04  0.11434638311E+04  0.00000000000E+00 0. -1.
         -2   -1    0    0    0  501 -0.00000000000E+00 -0.00000000000E+00 -0.31583635100E+01  0.31583635100E+01  0.00000000000E+00 0.  1.
         23    2    1    2    0    0  0.21020311753E+01 -0.15912413135E+02  0.10892306947E+04  0.10930847698E+04  0.90294985057E+02 0.  0.
         13    1    3    3    0    0  0.43833266134E+02 -0.22209424020E+02  0.63441110701E+03  0.63631129680E+03  0.00000000000E+00 0. -1.
        -13    1    3    3    0    0 -0.41731234959E+02  0.62970108848E+01  0.45481958765E+03  0.45677347299E+03  0.00000000000E+00 0.  1.
         22    1    1    2    0    0 -0.21020311753E+01  0.15912413135E+02  0.51074772954E+02  0.53537424846E+02  0.00000000000E+00 0.  1.
<mgrwt>
<rscale>  0 0.59318111E+02</rscale>
<asrwt>0</asrwt>
<pdfrwt beam="1">  1        2 0.17591718E+00 0.91710456E+02</pdfrwt>
<pdfrwt beam="2">  1       -2 0.48590299E-03 0.91710456E+02</pdfrwt>
<totfact> 0.11555070E+05</totfact>
</mgrwt>
</event>
<event>
 6    1  0.3075717E-002  0.9642127E+02  0.7546771E-02  0.1352051E+00
         -1   -1    0    0    0  501 -0.00000000000E+00  0.00000000000E+00  0.18788632147E+02  0.18788632147E+02  0.00000000000E+00 0.  1.
          1   -1    0    0  501    0  0.00000000000E+00 -0.00000000000E+00 -0.21536293973E+03  0.21536293973E+03  0.00000000000E+00 0. -1.
         23    2    1    2    0    0 -0.11881578727E+02  0.28290953107E+02 -0.15331118337E+03  0.18111151289E+03  0.91408485457E+02 0.  0.
         11    1    3    3    0    0 -0.47013234789E+02  0.28597391588E+01 -0.48140806875E+02  0.67349533331E+02  0.00000000000E+00 0. -1.
        -11    1    3    3    0    0  0.35131656062E+02  0.25431213949E+02 -0.10517037650E+03  0.11376197956E+03  0.00000000000E+00 0.  1.
         22    1    1    2    0    0  0.11881578727E+02 -0.28290953107E+02 -0.43263124205E+02  0.53040058982E+02  0.00000000000E+00 0.  1.
<mgrwt>
<rscale>  0 0.72420256E+02</rscale>
<asrwt>0</asrwt>
<pdfrwt beam="1">  1        1 0.33132761E-01 0.96421269E+02</pdfrwt>
<pdfrwt beam="2">  1       -1 0.28905587E-02 0.96421269E+02</pdfrwt>
<totfact> 0.46718549E+04</totfact>
</mgrwt>
</event>
<event>
 6    1  0.3075717E-002  0.9503937E+02  0.7546771E-02  0.1374701E+00
          2   -1    0    0  501    0  0.00000000000E+00  0.00000000000E+00  0.37847037866E+03  0.37847037866E+03  0.00000000000E+00 0.  1.
         -2   -1    0    0    0  501 -0.00000000000E+00 -0.00000000000E+00 -0.90616154298E+01  0.90616154298E+01  0.00000000000E+00 0. -1.
         23    2    1    2    0    0  0.21716817499E+02 -0.31202517375E+01  0.30738407836E+03  0.32174128299E+03  0.92472295421E+02 0.  0.
         11    1    3    3    0    0 -0.96496087931E+01  0.12380616823E+02  0.27030731577E+03  0.27076269976E+03  0.00000000000E+00 0.  1.
        -11    1    3    3    0    0  0.31366426292E+02 -0.15500868560E+02  0.37076762594E+02  0.50978583238E+02  0.00000000000E+00 0. -1.
         22    1    1    2    0    0 -0.21716817499E+02  0.31202517375E+01  0.62024684871E+02  0.65790711096E+02  0.00000000000E+00 0.  1.
<mgrwt>
<rscale>  0 0.65877327E+02</rscale>
<asrwt>0</asrwt>
<pdfrwt beam="1">  1        2 0.58226200E-01 0.95039368E+02</pdfrwt>
<pdfrwt beam="2">  1       -2 0.13940950E-02 0.95039368E+02</pdfrwt>
<totfact> 0.96774896E+04</totfact>
</mgrwt>
</event>
<event>
 6    1  0.3075717E-002  0.1010246E+03  0.7546771E-02  0.1321277E+00
          2   -1    0    0  501    0  0.00000000000E+00  0.00000000000E+00  0.14099638759E+03  0.14099638759E+03  0.00000000000E+00 0. -1.
         -2   -1    0    0    0  501 -0.00000000000E+00 -0.00000000000E+00 -0.41565651346E+02  0.41565651346E+02  0.00000000000E+00 0.  1.
         23    2    1    2    0    0 -0.26740845896E+02  0.36931228400E+02  0.91459135186E+02  0.13627451477E+03  0.90149772576E+02 0.  0.
         11    1    3    3    0    0 -0.53898946045E+02  0.22496041902E+02  0.87589074245E+02  0.10527589569E+03  0.00000000000E+00 0. -1.
        -11    1    3    3    0    0  0.27158100150E+02  0.14435186498E+02  0.38700609408E+01  0.30998619077E+02  0.00000000000E+00 0.  1.
         22    1    1    2    0    0  0.26740845896E+02 -0.36931228400E+02  0.79716010574E+01  0.46287524170E+02  0.00000000000E+00 0.  1.
<mgrwt>
<rscale>  0 0.82804105E+02</rscale>
<asrwt>0</asrwt>
<pdfrwt beam="1">  1        2 0.21691752E-01 0.10102460E+03</pdfrwt>
<pdfrwt beam="2">  1       -2 0.63947157E-02 0.10102460E+03</pdfrwt>
<totfact> 0.30208157E+04</totfact>
</mgrwt>
</event>
<event>
 6    1  0.3075717E-002  0.9844519E+02  0.7546771E-02  0.1412488E+00
         -1   -1    0    0    0  501 -0.00000000000E+00  0.00000000000E+00  0.25861731977E+01  0.25861731977E+01  0.00000000000E+00 0.  1.
          1   -1    0    0  501    0  0.00000000000E+00 -0.00000000000E+00 -0.12798269610E+04  0.12798269610E+04  0.00000000000E+00 0. -1.
         23    2    1    2    0    0 -0.64154783893E+01 -0.86744178613E+01 -0.12310092695E+04  0.12349393817E+04  0.97852189964E+02 0.  0.
         11    1    3    3    0    0  0.18871645186E+01 -0.32432938838E+02 -0.11414187352E+04  0.11418809859E+04  0.00000000000E+00 0. -1.
        -11    1    3    3    0    0 -0.83026429079E+01  0.23758520977E+02 -0.89590534319E+02  0.93058395848E+02  0.00000000000E+00 0.  1.
         22    1    1    2    0    0  0.64154783893E+01  0.86744178613E+01 -0.46231518296E+02  0.47473752455E+02  0.00000000000E+00 0.  1.
<mgrwt>
<rscale>  0 0.56642421E+02</rscale>
<asrwt>0</asrwt>
<pdfrwt beam="1">  1        1 0.19689652E+00 0.98445188E+02</pdfrwt>
<pdfrwt beam="2">  1       -1 0.39787267E-03 0.98445188E+02</pdfrwt>
<totfact> 0.64999923E+04</totfact>
</mgrwt>
</event>
<event>
 6    1  0.3075717E-002  0.9343165E+02  0.7546771E-02  0.1420256E+00
         -2   -1    0    0    0  501 -0.00000000000E+00  0.00000000000E+00  0.36703404771E+02  0.36703404771E+02  0.00000000000E+00 0.  1.
          2   -1    0    0  501    0  0.00000000000E+00 -0.00000000000E+00 -0.12909591928E+03  0.12909591928E+03  0.00000000000E+00 0. -1.
         23    2    1    2    0    0  0.77028663902E+01  0.81200451465E+01 -0.11037996846E+03  0.14461400405E+03  0.92758845650E+02 0.  0.
         11    1    3    3    0    0 -0.12372401996E+01  0.11782778017E+01 -0.12561939759E+03  0.12563101588E+03  0.00000000000E+00 0. -1.
        -11    1    3    3    0    0  0.89401065898E+01  0.69417673448E+01  0.15239429125E+02  0.18982988168E+02  0.00000000000E+00 0.  1.
         22    1    1    2    0    0 -0.77028663902E+01 -0.81200451465E+01  0.17987453952E+02  0.21185320000E+02  0.00000000000E+00 0.  1.
<mgrwt>
<rscale>  0 0.54966879E+02</rscale>
<asrwt>0</asrwt>
<pdfrwt beam="1">  1        2 0.19860910E-01 0.93431647E+02</pdfrwt>
<pdfrwt beam="2">  1       -2 0.56466778E-02 0.93431647E+02</pdfrwt>
<totfact> 0.39797761E+04</totfact>
</mgrwt>
</event>
<event>
 6    1  0.3075717E-002  0.9165944E+02  0.7546771E-02  0.1420426E+00
         -2   -1    0    0    0  501 -0.00000000000E+00  0.00000000000E+00  0.10160244368E+02  0.10160244368E+02  0.00000000000E+00 0.  1.
          2   -1    0    0  501    0  0.00000000000E+00 -0.00000000000E+00 -0.26414251701E+03  0.26414251701E+03  0.00000000000E+00 0. -1.
         23    2    1    2    0    0  0.75272815265E+01  0.91174751843E+01 -0.22905463824E+03  0.24671335620E+03  0.90893698953E+02 0.  0.
         11    1    3    3    0    0 -0.81593406214E+01 -0.11187615310E+02 -0.21854909677E+03  0.21898731761E+03  0.00000000000E+00 0. -1.
        -11    1    3    3    0    0  0.15686622148E+02  0.20305090494E+02 -0.10505541468E+02  0.27726038591E+02  0.00000000000E+00 0.  1.
         22    1    1    2    0    0 -0.75272815265E+01 -0.91174751843E+01 -0.24927634402E+02  0.27589405173E+02  0.00000000000E+00 0.  1.
<mgrwt>
<rscale>  0 0.54930906E+02</rscale>
<asrwt>0</asrwt>
<pdfrwt beam="1">  1        2 0.40637308E-01 0.91659439E+02</pdfrwt>
<pdfrwt beam="2">  1       -2 0.15631146E-02 0.91659439E+02</pdfrwt>
<totfact> 0.11914118E+05</totfact>
</mgrwt>
</event>
<event>
 6    1  0.3075717E-002  0.1350999E+03  0.7546771E-02  0.1234886E+00
         -2   -1    0    0    0  501 -0.00000000000E+00  0.00000000000E+00  0.19666357479E+02  0.19666357479E+02  0.00000000000E+00 0.  1.
          2   -1    0    0  501    0  0.00000000000E+00 -0.00000000000E+00 -0.10830179699E+04  0.10830179699E+04  0.00000000000E+00 0. -1.
         23    2    1    2    0    0 -0.92336261649E+02  0.36749707425E+02 -0.90981474486E+03  0.91979065358E+03  0.91517486013E+02 0.  0.
         11    1    3    3    0    0 -0.89703828069E+02  0.58805959943E+02 -0.62730994561E+03  0.63641392628E+03  0.00000000000E+00 0. -1.
        -11    1    3    3    0    0 -0.26324335805E+01 -0.22056252519E+02 -0.28250479925E+03  0.28337672731E+03  0.00000000000E+00 0.  1.
         22    1    1    2    0    0  0.92336261649E+02 -0.36749707425E+02 -0.15353686752E+03  0.18289367375E+03  0.00000000000E+00 0.  1.
<mgrwt>
<rscale>  0 0.12511712E+03</rscale>
<asrwt>0</asrwt>
<pdfrwt beam="1">  1        2 0.16661815E+00 0.13509988E+03</pdfrwt>
<pdfrwt beam="2">  1       -2 0.30255934E-02 0.13509988E+03</pdfrwt>
<totfact> 0.94559544E+03</totfact>
</mgrwt>
</event>
<event>
 6    1  0.3075717E-002  0.9383586E+02  0.7546771E-02  0.1371406E+00
         -2   -1    0    0    0  501 -0.00000000000E+00  0.00000000000E+00  0.31870289746E+02  0.31870289746E+02  0.00000000000E+00 0.  1.
          2   -1    0    0  501    0  0.00000000000E+00 -0.00000000000E+00 -0.15302807399E+03  0.15302807399E+03  0.00000000000E+00 0. -1.
         23    2    1    2    0    0  0.22093583765E+02  0.95444014839E+01 -0.12906012592E+03  0.15956717649E+03  0.90696999205E+02 0.  0.
         13    1    3    3    0    0  0.44809842137E+02 -0.19156671223E+02 -0.10501848938E+03  0.11577470845E+03  0.00000000000E+00 0. -1.
        -13    1    3    3    0    0 -0.22716258372E+02  0.28701072707E+02 -0.24041636542E+02  0.43792468035E+02  0.00000000000E+00 0.  1.
         22    1    1    2    0    0 -0.22093583765E+02 -0.95444014839E+01  0.79023416828E+01  0.25331187247E+02  0.00000000000E+00 0.  1.
<mgrwt>
<rscale>  0 0.66777822E+02</rscale>
<asrwt>0</asrwt>
<pdfrwt beam="1">  1        2 0.23542781E-01 0.93835855E+02</pdfrwt>
<pdfrwt beam="2">  1       -2 0.49031215E-02 0.93835855E+02</pdfrwt>
<totfact> 0.40708876E+04</totfact>
</mgrwt>
</event>
<event>
 6    1  0.3075717E-002  0.9296580E+02  0.7546771E-02  0.1379082E+00
         -2   -1    0    0    0  501 -0.00000000000E+00  0.00000000000E+00  0.19361972763E+02  0.19361972763E+02  0.00000000000E+00 0. -1.
          2   -1    0    0  501    0  0.00000000000E+00 -0.00000000000E+00 -0.17226096643E+03  0.17226096643E+03  0.00000000000E+00 0.  1.
         23    2    1    2    0    0  0.13005853033E+02 -0.17516734542E+02 -0.13166914731E+03  0.16118128059E+03  0.90369533900E+02 0.  0.
         13    1    3    3    0    0 -0.10843854516E+02 -0.39874564642E+02 -0.22145129069E+02  0.46882585548E+02  0.00000000000E+00 0. -1.
        -13    1    3    3    0    0  0.23849707549E+02  0.22357830101E+02 -0.10952401824E+03  0.11429869504E+03  0.00000000000E+00 0.  1.
         22    1    1    2    0    0 -0.13005853033E+02  0.17516734542E+02 -0.21229846361E+02  0.30441658605E+02  0.00000000000E+00 0.  1.
<mgrwt>
<rscale>  0 0.64705612E+02</rscale>
<asrwt>0</asrwt>
<pdfrwt beam="1">  1        2 0.26501687E-01 0.92965805E+02</pdfrwt>
<pdfrwt beam="2">  1       -2 0.29787650E-02 0.92965805E+02</pdfrwt>
<totfact> 0.74308000E+04</totfact>
</mgrwt>
</event>
<event>
 6    1  0.3075717E-002  0.9258417E+02  0.7546771E-02  0.1411422E+00
          2   -1    0    0  501    0  0.00000000000E+00  0.00000000000E+00  0.15753595392E+04  0.15753595392E+04  0.00000000000E+00 0. -1.
         -2   -1    0    0    0  501 -0.00000000000E+00 -0.00000000000E+00 -0.63850352989E+01  0.63850352989E+01  0.00000000000E+00 0.  1.
         23    2    1    2    0    0 -0.96927297886E+01  0.89418046652E+01  0.15653263081E+04  0.15680619500E+04  0.91640182536E+02 0.  0.
         13    1    3    3    0    0  0.33280948787E+02  0.24381754315E+01  0.27701385963E+03  0.27901656704E+03  0.00000000000E+00 0.  1.
        -13    1    3    3    0    0 -0.42973678576E+02  0.65036292337E+01  0.12883124485E+04  0.12890453829E+04  0.00000000000E+00 0. -1.
         22    1    1    2    0    0  0.96927297886E+01 -0.89418046652E+01  0.36481957254E+01  0.13682624510E+02  0.00000000000E+00 0.  1.
<mgrwt>
<rscale>  0 0.56877633E+02</rscale>
<asrwt>0</asrwt>
<pdfrwt beam="1">  1        2 0.24236270E+00 0.92584167E+02</pdfrwt>
<pdfrwt beam="2">  1       -2 0.98231438E-03 0.92584167E+02</pdfrwt>
<totfact> 0.25463204E+04</totfact>
</mgrwt>
</event>
<event>
 6    1  0.3075717E-002  0.1331139E+03  0.7546771E-02  0.1239734E+00
         -1   -1    0    0    0  501 -0.00000000000E+00  0.00000000000E+00  0.39698192052E+02  0.39698192052E+02  0.00000000000E+00 0.  1.
          1   -1    0    0  501    0  0.00000000000E+00 -0.00000000000E+00 -0.33889176181E+03  0.33889176181E+03  0.00000000000E+00 0. -1.
         23    2    1    2    0    0  0.56676739187E+02  0.75133709690E+02 -0.13666354672E+03  0.19077798543E+03  0.94138130567E+02 0.  0.
         11    1    3    3    0    0  0.16597727302E+02  0.70194352418E+01  0.12527221870E+02  0.21947398718E+02  0.00000000000E+00 0.  1.
        -11    1    3    3    0    0  0.40079011885E+02  0.68114274448E+02 -0.14919076859E+03  0.16883058672E+03  0.00000000000E+00 0. -1.
         22    1    1    2    0    0 -0.56676739187E+02 -0.75133709690E+02 -0.16253002303E+03  0.18781196842E+03  0.00000000000E+00 0.  1.
<mgrwt>
<rscale>  0 0.12206199E+03</rscale>
<asrwt>0</asrwt>
<pdfrwt beam="1">  1        1 0.52137193E-01 0.13311392E+03</pdfrwt>
<pdfrwt beam="2">  1       -1 0.61074143E-02 0.13311392E+03</pdfrwt>
<totfact> 0.92402581E+03</totfact>
</mgrwt>
</event>
<event>
 6    1  0.3075717E-002  0.9178069E+02  0.7546771E-02  0.1414010E+00
         -2   -1    0    0    0  501 -0.00000000000E+00  0.00000000000E+00  0.27899360842E+01  0.27899360842E+01  0.00000000000E+00 0.  1.
          2   -1    0    0  501    0  0.00000000000E+00 -0.00000000000E+00 -0.10742642480E+04  0.10742642480E+04  0.00000000000E+00 0. -1.
         23    2    1    2    0    0 -0.11385080196E+02  0.62816642800E+01 -0.10131141014E+04  0.10172629345E+04  0.90854917653E+02 0.  0.
         11    1    3    3    0    0  0.27813203716E+02 -0.19302004709E+02 -0.68394393097E+03  0.68478130991E+03  0.00000000000E+00 0. -1.
        -11    1    3    3    0    0 -0.39198283912E+02  0.25583668989E+02 -0.32917017045E+03  0.33248162460E+03  0.00000000000E+00 0.  1.
         22    1    1    2    0    0  0.11385080196E+02 -0.62816642800E+01 -0.58360210464E+02  0.59791249549E+02  0.00000000000E+00 0.  1.
<mgrwt>
<rscale>  0 0.56308612E+02</rscale>
<asrwt>0</asrwt>
<pdfrwt beam="1">  1        2 0.16527130E+00 0.91780692E+02</pdfrwt>
<pdfrwt beam="2">  1       -2 0.42922126E-03 0.91780692E+02</pdfrwt>
<totfact> 0.15031212E+05</totfact>
</mgrwt>
</event>
<event>
 6    1  0.3075717E-002  0.9164300E+02  0.7546771E-02  0.1423788E+00
         -2   -1    0    0    0  501 -0.00000000000E+00  0.00000000000E+00  0.41820165172E+01  0.41820165172E+01  0.00000000000E+00 0.  1.
          2   -1    0    0  501    0  0.00000000000E+00 -0.00000000000E+00 -0.16891347209E+04  0.16891347209E+04  0.00000000000E+00 0. -1.
         23    2    1    2    0    0 -0.10321975193E+02  0.44367882054E+01 -0.16771172069E+04  0.16796191726E+04  0.90951696406E+02 0.  0.
         13    1    3    3    0    0  0.75986632600E+01 -0.34668177882E+02 -0.12113568272E+04  0.12118766378E+04  0.00000000000E+00 0. -1.
        -13    1    3    3    0    0 -0.17920638453E+02  0.39104966088E+02 -0.46576037962E+03  0.46774253482E+03  0.00000000000E+00 0.  1.
         22    1    1    2    0    0  0.10321975193E+02 -0.44367882054E+01 -0.78354975507E+01  0.13697564869E+02  0.00000000000E+00 0.  1.
<mgrwt>
<rscale>  0 0.54227433E+02</rscale>
<asrwt>0</asrwt>
<pdfrwt beam="1">  1        2 0.25986734E+00 0.91642999E+02</pdfrwt>
<pdfrwt beam="2">  1       -2 0.64338602E-03 0.91642999E+02</pdfrwt>
<totfact> 0.40491366E+04</totfact>
</mgrwt>
</event>
<event>
 6    1  0.3075717E-002  0.9405745E+02  0.7546771E-02  0.1388691E+00
         -4   -1    0    0    0  501 -0.00000000000E+00  0.00000000000E+00  0.55245712243E+01  0.55245712243E+01  0.00000000000E+00 0.  1.
          4   -1    0    0  501    0  0.00000000000E+00 -0.00000000000E+00 -0.79820802276E+03  0.79820802276E+03  0.00000000000E+00 0. -1.
         23    2    1    2    0    0 -0.92471295310E+01 -0.15474159347E+02 -0.76458563532E+03  0.77034927048E+03  0.92313843927E+02 0.  0.
         13    1    3    3    0    0 -0.26227092760E+02  0.28653231652E+02 -0.50507956029E+03  0.50657105159E+03  0.00000000000E+00 0. -1.
        -13    1    3    3    0    0  0.16979963229E+02 -0.44127390999E+02 -0.25950607503E+03  0.26377821889E+03  0.00000000000E+00 0.  1.
         22    1    1    2    0    0  0.92471295310E+01  0.15474159347E+02 -0.28097816217E+02  0.33383323505E+02  0.00000000000E+00 0. -1.
<mgrwt>
<rscale>  0 0.62233394E+02</rscale>
<asrwt>0</asrwt>
<pdfrwt beam="1">  1        4 0.12280122E+00 0.94057455E+02</pdfrwt>
<pdfrwt beam="2">  1       -4 0.84993416E-03 0.94057455E+02</pdfrwt>
<totfact> 0.29638769E+03</totfact>
</mgrwt>
</event>
<event>
 6    1  0.3075717E-002  0.9401244E+02  0.7546771E-02  0.1404523E+00
         -2   -1    0    0    0  501 -0.00000000000E+00  0.00000000000E+00  0.86771141824E+01  0.86771141824E+01  0.00000000000E+00 0.  1.
          2   -1    0    0  501    0  0.00000000000E+00 -0.00000000000E+00 -0.58426610903E+03  0.58426610903E+03  0.00000000000E+00 0. -1.
         23    2    1    2    0    0 -0.12498616262E+02 -0.63777637145E+01 -0.57022214956E+03  0.57792009748E+03  0.92959388643E+02 0.  0.
         11    1    3    3    0    0  0.18910855406E+02 -0.31985489545E+02 -0.11402785450E+03  0.11992932751E+03  0.00000000000E+00 0.  1.
        -11    1    3    3    0    0 -0.31409471669E+02  0.25607725830E+02 -0.45619429506E+03  0.45799076997E+03  0.00000000000E+00 0. -1.
         22    1    1    2    0    0  0.12498616262E+02  0.63777637145E+01 -0.53668452800E+01  0.15023125731E+02  0.00000000000E+00 0. -1.
<mgrwt>
<rscale>  0 0.58434228E+02</rscale>
<asrwt>0</asrwt>
<pdfrwt beam="1">  1        2 0.89887115E-01 0.94012442E+02</pdfrwt>
<pdfrwt beam="2">  1       -2 0.13349403E-02 0.94012442E+02</pdfrwt>
<totfact> 0.64427633E+04</totfact>
</mgrwt>
</event>
<event>
 6    1  0.3075717E-002  0.8986710E+02  0.7546771E-02  0.1424554E+00
          4   -1    0    0  501    0  0.00000000000E+00  0.00000000000E+00  0.99562387361E+02  0.99562387361E+02  0.00000000000E+00 0.  1.
         -4   -1    0    0    0  501 -0.00000000000E+00 -0.00000000000E+00 -0.26211355537E+02  0.26211355537E+02  0.00000000000E+00 0. -1.
         23    2    1    2    0    0 -0.43991806497E+01  0.10923094296E+02  0.68676438979E+02  0.11310414947E+03  0.89092247569E+02 0.  0.
         11    1    3    3    0    0  0.23950946697E+02  0.24566167647E+02  0.73651843813E+02  0.81251083301E+02  0.00000000000E+00 0.  1.
        -11    1    3    3    0    0 -0.28350127347E+02 -0.13643073351E+02 -0.49754048339E+01  0.31853066168E+02  0.00000000000E+00 0. -1.
         22    1    1    2    0    0  0.43991806497E+01 -0.10923094296E+02  0.46745928442E+01  0.12669593429E+02  0.00000000000E+00 0. -1.
<mgrwt>
<rscale>  0 0.54068845E+02</rscale>
<asrwt>0</asrwt>
<pdfrwt beam="1">  1        4 0.15317290E-01 0.89867098E+02</pdfrwt>
<pdfrwt beam="2">  1       -4 0.40325163E-02 0.89867098E+02</pdfrwt>
<totfact> 0.17593872E+04</totfact>
</mgrwt>
</event>
<event>
 6    1  0.3075717E-002  0.9987492E+02  0.7546771E-02  0.1325208E+00
          2   -1    0    0  501    0  0.00000000000E+00  0.00000000000E+00  0.24123581560E+03  0.24123581560E+03  0.00000000000E+00 0. -1.
         -2   -1    0    0    0  501 -0.00000000000E+00 -0.00000000000E+00 -0.21720370415E+02  0.21720370415E+02  0.00000000000E+00 0.  1.
         23    2    1    2    0    0  0.43448118102E+02 -0.69714744285E+01  0.13840192989E+03  0.17067540369E+03  0.89658567947E+02 0.  0.
         11    1    3    3    0    0  0.30937755701E+02 -0.30119608685E+02  0.16917137826E+02  0.46373754510E+02  0.00000000000E+00 0.  1.
        -11    1    3    3    0    0  0.12510362401E+02  0.23148134256E+02  0.12148479206E+03  0.12430164918E+03  0.00000000000E+00 0. -1.
         22    1    1    2    0    0 -0.43448118102E+02  0.69714744285E+01  0.81113515290E+02  0.92280782317E+02  0.00000000000E+00 0. -1.
<mgrwt>
<rscale>  0 0.81370136E+02</rscale>
<asrwt>0</asrwt>
<pdfrwt beam="1">  1        2 0.37113201E-01 0.99874918E+02</pdfrwt>
<pdfrwt beam="2">  1       -2 0.33415956E-02 0.99874918E+02</pdfrwt>
<totfact> 0.44272249E+04</totfact>
</mgrwt>
</event>
<event>
 6    1  0.3075717E-002  0.9392698E+02  0.7546771E-02  0.1383126E+00
          2   -1    0    0  501    0  0.00000000000E+00  0.00000000000E+00  0.36472189580E+03  0.36472189580E+03  0.00000000000E+00 0. -1.
         -2   -1    0    0    0  501 -0.00000000000E+00 -0.00000000000E+00 -0.89013166691E+01  0.89013166691E+01  0.00000000000E+00 0.  1.
         23    2    1    2    0    0  0.19210609671E+02 -0.48205558616E+01  0.30227592447E+03  0.31653279886E+03  0.91814993113E+02 0.  0.
         11    1    3    3    0    0 -0.17799716529E+02 -0.27380863279E+02  0.22961490166E+03  0.23192573089E+03  0.00000000000E+00 0. -1.
        -11    1    3    3    0    0  0.37010326200E+02  0.22560307417E+02  0.72661022805E+02  0.84607067974E+02  0.00000000000E+00 0.  1.
         22    1    1    2    0    0 -0.19210609671E+02  0.48205558616E+01  0.53544654659E+02  0.57090413602E+02  0.00000000000E+00 0. -1.
<mgrwt>
<rscale>  0 0.63649212E+02</rscale>
<asrwt>0</asrwt>
<pdfrwt beam="1">  1        2 0.56111049E-01 0.93926984E+02</pdfrwt>
<pdfrwt beam="2">  1       -2 0.13694336E-02 0.93926984E+02</pdfrwt>
<totfact> 0.10302757E+05</totfact>
</mgrwt>
</event>
<event>
 6    1  0.3075717E-002  0.9063508E+02  0.7546771E-02  0.1410312E+00
          2   -1    0    0  501    0  0.00000000000E+00  0.00000000000E+00  0.15149851633E+04  0.15149851633E+04  0.00000000000E+00 0. -1.
         -2   -1    0    0    0  501 -0.00000000000E+00 -0.00000000000E+00 -0.20259494769E+01  0.20259494769E+01  0.00000000000E+00 0.  1.
         23    2    1    2    0    0 -0.42444309678E+01  0.13657564510E+02  0.14265492289E+04  0.14294255560E+04  0.89499572004E+02 0.  0.
         11    1    3    3    0    0 -0.16601620022E+02  0.28437489351E+02  0.13528271169E+04  0.13532278126E+04  0.00000000000E+00 0. -1.
        -11    1    3    3    0    0  0.12357189054E+02 -0.14779924841E+02  0.73722111985E+02  0.76197743373E+02  0.00000000000E+00 0.  1.
         22    1    1    2    0    0  0.42444309678E+01 -0.13657564510E+02  0.86409984886E+02  0.87585556747E+02  0.00000000000E+00 0.  1.
<mgrwt>
<rscale>  0 0.57124269E+02</rscale>
<asrwt>0</asrwt>
<pdfrwt beam="1">  1        2 0.23307374E+00 0.90635080E+02</pdfrwt>
<pdfrwt beam="2">  1       -2 0.31168575E-03 0.90635080E+02</pdfrwt>
<totfact> 0.13661392E+05</totfact>
</mgrwt>
</event>
<event>
 6    1  0.3075717E-002  0.9248727E+02  0.7546771E-02  0.1424067E+00
          1   -1    0    0  501    0  0.00000000000E+00  0.00000000000E+00  0.10144051204E+02  0.10144051204E+02  0.00000000000E+00 0. -1.
         -1   -1    0    0    0  501 -0.00000000000E+00 -0.00000000000E+00 -0.26828733565E+03  0.26828733565E+03  0.00000000000E+00 0.  1.
         23    2    1    2    0    0 -0.10168811809E+02  0.38796826486E+01 -0.24086029290E+03  0.25800692926E+03  0.91844641549E+02 0.  0.
         13    1    3    3    0    0  0.30053740535E+01  0.36951943722E+02 -0.20171980106E+03  0.20509840701E+03  0.00000000000E+00 0. -1.
        -13    1    3    3    0    0 -0.13174185863E+02 -0.33072261073E+02 -0.39140491836E+02  0.52908522251E+02  0.00000000000E+00 0.  1.
         22    1    1    2    0    0  0.10168811809E+02 -0.38796826486E+01 -0.17282991549E+02  0.20424457593E+02  0.00000000000E+00 0.  1.
<mgrwt>
<rscale>  0 0.54169697E+02</rscale>
<asrwt>0</asrwt>
<pdfrwt beam="1">  1        1 0.15606232E-02 0.92487269E+02</pdfrwt>
<pdfrwt beam="2">  1       -1 0.41274977E-01 0.92487269E+02</pdfrwt>
<totfact> 0.43604222E+04</totfact>
</mgrwt>
</event>
<event>
 6    1  0.3075717E-002  0.8914605E+02  0.7546771E-02  0.1403819E+00
         -2   -1    0    0    0  501 -0.00000000000E+00  0.00000000000E+00  0.70139954635E+02  0.70139954635E+02  0.00000000000E+00 0.  1.
          2   -1    0    0  501    0  0.00000000000E+00 -0.00000000000E+00 -0.60609384809E+02  0.60609384809E+02  0.00000000000E+00 0. -1.
         23    2    1    2    0    0  0.16534039776E+02  0.18823238433E+01 -0.24857225050E+02  0.92546747243E+02  0.87579113799E+02 0.  0.
         11    1    3    3    0    0 -0.18892157930E+02 -0.26526482392E+02  0.11330400817E+02  0.34481094560E+02  0.00000000000E+00 0.  1.
        -11    1    3    3    0    0  0.35426197706E+02  0.28408806236E+02 -0.36187625867E+02  0.58065652683E+02  0.00000000000E+00 0. -1.
         22    1    1    2    0    0 -0.16534039776E+02 -0.18823238433E+01  0.34387794876E+02  0.38202592200E+02  0.00000000000E+00 0. -1.
<mgrwt>
<rscale>  0 0.58596330E+02</rscale>
<asrwt>0</asrwt>
<pdfrwt beam="1">  1        2 0.93245207E-02 0.89146053E+02</pdfrwt>
<pdfrwt beam="2">  1       -2 0.10790762E-01 0.89146053E+02</pdfrwt>
<totfact> 0.35627965E+04</totfact>
</mgrwt>
</event>
<event>
 6    1  0.3075717E-002  0.9356893E+02  0.7546771E-02  0.1426559E+00
          2   -1    0    0  501    0  0.00000000000E+00  0.00000000000E+00  0.78029624738E+01  0.78029624738E+01  0.00000000000E+00 0.  1.
         -2   -1    0    0    0  501 -0.00000000000E+00 -0.00000000000E+00 -0.35175004263E+03  0.35175004263E+03  0.00000000000E+00 0. -1.
         23    2    1    2    0    0 -0.92550379638E+01 -0.40898353818E+01 -0.29185563094E+03  0.30648793597E+03  0.93020229521E+02 0.  0.
         13    1    3    3    0    0 -0.27441953193E+01 -0.41936364822E+02 -0.72532326375E+02  0.83827964736E+02  0.00000000000E+00 0.  1.
        -13    1    3    3    0    0 -0.65108426445E+01  0.37846529441E+02 -0.21932330457E+03  0.22265997123E+03  0.00000000000E+00 0. -1.
         22    1    1    2    0    0  0.92550379638E+01  0.40898353818E+01 -0.52091449217E+02  0.53065069138E+02  0.00000000000E+00 0. -1.
<mgrwt>
<rscale>  0 0.53657072E+02</rscale>
<asrwt>0</asrwt>
<pdfrwt beam="1">  1        2 0.12004556E-02 0.93568935E+02</pdfrwt>
<pdfrwt beam="2">  1       -2 0.54115399E-01 0.93568935E+02</pdfrwt>
<totfact> 0.31843792E+04</totfact>
</mgrwt>
</event>
<event>
 6    1  0.3075717E-002  0.9064499E+02  0.7546771E-02  0.1412943E+00
          2   -1    0    0  501    0  0.00000000000E+00  0.00000000000E+00  0.16369002487E+03  0.16369002487E+03  0.00000000000E+00 0. -1.
         -2   -1    0    0    0  501 -0.00000000000E+00 -0.00000000000E+00 -0.17347780263E+02  0.17347780263E+02  0.00000000000E+00 0.  1.
         23    2    1    2    0    0  0.82401675886E+01 -0.10974205471E+02  0.13757625329E+03  0.16475357499E+03  0.89600119726E+02 0.  0.
         13    1    3    3    0    0 -0.24952555570E+02 -0.24472007193E+02  0.11972280866E+03  0.12471992655E+03  0.00000000000E+00 0. -1.
        -13    1    3    3    0    0  0.33192723159E+02  0.13497801722E+02  0.17853444629E+02  0.40033648437E+02  0.00000000000E+00 0.  1.
         22    1    1    2    0    0 -0.82401675886E+01  0.10974205471E+02  0.87659913192E+01  0.16284230145E+02  0.00000000000E+00 0.  1.
<mgrwt>
<rscale>  0 0.56542347E+02</rscale>
<asrwt>0</asrwt>
<pdfrwt beam="1">  1        2 0.25183080E-01 0.90644994E+02</pdfrwt>
<pdfrwt beam="2">  1       -2 0.26688894E-02 0.90644994E+02</pdfrwt>
<totfact> 0.91777016E+04</totfact>
</mgrwt>
</event>
<event>
 6    1  0.3075717E-002  0.1002025E+03  0.7546771E-02  0.1330373E+00
         -1   -1    0    0    0  501 -0.00000000000E+00  0.00000000000E+00  0.16637129010E+03  0.16637129010E+03  0.00000000000E+00 0.  1.
          1   -1    0    0  501    0  0.00000000000E+00 -0.00000000000E+00 -0.39855014731E+02  0.39855014731E+02  0.00000000000E+00 0. -1.
         23    2    1    2    0    0  0.29527785155E+02  0.26650598006E+02  0.34490786285E+02  0.10597245148E+03  0.91969569230E+02 0.  0.
         11    1    3    3    0    0 -0.25451519590E+02 -0.13945729237E+02 -0.84647654633E+00  0.29034113313E+02  0.00000000000E+00 0. -1.
        -11    1    3    3    0    0  0.54979304744E+02  0.40596327242E+02  0.35337262831E+02  0.76938338168E+02  0.00000000000E+00 0.  1.
         22    1    1    2    0    0 -0.29527785155E+02 -0.26650598006E+02  0.92025489082E+02  0.10025385335E+03  0.00000000000E+00 0.  1.
<mgrwt>
<rscale>  0 0.79536187E+02</rscale>
<asrwt>0</asrwt>
<pdfrwt beam="1">  1        1 0.61315408E-02 0.10020253E+03</pdfrwt>
<pdfrwt beam="2">  1       -1 0.25595583E-01 0.10020253E+03</pdfrwt>
<totfact> 0.15148755E+04</totfact>
</mgrwt>
</event>
