<event>
 6    1  0.9988873E-007  0.2157272E+04  0.7818608E-02  0.8536426E-01
         -1   -1    0    0    0  501 -0.00000000000E+00  0.00000000000E+00  0.11505656981E+04  0.11505656981E+04  0.00000000000E+00 0.  1.
          1   -1    0    0  501    0  0.00000000000E+00 -0.00000000000E+00 -0.10112034702E+04  0.10112034702E+04  0.00000000000E+00 0. -1.
         23    2    1    2    0    0 -0.13113483482E+03  0.63218094669E+03  0.93324836661E+03  0.11384880264E+04  0.91396817032E+02 0.  0.
         13    1    3    3    0    0 -0.38626632024E+02  0.29371623622E+03  0.35805597315E+03  0.46472069464E+03  0.00000000000E+00 0. -1.
        -13    1    3    3    0    0 -0.92508202800E+02  0.33846471047E+03  0.57519239346E+03  0.67376733173E+03  0.00000000000E+00 0.  1.
         22    1    1    2    0    0  0.13113483482E+03 -0.63218094669E+03 -0.79388613873E+03  0.10232811420E+04  0.00000000000E+00 0. -1.
<mgrwt>
<rscale>  0 0.21572724E+04</rscale>
<asrwt>0</asrwt>
<pdfrwt beam="1">  1        1 0.15556976E+00 0.21572724E+04</pdfrwt>
<pdfrwt beam="2">  1       -1 0.17701011E+00 0.21572724E+04</pdfrwt>
<totfact> 0.29680753E+00</totfact>
</mgrwt>
</event>
<event>
 6    1  0.9988873E-007  0.3414999E+04  0.7818608E-02  0.8134235E-01
          2   -1    0    0  501    0  0.00000000000E+00  0.00000000000E+00  0.26753071189E+04  0.26753071189E+04  0.00000000000E+00 0. -1.
         -2   -1    0    0    0  501 -0.00000000000E+00 -0.00000000000E+00 -0.10898015224E+04  0.10898015224E+04  0.00000000000E+00 0.  1.
         23    2    1    2    0    0  0.53559118539E+03  0.91176531542E+03 -0.68304303007E+03  0.12622129624E+04  0.91977569276E+02 0.  0.
         11    1    3    3    0    0  0.35338237700E+03  0.63373011746E+03 -0.42066451377E+03  0.83872021514E+03  0.00000000000E+00 0.  1.
        -11    1    3    3    0    0  0.18220880839E+03  0.27803519796E+03 -0.26237851630E+03  0.42349274726E+03  0.00000000000E+00 0. -1.
         22    1    1    2    0    0 -0.53559118539E+03 -0.91176531542E+03  0.22685486266E+04  0.25028956789E+04  0.00000000000E+00 0. -1.
<mgrwt>
<rscale>  0 0.34149985E+04</rscale>
<asrwt>0</asrwt>
<pdfrwt beam="1">  1        2 0.41158571E+00 0.34149985E+04</pdfrwt>
<pdfrwt beam="2">  1       -2 0.16766177E+00 0.34149985E+04</pdfrwt>
<totfact> 0.50328200E-01</totfact>
</mgrwt>
</event>
<event>
 6    1  0.9988873E-007  0.2580667E+04  0.7818608E-02  0.8374798E-01
         -2   -1    0    0    0  501 -0.00000000000E+00  0.00000000000E+00  0.95441514685E+03  0.95441514685E+03  0.00000000000E+00 0.  1.
          2   -1    0    0  501    0  0.00000000000E+00 -0.00000000000E+00 -0.17444822619E+04  0.17444822619E+04  0.00000000000E+00 0. -1.
         23    2    1    2    0    0  0.47339459039E+03 -0.46133510911E+03  0.76126842179E+03  0.10126072591E+04  0.94399840972E+02 0.  0.
         13    1    3    3    0    0  0.17266427386E+03 -0.16466965143E+03  0.34559022503E+03  0.41995434181E+03  0.00000000000E+00 0. -1.
        -13    1    3    3    0    0  0.30073031653E+03 -0.29666545768E+03  0.41567819676E+03  0.59265291724E+03  0.00000000000E+00 0.  1.
         22    1    1    2    0    0 -0.47339459039E+03  0.46133510911E+03 -0.15513355369E+04  0.16862901497E+04  0.00000000000E+00 0. -1.
<mgrwt>
<rscale>  0 0.25806668E+04</rscale>
<asrwt>0</asrwt>
<pdfrwt beam="1">  1        2 0.26838189E+00 0.25806668E+04</pdfrwt>
<pdfrwt beam="2">  1       -2 0.14683310E+00 0.25806668E+04</pdfrwt>
<totfact> 0.26023043E+00</totfact>
</mgrwt>
</event>
<event>
 6    1  0.9988873E-007  0.2530667E+04  0.7818608E-02  0.8392141E-01
          2   -1    0    0  501    0  0.00000000000E+00  0.00000000000E+00  0.11042517096E+04  0.11042517096E+04  0.00000000000E+00 0. -1.
         -2   -1    0    0    0  501 -0.00000000000E+00 -0.00000000000E+00 -0.14499128526E+04  0.14499128526E+04  0.00000000000E+00 0.  1.
         23    2    1    2    0    0  0.11886306973E+04  0.13086257744E+03 -0.58572993634E+03  0.13344920757E+04  0.88439771555E+02 0.  0.
         11    1    3    3    0    0  0.43789017045E+03  0.26487699240E+02 -0.17414605005E+03  0.47199178630E+03  0.00000000000E+00 0. -1.
        -11    1    3    3    0    0  0.75074052682E+03  0.10437487820E+03 -0.41158388630E+03  0.86250028943E+03  0.00000000000E+00 0.  1.
         22    1    1    2    0    0 -0.11886306973E+04 -0.13086257744E+03  0.24006879330E+03  0.12196724864E+04  0.00000000000E+00 0. -1.
<mgrwt>
<rscale>  0 0.25306669E+04</rscale>
<asrwt>0</asrwt>
<pdfrwt beam="1">  1        2 0.16988488E+00 0.25306669E+04</pdfrwt>
<pdfrwt beam="2">  1       -2 0.22306352E+00 0.25306669E+04</pdfrwt>
<totfact> 0.18207782E+00</totfact>
</mgrwt>
</event>
<event>
 6    1  0.2701099E-006  0.3402677E+04  0.7818608E-02  0.8137250E-01
          1   -1    0    0  501    0  0.00000000000E+00  0.00000000000E+00  0.19980055398E+04  0.19980055398E+04  0.00000000000E+00 0. -1.
         -1   -1    0    0    0  501 -0.00000000000E+00 -0.00000000000E+00 -0.14487208940E+04  0.14487208940E+04  0.00000000000E+00 0.  1.
         23    2    1    2    0    0 -0.80138115682E+03 -0.13693485454E+04 -0.34389225980E+03  0.16259869735E+04  0.90799528666E+02 0.  0.
         13    1    3    3    0    0 -0.51137269435E+03 -0.80611207117E+03 -0.23574868860E+03  0.98330877550E+03  0.00000000000E+00 0. -1.
        -13    1    3    3    0    0 -0.29000846247E+03 -0.56323647423E+03 -0.10814357120E+03  0.64267819801E+03  0.00000000000E+00 0.  1.
         22    1    1    2    0    0  0.80138115682E+03  0.13693485454E+04  0.89317690563E+03  0.18207394602E+04  0.00000000000E+00 0. -1.
<mgrwt>
<rscale>  0 0.34026768E+04</rscale>
<asrwt>0</asrwt>
<pdfrwt beam="1">  1        1 0.30738547E+00 0.34026768E+04</pdfrwt>
<pdfrwt beam="2">  1       -1 0.22288014E+00 0.34026768E+04</pdfrwt>
<totfact> 0.25885739E-01</totfact>
</mgrwt>
</event>
<event>
 6    1  0.9988873E-007  0.2399865E+04  0.7818608E-02  0.8439554E-01
         -2   -1    0    0    0  501 -0.00000000000E+00  0.00000000000E+00  0.47018210815E+03  0.47018210815E+03  0.00000000000E+00 0.  1.
          2   -1    0    0  501    0  0.00000000000E+00 -0.00000000000E+00 -0.30622994541E+04  0.30622994541E+04  0.00000000000E+00 0. -1.
         23    2    1    2    0    0 -0.31365824507E+03  0.10934047707E+04 -0.18513044266E+04  0.21750135999E+04  0.97162711946E+02 0.  0.
         11    1    3    3    0    0 -0.26004596773E+02  0.22982421394E+03 -0.38826434397E+03  0.45193429739E+03  0.00000000000E+00 0.  1.
        -11    1    3    3    0    0 -0.28765364829E+03  0.86358055677E+03 -0.14630400826E+04  0.17230793025E+04  0.00000000000E+00 0. -1.
         22    1    1    2    0    0  0.31365824507E+03 -0.10934047707E+04 -0.74081291937E+03  0.13574679624E+04  0.00000000000E+00 0.  1.
<mgrwt>
<rscale>  0 0.23998653E+04</rscale>
<asrwt>0</asrwt>
<pdfrwt beam="1">  1        2 0.47112297E+00 0.23998653E+04</pdfrwt>
<pdfrwt beam="2">  1       -2 0.72335712E-01 0.23998653E+04</pdfrwt>
<totfact> 0.24753450E+00</totfact>
</mgrwt>
</event>
<event>
 6    1  0.9988873E-007  0.3048976E+04  0.7818608E-02  0.8229882E-01
         -2   -1    0    0    0  501 -0.00000000000E+00  0.00000000000E+00  0.10531768572E+04  0.10531768572E+04  0.00000000000E+00 0.  1.
          2   -1    0    0  501    0  0.00000000000E+00 -0.00000000000E+00 -0.22067180392E+04  0.22067180392E+04  0.00000000000E+00 0. -1.
         23    2    1    2    0    0  0.13021441450E+04 -0.78905927937E+03 -0.61939402800E+03  0.16463562068E+04  0.92983207977E+02 0.  0.
         11    1    3    3    0    0  0.62998193966E+03 -0.43512711144E+03 -0.32041551361E+03  0.82998731844E+03  0.00000000000E+00 0.  1.
        -11    1    3    3    0    0  0.67216220538E+03 -0.35393216793E+03 -0.29897851439E+03  0.81636888837E+03  0.00000000000E+00 0. -1.
         22    1    1    2    0    0 -0.13021441450E+04  0.78905927937E+03 -0.53414715397E+03  0.16135386896E+04  0.00000000000E+00 0.  1.
<mgrwt>
<rscale>  0 0.30489765E+04</rscale>
<asrwt>0</asrwt>
<pdfrwt beam="1">  1        2 0.33949508E+00 0.30489765E+04</pdfrwt>
<pdfrwt beam="2">  1       -2 0.16202721E+00 0.30489765E+04</pdfrwt>
<totfact> 0.10621677E+00</totfact>
</mgrwt>
</event>
<event>
 6    1  0.9988873E-007  0.3250013E+04  0.7818608E-02  0.8175732E-01
         -1   -1    0    0    0  501 -0.00000000000E+00  0.00000000000E+00  0.20230285250E+04  0.20230285250E+04  0.00000000000E+00 0.  1.
          1   -1    0    0  501    0  0.00000000000E+00 -0.00000000000E+00 -0.13052938858E+04  0.13052938858E+04  0.00000000000E+00 0. -1.
         23    2    1    2    0    0  0.39411228899E+03 -0.38432862881E+03  0.19235069468E+04  0.20028338786E+04  0.91823633869E+02 0.  0.
         13    1    3    3    0    0  0.82653029661E+02 -0.13679382369E+03  0.58703307440E+03  0.60840110450E+03  0.00000000000E+00 0. -1.
        -13    1    3    3    0    0  0.31145925932E+03 -0.24753480513E+03  0.13364738724E+04  0.13944327741E+04  0.00000000000E+00 0.  1.
         22    1    1    2    0    0 -0.39411228899E+03  0.38432862881E+03 -0.12057723076E+04  0.13254885322E+04  0.00000000000E+00 0. -1.
<mgrwt>
<rscale>  0 0.32500134E+04</rscale>
<asrwt>0</asrwt>
<pdfrwt beam="1">  1        1 0.20081444E+00 0.32500134E+04</pdfrwt>
<pdfrwt beam="2">  1       -1 0.31123516E+00 0.32500134E+04</pdfrwt>
<totfact> 0.20850040E-01</totfact>
</mgrwt>
</event>
<event>
 6    1  0.9988873E-007  0.2831120E+04  0.7818608E-02  0.8293672E-01
          2   -1    0    0  501    0  0.00000000000E+00  0.00000000000E+00  0.18243566003E+04  0.18243566003E+04  0.00000000000E+00 0. -1.
         -2   -1    0    0    0  501 -0.00000000000E+00 -0.00000000000E+00 -0.10983650203E+04  0.10983650203E+04  0.00000000000E+00 0.  1.
         23    2    1    2    0    0 -0.21911179761E+03  0.12002271688E+04 -0.37473175690E+03  0.12795091873E+04  0.90358365877E+02 0.  0.
         13    1    3    3    0    0 -0.97528345255E+02  0.32449549817E+03 -0.88549133630E+02  0.35021429943E+03  0.00000000000E+00 0.  1.
        -13    1    3    3    0    0 -0.12158345235E+03  0.87573167058E+03 -0.28618262327E+03  0.92929488786E+03  0.00000000000E+00 0. -1.
         22    1    1    2    0    0  0.21911179761E+03 -0.12002271688E+04  0.11007233369E+04  0.16432124333E+04  0.00000000000E+00 0. -1.
<mgrwt>
<rscale>  0 0.28311195E+04</rscale>
<asrwt>0</asrwt>
<pdfrwt beam="1">  1        2 0.28067025E+00 0.28311195E+04</pdfrwt>
<pdfrwt beam="2">  1       -2 0.16897923E+00 0.28311195E+04</pdfrwt>
<totfact> 0.15736670E+00</totfact>
</mgrwt>
</event>
<event>
 6    1  0.9988873E-007  0.2734428E+04  0.7818608E-02  0.8323920E-01
         -2   -1    0    0    0  501 -0.00000000000E+00  0.00000000000E+00  0.10174650847E+04  0.10174650847E+04  0.00000000000E+00 0.  1.
          2   -1    0    0  501    0  0.00000000000E+00 -0.00000000000E+00 -0.18371874910E+04  0.18371874910E+04  0.00000000000E+00 0. -1.
         23    2    1    2    0    0  0.11333987848E+04 -0.74092278717E+03 -0.59493463001E+03  0.14820313876E+04  0.94395115560E+02 0.  0.
         13    1    3    3    0    0  0.62378873905E+03 -0.37678732390E+03 -0.36274684549E+03  0.81404321281E+03  0.00000000000E+00 0.  1.
        -13    1    3    3    0    0  0.50961004573E+03 -0.36413546327E+03 -0.23218778452E+03  0.66798817474E+03  0.00000000000E+00 0. -1.
         22    1    1    2    0    0 -0.11333987848E+04  0.74092278717E+03 -0.22478777629E+03  0.13726211882E+04  0.00000000000E+00 0. -1.
<mgrwt>
<rscale>  0 0.27344280E+04</rscale>
<asrwt>0</asrwt>
<pdfrwt beam="1">  1        2 0.28264423E+00 0.27344280E+04</pdfrwt>
<pdfrwt beam="2">  1       -2 0.15653309E+00 0.27344280E+04</pdfrwt>
<totfact> 0.19245771E+00</totfact>
</mgrwt>
</event>
<event>
 6    1  0.9988873E-007  0.2164501E+04  0.7818608E-02  0.8533351E-01
         -1   -1    0    0    0  501 -0.00000000000E+00  0.00000000000E+00  0.94376344539E+03  0.94376344539E+03  0.00000000000E+00 0.  1.
          1   -1    0    0  501    0  0.00000000000E+00 -0.00000000000E+00 -0.12410585425E+04  0.12410585425E+04  0.00000000000E+00 0. -1.
         23    2    1    2    0    0 -0.28475286296E+03 -0.83666188464E+03  0.47830840749E+03  0.10089614101E+04  0.90204723579E+02 0.  0.
         11    1    3    3    0    0 -0.22139966905E+03 -0.55999497442E+03  0.35909159138E+03  0.70111265559E+03  0.00000000000E+00 0. -1.
        -11    1    3    3    0    0 -0.63353193914E+02 -0.27666691022E+03  0.11921681612E+03  0.30784875448E+03  0.00000000000E+00 0.  1.
         22    1    1    2    0    0  0.28475286296E+03  0.83666188464E+03 -0.77560350464E+03  0.11758605779E+04  0.00000000000E+00 0. -1.
<mgrwt>
<rscale>  0 0.21645006E+04</rscale>
<asrwt>0</asrwt>
<pdfrwt beam="1">  1        1 0.19093208E+00 0.21645006E+04</pdfrwt>
<pdfrwt beam="2">  1       -1 0.14519438E+00 0.21645006E+04</pdfrwt>
<totfact> 0.34732474E+00</totfact>
</mgrwt>
</event>
<event>
 6    1  0.9988873E-007  0.4050371E+04  0.7818608E-02  0.7994462E-01
          1   -1    0    0  501    0  0.00000000000E+00  0.00000000000E+00  0.22072088698E+04  0.22072088698E+04  0.00000000000E+00 0. -1.
         -1   -1    0    0    0  501 -0.00000000000E+00 -0.00000000000E+00 -0.18581729997E+04  0.18581729997E+04  0.00000000000E+00 0.  1.
         23    2    1    2    0    0  0.13062262929E+04  0.34324619314E+03 -0.13387848285E+04  0.19037195952E+04  0.88081795472E+02 0.  0.
         13    1    3    3    0    0  0.49873547567E+03  0.17508041161E+03 -0.51475876609E+03  0.73781217968E+03  0.00000000000E+00 0. -1.
        -13    1    3    3    0    0  0.80749081722E+03  0.16816578153E+03 -0.82402606240E+03  0.11659074155E+04  0.00000000000E+00 0.  1.
         22    1    1    2    0    0 -0.13062262929E+04 -0.34324619314E+03  0.16878206986E+04  0.21616622743E+04  0.00000000000E+00 0. -1.
<mgrwt>
<rscale>  0 0.40503708E+04</rscale>
<asrwt>0</asrwt>
<pdfrwt beam="1">  1        1 0.33957060E+00 0.40503708E+04</pdfrwt>
<pdfrwt beam="2">  1       -1 0.28587277E+00 0.40503708E+04</pdfrwt>
<totfact> 0.68461244E-02</totfact>
</mgrwt>
</event>
<event>
 6    1  0.9988873E-007  0.1299482E+04  0.7818608E-02  0.9029976E-01
          3   -1    0    0  501    0  0.00000000000E+00  0.00000000000E+00  0.28114790289E+03  0.28114790289E+03  0.00000000000E+00 0. -1.
         -3   -1    0    0    0  501 -0.00000000000E+00 -0.00000000000E+00 -0.15015702251E+04  0.15015702251E+04  0.00000000000E+00 0.  1.
         23    2    1    2    0    0  0.55037224489E+03  0.33501390137E+03 -0.54021349888E+03  0.84579338960E+03  0.91607376724E+02 0.  0.
         13    1    3    3    0    0  0.31047686426E+03  0.22564254849E+03 -0.27770047591E+03  0.47373832149E+03  0.00000000000E+00 0.  1.
        -13    1    3    3    0    0  0.23989538063E+03  0.10937135287E+03 -0.26251302297E+03  0.37205506811E+03  0.00000000000E+00 0. -1.
         22    1    1    2    0    0 -0.55037224489E+03 -0.33501390137E+03 -0.68020882328E+03  0.93692473835E+03  0.00000000000E+00 0. -1.
<mgrwt>
<rscale>  0 0.12994819E+04</rscale>
<asrwt>0</asrwt>
<pdfrwt beam="1">  1        3 0.43253522E-01 0.12994819E+04</pdfrwt>
<pdfrwt beam="2">  1       -3 0.23101081E+00 0.12994819E+04</pdfrwt>
<totfact> 0.12948744E+00</totfact>
</mgrwt>
</event>
<event>
 6    1  0.9988873E-007  0.3371393E+04  0.7818608E-02  0.8144963E-01
         -2   -1    0    0    0  501 -0.00000000000E+00  0.00000000000E+00  0.11221284707E+04  0.11221284707E+04  0.00000000000E+00 0.  1.
          2   -1    0    0  501    0  0.00000000000E+00 -0.00000000000E+00 -0.25323067405E+04  0.25323067405E+04  0.00000000000E+00 0. -1.
         23    2    1    2    0    0  0.15751562024E+04 -0.53958008642E+03 -0.42885238594E+03  0.17217520448E+04  0.90840536860E+02 0.  0.
         11    1    3    3    0    0  0.10231512819E+04 -0.34134076994E+03 -0.23370196315E+03  0.11036161807E+04  0.00000000000E+00 0.  1.
        -11    1    3    3    0    0  0.55200492052E+03 -0.19823931648E+03 -0.19515042278E+03  0.61813586402E+03  0.00000000000E+00 0. -1.
         22    1    1    2    0    0 -0.15751562024E+04  0.53958008642E+03 -0.98132588387E+03  0.19326831665E+04  0.00000000000E+00 0.  1.
<mgrwt>
<rscale>  0 0.33713935E+04</rscale>
<asrwt>0</asrwt>
<pdfrwt beam="1">  1        2 0.38958565E+00 0.33713935E+04</pdfrwt>
<pdfrwt beam="2">  1       -2 0.17263515E+00 0.33713935E+04</pdfrwt>
<totfact> 0.56507767E-01</totfact>
</mgrwt>
</event>
<event>
 6    1  0.9988873E-007  0.2412555E+04  0.7818608E-02  0.8434818E-01
         -2   -1    0    0    0  501 -0.00000000000E+00  0.00000000000E+00  0.84798058499E+03  0.84798058499E+03  0.00000000000E+00 0.  1.
          2   -1    0    0  501    0  0.00000000000E+00 -0.00000000000E+00 -0.17159656118E+04  0.17159656118E+04  0.00000000000E+00 0. -1.
         23    2    1    2    0    0 -0.78013717643E+03  0.26684537011E+03 -0.13678457458E+04  0.15997464229E+04  0.91466758036E+02 0.  0.
         13    1    3    3    0    0 -0.26677404897E+03  0.12056459508E+03 -0.55116736774E+03  0.62409108474E+03  0.00000000000E+00 0. -1.
        -13    1    3    3    0    0 -0.51336312745E+03  0.14628077503E+03 -0.81667837807E+03  0.97565533821E+03  0.00000000000E+00 0.  1.
         22    1    1    2    0    0  0.78013717643E+03 -0.26684537011E+03  0.49986071896E+03  0.96419977388E+03  0.00000000000E+00 0.  1.
<mgrwt>
<rscale>  0 0.24125551E+04</rscale>
<asrwt>0</asrwt>
<pdfrwt beam="1">  1        2 0.26399471E+00 0.24125551E+04</pdfrwt>
<pdfrwt beam="2">  1       -2 0.13045855E+00 0.24125551E+04</pdfrwt>
<totfact> 0.37157130E+00</totfact>
</mgrwt>
</event>
<event>
 6    1  0.9988873E-007  0.3308535E+04  0.7818608E-02  0.8160727E-01
         -1   -1    0    0    0  501 -0.00000000000E+00  0.00000000000E+00  0.19404551755E+04  0.19404551755E+04  0.00000000000E+00 0.  1.
          1   -1    0    0  501    0  0.00000000000E+00 -0.00000000000E+00 -0.14102882239E+04  0.14102882239E+04  0.00000000000E+00 0. -1.
         23    2    1    2    0    0 -0.87763388724E+03  0.50868142800E+03 -0.10565068123E+04  0.14675196559E+04  0.91702021363E+02 0.  0.
         13    1    3    3    0    0 -0.56993741444E+03  0.35933304713E+03 -0.75076776596E+03  0.10087621789E+04  0.00000000000E+00 0. -1.
        -13    1    3    3    0    0 -0.30769647280E+03  0.14934838087E+03 -0.30573904636E+03  0.45875747701E+03  0.00000000000E+00 0.  1.
         22    1    1    2    0    0  0.87763388724E+03 -0.50868142800E+03  0.15866737639E+04  0.18832237435E+04  0.00000000000E+00 0.  1.
<mgrwt>
<rscale>  0 0.33085351E+04</rscale>
<asrwt>0</asrwt>
<pdfrwt beam="1">  1        1 0.21696742E+00 0.33085351E+04</pdfrwt>
<pdfrwt beam="2">  1       -1 0.29853157E+00 0.33085351E+04</pdfrwt>
<totfact> 0.21142908E-01</totfact>
</mgrwt>
</event>
<event>
 6    1  0.9988873E-007  0.3839730E+04  0.7818608E-02  0.8037682E-01
          3   -1    0    0  501    0  0.00000000000E+00  0.00000000000E+00  0.29267345084E+04  0.29267345084E+04  0.00000000000E+00 0. -1.
         -3   -1    0    0    0  501 -0.00000000000E+00 -0.00000000000E+00 -0.12593838314E+04  0.12593838314E+04  0.00000000000E+00 0.  1.
         23    2    1    2    0    0  0.17018947617E+04  0.85396968001E+03  0.57647713842E+03  0.19916445826E+04  0.92802252253E+02 0.  0.
         11    1    3    3    0    0  0.96887554011E+03  0.45988660761E+03  0.36589248871E+03  0.11331781931E+04  0.00000000000E+00 0. -1.
        -11    1    3    3    0    0  0.73301922156E+03  0.39408307240E+03  0.21058464971E+03  0.85846638945E+03  0.00000000000E+00 0.  1.
         22    1    1    2    0    0 -0.17018947617E+04 -0.85396968001E+03  0.10908735386E+04  0.21944737573E+04  0.00000000000E+00 0. -1.
<mgrwt>
<rscale>  0 0.38397303E+04</rscale>
<asrwt>0</asrwt>
<pdfrwt beam="1">  1        3 0.45026685E+00 0.38397303E+04</pdfrwt>
<pdfrwt beam="2">  1       -3 0.19375136E+00 0.38397303E+04</pdfrwt>
<totfact> 0.20150599E-03</totfact>
</mgrwt>
</event>
<event>
 6    1  0.9988873E-007  0.6785811E+03  0.7818608E-02  0.9754579E-01
         -2   -1    0    0    0  501 -0.00000000000E+00  0.00000000000E+00  0.89631040394E+02  0.89631040394E+02  0.00000000000E+00 0.  1.
          2   -1    0    0  501    0  0.00000000000E+00 -0.00000000000E+00 -0.12843549807E+04  0.12843549807E+04  0.00000000000E+00 0. -1.
         23    2    1    2    0    0  0.42797514075E+02  0.27895550810E+03 -0.24970143804E+03  0.38772270306E+03  0.91270387290E+02 0.  0.
         13    1    3    3    0    0  0.49354441376E+02  0.10484457537E+03 -0.61263519419E+02  0.13107808619E+03  0.00000000000E+00 0. -1.
        -13    1    3    3    0    0 -0.65569273014E+01  0.17411093273E+03 -0.18843791862E+03  0.25664461687E+03  0.00000000000E+00 0.  1.
         22    1    1    2    0    0 -0.42797514075E+02 -0.27895550810E+03 -0.94502250223E+03  0.98626331800E+03  0.00000000000E+00 0. -1.
<mgrwt>
<rscale>  0 0.67858109E+03</rscale>
<asrwt>0</asrwt>
<pdfrwt beam="1">  1        2 0.19759308E+00 0.67858109E+03</pdfrwt>
<pdfrwt beam="2">  1       -2 0.13789391E-01 0.67858109E+03</pdfrwt>
<totfact> 0.68953772E+02</totfact>
</mgrwt>
</event>
<event>
 6    1  0.9988873E-007  0.1422160E+04  0.7818608E-02  0.8937933E-01
         -1   -1    0    0    0  501 -0.00000000000E+00  0.00000000000E+00  0.10026014643E+04  0.10026014643E+04  0.00000000000E+00 0.  1.
          1   -1    0    0  501    0  0.00000000000E+00 -0.00000000000E+00 -0.50432262257E+03  0.50432262257E+03  0.00000000000E+00 0. -1.
         23    2    1    2    0    0 -0.21262853471E+02  0.30814593243E+03 -0.42680189288E+03  0.53163931299E+03  0.71235375653E+02 0.  0.
         13    1    3    3    0    0 -0.34184264848E+02  0.72762928349E+02 -0.12612347748E+03  0.14956650452E+03  0.00000000000E+00 0.  1.
        -13    1    3    3    0    0  0.12921411377E+02  0.23538300408E+03 -0.30067841541E+03  0.38207280847E+03  0.00000000000E+00 0. -1.
         22    1    1    2    0    0  0.21262853471E+02 -0.30814593243E+03  0.92508073466E+03  0.97528477392E+03  0.00000000000E+00 0.  1.
<mgrwt>
<rscale>  0 0.14221598E+04</rscale>
<asrwt>0</asrwt>
<pdfrwt beam="1">  1        1 0.77588096E-01 0.14221598E+04</pdfrwt>
<pdfrwt beam="2">  1       -1 0.15424638E+00 0.14221598E+04</pdfrwt>
<totfact> 0.13787792E+01</totfact>
</mgrwt>
</event>
<event>
 6    1  0.9988873E-007  0.1256793E+04  0.7818608E-02  0.9064549E-01
          2   -1    0    0  501    0  0.00000000000E+00  0.00000000000E+00  0.48822774444E+04  0.48822774444E+04  0.00000000000E+00 0. -1.
         -2   -1    0    0    0  501 -0.00000000000E+00 -0.00000000000E+00 -0.80880696553E+02  0.80880696553E+02  0.00000000000E+00 0.  1.
         23    2    1    2    0    0 -0.43218509339E+03  0.41042560109E+03  0.31571958898E+04  0.32142643218E+04  0.91521117835E+02 0.  0.
         11    1    3    3    0    0 -0.22138078845E+03  0.15472303778E+03  0.15317998094E+04  0.15554289852E+04  0.00000000000E+00 0.  1.
        -11    1    3    3    0    0 -0.21080430495E+03  0.25570256331E+03  0.16253960803E+04  0.16588353366E+04  0.00000000000E+00 0. -1.
         22    1    1    2    0    0  0.43218509339E+03 -0.41042560109E+03  0.16442008580E+04  0.17488938191E+04  0.00000000000E+00 0.  1.
<mgrwt>
<rscale>  0 0.12567927E+04</rscale>
<asrwt>0</asrwt>
<pdfrwt beam="1">  1        2 0.75111937E+00 0.12567927E+04</pdfrwt>
<pdfrwt beam="2">  1       -2 0.12443188E-01 0.12567927E+04</pdfrwt>
<totfact> 0.24172698E+00</totfact>
</mgrwt>
</event>
<event>
 6    1  0.9988873E-007  0.2182062E+04  0.7818608E-02  0.8525931E-01
          2   -1    0    0  501    0  0.00000000000E+00  0.00000000000E+00  0.98491111425E+03  0.98491111425E+03  0.00000000000E+00 0. -1.
         -2   -1    0    0    0  501 -0.00000000000E+00 -0.00000000000E+00 -0.12085850742E+04  0.12085850742E+04  0.00000000000E+00 0.  1.
         23    2    1    2    0    0 -0.36514836891E+03  0.19429969264E+02  0.91921132081E+03  0.99353884755E+03  0.91973551950E+02 0.  0.
         11    1    3    3    0    0 -0.33478695192E+03  0.30905003096E+02  0.75989665825E+03  0.83095147488E+03  0.00000000000E+00 0.  1.
        -11    1    3    3    0    0 -0.30361416990E+02 -0.11475033833E+02  0.15931466256E+03  0.16258737266E+03  0.00000000000E+00 0. -1.
         22    1    1    2    0    0  0.36514836891E+03 -0.19429969264E+02 -0.11428852808E+04  0.11999573409E+04  0.00000000000E+00 0.  1.
<mgrwt>
<rscale>  0 0.21820622E+04</rscale>
<asrwt>0</asrwt>
<pdfrwt beam="1">  1        2 0.15152479E+00 0.21820622E+04</pdfrwt>
<pdfrwt beam="2">  1       -2 0.18593616E+00 0.21820622E+04</pdfrwt>
<totfact> 0.38925150E+00</totfact>
</mgrwt>
</event>
<event>
 6    1  0.9988873E-007  0.4852291E+04  0.7818608E-02  0.7851705E-01
          1   -1    0    0  501    0  0.00000000000E+00  0.00000000000E+00  0.23136129271E+04  0.23136129271E+04  0.00000000000E+00 0. -1.
         -1   -1    0    0    0  501 -0.00000000000E+00 -0.00000000000E+00 -0.25441520982E+04  0.25441520982E+04  0.00000000000E+00 0.  1.
         23    2    1    2    0    0 -0.47105800560E+02  0.23773416093E+04  0.36209297229E+03  0.24072171394E+04  0.98035463134E+02 0.  0.
         13    1    3    3    0    0 -0.47784651357E+01  0.15550010583E+03 -0.56816078670E+00  0.15557454628E+03  0.00000000000E+00 0.  1.
        -13    1    3    3    0    0 -0.42327335424E+02  0.22218415034E+04  0.36266113307E+03  0.22516425931E+04  0.00000000000E+00 0. -1.
         22    1    1    2    0    0  0.47105800560E+02 -0.23773416093E+04 -0.59263214335E+03  0.24505478859E+04  0.00000000000E+00 0. -1.
<mgrwt>
<rscale>  0 0.48522915E+04</rscale>
<asrwt>0</asrwt>
<pdfrwt beam="1">  1        1 0.35594045E+00 0.48522915E+04</pdfrwt>
<pdfrwt beam="2">  1       -1 0.39140802E+00 0.48522915E+04</pdfrwt>
<totfact> 0.10896199E-02</totfact>
</mgrwt>
</event>
<event>
 6    1  0.9988873E-007  0.2519682E+04  0.7818608E-02  0.8396007E-01
         -2   -1    0    0    0  501 -0.00000000000E+00  0.00000000000E+00  0.82870218943E+03  0.82870218943E+03  0.00000000000E+00 0.  1.
          2   -1    0    0  501    0  0.00000000000E+00 -0.00000000000E+00 -0.19152829610E+04  0.19152829610E+04  0.00000000000E+00 0. -1.
         23    2    1    2    0    0 -0.67932084255E+03  0.84814178684E+03 -0.12346101190E+04  0.16472928575E+04  0.92142902671E+02 0.  0.
         13    1    3    3    0    0 -0.25005090486E+03  0.29414947726E+03 -0.50413694998E+03  0.63498301893E+03  0.00000000000E+00 0. -1.
        -13    1    3    3    0    0 -0.42926993769E+03  0.55399230958E+03 -0.73047316905E+03  0.10123098385E+04  0.00000000000E+00 0.  1.
         22    1    1    2    0    0  0.67932084255E+03 -0.84814178684E+03  0.14802934748E+03  0.10966922930E+04  0.00000000000E+00 0.  1.
<mgrwt>
<rscale>  0 0.25196819E+04</rscale>
<asrwt>0</asrwt>
<pdfrwt beam="1">  1        2 0.29465892E+00 0.25196819E+04</pdfrwt>
<pdfrwt beam="2">  1       -2 0.12749265E+00 0.25196819E+04</pdfrwt>
<totfact> 0.30252557E+00</totfact>
</mgrwt>
</event>
<event>
 6    1  0.9988873E-007  0.4083640E+04  0.7818608E-02  0.7987883E-01
         -1   -1    0    0    0  501 -0.00000000000E+00  0.00000000000E+00  0.17956869899E+04  0.17956869899E+04  0.00000000000E+00 0.  1.
          1   -1    0    0  501    0  0.00000000000E+00 -0.00000000000E+00 -0.23216903178E+04  0.23216903178E+04  0.00000000000E+00 0. -1.
         23    2    1    2    0    0 -0.18783338973E+04 -0.79198699877E+03 -0.16428197298E+03  0.20470575318E+04  0.89857309507E+02 0.  0.
         11    1    3    3    0    0 -0.11751424405E+04 -0.52693002733E+03 -0.13607183376E+03  0.12950407534E+04  0.00000000000E+00 0. -1.
        -11    1    3    3    0    0 -0.70319145681E+03 -0.26505697144E+03 -0.28210139221E+02  0.75201677840E+03  0.00000000000E+00 0.  1.
         22    1    1    2    0    0  0.18783338973E+04  0.79198699877E+03 -0.36172135491E+03  0.20703197759E+04  0.00000000000E+00 0.  1.
<mgrwt>
<rscale>  0 0.40836401E+04</rscale>
<asrwt>0</asrwt>
<pdfrwt beam="1">  1        1 0.35718312E+00 0.40836401E+04</pdfrwt>
<pdfrwt beam="2">  1       -1 0.27625954E+00 0.40836401E+04</pdfrwt>
<totfact> 0.65793759E-02</totfact>
</mgrwt>
</event>
<event>
 6    1  0.9988873E-007  0.4157225E+04  0.7818608E-02  0.7973559E-01
         -1   -1    0    0    0  501 -0.00000000000E+00  0.00000000000E+00  0.14356570932E+04  0.14356570932E+04  0.00000000000E+00 0.  1.
          1   -1    0    0  501    0  0.00000000000E+00 -0.00000000000E+00 -0.30095135537E+04  0.30095135537E+04  0.00000000000E+00 0. -1.
         23    2    1    2    0    0  0.80565248436E+03 -0.16087966853E+04  0.32325874670E+03  0.18305294077E+04  0.95073628960E+02 0.  0.
         13    1    3    3    0    0  0.86117955716E+02 -0.18011072025E+03  0.60387052375E+01  0.19973141918E+03  0.00000000000E+00 0. -1.
        -13    1    3    3    0    0  0.71953452864E+03 -0.14286859651E+04  0.31722004146E+03  0.16307979885E+04  0.00000000000E+00 0.  1.
         22    1    1    2    0    0 -0.80565248436E+03  0.16087966853E+04 -0.18971152072E+04  0.26146412392E+04  0.00000000000E+00 0. -1.
<mgrwt>
<rscale>  0 0.41572248E+04</rscale>
<asrwt>0</asrwt>
<pdfrwt beam="1">  1        1 0.46300208E+00 0.41572248E+04</pdfrwt>
<pdfrwt beam="2">  1       -1 0.22087032E+00 0.41572248E+04</pdfrwt>
<totfact> 0.49331524E-02</totfact>
</mgrwt>
</event>
<event>
 6    1  0.9988873E-007  0.1279010E+04  0.7818608E-02  0.9046378E-01
          1   -1    0    0  501    0  0.00000000000E+00  0.00000000000E+00  0.88793438047E+03  0.88793438047E+03  0.00000000000E+00 0. -1.
         -1   -1    0    0    0  501 -0.00000000000E+00 -0.00000000000E+00 -0.46058170699E+03  0.46058170699E+03  0.00000000000E+00 0.  1.
         23    2    1    2    0    0  0.24329390721E+03  0.37271043077E+03  0.69417376084E+03  0.82957631913E+03  0.90634808678E+02 0.  0.
         13    1    3    3    0    0  0.22772388581E+03  0.34244947125E+03  0.58404831922E+03  0.71431243004E+03  0.00000000000E+00 0.  1.
        -13    1    3    3    0    0  0.15570021399E+02  0.30260959520E+02  0.11012544162E+03  0.11526388910E+03  0.00000000000E+00 0. -1.
         22    1    1    2    0    0 -0.24329390721E+03 -0.37271043077E+03 -0.26682108735E+03  0.51893976832E+03  0.00000000000E+00 0.  1.
<mgrwt>
<rscale>  0 0.12790095E+04</rscale>
<asrwt>0</asrwt>
<pdfrwt beam="1">  1        1 0.13660529E+00 0.12790095E+04</pdfrwt>
<pdfrwt beam="2">  1       -1 0.70858724E-01 0.12790095E+04</pdfrwt>
<totfact> 0.36872484E+01</totfact>
</mgrwt>
</event>
<event>
 6    1  0.9988873E-007  0.4348134E+04  0.7818608E-02  0.7937777E-01
          2   -1    0    0  501    0  0.00000000000E+00  0.00000000000E+00  0.20819807572E+04  0.20819807572E+04  0.00000000000E+00 0. -1.
         -2   -1    0    0    0  501 -0.00000000000E+00 -0.00000000000E+00 -0.22702267114E+04  0.22702267114E+04  0.00000000000E+00 0.  1.
         23    2    1    2    0    0 -0.17351106250E+04 -0.13082442180E+04 -0.11158552443E+03  0.21778136137E+04  0.91153671342E+02 0.  0.
         13    1    3    3    0    0 -0.41481774892E+03 -0.30634756150E+03 -0.65032714271E+02  0.51976133675E+03  0.00000000000E+00 0. -1.
        -13    1    3    3    0    0 -0.13202928761E+04 -0.10018966564E+04 -0.46552810159E+02  0.16580522769E+04  0.00000000000E+00 0.  1.
         22    1    1    2    0    0  0.17351106250E+04  0.13082442180E+04 -0.76660429717E+02  0.21743938549E+04  0.00000000000E+00 0. -1.
<mgrwt>
<rscale>  0 0.43481345E+04</rscale>
<asrwt>0</asrwt>
<pdfrwt beam="1">  1        2 0.32030473E+00 0.43481345E+04</pdfrwt>
<pdfrwt beam="2">  1       -2 0.34926565E+00 0.43481345E+04</pdfrwt>
<totfact> 0.72530447E-02</totfact>
</mgrwt>
</event>
<event>
 6    1  0.9988873E-007  0.4138619E+04  0.7818608E-02  0.7977152E-01
          2   -1    0    0  501    0  0.00000000000E+00  0.00000000000E+00  0.29021749789E+04  0.29021749789E+04  0.00000000000E+00 0. -1.
         -2   -1    0    0    0  501 -0.00000000000E+00 -0.00000000000E+00 -0.14754592213E+04  0.14754592213E+04  0.00000000000E+00 0.  1.
         23    2    1    2    0    0  0.14788381916E+04 -0.79596597742E+03 -0.56321702731E+03  0.17737223886E+04  0.91397253525E+02 0.  0.
         13    1    3    3    0    0  0.11842207891E+04 -0.61895598433E+03 -0.41265823090E+03  0.13984892575E+04  0.00000000000E+00 0.  1.
        -13    1    3    3    0    0  0.29461740250E+03 -0.17700999308E+03 -0.15055879641E+03  0.37523313111E+03  0.00000000000E+00 0. -1.
         22    1    1    2    0    0 -0.14788381916E+04  0.79596597742E+03  0.19899327849E+04  0.26039118116E+04  0.00000000000E+00 0. -1.
<mgrwt>
<rscale>  0 0.41386185E+04</rscale>
<asrwt>0</asrwt>
<pdfrwt beam="1">  1        2 0.44648846E+00 0.41386185E+04</pdfrwt>
<pdfrwt beam="2">  1       -2 0.22699373E+00 0.41386185E+04</pdfrwt>
<totfact> 0.13945772E-01</totfact>
</mgrwt>
</event>
<event>
 6    1  0.9988873E-007  0.1441684E+04  0.7818608E-02  0.8924186E-01
         -1   -1    0    0    0  501 -0.00000000000E+00  0.00000000000E+00  0.51810619508E+03  0.51810619508E+03  0.00000000000E+00 0.  1.
          1   -1    0    0  501    0  0.00000000000E+00 -0.00000000000E+00 -0.10029089871E+04  0.10029089871E+04  0.00000000000E+00 0. -1.
         23    2    1    2    0    0 -0.40678346185E+03 -0.46810287511E+02 -0.86651523472E+03  0.96122202692E+03  0.73723437145E+02 0.  0.
         11    1    3    3    0    0 -0.22163903343E+03  0.11065034541E+02 -0.44915002758E+03  0.50098108088E+03  0.00000000000E+00 0. -1.
        -11    1    3    3    0    0 -0.18514442843E+03 -0.57875322052E+02 -0.41736520714E+03  0.46024094604E+03  0.00000000000E+00 0.  1.
         22    1    1    2    0    0  0.40678346185E+03  0.46810287511E+02  0.38171244265E+03  0.55979315531E+03  0.00000000000E+00 0.  1.
<mgrwt>
<rscale>  0 0.14416842E+04</rscale>
<asrwt>0</asrwt>
<pdfrwt beam="1">  1        1 0.15429369E+00 0.14416842E+04</pdfrwt>
<pdfrwt beam="2">  1       -1 0.79708647E-01 0.14416842E+04</pdfrwt>
<totfact> 0.23002528E+01</totfact>
</mgrwt>
</event>
<event>
 6    1  0.9988873E-007  0.1423701E+04  0.7818608E-02  0.8936839E-01
         -2   -1    0    0    0  501 -0.00000000000E+00  0.00000000000E+00  0.39347543131E+03  0.39347543131E+03  0.00000000000E+00 0.  1.
          2   -1    0    0  501    0  0.00000000000E+00 -0.00000000000E+00 -0.12878340314E+04  0.12878340314E+04  0.00000000000E+00 0. -1.
         23    2    1    2    0    0  0.18270866979E+02  0.59225231988E+03  0.10652524905E+02  0.59957854823E+03  0.91018263103E+02 0.  0.
         13    1    3    3    0    0  0.43013282258E+02  0.14527316955E+03  0.11121678838E+02  0.15191487084E+03  0.00000000000E+00 0. -1.
        -13    1    3    3    0    0 -0.24742415279E+02  0.44697915033E+03 -0.46915393327E+00  0.44766367739E+03  0.00000000000E+00 0.  1.
         22    1    1    2    0    0 -0.18270866979E+02 -0.59225231988E+03 -0.90501112499E+03  0.10817309145E+04  0.00000000000E+00 0. -1.
<mgrwt>
<rscale>  0 0.14237009E+04</rscale>
<asrwt>0</asrwt>
<pdfrwt beam="1">  1        2 0.19812831E+00 0.14237009E+04</pdfrwt>
<pdfrwt beam="2">  1       -2 0.60534683E-01 0.14237009E+04</pdfrwt>
<totfact> 0.41498455E+01</totfact>
</mgrwt>
</event>
<event>
 6    1  0.9988873E-007  0.1146760E+04  0.7818608E-02  0.9160778E-01
          1   -1    0    0  501    0  0.00000000000E+00  0.00000000000E+00  0.75015418182E+03  0.75015418182E+03  0.00000000000E+00 0. -1.
         -1   -1    0    0    0  501 -0.00000000000E+00 -0.00000000000E+00 -0.43826286314E+03  0.43826286314E+03  0.00000000000E+00 0.  1.
         23    2    1    2    0    0 -0.50850510920E+02  0.17266727979E+03  0.71768620560E+03  0.74449221548E+03  0.82434247928E+02 0.  0.
         11    1    3    3    0    0 -0.23442224905E+02  0.53098513232E+02  0.10821501746E+03  0.12279853427E+03  0.00000000000E+00 0. -1.
        -11    1    3    3    0    0 -0.27408286015E+02  0.11956876655E+03  0.60947118815E+03  0.62169368121E+03  0.00000000000E+00 0.  1.
         22    1    1    2    0    0  0.50850510920E+02 -0.17266727979E+03 -0.40579488693E+03  0.44392482948E+03  0.00000000000E+00 0.  1.
<mgrwt>
<rscale>  0 0.11467602E+04</rscale>
<asrwt>0</asrwt>
<pdfrwt beam="1">  1        1 0.11540834E+00 0.11467602E+04</pdfrwt>
<pdfrwt beam="2">  1       -1 0.67425056E-01 0.11467602E+04</pdfrwt>
<totfact> 0.54202298E+01</totfact>
</mgrwt>
</event>
<event>
 6    1  0.9988873E-007  0.8004808E+03  0.7818608E-02  0.9559321E-01
         -3   -1    0    0    0  501 -0.00000000000E+00  0.00000000000E+00  0.21393249345E+04  0.21393249345E+04  0.00000000000E+00 0.  1.
          3   -1    0    0  501    0  0.00000000000E+00 -0.00000000000E+00 -0.74879878986E+02  0.74879878986E+02  0.00000000000E+00 0. -1.
         23    2    1    2    0    0  0.16160664357E+03 -0.17276975052E+03  0.19207832934E+04  0.19374290995E+04  0.90867823828E+02 0.  0.
         13    1    3    3    0    0  0.16005356369E+03 -0.12956370323E+03  0.17022673716E+04  0.17146772585E+04  0.00000000000E+00 0. -1.
        -13    1    3    3    0    0  0.15530798790E+01 -0.43206047288E+02  0.21851592186E+03  0.22275184104E+03  0.00000000000E+00 0.  1.
         22    1    1    2    0    0 -0.16160664357E+03  0.17276975052E+03  0.14366176202E+03  0.27677571391E+03  0.00000000000E+00 0. -1.
<mgrwt>
<rscale>  0 0.80048084E+03</rscale>
<asrwt>0</asrwt>
<pdfrwt beam="1">  1        3 0.11519983E-01 0.80048084E+03</pdfrwt>
<pdfrwt beam="2">  1       -3 0.32912687E+00 0.80048084E+03</pdfrwt>
<totfact> 0.42943965E+00</totfact>
</mgrwt>
</event>
<event>
 6    1  0.1094584E-006  0.2207959E+04  0.7818608E-02  0.8515123E-01
          1   -1    0    0  501    0  0.00000000000E+00  0.00000000000E+00  0.12106852941E+04  0.12106852941E+04  0.00000000000E+00 0. -1.
         -1   -1    0    0    0  501 -0.00000000000E+00 -0.00000000000E+00 -0.10066782418E+04  0.10066782418E+04  0.00000000000E+00 0.  1.
         23    2    1    2    0    0 -0.82477073504E+03 -0.72113784901E+03  0.20761849920E+03  0.11217816790E+04  0.12248318868E+03 0.  0.
         11    1    3    3    0    0 -0.39902224723E+03 -0.33037441333E+03  0.37617372057E+02  0.51940453738E+03  0.00000000000E+00 0.  1.
        -11    1    3    3    0    0 -0.42574848781E+03 -0.39076343569E+03  0.17000112714E+03  0.60237714164E+03  0.00000000000E+00 0. -1.
         22    1    1    2    0    0  0.82477073504E+03  0.72113784901E+03 -0.36114469225E+01  0.10955818569E+04  0.00000000000E+00 0. -1.
<mgrwt>
<rscale>  0 0.22079588E+04</rscale>
<asrwt>0</asrwt>
<pdfrwt beam="1">  1        1 0.18625928E+00 0.22079588E+04</pdfrwt>
<pdfrwt beam="2">  1       -1 0.15487358E+00 0.22079588E+04</pdfrwt>
<totfact> 0.30585631E+00</totfact>
</mgrwt>
</event>
<event>
 6    1  0.9988873E-007  0.1106159E+04  0.7818608E-02  0.9199210E-01
         -2   -1    0    0    0  501 -0.00000000000E+00  0.00000000000E+00  0.39508922960E+03  0.39508922960E+03  0.00000000000E+00 0.  1.
          2   -1    0    0  501    0  0.00000000000E+00 -0.00000000000E+00 -0.77424773705E+03  0.77424773705E+03  0.00000000000E+00 0. -1.
         23    2    1    2    0    0 -0.32226147583E+03 -0.37367091178E+03  0.61824371152E+02  0.50756033641E+03  0.10155212020E+03 0.  0.
         11    1    3    3    0    0 -0.24760199548E+03 -0.21580448775E+03  0.27584259330E+02  0.32960463659E+03  0.00000000000E+00 0. -1.
        -11    1    3    3    0    0 -0.74659480349E+02 -0.15786642403E+03  0.34240111823E+02  0.17795569983E+03  0.00000000000E+00 0.  1.
         22    1    1    2    0    0  0.32226147583E+03  0.37367091178E+03 -0.44098287860E+03  0.66177663024E+03  0.00000000000E+00 0. -1.
<mgrwt>
<rscale>  0 0.11061590E+04</rscale>
<asrwt>0</asrwt>
<pdfrwt beam="1">  1        2 0.11911504E+00 0.11061590E+04</pdfrwt>
<pdfrwt beam="2">  1       -2 0.60782959E-01 0.11061590E+04</pdfrwt>
<totfact> 0.89994557E+01</totfact>
</mgrwt>
</event>
<event>
 6    1  0.9988873E-007  0.1824494E+04  0.7818608E-02  0.8693381E-01
          1   -1    0    0  501    0  0.00000000000E+00  0.00000000000E+00  0.17190574718E+04  0.17190574718E+04  0.00000000000E+00 0. -1.
         -1   -1    0    0    0  501 -0.00000000000E+00 -0.00000000000E+00 -0.48409925419E+03  0.48409925419E+03  0.00000000000E+00 0.  1.
         23    2    1    2    0    0  0.39880296593E+03  0.22757277959E+03 -0.32815072401E+03  0.57400273110E+03  0.10470464173E+03 0.  0.
         13    1    3    3    0    0  0.19361715797E+03  0.16591032218E+03 -0.15377380026E+03  0.29775866152E+03  0.00000000000E+00 0. -1.
        -13    1    3    3    0    0  0.20518580796E+03  0.61662457416E+02 -0.17437692375E+03  0.27624406958E+03  0.00000000000E+00 0.  1.
         22    1    1    2    0    0 -0.39880296593E+03 -0.22757277959E+03  0.15631089416E+04  0.16291539949E+04  0.00000000000E+00 0. -1.
<mgrwt>
<rscale>  0 0.18244938E+04</rscale>
<asrwt>0</asrwt>
<pdfrwt beam="1">  1        1 0.26447038E+00 0.18244938E+04</pdfrwt>
<pdfrwt beam="2">  1       -1 0.74476809E-01 0.18244938E+04</pdfrwt>
<totfact> 0.79014421E+00</totfact>
</mgrwt>
</event>
<event>
 6    1  0.9988873E-007  0.3698349E+04  0.7818608E-02  0.8068328E-01
         -1   -1    0    0    0  501 -0.00000000000E+00  0.00000000000E+00  0.78534046471E+03  0.78534046471E+03  0.00000000000E+00 0.  1.
          1   -1    0    0  501    0  0.00000000000E+00 -0.00000000000E+00 -0.43540930851E+04  0.43540930851E+04  0.00000000000E+00 0. -1.
         23    2    1    2    0    0  0.14912583578E+04  0.99794230913E+03 -0.11711755483E+04  0.21447522382E+04  0.92572437227E+02 0.  0.
         13    1    3    3    0    0  0.11985821650E+04  0.75669117846E+03 -0.92563788598E+03  0.16929223969E+04  0.00000000000E+00 0. -1.
        -13    1    3    3    0    0  0.29267619276E+03  0.24125113067E+03 -0.24553766235E+03  0.45182984130E+03  0.00000000000E+00 0.  1.
         22    1    1    2    0    0 -0.14912583578E+04 -0.99794230913E+03 -0.23975770721E+04  0.29946813117E+04  0.00000000000E+00 0. -1.
<mgrwt>
<rscale>  0 0.36983485E+04</rscale>
<asrwt>0</asrwt>
<pdfrwt beam="1">  1        1 0.66986049E+00 0.36983485E+04</pdfrwt>
<pdfrwt beam="2">  1       -1 0.12082161E+00 0.36983485E+04</pdfrwt>
<totfact> 0.21940381E-02</totfact>
</mgrwt>
</event>
<event>
 6    1  0.9988873E-007  0.1663257E+04  0.7818608E-02  0.8782602E-01
         -2   -1    0    0    0  501 -0.00000000000E+00  0.00000000000E+00  0.87447585840E+03  0.87447585840E+03  0.00000000000E+00 0.  1.
          2   -1    0    0  501    0  0.00000000000E+00 -0.00000000000E+00 -0.79088075897E+03  0.79088075897E+03  0.00000000000E+00 0. -1.
         23    2    1    2    0    0 -0.20424290796E+03  0.33664315153E+03  0.77248797615E+03  0.87187241933E+03  0.91542696938E+02 0.  0.
         13    1    3    3    0    0 -0.19264531572E+03  0.28283877114E+03  0.59900234243E+03  0.68986505519E+03  0.00000000000E+00 0.  1.
        -13    1    3    3    0    0 -0.11597592242E+02  0.53804380394E+02  0.17348563372E+03  0.18200736414E+03  0.00000000000E+00 0. -1.
         22    1    1    2    0    0  0.20424290796E+03 -0.33664315153E+03 -0.68889287673E+03  0.79348419803E+03  0.00000000000E+00 0. -1.
<mgrwt>
<rscale>  0 0.16632572E+04</rscale>
<asrwt>0</asrwt>
<pdfrwt beam="1">  1        2 0.12167396E+00 0.16632572E+04</pdfrwt>
<pdfrwt beam="2">  1       -2 0.13453475E+00 0.16632572E+04</pdfrwt>
<totfact> 0.13280739E+01</totfact>
</mgrwt>
</event>
<event>
 6    1  0.9988873E-007  0.1324804E+04  0.7818608E-02  0.9010123E-01
         -2   -1    0    0    0  501 -0.00000000000E+00  0.00000000000E+00  0.44762082723E+03  0.44762082723E+03  0.00000000000E+00 0.  1.
          2   -1    0    0  501    0  0.00000000000E+00 -0.00000000000E+00 -0.98024118376E+03  0.98024118376E+03  0.00000000000E+00 0. -1.
         23    2    1    2    0    0 -0.54066183729E+03 -0.36492130065E+03 -0.36889890232E+03  0.75533878274E+03  0.94696877500E+02 0.  0.
         11    1    3    3    0    0 -0.14071093880E+03 -0.13738282685E+03 -0.14003347775E+03  0.24141869087E+03  0.00000000000E+00 0. -1.
        -11    1    3    3    0    0 -0.39995089849E+03 -0.22753847380E+03 -0.22886542458E+03  0.51392009187E+03  0.00000000000E+00 0.  1.
         22    1    1    2    0    0  0.54066183729E+03  0.36492130065E+03 -0.16372145420E+03  0.67252322825E+03  0.00000000000E+00 0.  1.
<mgrwt>
<rscale>  0 0.13248039E+04</rscale>
<asrwt>0</asrwt>
<pdfrwt beam="1">  1        2 0.15080633E+00 0.13248039E+04</pdfrwt>
<pdfrwt beam="2">  1       -2 0.68864744E-01 0.13248039E+04</pdfrwt>
<totfact> 0.48910944E+01</totfact>
</mgrwt>
</event>
<event>
 6    1  0.9988873E-007  0.2968930E+04  0.7818608E-02  0.8252659E-01
          2   -1    0    0  501    0  0.00000000000E+00  0.00000000000E+00  0.44137811747E+04  0.44137811747E+04  0.00000000000E+00 0. -1.
         -2   -1    0    0    0  501 -0.00000000000E+00 -0.00000000000E+00 -0.49926259068E+03  0.49926259068E+03  0.00000000000E+00 0.  1.
         23    2    1    2    0    0 -0.64123993634E+03 -0.27342499261E+03 -0.20760547372E+03  0.73239110941E+03  0.85713603800E+02 0.  0.
         11    1    3    3    0    0 -0.25248704357E+03 -0.63409936134E+02 -0.84738608378E+02  0.27377209303E+03  0.00000000000E+00 0. -1.
        -11    1    3    3    0    0 -0.38875289277E+03 -0.21001505648E+03 -0.12286686534E+03  0.45861901638E+03  0.00000000000E+00 0.  1.
         22    1    1    2    0    0  0.64123993634E+03  0.27342499261E+03  0.41221240577E+04  0.41806526559E+04  0.00000000000E+00 0. -1.
<mgrwt>
<rscale>  0 0.29689297E+04</rscale>
<asrwt>0</asrwt>
<pdfrwt beam="1">  1        2 0.67904323E+00 0.29689297E+04</pdfrwt>
<pdfrwt beam="2">  1       -2 0.76809632E-01 0.29689297E+04</pdfrwt>
<totfact> 0.19350254E-01</totfact>
</mgrwt>
</event>
<event>
 6    1  0.9988873E-007  0.3941881E+04  0.7818608E-02  0.8016375E-01
          2   -1    0    0  501    0  0.00000000000E+00  0.00000000000E+00  0.17578035050E+04  0.17578035050E+04  0.00000000000E+00 0. -1.
         -2   -1    0    0    0  501 -0.00000000000E+00 -0.00000000000E+00 -0.22099211714E+04  0.22099211714E+04  0.00000000000E+00 0.  1.
         23    2    1    2    0    0  0.13898720133E+04 -0.13712155028E+04  0.37187629841E+02  0.19549167269E+04  0.91325355812E+02 0.  0.
         13    1    3    3    0    0  0.46730255467E+03 -0.40976032091E+03 -0.10005243966E+02  0.62159094515E+03  0.00000000000E+00 0. -1.
        -13    1    3    3    0    0  0.92256945866E+03 -0.96145518191E+03  0.47192873807E+02  0.13333257817E+04  0.00000000000E+00 0.  1.
         22    1    1    2    0    0 -0.13898720133E+04  0.13712155028E+04 -0.48930529632E+03  0.20128079495E+04  0.00000000000E+00 0.  1.
<mgrwt>
<rscale>  0 0.39418814E+04</rscale>
<asrwt>0</asrwt>
<pdfrwt beam="1">  1        2 0.27043131E+00 0.39418814E+04</pdfrwt>
<pdfrwt beam="2">  1       -2 0.33998787E+00 0.39418814E+04</pdfrwt>
<totfact> 0.12978612E-01</totfact>
</mgrwt>
</event>
<event>
 6    1  0.9988873E-007  0.1057811E+04  0.7818608E-02  0.9247316E-01
          2   -1    0    0  501    0  0.00000000000E+00  0.00000000000E+00  0.75615388523E+03  0.75615388523E+03  0.00000000000E+00 0. -1.
         -2   -1    0    0    0  501 -0.00000000000E+00 -0.00000000000E+00 -0.36995272592E+03  0.36995272592E+03  0.00000000000E+00 0.  1.
         23    2    1    2    0    0 -0.85525314393E+02 -0.37701907959E+03 -0.18377298162E+03  0.43739151250E+03  0.89893607439E+02 0.  0.
         13    1    3    3    0    0  0.15093135860E+02 -0.73128865560E+02 -0.17601198237E+02  0.76716594734E+02  0.00000000000E+00 0. -1.
        -13    1    3    3    0    0 -0.10061845025E+03 -0.30389021403E+03 -0.16617178338E+03  0.36067491777E+03  0.00000000000E+00 0.  1.
         22    1    1    2    0    0  0.85525314393E+02  0.37701907959E+03  0.56997414093E+03  0.68871509865E+03  0.00000000000E+00 0. -1.
<mgrwt>
<rscale>  0 0.10578113E+04</rscale>
<asrwt>0</asrwt>
<pdfrwt beam="1">  1        2 0.11633137E+00 0.10578113E+04</pdfrwt>
<pdfrwt beam="2">  1       -2 0.56915804E-01 0.10578113E+04</pdfrwt>
<totfact> 0.10691908E+02</totfact>
</mgrwt>
</event>
<event>
 6    1  0.9988873E-007  0.3134237E+04  0.7818608E-02  0.8206404E-01
         -1   -1    0    0    0  501 -0.00000000000E+00  0.00000000000E+00  0.17433081203E+04  0.17433081203E+04  0.00000000000E+00 0.  1.
          1   -1    0    0  501    0  0.00000000000E+00 -0.00000000000E+00 -0.14087357510E+04  0.14087357510E+04  0.00000000000E+00 0. -1.
         23    2    1    2    0    0  0.46242831638E+03  0.14911427556E+04  0.28820452973E+03  0.15901550654E+04  0.90468866146E+02 0.  0.
         11    1    3    3    0    0  0.17912308205E+03  0.73010786518E+03  0.13694439856E+03  0.76413110237E+03  0.00000000000E+00 0. -1.
        -11    1    3    3    0    0  0.28330523433E+03  0.76103489041E+03  0.15126013117E+03  0.82602396304E+03  0.00000000000E+00 0.  1.
         22    1    1    2    0    0 -0.46242831638E+03 -0.14911427556E+04  0.46367839538E+02  0.15618888059E+04  0.00000000000E+00 0. -1.
<mgrwt>
<rscale>  0 0.31342371E+04</rscale>
<asrwt>0</asrwt>
<pdfrwt beam="1">  1        1 0.21672858E+00 0.31342371E+04</pdfrwt>
<pdfrwt beam="2">  1       -1 0.26820125E+00 0.31342371E+04</pdfrwt>
<totfact> 0.33825644E-01</totfact>
</mgrwt>
</event>
<event>
 6    1  0.9988873E-007  0.3728403E+04  0.7818608E-02  0.8061696E-01
          2   -1    0    0  501    0  0.00000000000E+00  0.00000000000E+00  0.19143880607E+04  0.19143880607E+04  0.00000000000E+00 0. -1.
         -2   -1    0    0    0  501 -0.00000000000E+00 -0.00000000000E+00 -0.18153305174E+04  0.18153305174E+04  0.00000000000E+00 0.  1.
         23    2    1    2    0    0 -0.48836921365E+03  0.17827332677E+04 -0.18402536448E+03  0.18597511117E+04  0.90368524803E+02 0.  0.
         13    1    3    3    0    0 -0.92860941029E+02  0.27048045427E+03 -0.55922417545E+02  0.29139345788E+03  0.00000000000E+00 0.  1.
        -13    1    3    3    0    0 -0.39550827262E+03  0.15122528134E+04 -0.12810294693E+03  0.15683576538E+04  0.00000000000E+00 0. -1.
         22    1    1    2    0    0  0.48836921365E+03 -0.17827332677E+04  0.28308290782E+03  0.18699674663E+04  0.00000000000E+00 0. -1.
<mgrwt>
<rscale>  0 0.37284029E+04</rscale>
<asrwt>0</asrwt>
<pdfrwt beam="1">  1        2 0.29452124E+00 0.37284029E+04</pdfrwt>
<pdfrwt beam="2">  1       -2 0.27928162E+00 0.37284029E+04</pdfrwt>
<totfact> 0.25578540E-01</totfact>
</mgrwt>
</event>
<event>
 6    1  0.9988873E-007  0.1686677E+04  0.7818608E-02  0.8769000E-01
          2   -1    0    0  501    0  0.00000000000E+00  0.00000000000E+00  0.95944590518E+03  0.95944590518E+03  0.00000000000E+00 0. -1.
         -2   -1    0    0    0  501 -0.00000000000E+00 -0.00000000000E+00 -0.74128141375E+03  0.74128141375E+03  0.00000000000E+00 0.  1.
         23    2    1    2    0    0  0.93276738913E+02 -0.61797818748E+03  0.67625687815E+03  0.92584266622E+03  0.96248050011E+02 0.  0.
         13    1    3    3    0    0  0.60770534825E+02 -0.13474218228E+03  0.16823228826E+03  0.22394333302E+03  0.00000000000E+00 0. -1.
        -13    1    3    3    0    0  0.32506204088E+02 -0.48323600520E+03  0.50802458989E+03  0.70189933321E+03  0.00000000000E+00 0.  1.
         22    1    1    2    0    0 -0.93276738913E+02  0.61797818748E+03 -0.45809238672E+03  0.77488465271E+03  0.00000000000E+00 0.  1.
<mgrwt>
<rscale>  0 0.16866765E+04</rscale>
<asrwt>0</asrwt>
<pdfrwt beam="1">  1        2 0.14760706E+00 0.16866765E+04</pdfrwt>
<pdfrwt beam="2">  1       -2 0.11404329E+00 0.16866765E+04</pdfrwt>
<totfact> 0.15343695E+01</totfact>
</mgrwt>
</event>
<event>
 6    1  0.9988873E-007  0.1502959E+04  0.7818608E-02  0.8882488E-01
          2   -1    0    0  501    0  0.00000000000E+00  0.00000000000E+00  0.64211462485E+03  0.64211462485E+03  0.00000000000E+00 0. -1.
         -2   -1    0    0    0  501 -0.00000000000E+00 -0.00000000000E+00 -0.87947122325E+03  0.87947122325E+03  0.00000000000E+00 0.  1.
         23    2    1    2    0    0 -0.21225475534E+03 -0.37946112316E+03 -0.73608797355E+03  0.85993956063E+03  0.92885510075E+02 0.  0.
         13    1    3    3    0    0 -0.11103129395E+03 -0.28590647409E+03 -0.50146060297E+03  0.58782071799E+03  0.00000000000E+00 0.  1.
        -13    1    3    3    0    0 -0.10122346139E+03 -0.93554649075E+02 -0.23462737058E+03  0.27211884265E+03  0.00000000000E+00 0. -1.
         22    1    1    2    0    0  0.21225475534E+03  0.37946112316E+03  0.49873137515E+03  0.66164628746E+03  0.00000000000E+00 0. -1.
<mgrwt>
<rscale>  0 0.15029589E+04</rscale>
<asrwt>0</asrwt>
<pdfrwt beam="1">  1        2 0.98786866E-01 0.15029589E+04</pdfrwt>
<pdfrwt beam="2">  1       -2 0.13530326E+00 0.15029589E+04</pdfrwt>
<totfact> 0.17288149E+01</totfact>
</mgrwt>
</event>
<event>
 6    1  0.9988873E-007  0.3492712E+04  0.7818608E-02  0.8115519E-01
         -2   -1    0    0    0  501 -0.00000000000E+00  0.00000000000E+00  0.12591647192E+04  0.12591647192E+04  0.00000000000E+00 0.  1.
          2   -1    0    0  501    0  0.00000000000E+00 -0.00000000000E+00 -0.24220492331E+04  0.24220492331E+04  0.00000000000E+00 0. -1.
         23    2    1    2    0    0 -0.71240745965E+02  0.12961586561E+04  0.64749632704E+03  0.14535287647E+04  0.91607153537E+02 0.  0.
         13    1    3    3    0    0 -0.75582404317E+02  0.58111329493E+03  0.30656403233E+03  0.66135230195E+03  0.00000000000E+00 0.  1.
        -13    1    3    3    0    0  0.43416583522E+01  0.71504536120E+03  0.34093229471E+03  0.79217646276E+03  0.00000000000E+00 0. -1.
         22    1    1    2    0    0  0.71240745965E+02 -0.12961586561E+04 -0.18103808410E+04  0.22276851876E+04  0.00000000000E+00 0. -1.
<mgrwt>
<rscale>  0 0.34927118E+04</rscale>
<asrwt>0</asrwt>
<pdfrwt beam="1">  1        2 0.37262296E+00 0.34927118E+04</pdfrwt>
<pdfrwt beam="2">  1       -2 0.19371765E+00 0.34927118E+04</pdfrwt>
<totfact> 0.46465414E-01</totfact>
</mgrwt>
</event>
<event>
 6    1  0.9988873E-007  0.1253552E+04  0.7818608E-02  0.9067232E-01
          1   -1    0    0  501    0  0.00000000000E+00  0.00000000000E+00  0.10769941975E+04  0.10769941975E+04  0.00000000000E+00 0. -1.
         -1   -1    0    0    0  501 -0.00000000000E+00 -0.00000000000E+00 -0.36476371993E+03  0.36476371993E+03  0.00000000000E+00 0.  1.
         23    2    1    2    0    0  0.59845134532E+03  0.17395013738E+03  0.38587993227E+03  0.73826140614E+03  0.87885827426E+02 0.  0.
         11    1    3    3    0    0  0.22497393201E+03  0.10996089277E+03  0.14866998305E+03  0.29121715589E+03  0.00000000000E+00 0.  1.
        -11    1    3    3    0    0  0.37347741331E+03  0.63989244614E+02  0.23720994922E+03  0.44704425026E+03  0.00000000000E+00 0. -1.
         22    1    1    2    0    0 -0.59845134532E+03 -0.17395013738E+03  0.32635054533E+03  0.70349651133E+03  0.00000000000E+00 0.  1.
<mgrwt>
<rscale>  0 0.12535524E+04</rscale>
<asrwt>0</asrwt>
<pdfrwt beam="1">  1        1 0.16569141E+00 0.12535524E+04</pdfrwt>
<pdfrwt beam="2">  1       -1 0.56117496E-01 0.12535524E+04</pdfrwt>
<totfact> 0.41797784E+01</totfact>
</mgrwt>
</event>
<event>
 6    1  0.9988873E-007  0.2677813E+04  0.7818608E-02  0.8342240E-01
         -2   -1    0    0    0  501 -0.00000000000E+00  0.00000000000E+00  0.12404435541E+04  0.12404435541E+04  0.00000000000E+00 0.  1.
          2   -1    0    0  501    0  0.00000000000E+00 -0.00000000000E+00 -0.14451854105E+04  0.14451854105E+04  0.00000000000E+00 0. -1.
         23    2    1    2    0    0  0.21416365857E+03  0.44343601145E+03  0.11437237884E+04  0.12500589858E+04  0.10973511161E+03 0.  0.
         13    1    3    3    0    0  0.71546503823E+02  0.26395070073E+03  0.67435201470E+03  0.72769465736E+03  0.00000000000E+00 0. -1.
        -13    1    3    3    0    0  0.14261715475E+03  0.17948531071E+03  0.46937177374E+03  0.52236432839E+03  0.00000000000E+00 0.  1.
         22    1    1    2    0    0 -0.21416365857E+03 -0.44343601145E+03 -0.13484656448E+04  0.14355699789E+04  0.00000000000E+00 0. -1.
<mgrwt>
<rscale>  0 0.26778132E+04</rscale>
<asrwt>0</asrwt>
<pdfrwt beam="1">  1        2 0.22233622E+00 0.26778132E+04</pdfrwt>
<pdfrwt beam="2">  1       -2 0.19083747E+00 0.26778132E+04</pdfrwt>
<totfact> 0.18339309E+00</totfact>
</mgrwt>
</event>
<event>
 6    1  0.9988873E-007  0.1357274E+04  0.7818608E-02  0.8985340E-01
          2   -1    0    0  501    0  0.00000000000E+00  0.00000000000E+00  0.21745374319E+04  0.21745374319E+04  0.00000000000E+00 0. -1.
         -2   -1    0    0    0  501 -0.00000000000E+00 -0.00000000000E+00 -0.21179142747E+03  0.21179142747E+03  0.00000000000E+00 0.  1.
         23    2    1    2    0    0  0.31395260264E+03 -0.28927963816E+03  0.19064000471E+04  0.19557202057E+04  0.90727269723E+02 0.  0.
         13    1    3    3    0    0  0.23885449896E+03 -0.17489372465E+03  0.11819130723E+04  0.12184243091E+04  0.00000000000E+00 0. -1.
        -13    1    3    3    0    0  0.75098103684E+02 -0.11438591351E+03  0.72448697482E+03  0.73729589655E+03  0.00000000000E+00 0.  1.
         22    1    1    2    0    0 -0.31395260264E+03  0.28927963816E+03  0.56345957357E+02  0.43060865373E+03  0.00000000000E+00 0.  1.
<mgrwt>
<rscale>  0 0.13572743E+04</rscale>
<asrwt>0</asrwt>
<pdfrwt beam="1">  1        2 0.33454420E+00 0.13572743E+04</pdfrwt>
<pdfrwt beam="2">  1       -2 0.32583298E-01 0.13572743E+04</pdfrwt>
<totfact> 0.45815671E+01</totfact>
</mgrwt>
</event>
<event>
 6    1  0.9988873E-007  0.2372810E+04  0.7818608E-02  0.8449754E-01
          2   -1    0    0  501    0  0.00000000000E+00  0.00000000000E+00  0.15813540074E+04  0.15813540074E+04  0.00000000000E+00 0. -1.
         -2   -1    0    0    0  501 -0.00000000000E+00 -0.00000000000E+00 -0.89009592924E+03  0.89009592924E+03  0.00000000000E+00 0.  1.
         23    2    1    2    0    0  0.22957945864E+03  0.63525057709E+03 -0.66758140939E+03  0.95398666642E+03  0.90419013625E+02 0.  0.
         13    1    3    3    0    0  0.20936850981E+02  0.10210575341E+03 -0.65215147990E+02  0.12295101519E+03  0.00000000000E+00 0.  1.
        -13    1    3    3    0    0  0.20864260766E+03  0.53314482368E+03 -0.60236626140E+03  0.83103565123E+03  0.00000000000E+00 0. -1.
         22    1    1    2    0    0 -0.22957945864E+03 -0.63525057709E+03  0.13588394875E+04  0.15174632702E+04  0.00000000000E+00 0. -1.
<mgrwt>
<rscale>  0 0.23728099E+04</rscale>
<asrwt>0</asrwt>
<pdfrwt beam="1">  1        2 0.24328523E+00 0.23728099E+04</pdfrwt>
<pdfrwt beam="2">  1       -2 0.13693784E+00 0.23728099E+04</pdfrwt>
<totfact> 0.39165168E+00</totfact>
</mgrwt>
</event>
<event>
 6    1  0.9988873E-007  0.2344330E+04  0.7818608E-02  0.8460645E-01
          1   -1    0    0  501    0  0.00000000000E+00  0.00000000000E+00  0.35265997969E+04  0.35265997969E+04  0.00000000000E+00 0. -1.
         -1   -1    0    0    0  501 -0.00000000000E+00 -0.00000000000E+00 -0.38960212313E+03  0.38960212313E+03  0.00000000000E+00 0.  1.
         23    2    1    2    0    0 -0.11225267214E+04  0.29226894274E+03  0.18315958472E+04  0.21699026032E+04  0.90810709605E+02 0.  0.
         13    1    3    3    0    0 -0.27741209479E+03  0.10427719123E+03  0.51397956236E+03  0.59330109849E+03  0.00000000000E+00 0.  1.
        -13    1    3    3    0    0 -0.84511462657E+03  0.18799175151E+03  0.13176162848E+04  0.15766015047E+04  0.00000000000E+00 0. -1.
         22    1    1    2    0    0  0.11225267214E+04 -0.29226894274E+03  0.13054018266E+04  0.17462993169E+04  0.00000000000E+00 0. -1.
<mgrwt>
<rscale>  0 0.23443300E+04</rscale>
<asrwt>0</asrwt>
<pdfrwt beam="1">  1        1 0.54255379E+00 0.23443300E+04</pdfrwt>
<pdfrwt beam="2">  1       -1 0.59938791E-01 0.23443300E+04</pdfrwt>
<totfact> 0.60615420E-01</totfact>
</mgrwt>
</event>
<event>
 6    1  0.9988873E-007  0.1497297E+04  0.7818608E-02  0.8886252E-01
          2   -1    0    0  501    0  0.00000000000E+00  0.00000000000E+00  0.11199646066E+04  0.11199646066E+04  0.00000000000E+00 0. -1.
         -2   -1    0    0    0  501 -0.00000000000E+00 -0.00000000000E+00 -0.50043977122E+03  0.50043977122E+03  0.00000000000E+00 0.  1.
         23    2    1    2    0    0 -0.60424944838E+03  0.18422055448E+03 -0.11829470162E+03  0.64909995709E+03  0.91008292516E+02 0.  0.
         13    1    3    3    0    0 -0.48643917386E+03  0.18361629000E+03 -0.86639660403E+02  0.52710951668E+03  0.00000000000E+00 0.  1.
        -13    1    3    3    0    0 -0.11781027452E+03  0.60426447978E+00 -0.31655041217E+02  0.12199044041E+03  0.00000000000E+00 0. -1.
         22    1    1    2    0    0  0.60424944838E+03 -0.18422055448E+03  0.73781953697E+03  0.97130442071E+03  0.00000000000E+00 0. -1.
<mgrwt>
<rscale>  0 0.14972973E+04</rscale>
<asrwt>0</asrwt>
<pdfrwt beam="1">  1        2 0.17230225E+00 0.14972973E+04</pdfrwt>
<pdfrwt beam="2">  1       -2 0.76990734E-01 0.14972973E+04</pdfrwt>
<totfact> 0.30834810E+01</totfact>
</mgrwt>
</event>
<event>
 6    1  0.9988873E-007  0.1808083E+04  0.7818608E-02  0.8702013E-01
          1   -1    0    0  501    0  0.00000000000E+00  0.00000000000E+00  0.58034417341E+03  0.58034417341E+03  0.00000000000E+00 0. -1.
         -1   -1    0    0    0  501 -0.00000000000E+00 -0.00000000000E+00 -0.14082872017E+04  0.14082872017E+04  0.00000000000E+00 0.  1.
         23    2    1    2    0    0  0.82383753542E+02  0.75024720018E+03  0.12784643669E+03  0.77076789935E+03  0.89891596276E+02 0.  0.
         13    1    3    3    0    0  0.62888882797E+02  0.52673554412E+03  0.48084391979E+02  0.53265134354E+03  0.00000000000E+00 0. -1.
        -13    1    3    3    0    0  0.19494870745E+02  0.22351165605E+03  0.79762044709E+02  0.23811655581E+03  0.00000000000E+00 0.  1.
         22    1    1    2    0    0 -0.82383753542E+02 -0.75024720018E+03 -0.95578946495E+03  0.12178634757E+04  0.00000000000E+00 0.  1.
<mgrwt>
<rscale>  0 0.18080833E+04</rscale>
<asrwt>0</asrwt>
<pdfrwt beam="1">  1        1 0.89283720E-01 0.18080833E+04</pdfrwt>
<pdfrwt beam="2">  1       -1 0.21665957E+00 0.18080833E+04</pdfrwt>
<totfact> 0.39260582E+00</totfact>
</mgrwt>
</event>
<event>
 6    1  0.9988873E-007  0.3554807E+04  0.7818608E-02  0.8100923E-01
          1   -1    0    0  501    0  0.00000000000E+00  0.00000000000E+00  0.25053788225E+04  0.25053788225E+04  0.00000000000E+00 0. -1.
         -1   -1    0    0    0  501 -0.00000000000E+00 -0.00000000000E+00 -0.12609520438E+04  0.12609520438E+04  0.00000000000E+00 0.  1.
         23    2    1    2    0    0 -0.17305084782E+04  0.19896814917E+02  0.10475514978E+04  0.20245457612E+04  0.79786729526E+02 0.  0.
         11    1    3    3    0    0 -0.24318074296E+03  0.29277861906E+02  0.15798268045E+03  0.29146628324E+03  0.00000000000E+00 0. -1.
        -11    1    3    3    0    0 -0.14873277352E+04 -0.93810469895E+01  0.88956881740E+03  0.17330794779E+04  0.00000000000E+00 0.  1.
         22    1    1    2    0    0  0.17305084782E+04 -0.19896814917E+02  0.19687528077E+03  0.17417851051E+04  0.00000000000E+00 0.  1.
<mgrwt>
<rscale>  0 0.35548066E+04</rscale>
<asrwt>0</asrwt>
<pdfrwt beam="1">  1        1 0.38544289E+00 0.35548066E+04</pdfrwt>
<pdfrwt beam="2">  1       -1 0.19399262E+00 0.35548066E+04</pdfrwt>
<totfact> 0.18069226E-01</totfact>
</mgrwt>
</event>
<event>
 6    1  0.9988873E-007  0.2572115E+04  0.7818608E-02  0.8377735E-01
          1   -1    0    0  501    0  0.00000000000E+00  0.00000000000E+00  0.29213964429E+04  0.29213964429E+04  0.00000000000E+00 0. -1.
         -1   -1    0    0    0  501 -0.00000000000E+00 -0.00000000000E+00 -0.56614841427E+03  0.56614841427E+03  0.00000000000E+00 0.  1.
         23    2    1    2    0    0  0.40954708998E+03  0.11854913736E+04  0.15544752822E+04  0.19994737543E+04  0.91560226797E+02 0.  0.
         13    1    3    3    0    0  0.11083375279E+03  0.27023639404E+03  0.30794710279E+03  0.42443285398E+03  0.00000000000E+00 0. -1.
        -13    1    3    3    0    0  0.29871333719E+03  0.91525497960E+03  0.12465281795E+04  0.15750409003E+04  0.00000000000E+00 0.  1.
         22    1    1    2    0    0 -0.40954708998E+03 -0.11854913736E+04  0.80077274640E+03  0.14880711029E+04  0.00000000000E+00 0.  1.
<mgrwt>
<rscale>  0 0.25721151E+04</rscale>
<asrwt>0</asrwt>
<pdfrwt beam="1">  1        1 0.44944560E+00 0.25721151E+04</pdfrwt>
<pdfrwt beam="2">  1       -1 0.87099758E-01 0.25721151E+04</pdfrwt>
<totfact> 0.78119772E-01</totfact>
</mgrwt>
</event>
<event>
 6    1  0.9988873E-007  0.7833497E+03  0.7818608E-02  0.9584435E-01
          1   -1    0    0  501    0  0.00000000000E+00  0.00000000000E+00  0.31697141866E+03  0.31697141866E+03  0.00000000000E+00 0. -1.
         -1   -1    0    0    0  501 -0.00000000000E+00 -0.00000000000E+00 -0.48398434858E+03  0.48398434858E+03  0.00000000000E+00 0.  1.
         23    2    1    2    0    0 -0.31902992763E+03 -0.11663838988E+03  0.10403035266E+03  0.36638808580E+03  0.89628714305E+02 0.  0.
         13    1    3    3    0    0 -0.14928223410E+03 -0.39379488627E+02  0.91496974529E+02  0.17946483190E+03  0.00000000000E+00 0. -1.
        -13    1    3    3    0    0 -0.16974769352E+03 -0.77258901255E+02  0.12533378130E+02  0.18692325390E+03  0.00000000000E+00 0.  1.
         22    1    1    2    0    0  0.31902992763E+03  0.11663838988E+03 -0.27104328258E+03  0.43456768143E+03  0.00000000000E+00 0.  1.
<mgrwt>
<rscale>  0 0.78334974E+03</rscale>
<asrwt>0</asrwt>
<pdfrwt beam="1">  1        1 0.48764834E-01 0.78334974E+03</pdfrwt>
<pdfrwt beam="2">  1       -1 0.74459130E-01 0.78334974E+03</pdfrwt>
<totfact> 0.15001297E+02</totfact>
</mgrwt>
</event>
<event>
 6    1  0.9988873E-007  0.3208909E+04  0.7818608E-02  0.8186468E-01
         -2   -1    0    0    0  501 -0.00000000000E+00  0.00000000000E+00  0.78221937456E+03  0.78221937456E+03  0.00000000000E+00 0.  1.
          2   -1    0    0  501    0  0.00000000000E+00 -0.00000000000E+00 -0.32909881626E+04  0.32909881626E+04  0.00000000000E+00 0. -1.
         23    2    1    2    0    0  0.98294223903E+03 -0.88701045623E+03 -0.24027903686E+04  0.27449777302E+04  0.92402321552E+02 0.  0.
         13    1    3    3    0    0  0.53863194251E+03 -0.51637875790E+03 -0.12702279217E+04  0.14731769629E+04  0.00000000000E+00 0.  1.
        -13    1    3    3    0    0  0.44431029651E+03 -0.37063169834E+03 -0.11325624469E+04  0.12718007673E+04  0.00000000000E+00 0. -1.
         22    1    1    2    0    0 -0.98294223903E+03  0.88701045623E+03 -0.10597841942E+03  0.13282298070E+04  0.00000000000E+00 0.  1.
<mgrwt>
<rscale>  0 0.32089093E+04</rscale>
<asrwt>0</asrwt>
<pdfrwt beam="1">  1        2 0.50630587E+00 0.32089093E+04</pdfrwt>
<pdfrwt beam="2">  1       -2 0.12034144E+00 0.32089093E+04</pdfrwt>
<totfact> 0.50053134E-01</totfact>
</mgrwt>
</event>
<event>
 6    1  0.9988873E-007  0.1197841E+04  0.7818608E-02  0.9114748E-01
          1   -1    0    0  501    0  0.00000000000E+00  0.00000000000E+00  0.12032700558E+04  0.12032700558E+04  0.00000000000E+00 0. -1.
         -1   -1    0    0    0  501 -0.00000000000E+00 -0.00000000000E+00 -0.29810910407E+03  0.29810910407E+03  0.00000000000E+00 0.  1.
         23    2    1    2    0    0  0.18797306980E+03 -0.43863486278E+03  0.99199637835E+01  0.48688872407E+03  0.96061470599E+02 0.  0.
         11    1    3    3    0    0  0.80037766286E+02 -0.23159072715E+03  0.49738317899E+02  0.25002841679E+03  0.00000000000E+00 0. -1.
        -11    1    3    3    0    0  0.10793530352E+03 -0.20704413562E+03 -0.39818354116E+02  0.23686030728E+03  0.00000000000E+00 0.  1.
         22    1    1    2    0    0 -0.18797306980E+03  0.43863486278E+03  0.89524098796E+03  0.10144904358E+04  0.00000000000E+00 0. -1.
<mgrwt>
<rscale>  0 0.11978410E+04</rscale>
<asrwt>0</asrwt>
<pdfrwt beam="1">  1        1 0.18511847E+00 0.11978410E+04</pdfrwt>
<pdfrwt beam="2">  1       -1 0.45862940E-01 0.11978410E+04</pdfrwt>
<totfact> 0.49696917E+01</totfact>
</mgrwt>
</event>
<event>
 6    1  0.9988873E-007  0.5597318E+04  0.7818608E-02  0.7742438E-01
          2   -1    0    0  501    0  0.00000000000E+00  0.00000000000E+00  0.35878396026E+04  0.35878396026E+04  0.00000000000E+00 0. -1.
         -2   -1    0    0    0  501 -0.00000000000E+00 -0.00000000000E+00 -0.21830665991E+04  0.21830665991E+04  0.00000000000E+00 0.  1.
         23    2    1    2    0    0  0.15609301913E+04 -0.16739570445E+04 -0.95660948603E+03  0.24823255792E+04  0.90572201779E+02 0.  0.
         11    1    3    3    0    0  0.95246176592E+03 -0.98308730972E+03 -0.53294500146E+03  0.14689024640E+04  0.00000000000E+00 0. -1.
        -11    1    3    3    0    0  0.60846842539E+03 -0.69086973475E+03 -0.42366448457E+03  0.10134231153E+04  0.00000000000E+00 0.  1.
         22    1    1    2    0    0 -0.15609301913E+04  0.16739570445E+04  0.23613824895E+04  0.32885806225E+04  0.00000000000E+00 0. -1.
<mgrwt>
<rscale>  0 0.55973182E+04</rscale>
<asrwt>0</asrwt>
<pdfrwt beam="1">  1        2 0.55197532E+00 0.55973182E+04</pdfrwt>
<pdfrwt beam="2">  1       -2 0.33585640E+00 0.55973182E+04</pdfrwt>
<totfact> 0.93136498E-03</totfact>
</mgrwt>
</event>
<event>
 6    1  0.9988873E-007  0.1609075E+04  0.7818608E-02  0.8814992E-01
         -1   -1    0    0    0  501 -0.00000000000E+00  0.00000000000E+00  0.10977382391E+04  0.10977382391E+04  0.00000000000E+00 0.  1.
          1   -1    0    0  501    0  0.00000000000E+00 -0.00000000000E+00 -0.58964902099E+03  0.58964902099E+03  0.00000000000E+00 0. -1.
         23    2    1    2    0    0  0.21487461787E+03  0.66254314555E+03  0.67176030354E+03  0.97189949267E+03  0.90510758097E+02 0.  0.
         11    1    3    3    0    0  0.22255415996E+03  0.61781003665E+03  0.62094453924E+03  0.90376529935E+03  0.00000000000E+00 0. -1.
        -11    1    3    3    0    0 -0.76795420879E+01  0.44733108897E+02  0.50815764301E+02  0.68134193323E+02  0.00000000000E+00 0.  1.
         22    1    1    2    0    0 -0.21487461787E+03 -0.66254314555E+03 -0.16367108543E+03  0.71548776742E+03  0.00000000000E+00 0. -1.
<mgrwt>
<rscale>  0 0.16090746E+04</rscale>
<asrwt>0</asrwt>
<pdfrwt beam="1">  1        1 0.90715234E-01 0.16090746E+04</pdfrwt>
<pdfrwt beam="2">  1       -1 0.16888281E+00 0.16090746E+04</pdfrwt>
<totfact> 0.84439828E+00</totfact>
</mgrwt>
</event>
<event>
 6    1  0.9988873E-007  0.4269684E+04  0.7818608E-02  0.7952248E-01
         -2   -1    0    0    0  501 -0.00000000000E+00  0.00000000000E+00  0.11248665471E+04  0.11248665471E+04  0.00000000000E+00 0.  1.
          2   -1    0    0  501    0  0.00000000000E+00 -0.00000000000E+00 -0.40516364806E+04  0.40516364806E+04  0.00000000000E+00 0. -1.
         23    2    1    2    0    0 -0.89390475210E+03 -0.25357438049E+03 -0.37929826033E+04  0.39061920179E+04  0.90848111687E+02 0.  0.
         13    1    3    3    0    0 -0.20705280448E+03 -0.19888269437E+02 -0.82369499579E+03  0.84955273715E+03  0.00000000000E+00 0. -1.
        -13    1    3    3    0    0 -0.68685194762E+03 -0.23368611106E+03 -0.29692876075E+04  0.30566392808E+04  0.00000000000E+00 0.  1.
         22    1    1    2    0    0  0.89390475210E+03  0.25357438049E+03  0.86621266979E+03  0.12703110098E+04  0.00000000000E+00 0.  1.
<mgrwt>
<rscale>  0 0.42696840E+04</rscale>
<asrwt>0</asrwt>
<pdfrwt beam="1">  1        2 0.62332868E+00 0.42696840E+04</pdfrwt>
<pdfrwt beam="2">  1       -2 0.17305639E+00 0.42696840E+04</pdfrwt>
<totfact> 0.48383063E-02</totfact>
</mgrwt>
</event>
<event>
 6    1  0.9988873E-007  0.1615383E+04  0.7818608E-02  0.8811153E-01
         -1   -1    0    0    0  501 -0.00000000000E+00  0.00000000000E+00  0.84111209703E+03  0.84111209703E+03  0.00000000000E+00 0.  1.
          1   -1    0    0  501    0  0.00000000000E+00 -0.00000000000E+00 -0.77559836902E+03  0.77559836902E+03  0.00000000000E+00 0. -1.
         23    2    1    2    0    0 -0.31122541326E+03 -0.46224237821E+03 -0.54867230135E+03  0.78740126392E+03  0.91816023036E+02 0.  0.
         13    1    3    3    0    0 -0.63818203847E+02 -0.88327812527E+02 -0.16255865350E+03  0.19570355499E+03  0.00000000000E+00 0. -1.
        -13    1    3    3    0    0 -0.24740720941E+03 -0.37391456568E+03 -0.38611364785E+03  0.59169770893E+03  0.00000000000E+00 0.  1.
         22    1    1    2    0    0  0.31122541326E+03  0.46224237821E+03  0.61418602937E+03  0.82930920213E+03  0.00000000000E+00 0.  1.
<mgrwt>
<rscale>  0 0.16153825E+04</rscale>
<asrwt>0</asrwt>
<pdfrwt beam="1">  1        1 0.11932283E+00 0.16153825E+04</pdfrwt>
<pdfrwt beam="2">  1       -1 0.12940186E+00 0.16153825E+04</pdfrwt>
<totfact> 0.11425526E+01</totfact>
</mgrwt>
</event>
<event>
 6    1  0.9988873E-007  0.1223354E+04  0.7818608E-02  0.9092657E-01
          1   -1    0    0  501    0  0.00000000000E+00  0.00000000000E+00  0.97260455316E+03  0.97260455316E+03  0.00000000000E+00 0. -1.
         -1   -1    0    0    0  501 -0.00000000000E+00 -0.00000000000E+00 -0.38468757179E+03  0.38468757179E+03  0.00000000000E+00 0.  1.
         23    2    1    2    0    0  0.57121332202E+03  0.13331932402E+03  0.47422539282E+03  0.75981034388E+03  0.91451266038E+02 0.  0.
         13    1    3    3    0    0  0.28970436520E+03  0.67863953414E+02  0.29899544467E+03  0.42182035432E+03  0.00000000000E+00 0.  1.
        -13    1    3    3    0    0  0.28150895682E+03  0.65455370603E+02  0.17522994816E+03  0.33798998956E+03  0.00000000000E+00 0. -1.
         22    1    1    2    0    0 -0.57121332202E+03 -0.13331932402E+03  0.11369158855E+03  0.59748178107E+03  0.00000000000E+00 0.  1.
<mgrwt>
<rscale>  0 0.12233542E+04</rscale>
<asrwt>0</asrwt>
<pdfrwt beam="1">  1        1 0.14963147E+00 0.12233542E+04</pdfrwt>
<pdfrwt beam="2">  1       -1 0.59182704E-01 0.12233542E+04</pdfrwt>
<totfact> 0.45470780E+01</totfact>
</mgrwt>
</event>
<event>
 6    1  0.9988873E-007  0.1023741E+04  0.7818608E-02  0.9282883E-01
          2   -1    0    0  501    0  0.00000000000E+00  0.00000000000E+00  0.52346500878E+03  0.52346500878E+03  0.00000000000E+00 0. -1.
         -2   -1    0    0    0  501 -0.00000000000E+00 -0.00000000000E+00 -0.50053290347E+03  0.50053290347E+03  0.00000000000E+00 0.  1.
         23    2    1    2    0    0 -0.68524252975E+02 -0.50237293989E+03 -0.19485591762E+02  0.51520187747E+03  0.89326044808E+02 0.  0.
         11    1    3    3    0    0 -0.80312651025E+02 -0.44766484366E+03  0.31784051016E+01  0.45482308255E+03  0.00000000000E+00 0.  1.
        -11    1    3    3    0    0  0.11788398050E+02 -0.54708096237E+02 -0.22663996863E+02  0.60378794922E+02  0.00000000000E+00 0. -1.
         22    1    1    2    0    0  0.68524252975E+02  0.50237293989E+03  0.42417697077E+02  0.50879603478E+03  0.00000000000E+00 0. -1.
<mgrwt>
<rscale>  0 0.10237411E+04</rscale>
<asrwt>0</asrwt>
<pdfrwt beam="1">  1        2 0.80533078E-01 0.10237411E+04</pdfrwt>
<pdfrwt beam="2">  1       -2 0.77005062E-01 0.10237411E+04</pdfrwt>
<totfact> 0.87692400E+01</totfact>
</mgrwt>
</event>
<event>
 6    1  0.9988873E-007  0.1957884E+04  0.7818608E-02  0.8626568E-01
         -2   -1    0    0    0  501 -0.00000000000E+00  0.00000000000E+00  0.28578994549E+04  0.28578994549E+04  0.00000000000E+00 0.  1.
          2   -1    0    0  501    0  0.00000000000E+00 -0.00000000000E+00 -0.33532585907E+03  0.33532585907E+03  0.00000000000E+00 0. -1.
         23    2    1    2    0    0  0.70475350669E+03 -0.11619606046E+03  0.23507862676E+04  0.24585894070E+04  0.91031679124E+02 0.  0.
         11    1    3    3    0    0  0.23032754240E+03  0.49295495286E+01  0.74337869630E+03  0.77825893079E+03  0.00000000000E+00 0.  1.
        -11    1    3    3    0    0  0.47442596428E+03 -0.12112560999E+03  0.16074075713E+04  0.16803304762E+04  0.00000000000E+00 0. -1.
         22    1    1    2    0    0 -0.70475350669E+03  0.11619606046E+03  0.17178732822E+03  0.73463590696E+03  0.00000000000E+00 0. -1.
<mgrwt>
<rscale>  0 0.19578842E+04</rscale>
<asrwt>0</asrwt>
<pdfrwt beam="1">  1        2 0.51588596E-01 0.19578842E+04</pdfrwt>
<pdfrwt beam="2">  1       -2 0.43967682E+00 0.19578842E+04</pdfrwt>
<totfact> 0.36804678E-01</totfact>
</mgrwt>
</event>
<event>
 6    1  0.9988873E-007  0.4330687E+04  0.7818608E-02  0.7940968E-01
         -1   -1    0    0    0  501 -0.00000000000E+00  0.00000000000E+00  0.20939001460E+04  0.20939001460E+04  0.00000000000E+00 0.  1.
          1   -1    0    0  501    0  0.00000000000E+00 -0.00000000000E+00 -0.22392240664E+04  0.22392240664E+04  0.00000000000E+00 0. -1.
         23    2    1    2    0    0 -0.44727521414E+03 -0.28828532677E+03 -0.21720010468E+04  0.22377522354E+04  0.82358805322E+02 0.  0.
         13    1    3    3    0    0 -0.13693325480E+03 -0.54377639383E+02 -0.50512686644E+03  0.52617563146E+03  0.00000000000E+00 0.  1.
        -13    1    3    3    0    0 -0.31034195933E+03 -0.23390768739E+03 -0.16668741804E+04  0.17115766040E+04  0.00000000000E+00 0. -1.
         22    1    1    2    0    0  0.44727521414E+03  0.28828532677E+03  0.20266771265E+04  0.20953719770E+04  0.00000000000E+00 0.  1.
<mgrwt>
<rscale>  0 0.43306866E+04</rscale>
<asrwt>0</asrwt>
<pdfrwt beam="1">  1        1 0.34449601E+00 0.43306866E+04</pdfrwt>
<pdfrwt beam="2">  1       -1 0.32213848E+00 0.43306866E+04</pdfrwt>
<totfact> 0.36982467E-02</totfact>
</mgrwt>
</event>
<event>
 6    1  0.9988873E-007  0.3546287E+04  0.7818608E-02  0.8102907E-01
         -2   -1    0    0    0  501 -0.00000000000E+00  0.00000000000E+00  0.16052280632E+04  0.16052280632E+04  0.00000000000E+00 0.  1.
          2   -1    0    0  501    0  0.00000000000E+00 -0.00000000000E+00 -0.19586236695E+04  0.19586236695E+04  0.00000000000E+00 0. -1.
         23    2    1    2    0    0  0.16629524851E+04 -0.41023531294E+03 -0.63319946676E+03  0.18283419575E+04  0.90491817473E+02 0.  0.
         13    1    3    3    0    0  0.49298561416E+03 -0.84396882255E+02 -0.16385348859E+03  0.52631322920E+03  0.00000000000E+00 0.  1.
        -13    1    3    3    0    0  0.11699668709E+04 -0.32583843069E+03 -0.46934597817E+03  0.13020287283E+04  0.00000000000E+00 0. -1.
         22    1    1    2    0    0 -0.16629524851E+04  0.41023531294E+03  0.27980386049E+03  0.17355097753E+04  0.00000000000E+00 0.  1.
<mgrwt>
<rscale>  0 0.35462869E+04</rscale>
<asrwt>0</asrwt>
<pdfrwt beam="1">  1        2 0.30132672E+00 0.35462869E+04</pdfrwt>
<pdfrwt beam="2">  1       -2 0.24695816E+00 0.35462869E+04</pdfrwt>
<totfact> 0.38696770E-01</totfact>
</mgrwt>
</event>
<event>
 6    1  0.9988873E-007  0.3247724E+04  0.7818608E-02  0.8176326E-01
          2   -1    0    0  501    0  0.00000000000E+00  0.00000000000E+00  0.19317997929E+04  0.19317997929E+04  0.00000000000E+00 0. -1.
         -2   -1    0    0    0  501 -0.00000000000E+00 -0.00000000000E+00 -0.13650108511E+04  0.13650108511E+04  0.00000000000E+00 0.  1.
         23    2    1    2    0    0  0.51405431096E+03  0.12161375815E+04 -0.67372246004E+03  0.14851509106E+04  0.92351622226E+02 0.  0.
         13    1    3    3    0    0  0.12623155617E+03  0.40882155568E+03 -0.22332946343E+03  0.48264429905E+03  0.00000000000E+00 0. -1.
        -13    1    3    3    0    0  0.38782275479E+03  0.80731602585E+03 -0.45039299661E+03  0.10025066115E+04  0.00000000000E+00 0.  1.
         22    1    1    2    0    0 -0.51405431096E+03 -0.12161375815E+04  0.12405114018E+04  0.18116597335E+04  0.00000000000E+00 0. -1.
<mgrwt>
<rscale>  0 0.32477239E+04</rscale>
<asrwt>0</asrwt>
<pdfrwt beam="1">  1        2 0.29719997E+00 0.32477239E+04</pdfrwt>
<pdfrwt beam="2">  1       -2 0.21000167E+00 0.32477239E+04</pdfrwt>
<totfact> 0.70030388E-01</totfact>
</mgrwt>
</event>
<event>
 6    1  0.9988873E-007  0.2431532E+04  0.7818608E-02  0.8427792E-01
         -2   -1    0    0    0  501 -0.00000000000E+00  0.00000000000E+00  0.71471930006E+03  0.71471930006E+03  0.00000000000E+00 0.  1.
          2   -1    0    0  501    0  0.00000000000E+00 -0.00000000000E+00 -0.20680669949E+04  0.20680669949E+04  0.00000000000E+00 0. -1.
         23    2    1    2    0    0  0.13878193909E+02  0.82136298655E+03  0.34521506347E+03  0.89600458955E+03  0.93920309312E+02 0.  0.
         13    1    3    3    0    0 -0.34817722538E+02  0.50703846367E+03  0.22781486066E+03  0.55695591224E+03  0.00000000000E+00 0. -1.
        -13    1    3    3    0    0  0.48695916447E+02  0.31432452289E+03  0.11740020282E+03  0.33904867731E+03  0.00000000000E+00 0.  1.
         22    1    1    2    0    0 -0.13878193909E+02 -0.82136298655E+03 -0.16985627583E+04  0.18867817054E+04  0.00000000000E+00 0. -1.
<mgrwt>
<rscale>  0 0.24315324E+04</rscale>
<asrwt>0</asrwt>
<pdfrwt beam="1">  1        2 0.31816416E+00 0.24315324E+04</pdfrwt>
<pdfrwt beam="2">  1       -2 0.10995681E+00 0.24315324E+04</pdfrwt>
<totfact> 0.36109886E+00</totfact>
</mgrwt>
</event>
<event>
 6    1  0.9988873E-007  0.1788118E+04  0.7818608E-02  0.8712644E-01
          2   -1    0    0  501    0  0.00000000000E+00  0.00000000000E+00  0.19351794903E+04  0.19351794903E+04  0.00000000000E+00 0. -1.
         -2   -1    0    0    0  501 -0.00000000000E+00 -0.00000000000E+00 -0.41305824838E+03  0.41305824838E+03  0.00000000000E+00 0.  1.
         23    2    1    2    0    0 -0.10989136568E+02  0.51603286973E+03  0.17180280963E+04  0.17961596832E+04  0.90323773093E+02 0.  0.
         13    1    3    3    0    0  0.22241181559E+02  0.37362678268E+03  0.13233459082E+04  0.13752585342E+04  0.00000000000E+00 0.  1.
        -13    1    3    3    0    0 -0.33230318128E+02  0.14240608705E+03  0.39468218808E+03  0.42090114904E+03  0.00000000000E+00 0. -1.
         22    1    1    2    0    0  0.10989136568E+02 -0.51603286973E+03 -0.19590685440E+03  0.55207805550E+03  0.00000000000E+00 0.  1.
<mgrwt>
<rscale>  0 0.17881184E+04</rscale>
<asrwt>0</asrwt>
<pdfrwt beam="1">  1        2 0.29771992E+00 0.17881184E+04</pdfrwt>
<pdfrwt beam="2">  1       -2 0.63547424E-01 0.17881184E+04</pdfrwt>
<totfact> 0.15720082E+01</totfact>
</mgrwt>
</event>
<event>
 6    1  0.9988873E-007  0.1560689E+04  0.7818608E-02  0.8845069E-01
         -1   -1    0    0    0  501 -0.00000000000E+00  0.00000000000E+00  0.67773630205E+03  0.67773630205E+03  0.00000000000E+00 0.  1.
          1   -1    0    0  501    0  0.00000000000E+00 -0.00000000000E+00 -0.89848758679E+03  0.89848758679E+03  0.00000000000E+00 0. -1.
         23    2    1    2    0    0 -0.18373345349E+03  0.10039338581E+03 -0.86626194536E+03  0.89760704052E+03  0.10701321117E+03 0.  0.
         11    1    3    3    0    0 -0.11867868652E+03  0.83663226968E+02 -0.38124316978E+03  0.40795896936E+03  0.00000000000E+00 0.  1.
        -11    1    3    3    0    0 -0.65054766969E+02  0.16730158839E+02 -0.48501877558E+03  0.48964807116E+03  0.00000000000E+00 0. -1.
         22    1    1    2    0    0  0.18373345349E+03 -0.10039338581E+03  0.64551066062E+03  0.67861684832E+03  0.00000000000E+00 0.  1.
<mgrwt>
<rscale>  0 0.15606891E+04</rscale>
<asrwt>0</asrwt>
<pdfrwt beam="1">  1        1 0.13822886E+00 0.15606891E+04</pdfrwt>
<pdfrwt beam="2">  1       -1 0.10426712E+00 0.15606891E+04</pdfrwt>
<totfact> 0.15206030E+01</totfact>
</mgrwt>
</event>
<event>
 6    1  0.9988873E-007  0.3785006E+04  0.7818608E-02  0.8049380E-01
         -2   -1    0    0    0  501 -0.00000000000E+00  0.00000000000E+00  0.15512600606E+04  0.15512600606E+04  0.00000000000E+00 0.  1.
          2   -1    0    0  501    0  0.00000000000E+00 -0.00000000000E+00 -0.23088119725E+04  0.23088119725E+04  0.00000000000E+00 0. -1.
         23    2    1    2    0    0  0.17940436042E+04 -0.27636912477E+03 -0.92099623880E+03  0.20375226113E+04  0.91060270602E+02 0.  0.
         13    1    3    3    0    0  0.13476510738E+04 -0.22318942519E+03 -0.65190394194E+03  0.15135903295E+04  0.00000000000E+00 0.  1.
        -13    1    3    3    0    0  0.44639253042E+03 -0.53179699585E+02 -0.26909229686E+03  0.52393228178E+03  0.00000000000E+00 0. -1.
         22    1    1    2    0    0 -0.17940436042E+04  0.27636912477E+03  0.16344432690E+03  0.18225494218E+04  0.00000000000E+00 0.  1.
<mgrwt>
<rscale>  0 0.37850061E+04</rscale>
<asrwt>0</asrwt>
<pdfrwt beam="1">  1        2 0.35520184E+00 0.37850061E+04</pdfrwt>
<pdfrwt beam="2">  1       -2 0.23865540E+00 0.37850061E+04</pdfrwt>
<totfact> 0.27169123E-01</totfact>
</mgrwt>
</event>
<event>
 6    1  0.9988873E-007  0.1479331E+04  0.7818608E-02  0.8898315E-01
          2   -1    0    0  501    0  0.00000000000E+00  0.00000000000E+00  0.13996500787E+04  0.13996500787E+04  0.00000000000E+00 0. -1.
         -2   -1    0    0    0  501 -0.00000000000E+00 -0.00000000000E+00 -0.39088718316E+03  0.39088718316E+03  0.00000000000E+00 0.  1.
         23    2    1    2    0    0  0.44680801185E+03  0.45620458742E+03  0.61784146808E+02  0.64837756393E+03  0.93894406542E+02 0.  0.
         13    1    3    3    0    0  0.28395631887E+03  0.29017715634E+03  0.84531725646E+02  0.41470421474E+03  0.00000000000E+00 0.  1.
        -13    1    3    3    0    0  0.16285169298E+03  0.16602743108E+03 -0.22747578839E+02  0.23367334919E+03  0.00000000000E+00 0. -1.
         22    1    1    2    0    0 -0.44680801185E+03 -0.45620458742E+03  0.94697874875E+03  0.11421596979E+04  0.00000000000E+00 0. -1.
<mgrwt>
<rscale>  0 0.14793313E+04</rscale>
<asrwt>0</asrwt>
<pdfrwt beam="1">  1        2 0.21533078E+00 0.14793313E+04</pdfrwt>
<pdfrwt beam="2">  1       -2 0.60136491E-01 0.14793313E+04</pdfrwt>
<totfact> 0.36105662E+01</totfact>
</mgrwt>
</event>
<event>
 6    1  0.9988873E-007  0.1838285E+04  0.7818608E-02  0.8686201E-01
          2   -1    0    0  501    0  0.00000000000E+00  0.00000000000E+00  0.17729523504E+04  0.17729523504E+04  0.00000000000E+00 0. -1.
         -2   -1    0    0    0  501 -0.00000000000E+00 -0.00000000000E+00 -0.47650648735E+03  0.47650648735E+03  0.00000000000E+00 0.  1.
         23    2    1    2    0    0 -0.80572948151E+03 -0.29962322650E+03  0.25974114195E+03  0.90271062298E+03  0.91907196625E+02 0.  0.
         13    1    3    3    0    0 -0.34789804462E+03 -0.14238045343E+03  0.67834613166E+02  0.38197745708E+03  0.00000000000E+00 0. -1.
        -13    1    3    3    0    0 -0.45783143688E+03 -0.15724277308E+03  0.19190652878E+03  0.52073316591E+03  0.00000000000E+00 0.  1.
         22    1    1    2    0    0  0.80572948151E+03  0.29962322650E+03  0.10367047211E+04  0.13467482148E+04  0.00000000000E+00 0.  1.
<mgrwt>
<rscale>  0 0.18382854E+04</rscale>
<asrwt>0</asrwt>
<pdfrwt beam="1">  1        2 0.27276190E+00 0.18382854E+04</pdfrwt>
<pdfrwt beam="2">  1       -2 0.73308692E-01 0.18382854E+04</pdfrwt>
<totfact> 0.14118335E+01</totfact>
</mgrwt>
</event>
<event>
 6    1  0.9988873E-007  0.5492526E+04  0.7818608E-02  0.7756718E-01
         -1   -1    0    0    0  501 -0.00000000000E+00  0.00000000000E+00  0.22715719078E+04  0.22715719078E+04  0.00000000000E+00 0.  1.
          1   -1    0    0  501    0  0.00000000000E+00 -0.00000000000E+00 -0.33201498348E+04  0.33201498348E+04  0.00000000000E+00 0. -1.
         23    2    1    2    0    0  0.32220716823E+03 -0.29120249809E+03 -0.32843466151E+04  0.33141620878E+04  0.90118266867E+02 0.  0.
         11    1    3    3    0    0  0.22851081235E+02 -0.32332375513E+02 -0.53686423836E+03  0.53832217570E+03  0.00000000000E+00 0. -1.
        -11    1    3    3    0    0  0.29935608699E+03 -0.25887012258E+03 -0.27474823768E+04  0.27758399121E+04  0.00000000000E+00 0.  1.
         22    1    1    2    0    0 -0.32220716823E+03  0.29120249809E+03  0.22357686882E+04  0.22775596548E+04  0.00000000000E+00 0.  1.
<mgrwt>
<rscale>  0 0.54925255E+04</rscale>
<asrwt>0</asrwt>
<pdfrwt beam="1">  1        1 0.51079228E+00 0.54925255E+04</pdfrwt>
<pdfrwt beam="2">  1       -1 0.34947260E+00 0.54925255E+04</pdfrwt>
<totfact> 0.37480741E-03</totfact>
</mgrwt>
</event>
<event>
 6    1  0.9988873E-007  0.1748834E+04  0.7818608E-02  0.8733993E-01
         -2   -1    0    0    0  501 -0.00000000000E+00  0.00000000000E+00  0.74459783566E+03  0.74459783566E+03  0.00000000000E+00 0.  1.
          2   -1    0    0  501    0  0.00000000000E+00 -0.00000000000E+00 -0.10268693584E+04  0.10268693584E+04  0.00000000000E+00 0. -1.
         23    2    1    2    0    0 -0.68243385875E+02 -0.85671290056E+03  0.83734949880E+01  0.86422484497E+03  0.90555582614E+02 0.  0.
         13    1    3    3    0    0 -0.75902472673E+02 -0.41534804696E+03  0.19171618827E+02  0.42266149155E+03  0.00000000000E+00 0. -1.
        -13    1    3    3    0    0  0.76590867983E+01 -0.44136485360E+03 -0.10798123839E+02  0.44156335342E+03  0.00000000000E+00 0.  1.
         22    1    1    2    0    0  0.68243385875E+02  0.85671290056E+03 -0.29064501777E+03  0.90724234913E+03  0.00000000000E+00 0. -1.
<mgrwt>
<rscale>  0 0.17488336E+04</rscale>
<asrwt>0</asrwt>
<pdfrwt beam="1">  1        2 0.15797990E+00 0.17488336E+04</pdfrwt>
<pdfrwt beam="2">  1       -2 0.11455351E+00 0.17488336E+04</pdfrwt>
<totfact> 0.13663029E+01</totfact>
</mgrwt>
</event>
<event>
 6    1  0.9988873E-007  0.5802070E+03  0.7818608E-02  0.9947343E-01
          2   -1    0    0  501    0  0.00000000000E+00  0.00000000000E+00  0.78039237005E+03  0.78039237005E+03  0.00000000000E+00 0. -1.
         -2   -1    0    0    0  501 -0.00000000000E+00 -0.00000000000E+00 -0.10784324695E+03  0.10784324695E+03  0.00000000000E+00 0.  1.
         23    2    1    2    0    0 -0.17503694234E+03 -0.21509911748E+03  0.42997220506E+03  0.51979413903E+03  0.91674905591E+02 0.  0.
         11    1    3    3    0    0 -0.12781709754E+03 -0.13025009799E+03  0.34704105751E+03  0.39209666416E+03  0.00000000000E+00 0. -1.
        -11    1    3    3    0    0 -0.47219844798E+02 -0.84849019497E+02  0.82931147549E+02  0.12769747486E+03  0.00000000000E+00 0.  1.
         22    1    1    2    0    0  0.17503694234E+03  0.21509911748E+03  0.24257691804E+03  0.36844147797E+03  0.00000000000E+00 0.  1.
<mgrwt>
<rscale>  0 0.58020702E+03</rscale>
<asrwt>0</asrwt>
<pdfrwt beam="1">  1        2 0.12006036E+00 0.58020702E+03</pdfrwt>
<pdfrwt beam="2">  1       -2 0.16591269E-01 0.58020702E+03</pdfrwt>
<totfact> 0.10555251E+03</totfact>
</mgrwt>
</event>
<event>
 6    1  0.9988873E-007  0.6738766E+03  0.7818608E-02  0.9762980E-01
          1   -1    0    0  501    0  0.00000000000E+00  0.00000000000E+00  0.64990580102E+03  0.64990580102E+03  0.00000000000E+00 0. -1.
         -1   -1    0    0    0  501 -0.00000000000E+00 -0.00000000000E+00 -0.17468285709E+03  0.17468285709E+03  0.00000000000E+00 0.  1.
         23    2    1    2    0    0  0.20259397058E+03  0.94593678855E+02 -0.53257920465E+02  0.25075566408E+03  0.10024827171E+03 0.  0.
         11    1    3    3    0    0  0.11077413971E+02 -0.50832992387E+01 -0.31480063137E+02  0.33757123790E+02  0.00000000000E+00 0. -1.
        -11    1    3    3    0    0  0.19151655661E+03  0.99676978094E+02 -0.21777857327E+02  0.21699854029E+03  0.00000000000E+00 0.  1.
         22    1    1    2    0    0 -0.20259397058E+03 -0.94593678855E+02  0.52848086440E+03  0.57383299402E+03  0.00000000000E+00 0. -1.
<mgrwt>
<rscale>  0 0.67387655E+03</rscale>
<asrwt>0</asrwt>
<pdfrwt beam="1">  1        1 0.99985507E-01 0.67387655E+03</pdfrwt>
<pdfrwt beam="2">  1       -1 0.26874286E-01 0.67387655E+03</pdfrwt>
<totfact> 0.38084492E+02</totfact>
</mgrwt>
</event>
<event>
 6    1  0.9988873E-007  0.2588472E+04  0.7818608E-02  0.8372128E-01
          2   -1    0    0  501    0  0.00000000000E+00  0.00000000000E+00  0.20385697638E+04  0.20385697638E+04  0.00000000000E+00 0. -1.
         -2   -1    0    0    0  501 -0.00000000000E+00 -0.00000000000E+00 -0.82167719248E+03  0.82167719248E+03  0.00000000000E+00 0.  1.
         23    2    1    2    0    0  0.51023325072E+03  0.54839794444E+03 -0.55428386700E+03  0.93719098953E+03  0.10009030939E+03 0.  0.
         13    1    3    3    0    0  0.33566560958E+03  0.32801294322E+03 -0.29232303129E+03  0.55291649188E+03  0.00000000000E+00 0.  1.
        -13    1    3    3    0    0  0.17456764114E+03  0.22038500123E+03 -0.26196083571E+03  0.38427449765E+03  0.00000000000E+00 0. -1.
         22    1    1    2    0    0 -0.51023325072E+03 -0.54839794444E+03  0.17711764383E+04  0.19230559668E+04  0.00000000000E+00 0. -1.
<mgrwt>
<rscale>  0 0.25884716E+04</rscale>
<asrwt>0</asrwt>
<pdfrwt beam="1">  1        2 0.31362612E+00 0.25884716E+04</pdfrwt>
<pdfrwt beam="2">  1       -2 0.12641188E+00 0.25884716E+04</pdfrwt>
<totfact> 0.26243076E+00</totfact>
</mgrwt>
</event>
<event>
 6    1  0.9988873E-007  0.4226824E+04  0.7818608E-02  0.7960289E-01
          2   -1    0    0  501    0  0.00000000000E+00  0.00000000000E+00  0.18817987343E+04  0.18817987343E+04  0.00000000000E+00 0. -1.
         -2   -1    0    0    0  501 -0.00000000000E+00 -0.00000000000E+00 -0.23735318525E+04  0.23735318525E+04  0.00000000000E+00 0.  1.
         23    2    1    2    0    0 -0.64213018907E+03  0.73643414922E+03 -0.21314945329E+04  0.23465393638E+04  0.91168013396E+02 0.  0.
         13    1    3    3    0    0 -0.12790845883E+03  0.13481949528E+03 -0.49446412566E+03  0.52823445714E+03  0.00000000000E+00 0.  1.
        -13    1    3    3    0    0 -0.51422173025E+03  0.60161465393E+03 -0.16370304072E+04  0.18183049067E+04  0.00000000000E+00 0. -1.
         22    1    1    2    0    0  0.64213018907E+03 -0.73643414922E+03  0.16397614146E+04  0.19087912229E+04  0.00000000000E+00 0. -1.
<mgrwt>
<rscale>  0 0.42268235E+04</rscale>
<asrwt>0</asrwt>
<pdfrwt beam="1">  1        2 0.28950750E+00 0.42268235E+04</pdfrwt>
<pdfrwt beam="2">  1       -2 0.36515875E+00 0.42268235E+04</pdfrwt>
<totfact> 0.75042792E-02</totfact>
</mgrwt>
</event>
<event>
 6    1  0.9988873E-007  0.1128206E+04  0.7818608E-02  0.9178129E-01
          1   -1    0    0  501    0  0.00000000000E+00  0.00000000000E+00  0.15715920565E+04  0.15715920565E+04  0.00000000000E+00 0. -1.
         -1   -1    0    0    0  501 -0.00000000000E+00 -0.00000000000E+00 -0.20247745155E+03  0.20247745155E+03  0.00000000000E+00 0.  1.
         23    2    1    2    0    0 -0.21391418407E+03  0.37025740999E+03  0.11907348827E+03  0.45291371815E+03  0.90013958244E+02 0.  0.
         11    1    3    3    0    0 -0.11443235381E+03  0.27673195159E+03  0.95754350855E+02  0.31439502594E+03  0.00000000000E+00 0.  1.
        -11    1    3    3    0    0 -0.99481830259E+02  0.93525458403E+02  0.23319137413E+02  0.13851869221E+03  0.00000000000E+00 0. -1.
         22    1    1    2    0    0  0.21391418407E+03 -0.37025740999E+03  0.12500411167E+04  0.13211557899E+04  0.00000000000E+00 0. -1.
<mgrwt>
<rscale>  0 0.11282056E+04</rscale>
<asrwt>0</asrwt>
<pdfrwt beam="1">  1        1 0.24178339E+00 0.11282056E+04</pdfrwt>
<pdfrwt beam="2">  1       -1 0.31150378E-01 0.11282056E+04</pdfrwt>
<totfact> 0.55438540E+01</totfact>
</mgrwt>
</event>
<event>
 6    1  0.9988873E-007  0.2282363E+04  0.7818608E-02  0.8484908E-01
         -1   -1    0    0    0  501 -0.00000000000E+00  0.00000000000E+00  0.19234477799E+04  0.19234477799E+04  0.00000000000E+00 0.  1.
          1   -1    0    0  501    0  0.00000000000E+00 -0.00000000000E+00 -0.67706321380E+03  0.67706321380E+03  0.00000000000E+00 0. -1.
         23    2    1    2    0    0 -0.14942884498E+03 -0.99191006454E+03  0.12399563355E+04  0.15973879315E+04  0.89117528025E+02 0.  0.
         13    1    3    3    0    0 -0.12305286369E+03 -0.89726496593E+03  0.10778463482E+04  0.14078278221E+04  0.00000000000E+00 0. -1.
        -13    1    3    3    0    0 -0.26375981287E+02 -0.94645098616E+02  0.16210998735E+03  0.18956010941E+03  0.00000000000E+00 0.  1.
         22    1    1    2    0    0  0.14942884498E+03  0.99191006454E+03  0.64282306117E+01  0.10031230622E+04  0.00000000000E+00 0. -1.
<mgrwt>
<rscale>  0 0.22823635E+04</rscale>
<asrwt>0</asrwt>
<pdfrwt beam="1">  1        1 0.10416357E+00 0.22823635E+04</pdfrwt>
<pdfrwt beam="2">  1       -1 0.29591504E+00 0.22823635E+04</pdfrwt>
<totfact> 0.91073026E-01</totfact>
</mgrwt>
</event>
<event>
 6    1  0.9988873E-007  0.4515688E+04  0.7818608E-02  0.7907896E-01
          2   -1    0    0  501    0  0.00000000000E+00  0.00000000000E+00  0.21585927083E+04  0.21585927083E+04  0.00000000000E+00 0. -1.
         -2   -1    0    0    0  501 -0.00000000000E+00 -0.00000000000E+00 -0.23616583937E+04  0.23616583937E+04  0.00000000000E+00 0.  1.
         23    2    1    2    0    0  0.22268496148E+04  0.13160430425E+03 -0.44471746766E+03  0.22764653538E+04  0.91334446558E+02 0.  0.
         11    1    3    3    0    0  0.15991559861E+04  0.70544283722E+02 -0.28480596248E+03  0.16258507927E+04  0.00000000000E+00 0.  1.
        -11    1    3    3    0    0  0.62769362869E+03  0.61060020525E+02 -0.15991150518E+03  0.65061456109E+03  0.00000000000E+00 0. -1.
         22    1    1    2    0    0 -0.22268496148E+04 -0.13160430425E+03  0.24165178219E+03  0.22437857482E+04  0.00000000000E+00 0.  1.
<mgrwt>
<rscale>  0 0.45156876E+04</rscale>
<asrwt>0</asrwt>
<pdfrwt beam="1">  1        2 0.33209119E+00 0.45156876E+04</pdfrwt>
<pdfrwt beam="2">  1       -2 0.36333206E+00 0.45156876E+04</pdfrwt>
<totfact> 0.52798798E-02</totfact>
</mgrwt>
</event>
<event>
 6    1  0.9988873E-007  0.2226725E+04  0.7818608E-02  0.8507386E-01
         -1   -1    0    0    0  501 -0.00000000000E+00  0.00000000000E+00  0.15804342312E+04  0.15804342312E+04  0.00000000000E+00 0.  1.
          1   -1    0    0  501    0  0.00000000000E+00 -0.00000000000E+00 -0.78432628570E+03  0.78432628570E+03  0.00000000000E+00 0. -1.
         23    2    1    2    0    0 -0.10309869540E+04  0.25409292572E+03  0.74762242414E+03  0.13018173575E+04  0.91059481059E+02 0.  0.
         13    1    3    3    0    0 -0.79234888240E+03  0.19406626896E+03  0.61988538281E+03  0.10245664234E+04  0.00000000000E+00 0. -1.
        -13    1    3    3    0    0 -0.23863807160E+03  0.60026656753E+02  0.12773704133E+03  0.27725093411E+03  0.00000000000E+00 0.  1.
         22    1    1    2    0    0  0.10309869540E+04 -0.25409292572E+03  0.48485521362E+02  0.10629431594E+04  0.00000000000E+00 0. -1.
<mgrwt>
<rscale>  0 0.22267250E+04</rscale>
<asrwt>0</asrwt>
<pdfrwt beam="1">  1        1 0.12066558E+00 0.22267250E+04</pdfrwt>
<pdfrwt beam="2">  1       -1 0.24314373E+00 0.22267250E+04</pdfrwt>
<totfact> 0.16047394E+00</totfact>
</mgrwt>
</event>
<event>
 6    1  0.9988873E-007  0.1373947E+04  0.7818608E-02  0.8972896E-01
          2   -1    0    0  501    0  0.00000000000E+00  0.00000000000E+00  0.79300821384E+03  0.79300821384E+03  0.00000000000E+00 0. -1.
         -2   -1    0    0    0  501 -0.00000000000E+00 -0.00000000000E+00 -0.59511731695E+03  0.59511731695E+03  0.00000000000E+00 0.  1.
         23    2    1    2    0    0 -0.59438650674E+03 -0.30812867379E+03 -0.41879891404E+02  0.67697953316E+03  0.91152421844E+02 0.  0.
         13    1    3    3    0    0 -0.22202185543E+03 -0.10014525339E+03  0.26577791831E+02  0.24500847962E+03  0.00000000000E+00 0. -1.
        -13    1    3    3    0    0 -0.37236465131E+03 -0.20798342039E+03 -0.68457683235E+02  0.43197105354E+03  0.00000000000E+00 0.  1.
         22    1    1    2    0    0  0.59438650674E+03  0.30812867379E+03  0.23977078829E+03  0.71114599762E+03  0.00000000000E+00 0. -1.
<mgrwt>
<rscale>  0 0.13739475E+04</rscale>
<asrwt>0</asrwt>
<pdfrwt beam="1">  1        2 0.12200126E+00 0.13739475E+04</pdfrwt>
<pdfrwt beam="2">  1       -2 0.91556510E-01 0.13739475E+04</pdfrwt>
<totfact> 0.34528542E+01</totfact>
</mgrwt>
</event>
<event>
 6    1  0.9988873E-007  0.2716068E+04  0.7818608E-02  0.8329810E-01
          1   -1    0    0  501    0  0.00000000000E+00  0.00000000000E+00  0.17373976538E+04  0.17373976538E+04  0.00000000000E+00 0. -1.
         -1   -1    0    0    0  501 -0.00000000000E+00 -0.00000000000E+00 -0.10615051433E+04  0.10615051433E+04  0.00000000000E+00 0.  1.
         23    2    1    2    0    0 -0.18737920381E+02 -0.79182169136E+03 -0.79652882332E+03  0.11269705961E+04  0.90949752277E+02 0.  0.
         11    1    3    3    0    0 -0.32922988977E+02 -0.63962499200E+03 -0.59650032075E+03  0.87522379210E+03  0.00000000000E+00 0. -1.
        -11    1    3    3    0    0  0.14185068596E+02 -0.15219669936E+03 -0.20002850256E+03  0.25174680396E+03  0.00000000000E+00 0.  1.
         22    1    1    2    0    0  0.18737920381E+02  0.79182169136E+03  0.14724213338E+04  0.16719322011E+04  0.00000000000E+00 0. -1.
<mgrwt>
<rscale>  0 0.27160681E+04</rscale>
<asrwt>0</asrwt>
<pdfrwt beam="1">  1        1 0.26729195E+00 0.27160681E+04</pdfrwt>
<pdfrwt beam="2">  1       -1 0.16330848E+00 0.27160681E+04</pdfrwt>
<totfact> 0.10812281E+00</totfact>
</mgrwt>
</event>
<event>
 6    1  0.9988873E-007  0.3389935E+04  0.7818608E-02  0.8140381E-01
          2   -1    0    0  501    0  0.00000000000E+00  0.00000000000E+00  0.27547944502E+04  0.27547944502E+04  0.00000000000E+00 0. -1.
         -2   -1    0    0    0  501 -0.00000000000E+00 -0.00000000000E+00 -0.10428783353E+04  0.10428783353E+04  0.00000000000E+00 0.  1.
         23    2    1    2    0    0 -0.32444963059E+03 -0.99232433335E+03  0.23505967285E+04  0.25737904090E+04  0.95482689770E+02 0.  0.
         11    1    3    3    0    0 -0.19425982357E+03 -0.73113284096E+03  0.16865858627E+04  0.18484761244E+04  0.00000000000E+00 0.  1.
        -11    1    3    3    0    0 -0.13018980702E+03 -0.26119149238E+03  0.66401086577E+03  0.72531428457E+03  0.00000000000E+00 0. -1.
         22    1    1    2    0    0  0.32444963059E+03  0.99232433335E+03 -0.63868061357E+03  0.12238823765E+04  0.00000000000E+00 0.  1.
<mgrwt>
<rscale>  0 0.33899354E+04</rscale>
<asrwt>0</asrwt>
<pdfrwt beam="1">  1        2 0.42381453E+00 0.33899354E+04</pdfrwt>
<pdfrwt beam="2">  1       -2 0.16044282E+00 0.33899354E+04</pdfrwt>
<totfact> 0.51018239E-01</totfact>
</mgrwt>
</event>
<event>
 6    1  0.9988873E-007  0.2182931E+04  0.7818608E-02  0.8525566E-01
         -1   -1    0    0    0  501 -0.00000000000E+00  0.00000000000E+00  0.45412087364E+03  0.45412087364E+03  0.00000000000E+00 0.  1.
          1   -1    0    0  501    0  0.00000000000E+00 -0.00000000000E+00 -0.26233028824E+04  0.26233028824E+04  0.00000000000E+00 0. -1.
         23    2    1    2    0    0 -0.29388000339E+03 -0.46169517482E+03 -0.24146388583E+04  0.24776096550E+04  0.92416965939E+02 0.  0.
         13    1    3    3    0    0 -0.17507904840E+03 -0.32969050130E+03 -0.17713762126E+04  0.18102823499E+04  0.00000000000E+00 0.  1.
        -13    1    3    3    0    0 -0.11880095499E+03 -0.13200467352E+03 -0.64326264571E+03  0.66732730508E+03  0.00000000000E+00 0. -1.
         22    1    1    2    0    0  0.29388000339E+03  0.46169517482E+03  0.24545684954E+03  0.59981410106E+03  0.00000000000E+00 0.  1.
<mgrwt>
<rscale>  0 0.21829307E+04</rscale>
<asrwt>0</asrwt>
<pdfrwt beam="1">  1        1 0.40358505E+00 0.21829307E+04</pdfrwt>
<pdfrwt beam="2">  1       -1 0.69864752E-01 0.21829307E+04</pdfrwt>
<totfact> 0.21023240E+00</totfact>
</mgrwt>
</event>
<event>
 6    1  0.9988873E-007  0.3989400E+04  0.7818608E-02  0.8006688E-01
          2   -1    0    0  501    0  0.00000000000E+00  0.00000000000E+00  0.20951461099E+04  0.20951461099E+04  0.00000000000E+00 0. -1.
         -2   -1    0    0    0  501 -0.00000000000E+00 -0.00000000000E+00 -0.18990699194E+04  0.18990699194E+04  0.00000000000E+00 0.  1.
         23    2    1    2    0    0 -0.18278628681E+04 -0.74335868181E+03  0.38289731295E+03  0.20121547472E+04  0.92149768984E+02 0.  0.
         13    1    3    3    0    0 -0.15886042106E+04 -0.61328128080E+03  0.33950251296E+03  0.17363868301E+04  0.00000000000E+00 0.  1.
        -13    1    3    3    0    0 -0.23925865748E+03 -0.13007740101E+03  0.43394799989E+02  0.27576791709E+03  0.00000000000E+00 0. -1.
         22    1    1    2    0    0  0.18278628681E+04  0.74335868181E+03 -0.18682112236E+03  0.19820612821E+04  0.00000000000E+00 0.  1.
<mgrwt>
<rscale>  0 0.39894004E+04</rscale>
<asrwt>0</asrwt>
<pdfrwt beam="1">  1        2 0.32233017E+00 0.39894004E+04</pdfrwt>
<pdfrwt beam="2">  1       -2 0.29216460E+00 0.39894004E+04</pdfrwt>
<totfact> 0.16569934E-01</totfact>
</mgrwt>
</event>
<event>
 6    1  0.9988873E-007  0.4864998E+04  0.7818608E-02  0.7849677E-01
         -2   -1    0    0    0  501 -0.00000000000E+00  0.00000000000E+00  0.15493385533E+04  0.15493385533E+04  0.00000000000E+00 0.  1.
          2   -1    0    0  501    0  0.00000000000E+00 -0.00000000000E+00 -0.38190815114E+04  0.38190815114E+04  0.00000000000E+00 0. -1.
         23    2    1    2    0    0 -0.12161589877E+04  0.15792357580E+04 -0.26722826445E+04  0.33349337820E+04  0.87524485804E+02 0.  0.
         11    1    3    3    0    0 -0.97012292324E+03  0.12028799781E+04 -0.20890975216E+04  0.25985355843E+04  0.00000000000E+00 0.  1.
        -11    1    3    3    0    0 -0.24603606442E+03  0.37635577996E+03 -0.58318512292E+03  0.73639819778E+03  0.00000000000E+00 0. -1.
         22    1    1    2    0    0  0.12161589877E+04 -0.15792357580E+04  0.40253968643E+03  0.20334862827E+04  0.00000000000E+00 0.  1.
<mgrwt>
<rscale>  0 0.48649975E+04</rscale>
<asrwt>0</asrwt>
<pdfrwt beam="1">  1        2 0.58755100E+00 0.48649975E+04</pdfrwt>
<pdfrwt beam="2">  1       -2 0.23835978E+00 0.48649975E+04</pdfrwt>
<totfact> 0.26409813E-02</totfact>
</mgrwt>
</event>
<event>
 6    1  0.9988873E-007  0.2079093E+04  0.7818608E-02  0.8570509E-01
          2   -1    0    0  501    0  0.00000000000E+00  0.00000000000E+00  0.58754300600E+03  0.58754300600E+03  0.00000000000E+00 0. -1.
         -2   -1    0    0    0  501 -0.00000000000E+00 -0.00000000000E+00 -0.18392822234E+04  0.18392822234E+04  0.00000000000E+00 0.  1.
         23    2    1    2    0    0  0.39737571149E+03  0.10548618938E+03 -0.17390931931E+04  0.17892135217E+04  0.88346474989E+02 0.  0.
         11    1    3    3    0    0  0.29617482428E+03  0.70457349011E+02 -0.14313791452E+04  0.14633967411E+04  0.00000000000E+00 0. -1.
        -11    1    3    3    0    0  0.10120088721E+03  0.35028840370E+02 -0.30771404797E+03  0.32581678064E+03  0.00000000000E+00 0.  1.
         22    1    1    2    0    0 -0.39737571149E+03 -0.10548618938E+03  0.48735397569E+03  0.63761170774E+03  0.00000000000E+00 0. -1.
<mgrwt>
<rscale>  0 0.20790935E+04</rscale>
<asrwt>0</asrwt>
<pdfrwt beam="1">  1        2 0.90391233E-01 0.20790935E+04</pdfrwt>
<pdfrwt beam="2">  1       -2 0.28296649E+00 0.20790935E+04</pdfrwt>
<totfact> 0.18976736E+00</totfact>
</mgrwt>
</event>
<event>
 6    1  0.9988873E-007  0.2509065E+04  0.7818608E-02  0.8399763E-01
          1   -1    0    0  501    0  0.00000000000E+00  0.00000000000E+00  0.34065959891E+04  0.34065959891E+04  0.00000000000E+00 0. -1.
         -1   -1    0    0    0  501 -0.00000000000E+00 -0.00000000000E+00 -0.46200129328E+03  0.46200129328E+03  0.00000000000E+00 0.  1.
         23    2    1    2    0    0 -0.14996928521E+03 -0.88536460545E+03  0.28213330950E+04  0.29622007393E+04  0.91386626152E+02 0.  0.
         11    1    3    3    0    0 -0.85162855862E+02 -0.60902709712E+03  0.17992229630E+04  0.19014126295E+04  0.00000000000E+00 0.  1.
        -11    1    3    3    0    0 -0.64806429344E+02 -0.27633750834E+03  0.10221101320E+04  0.10607881097E+04  0.00000000000E+00 0. -1.
         22    1    1    2    0    0  0.14996928521E+03  0.88536460545E+03  0.12326160076E+03  0.90639654308E+03  0.00000000000E+00 0.  1.
<mgrwt>
<rscale>  0 0.25090650E+04</rscale>
<asrwt>0</asrwt>
<pdfrwt beam="1">  1        1 0.52409168E+00 0.25090650E+04</pdfrwt>
<pdfrwt beam="2">  1       -1 0.71077124E-01 0.25090650E+04</pdfrwt>
<totfact> 0.52513482E-01</totfact>
</mgrwt>
</event>
<event>
 6    1  0.9988873E-007  0.1810430E+04  0.7818608E-02  0.8700773E-01
         -2   -1    0    0    0  501 -0.00000000000E+00  0.00000000000E+00  0.14490988760E+04  0.14490988760E+04  0.00000000000E+00 0.  1.
          2   -1    0    0  501    0  0.00000000000E+00 -0.00000000000E+00 -0.56546450767E+03  0.56546450767E+03  0.00000000000E+00 0. -1.
         23    2    1    2    0    0 -0.22769411291E+03  0.89731371067E+02 -0.52408816941E+03  0.58572501937E+03  0.92244571609E+02 0.  0.
         13    1    3    3    0    0 -0.16162670583E+03  0.90099574280E+02 -0.30356700171E+03  0.35551940855E+03  0.00000000000E+00 0.  1.
        -13    1    3    3    0    0 -0.66067407073E+02 -0.36820321293E+00 -0.22052116770E+03  0.23020561082E+03  0.00000000000E+00 0. -1.
         22    1    1    2    0    0  0.22769411291E+03 -0.89731371067E+02  0.14077225377E+04  0.14288383642E+04  0.00000000000E+00 0.  1.
<mgrwt>
<rscale>  0 0.18104298E+04</rscale>
<asrwt>0</asrwt>
<pdfrwt beam="1">  1        2 0.86994540E-01 0.18104298E+04</pdfrwt>
<pdfrwt beam="2">  1       -2 0.22293829E+00 0.18104298E+04</pdfrwt>
<totfact> 0.47546738E+00</totfact>
</mgrwt>
</event>
<event>
 6    1  0.9988873E-007  0.2450323E+04  0.7818608E-02  0.8420900E-01
          1   -1    0    0  501    0  0.00000000000E+00  0.00000000000E+00  0.24111696337E+04  0.24111696337E+04  0.00000000000E+00 0. -1.
         -1   -1    0    0    0  501 -0.00000000000E+00 -0.00000000000E+00 -0.62252816634E+03  0.62252816634E+03  0.00000000000E+00 0.  1.
         23    2    1    2    0    0 -0.45108413832E+02  0.12222078157E+04  0.94382495514E+03  0.15472450921E+04  0.85645288230E+02 0.  0.
         11    1    3    3    0    0 -0.44514906741E+02  0.11249601582E+04  0.83771307399E+03  0.14033104179E+04  0.00000000000E+00 0. -1.
        -11    1    3    3    0    0 -0.59350709081E+00  0.97247657425E+02  0.10611188114E+03  0.14393467423E+03  0.00000000000E+00 0.  1.
         22    1    1    2    0    0  0.45108413832E+02 -0.12222078157E+04  0.84481651223E+03  0.14864527080E+04  0.00000000000E+00 0.  1.
<mgrwt>
<rscale>  0 0.24503233E+04</rscale>
<asrwt>0</asrwt>
<pdfrwt beam="1">  1        1 0.37094917E+00 0.24503233E+04</pdfrwt>
<pdfrwt beam="2">  1       -1 0.95773565E-01 0.24503233E+04</pdfrwt>
<totfact> 0.14636935E+00</totfact>
</mgrwt>
</event>
<event>
 6    1  0.9988873E-007  0.1726276E+04  0.7818608E-02  0.8746519E-01
         -2   -1    0    0    0  501 -0.00000000000E+00  0.00000000000E+00  0.68907633976E+03  0.68907633976E+03  0.00000000000E+00 0.  1.
          2   -1    0    0  501    0  0.00000000000E+00 -0.00000000000E+00 -0.10811676077E+04  0.10811676077E+04  0.00000000000E+00 0. -1.
         23    2    1    2    0    0 -0.12463734792E+03 -0.43161115506E+03 -0.94942573757E+03  0.10543917500E+04  0.92250060356E+02 0.  0.
         11    1    3    3    0    0 -0.11748862009E+03 -0.24670676329E+03 -0.54651684277E+03  0.61102247286E+03  0.00000000000E+00 0.  1.
        -11    1    3    3    0    0 -0.71487278343E+01 -0.18490439176E+03 -0.40290889480E+03  0.44336927714E+03  0.00000000000E+00 0. -1.
         22    1    1    2    0    0  0.12463734792E+03  0.43161115506E+03  0.55733446959E+03  0.71585219750E+03  0.00000000000E+00 0.  1.
<mgrwt>
<rscale>  0 0.17262758E+04</rscale>
<asrwt>0</asrwt>
<pdfrwt beam="1">  1        2 0.16633348E+00 0.17262758E+04</pdfrwt>
<pdfrwt beam="2">  1       -2 0.10601174E+00 0.17262758E+04</pdfrwt>
<totfact> 0.15268282E+01</totfact>
</mgrwt>
</event>
<event>
 6    1  0.9988873E-007  0.3166024E+04  0.7818608E-02  0.8197848E-01
          1   -1    0    0  501    0  0.00000000000E+00  0.00000000000E+00  0.26950376688E+04  0.26950376688E+04  0.00000000000E+00 0. -1.
         -1   -1    0    0    0  501 -0.00000000000E+00 -0.00000000000E+00 -0.92982989630E+03  0.92982989630E+03  0.00000000000E+00 0.  1.
         23    2    1    2    0    0  0.37459077559E+03  0.11191578641E+04  0.20891380338E+04  0.24010361273E+04  0.87431036805E+02 0.  0.
         11    1    3    3    0    0  0.28579555496E+03  0.72378394714E+03  0.13817384735E+04  0.15857942838E+04  0.00000000000E+00 0. -1.
        -11    1    3    3    0    0  0.88795220634E+02  0.39537391695E+03  0.70739956029E+03  0.81524184345E+03  0.00000000000E+00 0.  1.
         22    1    1    2    0    0 -0.37459077559E+03 -0.11191578641E+04 -0.32393026136E+03  0.12238314378E+04  0.00000000000E+00 0.  1.
<mgrwt>
<rscale>  0 0.31660237E+04</rscale>
<asrwt>0</asrwt>
<pdfrwt beam="1">  1        1 0.41462118E+00 0.31660237E+04</pdfrwt>
<pdfrwt beam="2">  1       -1 0.14305075E+00 0.31660237E+04</pdfrwt>
<totfact> 0.32859364E-01</totfact>
</mgrwt>
</event>
<event>
 6    1  0.9988873E-007  0.1249625E+04  0.7818608E-02  0.9070495E-01
          2   -1    0    0  501    0  0.00000000000E+00  0.00000000000E+00  0.13861468066E+04  0.13861468066E+04  0.00000000000E+00 0. -1.
         -2   -1    0    0    0  501 -0.00000000000E+00 -0.00000000000E+00 -0.28163749202E+03  0.28163749202E+03  0.00000000000E+00 0.  1.
         23    2    1    2    0    0  0.46895976612E+03 -0.30986491667E+03  0.90901805718E+03  0.10726739218E+04  0.91520410063E+02 0.  0.
         11    1    3    3    0    0  0.32720868655E+03 -0.19836510538E+03  0.53859926212E+03  0.66068404305E+03  0.00000000000E+00 0.  1.
        -11    1    3    3    0    0  0.14175107957E+03 -0.11149981129E+03  0.37041879506E+03  0.41198987878E+03  0.00000000000E+00 0. -1.
         22    1    1    2    0    0 -0.46895976612E+03  0.30986491667E+03  0.19549125738E+03  0.59511037677E+03  0.00000000000E+00 0.  1.
<mgrwt>
<rscale>  0 0.12496254E+04</rscale>
<asrwt>0</asrwt>
<pdfrwt beam="1">  1        2 0.21325335E+00 0.12496254E+04</pdfrwt>
<pdfrwt beam="2">  1       -2 0.43328846E-01 0.12496254E+04</pdfrwt>
<totfact> 0.73174687E+01</totfact>
</mgrwt>
</event>
<event>
 6    1  0.9988873E-007  0.2688053E+04  0.7818608E-02  0.8338892E-01
         -1   -1    0    0    0  501 -0.00000000000E+00  0.00000000000E+00  0.10231181096E+04  0.10231181096E+04  0.00000000000E+00 0.  1.
          1   -1    0    0  501    0  0.00000000000E+00 -0.00000000000E+00 -0.17655903900E+04  0.17655903900E+04  0.00000000000E+00 0. -1.
         23    2    1    2    0    0 -0.66395989562E+03  0.56019006229E+03  0.69009763810E+03  0.11133242988E+04  0.92739395044E+02 0.  0.
         11    1    3    3    0    0 -0.62391298802E+03  0.53932911070E+03  0.62824229957E+03  0.10367408998E+04  0.00000000000E+00 0. -1.
        -11    1    3    3    0    0 -0.40046907594E+02  0.20860951594E+02  0.61855338534E+02  0.76583399078E+02  0.00000000000E+00 0.  1.
         22    1    1    2    0    0  0.66395989562E+03 -0.56019006229E+03 -0.14325699185E+04  0.16753842008E+04  0.00000000000E+00 0. -1.
<mgrwt>
<rscale>  0 0.26880532E+04</rscale>
<asrwt>0</asrwt>
<pdfrwt beam="1">  1        1 0.27162929E+00 0.26880532E+04</pdfrwt>
<pdfrwt beam="2">  1       -1 0.15740279E+00 0.26880532E+04</pdfrwt>
<totfact> 0.11494426E+00</totfact>
</mgrwt>
</event>
<event>
 6    1  0.9988873E-007  0.2723095E+04  0.7818608E-02  0.8327550E-01
          2   -1    0    0  501    0  0.00000000000E+00  0.00000000000E+00  0.10981540898E+04  0.10981540898E+04  0.00000000000E+00 0. -1.
         -2   -1    0    0    0  501 -0.00000000000E+00 -0.00000000000E+00 -0.16881157664E+04  0.16881157664E+04  0.00000000000E+00 0.  1.
         23    2    1    2    0    0 -0.16715770431E+03  0.88286183277E+03  0.74915344000E+03  0.11736273015E+04  0.93720074262E+02 0.  0.
         13    1    3    3    0    0 -0.19484593638E+02  0.13928206807E+03  0.16344164190E+03  0.21562076473E+03  0.00000000000E+00 0.  1.
        -13    1    3    3    0    0 -0.14767311067E+03  0.74357976470E+03  0.58571179810E+03  0.95800653678E+03  0.00000000000E+00 0. -1.
         22    1    1    2    0    0  0.16715770431E+03 -0.88286183277E+03 -0.13391151166E+04  0.16126425547E+04  0.00000000000E+00 0.  1.
<mgrwt>
<rscale>  0 0.27230947E+04</rscale>
<asrwt>0</asrwt>
<pdfrwt beam="1">  1        2 0.16894678E+00 0.27230947E+04</pdfrwt>
<pdfrwt beam="2">  1       -2 0.25971012E+00 0.27230947E+04</pdfrwt>
<totfact> 0.10714787E+00</totfact>
</mgrwt>
</event>
<event>
 6    1  0.9988873E-007  0.1871797E+04  0.7818608E-02  0.8669024E-01
         -1   -1    0    0    0  501 -0.00000000000E+00  0.00000000000E+00  0.74190273958E+03  0.74190273958E+03  0.00000000000E+00 0.  1.
          1   -1    0    0  501    0  0.00000000000E+00 -0.00000000000E+00 -0.11806210837E+04  0.11806210837E+04  0.00000000000E+00 0. -1.
         23    2    1    2    0    0 -0.44224675974E+03  0.76814098804E+03 -0.52140898637E+03  0.10323213090E+04  0.90538279198E+02 0.  0.
         11    1    3    3    0    0 -0.13884402792E+03  0.16729420327E+03 -0.14161580912E+03  0.25946107980E+03  0.00000000000E+00 0. -1.
        -11    1    3    3    0    0 -0.30340273182E+03  0.60084678477E+03 -0.37979317726E+03  0.77286022924E+03  0.00000000000E+00 0.  1.
         22    1    1    2    0    0  0.44224675974E+03 -0.76814098804E+03  0.82690642274E+02  0.89020251422E+03  0.00000000000E+00 0.  1.
<mgrwt>
<rscale>  0 0.18717970E+04</rscale>
<asrwt>0</asrwt>
<pdfrwt beam="1">  1        1 0.18163401E+00 0.18717970E+04</pdfrwt>
<pdfrwt beam="2">  1       -1 0.11413888E+00 0.18717970E+04</pdfrwt>
<totfact> 0.72381734E+00</totfact>
</mgrwt>
</event>
<event>
 6    1  0.9988873E-007  0.5243964E+04  0.7818608E-02  0.7791937E-01
         -2   -1    0    0    0  501 -0.00000000000E+00  0.00000000000E+00  0.25831758995E+04  0.25831758995E+04  0.00000000000E+00 0.  1.
          2   -1    0    0  501    0  0.00000000000E+00 -0.00000000000E+00 -0.26613712296E+04  0.26613712296E+04  0.00000000000E+00 0. -1.
         23    2    1    2    0    0  0.12867173208E+04 -0.46425639832E+03 -0.22753247520E+04  0.26563908039E+04  0.90188187201E+02 0.  0.
         13    1    3    3    0    0  0.10688971813E+04 -0.34909022954E+03 -0.18596259948E+04  0.21731576135E+04  0.00000000000E+00 0. -1.
        -13    1    3    3    0    0  0.21782013955E+03 -0.11516616878E+03 -0.41569875719E+03  0.48323319045E+03  0.00000000000E+00 0.  1.
         22    1    1    2    0    0 -0.12867173208E+04  0.46425639832E+03  0.21971294219E+04  0.25881563252E+04  0.00000000000E+00 0.  1.
<mgrwt>
<rscale>  0 0.52439642E+04</rscale>
<asrwt>0</asrwt>
<pdfrwt beam="1">  1        2 0.40944173E+00 0.52439642E+04</pdfrwt>
<pdfrwt beam="2">  1       -2 0.39741168E+00 0.52439642E+04</pdfrwt>
<totfact> 0.15440806E-02</totfact>
</mgrwt>
</event>
<event>
 6    1  0.9988873E-007  0.3057410E+04  0.7818608E-02  0.8227525E-01
         -2   -1    0    0    0  501 -0.00000000000E+00  0.00000000000E+00  0.88442913500E+03  0.88442913500E+03  0.00000000000E+00 0.  1.
          2   -1    0    0  501    0  0.00000000000E+00 -0.00000000000E+00 -0.26423132576E+04  0.26423132576E+04  0.00000000000E+00 0. -1.
         23    2    1    2    0    0  0.13079477295E+04 -0.68766950517E+03 -0.13252186235E+04  0.19869969443E+04  0.91300850952E+02 0.  0.
         11    1    3    3    0    0  0.11079685912E+03 -0.87079511570E+02 -0.13696420222E+03  0.19651457456E+03  0.00000000000E+00 0.  1.
        -11    1    3    3    0    0  0.11971508703E+04 -0.60058999360E+03 -0.11882544212E+04  0.17904823698E+04  0.00000000000E+00 0. -1.
         22    1    1    2    0    0 -0.13079477295E+04  0.68766950517E+03 -0.43266549912E+03  0.15397454483E+04  0.00000000000E+00 0.  1.
<mgrwt>
<rscale>  0 0.30574099E+04</rscale>
<asrwt>0</asrwt>
<pdfrwt beam="1">  1        2 0.40650973E+00 0.30574099E+04</pdfrwt>
<pdfrwt beam="2">  1       -2 0.13606602E+00 0.30574099E+04</pdfrwt>
<totfact> 0.94625343E-01</totfact>
</mgrwt>
</event>
<event>
 6    1  0.9988873E-007  0.2421580E+04  0.7818608E-02  0.8431468E-01
         -2   -1    0    0    0  501 -0.00000000000E+00  0.00000000000E+00  0.78310639447E+03  0.78310639447E+03  0.00000000000E+00 0.  1.
          2   -1    0    0  501    0  0.00000000000E+00 -0.00000000000E+00 -0.18720475948E+04  0.18720475948E+04  0.00000000000E+00 0. -1.
         23    2    1    2    0    0 -0.90902027922E+03  0.75502173238E+03 -0.82432225856E+03  0.14442044161E+04  0.99214541169E+02 0.  0.
         13    1    3    3    0    0 -0.26193815276E+03  0.16394726041E+03 -0.23193730441E+03  0.38637444694E+03  0.00000000000E+00 0. -1.
        -13    1    3    3    0    0 -0.64708212645E+03  0.59107447197E+03 -0.59238495415E+03  0.10578299692E+04  0.00000000000E+00 0.  1.
         22    1    1    2    0    0  0.90902027922E+03 -0.75502173238E+03 -0.26461894178E+03  0.12109495732E+04  0.00000000000E+00 0.  1.
<mgrwt>
<rscale>  0 0.24215800E+04</rscale>
<asrwt>0</asrwt>
<pdfrwt beam="1">  1        2 0.28800732E+00 0.24215800E+04</pdfrwt>
<pdfrwt beam="2">  1       -2 0.12047791E+00 0.24215800E+04</pdfrwt>
<totfact> 0.37143596E+00</totfact>
</mgrwt>
</event>
<event>
 6    1  0.9988873E-007  0.4919007E+04  0.7818608E-02  0.7841124E-01
          1   -1    0    0  501    0  0.00000000000E+00  0.00000000000E+00  0.45973658229E+04  0.45973658229E+04  0.00000000000E+00 0. -1.
         -1   -1    0    0    0  501 -0.00000000000E+00 -0.00000000000E+00 -0.13157875986E+04  0.13157875986E+04  0.00000000000E+00 0.  1.
         23    2    1    2    0    0  0.19388140059E+04  0.79402437877E+03  0.31880603494E+04  0.38159600455E+04  0.91366369299E+02 0.  0.
         11    1    3    3    0    0  0.69403693047E+03  0.23732159619E+03  0.11084489159E+04  0.13291605622E+04  0.00000000000E+00 0.  1.
        -11    1    3    3    0    0  0.12447770754E+04  0.55670278258E+03  0.20796114335E+04  0.24867994833E+04  0.00000000000E+00 0. -1.
         22    1    1    2    0    0 -0.19388140059E+04 -0.79402437877E+03  0.93517874895E+02  0.20971933760E+04  0.00000000000E+00 0.  1.
<mgrwt>
<rscale>  0 0.49190068E+04</rscale>
<asrwt>0</asrwt>
<pdfrwt beam="1">  1        1 0.70728704E+00 0.49190068E+04</pdfrwt>
<pdfrwt beam="2">  1       -1 0.20242886E+00 0.49190068E+04</pdfrwt>
<totfact> 0.26578050E-03</totfact>
</mgrwt>
</event>
<event>
 6    1  0.9988873E-007  0.4572391E+04  0.7818608E-02  0.7898084E-01
          2   -1    0    0  501    0  0.00000000000E+00  0.00000000000E+00  0.29807273633E+04  0.29807273633E+04  0.00000000000E+00 0. -1.
         -2   -1    0    0    0  501 -0.00000000000E+00 -0.00000000000E+00 -0.17534947116E+04  0.17534947116E+04  0.00000000000E+00 0.  1.
         23    2    1    2    0    0 -0.26381620282E+03  0.21800833862E+04  0.12688741266E+04  0.25378394643E+04  0.90691993399E+02 0.  0.
         13    1    3    3    0    0 -0.84651160366E+02  0.68705625166E+03  0.35176132641E+03  0.77649735521E+03  0.00000000000E+00 0.  1.
        -13    1    3    3    0    0 -0.17916504245E+03  0.14930271346E+04  0.91711280023E+03  0.17613421091E+04  0.00000000000E+00 0. -1.
         22    1    1    2    0    0  0.26381620282E+03 -0.21800833862E+04 -0.41641474976E+02  0.21963826106E+04  0.00000000000E+00 0. -1.
<mgrwt>
<rscale>  0 0.45723909E+04</rscale>
<asrwt>0</asrwt>
<pdfrwt beam="1">  1        2 0.45857344E+00 0.45723909E+04</pdfrwt>
<pdfrwt beam="2">  1       -2 0.26976842E+00 0.45723909E+04</pdfrwt>
<totfact> 0.65541526E-02</totfact>
</mgrwt>
</event>
<event>
 6    1  0.9988873E-007  0.3302635E+04  0.7818608E-02  0.8162225E-01
          1   -1    0    0  501    0  0.00000000000E+00  0.00000000000E+00  0.24784787197E+04  0.24784787197E+04  0.00000000000E+00 0. -1.
         -1   -1    0    0    0  501 -0.00000000000E+00 -0.00000000000E+00 -0.11002110008E+04  0.11002110008E+04  0.00000000000E+00 0.  1.
         23    2    1    2    0    0  0.15165985827E+04  0.63756442107E+03  0.55298091777E+03  0.17381305782E+04  0.93543355251E+02 0.  0.
         13    1    3    3    0    0  0.93193313846E+03  0.39177454215E+03  0.38762502877E+03  0.10827002491E+04  0.00000000000E+00 0. -1.
        -13    1    3    3    0    0  0.58466544425E+03  0.24578987892E+03  0.16535588901E+03  0.65543032910E+03  0.00000000000E+00 0.  1.
         22    1    1    2    0    0 -0.15165985827E+04 -0.63756442107E+03  0.82528680116E+03  0.18405591423E+04  0.00000000000E+00 0. -1.
<mgrwt>
<rscale>  0 0.33026350E+04</rscale>
<asrwt>0</asrwt>
<pdfrwt beam="1">  1        1 0.38130442E+00 0.33026350E+04</pdfrwt>
<pdfrwt beam="2">  1       -1 0.16926323E+00 0.33026350E+04</pdfrwt>
<totfact> 0.28969165E-01</totfact>
</mgrwt>
</event>
<event>
 6    1  0.9988875E-007  0.2307994E+04  0.7818608E-02  0.8474776E-01
         -1   -1    0    0    0  501 -0.00000000000E+00  0.00000000000E+00  0.91825402098E+03  0.91825402098E+03  0.00000000000E+00 0.  1.
          1   -1    0    0  501    0  0.00000000000E+00 -0.00000000000E+00 -0.14502624437E+04  0.14502624437E+04  0.00000000000E+00 0. -1.
         23    2    1    2    0    0  0.11274777454E+04 -0.16940395234E+03 -0.94021226014E+02  0.11471497917E+04  0.84905170993E+02 0.  0.
         11    1    3    3    0    0  0.92312383673E+03 -0.10953053021E+03 -0.60310398229E+02  0.93155348699E+03  0.00000000000E+00 0.  1.
        -11    1    3    3    0    0  0.20435390869E+03 -0.59873422130E+02 -0.33710827784E+02  0.21559630466E+03  0.00000000000E+00 0. -1.
         22    1    1    2    0    0 -0.11274777454E+04  0.16940395234E+03 -0.43798719668E+03  0.12213666730E+04  0.00000000000E+00 0.  1.
<mgrwt>
<rscale>  0 0.23079942E+04</rscale>
<asrwt>0</asrwt>
<pdfrwt beam="1">  1        1 0.22311730E+00 0.23079942E+04</pdfrwt>
<pdfrwt beam="2">  1       -1 0.14126985E+00 0.23079942E+04</pdfrwt>
<totfact> 0.26195556E+00</totfact>
</mgrwt>
</event>
<event>
 6    1  0.9988873E-007  0.1720945E+04  0.7818608E-02  0.8749508E-01
         -2   -1    0    0    0  501 -0.00000000000E+00  0.00000000000E+00  0.60441527491E+03  0.60441527491E+03  0.00000000000E+00 0.  1.
          2   -1    0    0  501    0  0.00000000000E+00 -0.00000000000E+00 -0.12250074032E+04  0.12250074032E+04  0.00000000000E+00 0. -1.
         23    2    1    2    0    0 -0.81572455985E+02  0.32742152426E+03  0.52750058693E+03  0.63277076429E+03  0.91011267452E+02 0.  0.
         13    1    3    3    0    0 -0.46712581119E+02  0.27051706711E+03  0.47176417545E+03  0.54582321870E+03  0.00000000000E+00 0. -1.
        -13    1    3    3    0    0 -0.34859874867E+02  0.56904457157E+02  0.55736411477E+02  0.86947545591E+02  0.00000000000E+00 0.  1.
         22    1    1    2    0    0  0.81572455985E+02 -0.32742152426E+03 -0.11480927152E+04  0.11966519138E+04  0.00000000000E+00 0. -1.
<mgrwt>
<rscale>  0 0.17209453E+04</rscale>
<asrwt>0</asrwt>
<pdfrwt beam="1">  1        2 0.18846268E+00 0.17209453E+04</pdfrwt>
<pdfrwt beam="2">  1       -2 0.92986965E-01 0.17209453E+04</pdfrwt>
<totfact> 0.17036947E+01</totfact>
</mgrwt>
</event>
<event>
 6    1  0.9988873E-007  0.8946873E+03  0.7818608E-02  0.9432247E-01
         -1   -1    0    0    0  501 -0.00000000000E+00  0.00000000000E+00  0.76764990168E+02  0.76764990168E+02  0.00000000000E+00 0.  1.
          1   -1    0    0  501    0  0.00000000000E+00 -0.00000000000E+00 -0.26068699208E+04  0.26068699208E+04  0.00000000000E+00 0. -1.
         23    2    1    2    0    0  0.31014841637E+03 -0.10750686541E+03 -0.21689975297E+04  0.21956304834E+04  0.92158394416E+02 0.  0.
         13    1    3    3    0    0  0.12193592642E+03  0.41730563568E+01 -0.79996149401E+03  0.80921207137E+03  0.00000000000E+00 0. -1.
        -13    1    3    3    0    0  0.18821248994E+03 -0.11167992177E+03 -0.13690360357E+04  0.13864184120E+04  0.00000000000E+00 0.  1.
         22    1    1    2    0    0 -0.31014841637E+03  0.10750686541E+03 -0.36110740094E+03  0.48800442754E+03  0.00000000000E+00 0.  1.
<mgrwt>
<rscale>  0 0.89468731E+03</rscale>
<asrwt>0</asrwt>
<pdfrwt beam="1">  1        1 0.40105687E+00 0.89468731E+03</pdfrwt>
<pdfrwt beam="2">  1       -1 0.11810000E-01 0.89468731E+03</pdfrwt>
<totfact> 0.56854881E+01</totfact>
</mgrwt>
</event>
<event>
 6    1  0.9988873E-007  0.1610891E+04  0.7818608E-02  0.8813885E-01
          2   -1    0    0  501    0  0.00000000000E+00  0.00000000000E+00  0.54726157542E+03  0.54726157542E+03  0.00000000000E+00 0. -1.
         -2   -1    0    0    0  501 -0.00000000000E+00 -0.00000000000E+00 -0.11854340814E+04  0.11854340814E+04  0.00000000000E+00 0.  1.
         23    2    1    2    0    0  0.79570668116E+03 -0.64985443503E+02 -0.40552385625E+03  0.90113229509E+03  0.10108207039E+03 0.  0.
         11    1    3    3    0    0  0.34742778988E+03 -0.75901643536E+02 -0.16079636190E+03  0.39028527857E+03  0.00000000000E+00 0.  1.
        -11    1    3    3    0    0  0.44827889129E+03  0.10916200033E+02 -0.24472749434E+03  0.51084701652E+03  0.00000000000E+00 0. -1.
         22    1    1    2    0    0 -0.79570668116E+03  0.64985443503E+02 -0.23264864970E+03  0.83156336170E+03  0.00000000000E+00 0. -1.
<mgrwt>
<rscale>  0 0.16108911E+04</rscale>
<asrwt>0</asrwt>
<pdfrwt beam="1">  1        2 0.84194089E-01 0.16108911E+04</pdfrwt>
<pdfrwt beam="2">  1       -2 0.18237447E+00 0.16108911E+04</pdfrwt>
<totfact> 0.92562380E+00</totfact>
</mgrwt>
</event>
<event>
 6    1  0.9988873E-007  0.2734267E+04  0.7818608E-02  0.8323971E-01
          2   -1    0    0  501    0  0.00000000000E+00  0.00000000000E+00  0.21641760233E+04  0.21641760233E+04  0.00000000000E+00 0. -1.
         -2   -1    0    0    0  501 -0.00000000000E+00 -0.00000000000E+00 -0.86363306885E+03  0.86363306885E+03  0.00000000000E+00 0.  1.
         23    2    1    2    0    0  0.67984088869E+03  0.48452911781E+03 -0.54497054497E+03  0.10022543098E+04  0.10280421486E+03 0.  0.
         11    1    3    3    0    0  0.19126582368E+03  0.90035838329E+02 -0.16619433439E+03  0.26890448913E+03  0.00000000000E+00 0.  1.
        -11    1    3    3    0    0  0.48857506502E+03  0.39449327948E+03 -0.37877621058E+03  0.73334982063E+03  0.00000000000E+00 0. -1.
         22    1    1    2    0    0 -0.67984088869E+03 -0.48452911781E+03  0.18455134994E+04  0.20255547824E+04  0.00000000000E+00 0. -1.
<mgrwt>
<rscale>  0 0.27342670E+04</rscale>
<asrwt>0</asrwt>
<pdfrwt beam="1">  1        2 0.33295015E+00 0.27342670E+04</pdfrwt>
<pdfrwt beam="2">  1       -2 0.13286663E+00 0.27342670E+04</pdfrwt>
<totfact> 0.19442254E+00</totfact>
</mgrwt>
</event>
<event>
 6    1  0.9988873E-007  0.1783610E+04  0.7818608E-02  0.8715064E-01
          2   -1    0    0  501    0  0.00000000000E+00  0.00000000000E+00  0.86852490774E+03  0.86852490774E+03  0.00000000000E+00 0. -1.
         -2   -1    0    0    0  501 -0.00000000000E+00 -0.00000000000E+00 -0.91570957489E+03  0.91570957489E+03  0.00000000000E+00 0.  1.
         23    2    1    2    0    0  0.65641862074E+03 -0.35736476950E+03  0.45869475705E+03  0.88173297240E+03  0.91962874846E+02 0.  0.
         13    1    3    3    0    0  0.55360097657E+03 -0.30421014650E+03  0.34620511649E+03  0.72033036669E+03  0.00000000000E+00 0.  1.
        -13    1    3    3    0    0  0.10281764417E+03 -0.53154622998E+02  0.11248964055E+03  0.16140260571E+03  0.00000000000E+00 0. -1.
         22    1    1    2    0    0 -0.65641862074E+03  0.35736476950E+03 -0.50587942419E+03  0.90250151022E+03  0.00000000000E+00 0.  1.
<mgrwt>
<rscale>  0 0.17836105E+04</rscale>
<asrwt>0</asrwt>
<pdfrwt beam="1">  1        2 0.13361922E+00 0.17836105E+04</pdfrwt>
<pdfrwt beam="2">  1       -2 0.14087840E+00 0.17836105E+04</pdfrwt>
<totfact> 0.10289917E+01</totfact>
</mgrwt>
</event>
<event>
 6    1  0.9988873E-007  0.7525448E+03  0.7818608E-02  0.9631366E-01
         -1   -1    0    0    0  501 -0.00000000000E+00  0.00000000000E+00  0.11749774075E+03  0.11749774075E+03  0.00000000000E+00 0.  1.
          1   -1    0    0  501    0  0.00000000000E+00 -0.00000000000E+00 -0.12049670377E+04  0.12049670377E+04  0.00000000000E+00 0. -1.
         23    2    1    2    0    0  0.29425377796E+03 -0.23111534644E+02 -0.15692745305E+03  0.34623347792E+03  0.90177418645E+02 0.  0.
         13    1    3    3    0    0  0.15608454016E+03 -0.17568582701E+02 -0.32896948254E+02  0.16047818537E+03  0.00000000000E+00 0. -1.
        -13    1    3    3    0    0  0.13816923780E+03 -0.55429519430E+01 -0.12403050479E+03  0.18575529255E+03  0.00000000000E+00 0.  1.
         22    1    1    2    0    0 -0.29425377796E+03  0.23111534644E+02 -0.93054184394E+03  0.97623130056E+03  0.00000000000E+00 0. -1.
<mgrwt>
<rscale>  0 0.75254476E+03</rscale>
<asrwt>0</asrwt>
<pdfrwt beam="1">  1        1 0.18537954E+00 0.75254476E+03</pdfrwt>
<pdfrwt beam="2">  1       -1 0.18076576E-01 0.75254476E+03</pdfrwt>
<totfact> 0.25993125E+02</totfact>
</mgrwt>
</event>
<event>
 6    1  0.9988873E-007  0.1642079E+04  0.7818608E-02  0.8795107E-01
         -1   -1    0    0    0  501 -0.00000000000E+00  0.00000000000E+00  0.14826806148E+04  0.14826806148E+04  0.00000000000E+00 0.  1.
          1   -1    0    0  501    0  0.00000000000E+00 -0.00000000000E+00 -0.45465323116E+03  0.45465323116E+03  0.00000000000E+00 0. -1.
         23    2    1    2    0    0  0.14226245465E+03 -0.87449014840E+02  0.14609616118E+04  0.14733101589E+04  0.91367702738E+02 0.  0.
         11    1    3    3    0    0  0.59869690814E+02  0.18605988086E+00  0.73663270242E+03  0.73906167048E+03  0.00000000000E+00 0.  1.
        -11    1    3    3    0    0  0.82392763836E+02 -0.87635074720E+02  0.72432890935E+03  0.73424848844E+03  0.00000000000E+00 0. -1.
         22    1    1    2    0    0 -0.14226245465E+03  0.87449014840E+02 -0.43293422816E+03  0.46402368701E+03  0.00000000000E+00 0. -1.
<mgrwt>
<rscale>  0 0.16420786E+04</rscale>
<asrwt>0</asrwt>
<pdfrwt beam="1">  1        1 0.69946652E-01 0.16420786E+04</pdfrwt>
<pdfrwt beam="2">  1       -1 0.22810471E+00 0.16420786E+04</pdfrwt>
<totfact> 0.46913847E+00</totfact>
</mgrwt>
</event>
<event>
 6    1  0.9988873E-007  0.3928401E+04  0.7818608E-02  0.8019148E-01
         -2   -1    0    0    0  501 -0.00000000000E+00  0.00000000000E+00  0.15996851002E+04  0.15996851002E+04  0.00000000000E+00 0.  1.
          2   -1    0    0  501    0  0.00000000000E+00 -0.00000000000E+00 -0.24117766138E+04  0.24117766138E+04  0.00000000000E+00 0. -1.
         23    2    1    2    0    0 -0.10779547771E+04 -0.14112928584E+04  0.44820894101E+03  0.18338273853E+04  0.91091111516E+02 0.  0.
         13    1    3    3    0    0 -0.43618736763E+03 -0.62053532876E+03  0.15672811702E+03  0.77452386444E+03  0.00000000000E+00 0.  1.
        -13    1    3    3    0    0 -0.64176740945E+03 -0.79075752968E+03  0.29148082399E+03  0.10593035209E+04  0.00000000000E+00 0. -1.
         22    1    1    2    0    0  0.10779547771E+04  0.14112928584E+04 -0.12603004546E+04  0.21776343287E+04  0.00000000000E+00 0. -1.
<mgrwt>
<rscale>  0 0.39284008E+04</rscale>
<asrwt>0</asrwt>
<pdfrwt beam="1">  1        2 0.37104256E+00 0.39284008E+04</pdfrwt>
<pdfrwt beam="2">  1       -2 0.24610540E+00 0.39284008E+04</pdfrwt>
<totfact> 0.21092041E-01</totfact>
</mgrwt>
</event>
<event>
 6    1  0.9988873E-007  0.3247345E+04  0.7818608E-02  0.8176424E-01
          2   -1    0    0  501    0  0.00000000000E+00  0.00000000000E+00  0.17591762777E+04  0.17591762777E+04  0.00000000000E+00 0. -1.
         -2   -1    0    0    0  501 -0.00000000000E+00 -0.00000000000E+00 -0.14986064249E+04  0.14986064249E+04  0.00000000000E+00 0.  1.
         23    2    1    2    0    0  0.98392533858E+03 -0.12803733070E+04  0.29122643946E+03  0.16427270678E+04  0.79211762442E+02 0.  0.
         13    1    3    3    0    0  0.20259130644E+03 -0.28732074652E+03  0.33737114607E+02  0.35317791795E+03  0.00000000000E+00 0. -1.
        -13    1    3    3    0    0  0.78133403213E+03 -0.99305256044E+03  0.25748932485E+03  0.12895491499E+04  0.00000000000E+00 0.  1.
         22    1    1    2    0    0 -0.98392533858E+03  0.12803733070E+04 -0.30656586744E+02  0.16150556348E+04  0.00000000000E+00 0.  1.
<mgrwt>
<rscale>  0 0.32473453E+04</rscale>
<asrwt>0</asrwt>
<pdfrwt beam="1">  1        2 0.27064251E+00 0.32473453E+04</pdfrwt>
<pdfrwt beam="2">  1       -2 0.23055483E+00 0.32473453E+04</pdfrwt>
<totfact> 0.64683826E-01</totfact>
</mgrwt>
</event>
<event>
 6    1  0.9988873E-007  0.1414309E+04  0.7818608E-02  0.8943526E-01
         -1   -1    0    0    0  501 -0.00000000000E+00  0.00000000000E+00  0.26542371433E+03  0.26542371433E+03  0.00000000000E+00 0.  1.
          1   -1    0    0  501    0  0.00000000000E+00 -0.00000000000E+00 -0.18840344079E+04  0.18840344079E+04  0.00000000000E+00 0. -1.
         23    2    1    2    0    0  0.40579559050E+03  0.12115169525E+03  0.42359034204E+02  0.43534954017E+03  0.91581328968E+02 0.  0.
         13    1    3    3    0    0  0.14684097733E+03  0.90514404442E+02  0.14510316055E+02  0.17310597710E+03  0.00000000000E+00 0.  1.
        -13    1    3    3    0    0  0.25895461317E+03  0.30637290805E+02  0.27848718150E+02  0.26224356307E+03  0.00000000000E+00 0. -1.
         22    1    1    2    0    0 -0.40579559050E+03 -0.12115169525E+03 -0.16609697278E+04  0.17141085821E+04  0.00000000000E+00 0. -1.
<mgrwt>
<rscale>  0 0.14143089E+04</rscale>
<asrwt>0</asrwt>
<pdfrwt beam="1">  1        1 0.28985146E+00 0.14143089E+04</pdfrwt>
<pdfrwt beam="2">  1       -1 0.40834416E-01 0.14143089E+04</pdfrwt>
<totfact> 0.20413474E+01</totfact>
</mgrwt>
</event>
<event>
 6    1  0.9988873E-007  0.2643093E+04  0.7818608E-02  0.8353709E-01
         -2   -1    0    0    0  501 -0.00000000000E+00  0.00000000000E+00  0.47915139701E+03  0.47915139701E+03  0.00000000000E+00 0.  1.
          2   -1    0    0  501    0  0.00000000000E+00 -0.00000000000E+00 -0.36449538605E+04  0.36449538605E+04  0.00000000000E+00 0. -1.
         23    2    1    2    0    0 -0.11486700066E+03  0.85458482278E+03 -0.31441532352E+04  0.32615634694E+04  0.92666341706E+02 0.  0.
         11    1    3    3    0    0 -0.54079852772E+02  0.37327934602E+03 -0.15497824502E+04  0.15950196687E+04  0.00000000000E+00 0. -1.
        -11    1    3    3    0    0 -0.60787147888E+02  0.48130547676E+03 -0.15943707850E+04  0.16665438007E+04  0.00000000000E+00 0.  1.
         22    1    1    2    0    0  0.11486700066E+03 -0.85458482278E+03 -0.21649228223E+02  0.86254178812E+03  0.00000000000E+00 0.  1.
<mgrwt>
<rscale>  0 0.26430927E+04</rscale>
<asrwt>0</asrwt>
<pdfrwt beam="1">  1        2 0.56076211E+00 0.26430927E+04</pdfrwt>
<pdfrwt beam="2">  1       -2 0.73715602E-01 0.26430927E+04</pdfrwt>
<totfact> 0.93752754E-01</totfact>
</mgrwt>
</event>
<event>
 6    1  0.9988873E-007  0.3075598E+04  0.7818608E-02  0.8222467E-01
         -1   -1    0    0    0  501 -0.00000000000E+00  0.00000000000E+00  0.87390975624E+03  0.87390975624E+03  0.00000000000E+00 0.  1.
          1   -1    0    0  501    0  0.00000000000E+00 -0.00000000000E+00 -0.27060295554E+04  0.27060295554E+04  0.00000000000E+00 0. -1.
         23    2    1    2    0    0 -0.13080526277E+04  0.55687360900E+03 -0.15951107850E+04  0.21386610020E+04  0.91556385674E+02 0.  0.
         11    1    3    3    0    0 -0.12140700300E+03  0.77788485520E+02 -0.14183641853E+03  0.20225795035E+03  0.00000000000E+00 0. -1.
        -11    1    3    3    0    0 -0.11866456247E+04  0.47908512348E+03 -0.14532743664E+04  0.19364030516E+04  0.00000000000E+00 0.  1.
         22    1    1    2    0    0  0.13080526277E+04 -0.55687360900E+03 -0.23700901419E+03  0.14412783097E+04  0.00000000000E+00 0.  1.
<mgrwt>
<rscale>  0 0.30755979E+04</rscale>
<asrwt>0</asrwt>
<pdfrwt beam="1">  1        1 0.41631224E+00 0.30755979E+04</pdfrwt>
<pdfrwt beam="2">  1       -1 0.13444765E+00 0.30755979E+04</pdfrwt>
<totfact> 0.38231769E-01</totfact>
</mgrwt>
</event>
<event>
 6    1  0.9988873E-007  0.3673578E+04  0.7818608E-02  0.8073843E-01
          2   -1    0    0  501    0  0.00000000000E+00  0.00000000000E+00  0.12858348730E+04  0.12858348730E+04  0.00000000000E+00 0. -1.
         -2   -1    0    0    0  501 -0.00000000000E+00 -0.00000000000E+00 -0.26238161750E+04  0.26238161750E+04  0.00000000000E+00 0.  1.
         23    2    1    2    0    0 -0.43065373754E+02  0.15307363048E+04  0.40765705879E+03  0.15875266870E+04  0.95123304784E+02 0.  0.
         11    1    3    3    0    0  0.15478617288E+02  0.10284435127E+04  0.26786475089E+03  0.10628674287E+04  0.00000000000E+00 0. -1.
        -11    1    3    3    0    0 -0.58543991042E+02  0.50229279214E+03  0.13979230790E+03  0.52465925825E+03  0.00000000000E+00 0.  1.
         22    1    1    2    0    0  0.43065373754E+02 -0.15307363048E+04 -0.17456383608E+04  0.23221243610E+04  0.00000000000E+00 0.  1.
<mgrwt>
<rscale>  0 0.36735783E+04</rscale>
<asrwt>0</asrwt>
<pdfrwt beam="1">  1        2 0.19782075E+00 0.36735783E+04</pdfrwt>
<pdfrwt beam="2">  1       -2 0.40366403E+00 0.36735783E+04</pdfrwt>
<totfact> 0.95799661E-02</totfact>
</mgrwt>
</event>
<event>
 6    1  0.9988873E-007  0.1250544E+04  0.7818608E-02  0.9069731E-01
          1   -1    0    0  501    0  0.00000000000E+00  0.00000000000E+00  0.10508442193E+04  0.10508442193E+04  0.00000000000E+00 0. -1.
         -1   -1    0    0    0  501 -0.00000000000E+00 -0.00000000000E+00 -0.37204844714E+03  0.37204844714E+03  0.00000000000E+00 0.  1.
         23    2    1    2    0    0  0.38258620412E+03 -0.19452831350E+03  0.85335677159E+03  0.95955152771E+03  0.91147607662E+02 0.  0.
         11    1    3    3    0    0  0.42895201196E+02  0.48160295855E+01  0.11268995683E+03  0.12067401874E+03  0.00000000000E+00 0. -1.
        -11    1    3    3    0    0  0.33969100292E+03 -0.19934434308E+03  0.74066681475E+03  0.83887750897E+03  0.00000000000E+00 0.  1.
         22    1    1    2    0    0 -0.38258620412E+03  0.19452831350E+03 -0.17456099941E+03  0.46334113874E+03  0.00000000000E+00 0.  1.
<mgrwt>
<rscale>  0 0.12505438E+04</rscale>
<asrwt>0</asrwt>
<pdfrwt beam="1">  1        1 0.16166834E+00 0.12505438E+04</pdfrwt>
<pdfrwt beam="2">  1       -1 0.57238223E-01 0.12505438E+04</pdfrwt>
<totfact> 0.42114904E+01</totfact>
</mgrwt>
</event>
<event>
 6    1  0.9988873E-007  0.3310504E+04  0.7818608E-02  0.8160228E-01
          2   -1    0    0  501    0  0.00000000000E+00  0.00000000000E+00  0.31697488381E+04  0.31697488381E+04  0.00000000000E+00 0. -1.
         -2   -1    0    0    0  501 -0.00000000000E+00 -0.00000000000E+00 -0.86437713592E+03  0.86437713592E+03  0.00000000000E+00 0.  1.
         23    2    1    2    0    0 -0.10502980835E+03  0.74745999643E+03  0.29469667312E+04  0.30434838145E+04  0.91940782098E+02 0.  0.
         11    1    3    3    0    0  0.35502316322E+01  0.40759845185E+02  0.98645484534E+02  0.10679372989E+03  0.00000000000E+00 0. -1.
        -11    1    3    3    0    0 -0.10858003999E+03  0.70670015124E+03  0.28483212466E+04  0.29366900846E+04  0.00000000000E+00 0.  1.
         22    1    1    2    0    0  0.10502980835E+03 -0.74745999643E+03 -0.64159502903E+03  0.99064215950E+03  0.00000000000E+00 0.  1.
<mgrwt>
<rscale>  0 0.33105035E+04</rscale>
<asrwt>0</asrwt>
<pdfrwt beam="1">  1        2 0.48765366E+00 0.33105035E+04</pdfrwt>
<pdfrwt beam="2">  1       -2 0.13298110E+00 0.33105035E+04</pdfrwt>
<totfact> 0.46379899E-01</totfact>
</mgrwt>
</event>
<event>
 6    1  0.9988873E-007  0.1754824E+04  0.7818608E-02  0.8730700E-01
          2   -1    0    0  501    0  0.00000000000E+00  0.00000000000E+00  0.82150262488E+03  0.82150262488E+03  0.00000000000E+00 0. -1.
         -2   -1    0    0    0  501 -0.00000000000E+00 -0.00000000000E+00 -0.93712629399E+03  0.93712629399E+03  0.00000000000E+00 0.  1.
         23    2    1    2    0    0  0.20408166750E+03  0.59944154249E+03  0.54724644001E+03  0.84190852996E+03  0.91388275148E+02 0.  0.
         13    1    3    3    0    0  0.14435174666E+03  0.45008248238E+03  0.45698787604E+03  0.65745690851E+03  0.00000000000E+00 0. -1.
        -13    1    3    3    0    0  0.59729920845E+02  0.14935906012E+03  0.90258563967E+02  0.18445162144E+03  0.00000000000E+00 0.  1.
         22    1    1    2    0    0 -0.20408166750E+03 -0.59944154249E+03 -0.66287010912E+03  0.91672038891E+03  0.00000000000E+00 0.  1.
<mgrwt>
<rscale>  0 0.17548239E+04</rscale>
<asrwt>0</asrwt>
<pdfrwt beam="1">  1        2 0.12638502E+00 0.17548239E+04</pdfrwt>
<pdfrwt beam="2">  1       -2 0.14417328E+00 0.17548239E+04</pdfrwt>
<totfact> 0.10473491E+01</totfact>
</mgrwt>
</event>
<event>
 6    1  0.9988873E-007  0.3064048E+04  0.7818608E-02  0.8225674E-01
         -2   -1    0    0    0  501 -0.00000000000E+00  0.00000000000E+00  0.28492593675E+04  0.28492593675E+04  0.00000000000E+00 0.  1.
          2   -1    0    0  501    0  0.00000000000E+00 -0.00000000000E+00 -0.82375723911E+03  0.82375723911E+03  0.00000000000E+00 0. -1.
         23    2    1    2    0    0  0.44974191186E+03 -0.11840040551E+04  0.20439454114E+04  0.24063384532E+04  0.92835966053E+02 0.  0.
         13    1    3    3    0    0  0.68287810797E+02 -0.21618445853E+03  0.43170194396E+03  0.48761205239E+03  0.00000000000E+00 0. -1.
        -13    1    3    3    0    0  0.38145410106E+03 -0.96781959653E+03  0.16122434675E+04  0.19187264008E+04  0.00000000000E+00 0.  1.
         22    1    1    2    0    0 -0.44974191186E+03  0.11840040551E+04 -0.18443283073E+02  0.12666781534E+04  0.00000000000E+00 0. -1.
<mgrwt>
<rscale>  0 0.30640483E+04</rscale>
<asrwt>0</asrwt>
<pdfrwt beam="1">  1        2 0.12673188E+00 0.30640483E+04</pdfrwt>
<pdfrwt beam="2">  1       -2 0.43834759E+00 0.30640483E+04</pdfrwt>
<totfact> 0.11676278E-01</totfact>
</mgrwt>
</event>
<event>
 6    1  0.9988873E-007  0.8283221E+03  0.7818608E-02  0.9519903E-01
         -1   -1    0    0    0  501 -0.00000000000E+00  0.00000000000E+00  0.29641391141E+03  0.29641391141E+03  0.00000000000E+00 0.  1.
          1   -1    0    0  501    0  0.00000000000E+00 -0.00000000000E+00 -0.57868192294E+03  0.57868192294E+03  0.00000000000E+00 0. -1.
         23    2    1    2    0    0 -0.13678589590E+03 -0.34034633312E+03 -0.33433108966E+03  0.50461429380E+03  0.91171816931E+02 0.  0.
         11    1    3    3    0    0  0.30276483674E+01 -0.67666365369E+02 -0.90314763535E+02  0.11289225026E+03  0.00000000000E+00 0. -1.
        -11    1    3    3    0    0 -0.13981354426E+03 -0.27267996775E+03 -0.24401632613E+03  0.39172204353E+03  0.00000000000E+00 0.  1.
         22    1    1    2    0    0  0.13678589590E+03  0.34034633312E+03  0.52063078134E+02  0.37048154055E+03  0.00000000000E+00 0.  1.
<mgrwt>
<rscale>  0 0.82832209E+03</rscale>
<asrwt>0</asrwt>
<pdfrwt beam="1">  1        1 0.89027988E-01 0.82832209E+03</pdfrwt>
<pdfrwt beam="2">  1       -1 0.45602140E-01 0.82832209E+03</pdfrwt>
<totfact> 0.17411964E+02</totfact>
</mgrwt>
</event>
<event>
 6    1  0.9988873E-007  0.1836830E+04  0.7818608E-02  0.8686955E-01
          1   -1    0    0  501    0  0.00000000000E+00  0.00000000000E+00  0.22979921818E+04  0.22979921818E+04  0.00000000000E+00 0. -1.
         -1   -1    0    0    0  501 -0.00000000000E+00 -0.00000000000E+00 -0.36705355981E+03  0.36705355981E+03  0.00000000000E+00 0.  1.
         23    2    1    2    0    0  0.39891846559E+03 -0.82214665383E+03  0.10620937873E+04  0.14041125914E+04  0.91803560387E+02 0.  0.
         13    1    3    3    0    0  0.29862407515E+03 -0.61636956948E+03  0.73247157524E+03  0.10027972841E+04  0.00000000000E+00 0. -1.
        -13    1    3    3    0    0  0.10029439044E+03 -0.20577708435E+03  0.32962221202E+03  0.40131530727E+03  0.00000000000E+00 0.  1.
         22    1    1    2    0    0 -0.39891846559E+03  0.82214665383E+03  0.86884483476E+03  0.12609331503E+04  0.00000000000E+00 0. -1.
<mgrwt>
<rscale>  0 0.18368301E+04</rscale>
<asrwt>0</asrwt>
<pdfrwt beam="1">  1        1 0.35353725E+00 0.18368301E+04</pdfrwt>
<pdfrwt beam="2">  1       -1 0.56469780E-01 0.18368301E+04</pdfrwt>
<totfact> 0.55764726E+00</totfact>
</mgrwt>
</event>
<event>
 6    1  0.9988873E-007  0.1426104E+04  0.7818608E-02  0.8935137E-01
          2   -1    0    0  501    0  0.00000000000E+00  0.00000000000E+00  0.20794591779E+04  0.20794591779E+04  0.00000000000E+00 0. -1.
         -2   -1    0    0    0  501 -0.00000000000E+00 -0.00000000000E+00 -0.24450735073E+03  0.24450735073E+03  0.00000000000E+00 0.  1.
         23    2    1    2    0    0  0.32929313492E+03  0.14902718269E+03 -0.74342070824E+02  0.38076137764E+03  0.93858474972E+02 0.  0.
         13    1    3    3    0    0  0.23872108826E+03  0.60356260018E+02 -0.57896490211E+02  0.25294789914E+03  0.00000000000E+00 0. -1.
        -13    1    3    3    0    0  0.90572046661E+02  0.88670922676E+02 -0.16445580613E+02  0.12781347850E+03  0.00000000000E+00 0.  1.
         22    1    1    2    0    0 -0.32929313492E+03 -0.14902718269E+03  0.19092938980E+04  0.19432051510E+04  0.00000000000E+00 0. -1.
<mgrwt>
<rscale>  0 0.14261039E+04</rscale>
<asrwt>0</asrwt>
<pdfrwt beam="1">  1        2 0.31991679E+00 0.14261039E+04</pdfrwt>
<pdfrwt beam="2">  1       -2 0.37616517E-01 0.14261039E+04</pdfrwt>
<totfact> 0.39108925E+01</totfact>
</mgrwt>
</event>
<event>
 6    1  0.1175927E-006  0.3551569E+04  0.7818608E-02  0.8101676E-01
         -1   -1    0    0    0  501 -0.00000000000E+00  0.00000000000E+00  0.16619716579E+04  0.16619716579E+04  0.00000000000E+00 0.  1.
          1   -1    0    0  501    0  0.00000000000E+00 -0.00000000000E+00 -0.18973915570E+04  0.18973915570E+04  0.00000000000E+00 0. -1.
         23    2    1    2    0    0  0.93768750914E+03 -0.14621442775E+03 -0.16206322714E+04  0.18802414684E+04  0.90677983389E+02 0.  0.
         11    1    3    3    0    0  0.22912551689E+03 -0.63275704204E+02 -0.46274298374E+03  0.52022436143E+03  0.00000000000E+00 0.  1.
        -11    1    3    3    0    0  0.70856199225E+03 -0.82938723545E+02 -0.11578892876E+04  0.13600171069E+04  0.00000000000E+00 0. -1.
         22    1    1    2    0    0 -0.93768750914E+03  0.14621442775E+03  0.13852123722E+04  0.16791217466E+04  0.00000000000E+00 0.  1.
<mgrwt>
<rscale>  0 0.35515692E+04</rscale>
<asrwt>0</asrwt>
<pdfrwt beam="1">  1        1 0.29190639E+00 0.35515692E+04</pdfrwt>
<pdfrwt beam="2">  1       -1 0.25568795E+00 0.35515692E+04</pdfrwt>
<totfact> 0.18190641E-01</totfact>
</mgrwt>
</event>
<event>
 6    1  0.9988873E-007  0.2092098E+04  0.7818608E-02  0.8564732E-01
          1   -1    0    0  501    0  0.00000000000E+00  0.00000000000E+00  0.61103820570E+03  0.61103820570E+03  0.00000000000E+00 0. -1.
         -1   -1    0    0    0  501 -0.00000000000E+00 -0.00000000000E+00 -0.17907538030E+04  0.17907538030E+04  0.00000000000E+00 0.  1.
         23    2    1    2    0    0 -0.14188491410E+03  0.10022791567E+04 -0.29925313185E+03  0.10601851401E+04  0.98718071740E+02 0.  0.
         13    1    3    3    0    0 -0.13727025020E+03  0.63479521616E+03 -0.18418444728E+03  0.67507925362E+03  0.00000000000E+00 0. -1.
        -13    1    3    3    0    0 -0.46146638986E+01  0.36748394050E+03 -0.11506868457E+03  0.38510588650E+03  0.00000000000E+00 0.  1.
         22    1    1    2    0    0  0.14188491410E+03 -0.10022791567E+04 -0.88046246543E+03  0.13416068686E+04  0.00000000000E+00 0. -1.
<mgrwt>
<rscale>  0 0.20920985E+04</rscale>
<asrwt>0</asrwt>
<pdfrwt beam="1">  1        1 0.94005879E-01 0.20920985E+04</pdfrwt>
<pdfrwt beam="2">  1       -1 0.27550058E+00 0.20920985E+04</pdfrwt>
<totfact> 0.14612732E+00</totfact>
</mgrwt>
</event>
<event>
 6    1  0.9988873E-007  0.1081688E+04  0.7818608E-02  0.9223226E-01
         -2   -1    0    0    0  501 -0.00000000000E+00  0.00000000000E+00  0.58813259238E+03  0.58813259238E+03  0.00000000000E+00 0.  1.
          2   -1    0    0  501    0  0.00000000000E+00 -0.00000000000E+00 -0.49735759051E+03  0.49735759051E+03  0.00000000000E+00 0. -1.
         23    2    1    2    0    0 -0.30580639412E+03  0.27649201312E+03 -0.30018506331E+03  0.51732193618E+03  0.86865006833E+02 0.  0.
         11    1    3    3    0    0 -0.27226017526E+03  0.27252880426E+03 -0.28954441201E+03  0.48190613060E+03  0.00000000000E+00 0.  1.
        -11    1    3    3    0    0 -0.33546218869E+02  0.39632088577E+01 -0.10640651301E+02  0.35415805582E+02  0.00000000000E+00 0. -1.
         22    1    1    2    0    0  0.30580639412E+03 -0.27649201312E+03  0.39096006518E+03  0.56816824671E+03  0.00000000000E+00 0.  1.
<mgrwt>
<rscale>  0 0.10816880E+04</rscale>
<asrwt>0</asrwt>
<pdfrwt beam="1">  1        2 0.76516553E-01 0.10816880E+04</pdfrwt>
<pdfrwt beam="2">  1       -2 0.90481937E-01 0.10816880E+04</pdfrwt>
<totfact> 0.64316403E+01</totfact>
</mgrwt>
</event>
<event>
 6    1  0.9988873E-007  0.4024114E+04  0.7818608E-02  0.7999700E-01
         -2   -1    0    0    0  501 -0.00000000000E+00  0.00000000000E+00  0.19086581485E+04  0.19086581485E+04  0.00000000000E+00 0.  1.
          2   -1    0    0  501    0  0.00000000000E+00 -0.00000000000E+00 -0.21210569942E+04  0.21210569942E+04  0.00000000000E+00 0. -1.
         23    2    1    2    0    0  0.14058302538E+04 -0.10278257785E+04  0.90080944204E+03  0.19628292664E+04  0.91959472072E+02 0.  0.
         11    1    3    3    0    0  0.37515867695E+03 -0.28380404706E+03  0.19871932522E+03  0.51066441058E+03  0.00000000000E+00 0. -1.
        -11    1    3    3    0    0  0.10306715769E+04 -0.74402173147E+03  0.70209011682E+03  0.14521648558E+04  0.00000000000E+00 0.  1.
         22    1    1    2    0    0 -0.14058302538E+04  0.10278257785E+04 -0.11132082878E+04  0.20668858763E+04  0.00000000000E+00 0. -1.
<mgrwt>
<rscale>  0 0.40241137E+04</rscale>
<asrwt>0</asrwt>
<pdfrwt beam="1">  1        2 0.32631646E+00 0.40241137E+04</pdfrwt>
<pdfrwt beam="2">  1       -2 0.29363971E+00 0.40241137E+04</pdfrwt>
<totfact> 0.15652761E-01</totfact>
</mgrwt>
</event>
<event>
 6    1  0.9988873E-007  0.1333920E+04  0.7818608E-02  0.9003091E-01
         -1   -1    0    0    0  501 -0.00000000000E+00  0.00000000000E+00  0.29429768594E+03  0.29429768594E+03  0.00000000000E+00 0.  1.
          1   -1    0    0  501    0  0.00000000000E+00 -0.00000000000E+00 -0.15115150100E+04  0.15115150100E+04  0.00000000000E+00 0. -1.
         23    2    1    2    0    0 -0.51993254167E+03 -0.41305099016E+03 -0.61179686486E+03  0.90721662384E+03  0.88349478616E+02 0.  0.
         11    1    3    3    0    0 -0.43412376796E+03 -0.30940433112E+03 -0.45756671641E+03  0.70253952628E+03  0.00000000000E+00 0. -1.
        -11    1    3    3    0    0 -0.85808773704E+02 -0.10364665905E+03 -0.15423014845E+03  0.20467709756E+03  0.00000000000E+00 0.  1.
         22    1    1    2    0    0  0.51993254167E+03  0.41305099016E+03 -0.60542045916E+03  0.89859607206E+03  0.00000000000E+00 0.  1.
<mgrwt>
<rscale>  0 0.13339196E+04</rscale>
<asrwt>0</asrwt>
<pdfrwt beam="1">  1        1 0.23254077E+00 0.13339196E+04</pdfrwt>
<pdfrwt beam="2">  1       -1 0.45276567E-01 0.13339196E+04</pdfrwt>
<totfact> 0.30470589E+01</totfact>
</mgrwt>
</event>
<event>
 6    1  0.9988873E-007  0.3324764E+04  0.7818608E-02  0.8156623E-01
          2   -1    0    0  501    0  0.00000000000E+00  0.00000000000E+00  0.13331706864E+04  0.13331706864E+04  0.00000000000E+00 0. -1.
         -2   -1    0    0    0  501 -0.00000000000E+00 -0.00000000000E+00 -0.20728879488E+04  0.20728879488E+04  0.00000000000E+00 0.  1.
         23    2    1    2    0    0 -0.12636640709E+04 -0.97611150347E+03  0.99083233451E+02  0.16023882598E+04  0.90499154108E+02 0.  0.
         11    1    3    3    0    0 -0.10716696641E+04 -0.83933655865E+03  0.53474016074E+02  0.13622852851E+04  0.00000000000E+00 0. -1.
        -11    1    3    3    0    0 -0.19199440673E+03 -0.13677494482E+03  0.45609217378E+02  0.24010297470E+03  0.00000000000E+00 0.  1.
         22    1    1    2    0    0  0.12636640709E+04  0.97611150347E+03 -0.83880049578E+03  0.18036703754E+04  0.00000000000E+00 0.  1.
<mgrwt>
<rscale>  0 0.33247637E+04</rscale>
<asrwt>0</asrwt>
<pdfrwt beam="1">  1        2 0.20510318E+00 0.33247637E+04</pdfrwt>
<pdfrwt beam="2">  1       -2 0.31890584E+00 0.33247637E+04</pdfrwt>
<totfact> 0.32047549E-01</totfact>
</mgrwt>
</event>
<event>
 6    1  0.9988873E-007  0.1388536E+04  0.7818608E-02  0.8962159E-01
          1   -1    0    0  501    0  0.00000000000E+00  0.00000000000E+00  0.27888865228E+04  0.27888865228E+04  0.00000000000E+00 0. -1.
         -1   -1    0    0    0  501 -0.00000000000E+00 -0.00000000000E+00 -0.17283169440E+03  0.17283169440E+03  0.00000000000E+00 0.  1.
         23    2    1    2    0    0  0.79539692057E+02 -0.60445150630E+03  0.61899204224E+03  0.87366937726E+03  0.91971986613E+02 0.  0.
         13    1    3    3    0    0  0.72224347366E+02 -0.51936597141E+03  0.57283913919E+03  0.77659645119E+03  0.00000000000E+00 0. -1.
        -13    1    3    3    0    0  0.73153446918E+01 -0.85085534891E+02  0.46152903045E+02  0.97072926067E+02  0.00000000000E+00 0.  1.
         22    1    1    2    0    0 -0.79539692057E+02  0.60445150630E+03  0.19970627861E+04  0.20880488399E+04  0.00000000000E+00 0. -1.
<mgrwt>
<rscale>  0 0.13885359E+04</rscale>
<asrwt>0</asrwt>
<pdfrwt beam="1">  1        1 0.42905943E+00 0.13885359E+04</pdfrwt>
<pdfrwt beam="2">  1       -1 0.26589494E-01 0.13885359E+04</pdfrwt>
<totfact> 0.10495226E+01</totfact>
</mgrwt>
</event>
<event>
 6    1  0.9988873E-007  0.1417583E+04  0.7818608E-02  0.8941189E-01
          1   -1    0    0  501    0  0.00000000000E+00  0.00000000000E+00  0.10929730404E+04  0.10929730404E+04  0.00000000000E+00 0. -1.
         -1   -1    0    0    0  501 -0.00000000000E+00 -0.00000000000E+00 -0.45965012602E+03  0.45965012602E+03  0.00000000000E+00 0.  1.
         23    2    1    2    0    0 -0.13700865283E+02  0.45284665255E+03 -0.27498845431E+03  0.53759245412E+03  0.90162033525E+02 0.  0.
         11    1    3    3    0    0 -0.63640309446E+01  0.11222828098E+03 -0.11632121845E+03  0.16176005009E+03  0.00000000000E+00 0. -1.
        -11    1    3    3    0    0 -0.73368343382E+01  0.34061837157E+03 -0.15866723586E+03  0.37583240404E+03  0.00000000000E+00 0.  1.
         22    1    1    2    0    0  0.13700865283E+02 -0.45284665255E+03  0.90831136872E+03  0.10150307123E+04  0.00000000000E+00 0. -1.
<mgrwt>
<rscale>  0 0.14175827E+04</rscale>
<asrwt>0</asrwt>
<pdfrwt beam="1">  1        1 0.16814970E+00 0.14175827E+04</pdfrwt>
<pdfrwt beam="2">  1       -1 0.70715404E-01 0.14175827E+04</pdfrwt>
<totfact> 0.25253219E+01</totfact>
</mgrwt>
</event>
<event>
 6    1  0.9988873E-007  0.3952573E+04  0.7818608E-02  0.8014183E-01
          1   -1    0    0  501    0  0.00000000000E+00  0.00000000000E+00  0.10758406209E+04  0.10758406209E+04  0.00000000000E+00 0. -1.
         -1   -1    0    0    0  501 -0.00000000000E+00 -0.00000000000E+00 -0.36303782669E+04  0.36303782669E+04  0.00000000000E+00 0.  1.
         23    2    1    2    0    0 -0.16013363608E+04  0.11479149944E+04 -0.14440515495E+04  0.24445455371E+04  0.92363578572E+02 0.  0.
         13    1    3    3    0    0 -0.79734257360E+03  0.61291248775E+03 -0.77589824357E+03  0.12702106052E+04  0.00000000000E+00 0.  1.
        -13    1    3    3    0    0 -0.80399378725E+03  0.53500250661E+03 -0.66815330594E+03  0.11743349319E+04  0.00000000000E+00 0. -1.
         22    1    1    2    0    0  0.16013363608E+04 -0.11479149944E+04 -0.11104860964E+04  0.22616733507E+04  0.00000000000E+00 0.  1.
<mgrwt>
<rscale>  0 0.39525730E+04</rscale>
<asrwt>0</asrwt>
<pdfrwt beam="1">  1        1 0.16551394E+00 0.39525730E+04</pdfrwt>
<pdfrwt beam="2">  1       -1 0.55851974E+00 0.39525730E+04</pdfrwt>
<totfact> 0.70499418E-03</totfact>
</mgrwt>
</event>
<event>
 6    1  0.9988873E-007  0.1794351E+04  0.7818608E-02  0.8709309E-01
         -2   -1    0    0    0  501 -0.00000000000E+00  0.00000000000E+00  0.44791506554E+03  0.44791506554E+03  0.00000000000E+00 0.  1.
          2   -1    0    0  501    0  0.00000000000E+00 -0.00000000000E+00 -0.17970467205E+04  0.17970467205E+04  0.00000000000E+00 0. -1.
         23    2    1    2    0    0  0.56324439806E+03  0.59672387232E+03 -0.22844015596E+03  0.85597904040E+03  0.84803189827E+02 0.  0.
         11    1    3    3    0    0  0.17259471174E+03  0.14775284687E+03 -0.33039569814E+02  0.22958974596E+03  0.00000000000E+00 0. -1.
        -11    1    3    3    0    0  0.39064968632E+03  0.44897102545E+03 -0.19540058614E+03  0.62638929444E+03  0.00000000000E+00 0.  1.
         22    1    1    2    0    0 -0.56324439806E+03 -0.59672387232E+03 -0.11206914990E+04  0.13889827457E+04  0.00000000000E+00 0. -1.
<mgrwt>
<rscale>  0 0.17943515E+04</rscale>
<asrwt>0</asrwt>
<pdfrwt beam="1">  1        2 0.27646872E+00 0.17943515E+04</pdfrwt>
<pdfrwt beam="2">  1       -2 0.68910012E-01 0.17943515E+04</pdfrwt>
<totfact> 0.15735553E+01</totfact>
</mgrwt>
</event>
<event>
 6    1  0.9988873E-007  0.1563978E+04  0.7818608E-02  0.8842988E-01
         -2   -1    0    0    0  501 -0.00000000000E+00  0.00000000000E+00  0.36594181410E+03  0.36594181410E+03  0.00000000000E+00 0.  1.
          2   -1    0    0  501    0  0.00000000000E+00 -0.00000000000E+00 -0.16710501098E+04  0.16710501098E+04  0.00000000000E+00 0. -1.
         23    2    1    2    0    0  0.63490881317E+03  0.39031994926E+03 -0.35318686948E+03  0.82801993682E+03  0.73601543243E+02 0.  0.
         11    1    3    3    0    0  0.24269625473E+03  0.11999338049E+03 -0.15603817787E+03  0.31248647391E+03  0.00000000000E+00 0. -1.
        -11    1    3    3    0    0  0.39221255844E+03  0.27032656876E+03 -0.19714869161E+03  0.51553346291E+03  0.00000000000E+00 0.  1.
         22    1    1    2    0    0 -0.63490881317E+03 -0.39031994926E+03 -0.95192142624E+03  0.12089719871E+04  0.00000000000E+00 0.  1.
<mgrwt>
<rscale>  0 0.15639784E+04</rscale>
<asrwt>0</asrwt>
<pdfrwt beam="1">  1        2 0.25708464E+00 0.15639784E+04</pdfrwt>
<pdfrwt beam="2">  1       -2 0.56298740E-01 0.15639784E+04</pdfrwt>
<totfact> 0.28976583E+01</totfact>
</mgrwt>
</event>
<event>
 6    1  0.9988873E-007  0.3506329E+04  0.7818608E-02  0.8112292E-01
         -2   -1    0    0    0  501 -0.00000000000E+00  0.00000000000E+00  0.12637091984E+04  0.12637091984E+04  0.00000000000E+00 0.  1.
          2   -1    0    0  501    0  0.00000000000E+00 -0.00000000000E+00 -0.24321936722E+04  0.24321936722E+04  0.00000000000E+00 0. -1.
         23    2    1    2    0    0  0.97478539124E+03  0.87298427805E+03  0.64291472588E+03  0.14612943660E+04  0.98659873031E+02 0.  0.
         13    1    3    3    0    0  0.65730464486E+03  0.54719582695E+03  0.37996737110E+03  0.93586744375E+03  0.00000000000E+00 0.  1.
        -13    1    3    3    0    0  0.31748074638E+03  0.32578845111E+03  0.26294735479E+03  0.52542692222E+03  0.00000000000E+00 0. -1.
         22    1    1    2    0    0 -0.97478539124E+03 -0.87298427805E+03 -0.18113991996E+04  0.22346085047E+04  0.00000000000E+00 0. -1.
<mgrwt>
<rscale>  0 0.35063289E+04</rscale>
<asrwt>0</asrwt>
<pdfrwt beam="1">  1        2 0.37418364E+00 0.35063289E+04</pdfrwt>
<pdfrwt beam="2">  1       -2 0.19441680E+00 0.35063289E+04</pdfrwt>
<totfact> 0.45305440E-01</totfact>
</mgrwt>
</event>
<event>
 6    1  0.9988873E-007  0.5027700E+04  0.7818608E-02  0.7824248E-01
         -2   -1    0    0    0  501 -0.00000000000E+00  0.00000000000E+00  0.33470859228E+04  0.33470859228E+04  0.00000000000E+00 0.  1.
          2   -1    0    0  501    0  0.00000000000E+00 -0.00000000000E+00 -0.18880431037E+04  0.18880431037E+04  0.00000000000E+00 0. -1.
         23    2    1    2    0    0 -0.16594644856E+04 -0.41012216608E+03  0.26482228894E+04  0.31527813586E+04  0.70165897985E+02 0.  0.
         11    1    3    3    0    0 -0.11390062607E+04 -0.30126139907E+03  0.17758704127E+04  0.21311521333E+04  0.00000000000E+00 0.  1.
        -11    1    3    3    0    0 -0.52045822485E+03 -0.10886076701E+03  0.87235247672E+03  0.10216292253E+04  0.00000000000E+00 0. -1.
         22    1    1    2    0    0  0.16594644856E+04  0.41012216608E+03 -0.11891800704E+04  0.20823476679E+04  0.00000000000E+00 0. -1.
<mgrwt>
<rscale>  0 0.50277003E+04</rscale>
<asrwt>0</asrwt>
<pdfrwt beam="1">  1        2 0.29046817E+00 0.50277003E+04</pdfrwt>
<pdfrwt beam="2">  1       -2 0.51493630E+00 0.50277003E+04</pdfrwt>
<totfact> 0.75569790E-03</totfact>
</mgrwt>
</event>
<event>
 6    1  0.9988873E-007  0.1487310E+04  0.7818608E-02  0.8892936E-01
         -1   -1    0    0    0  501 -0.00000000000E+00  0.00000000000E+00  0.44623205730E+03  0.44623205730E+03  0.00000000000E+00 0.  1.
          1   -1    0    0  501    0  0.00000000000E+00 -0.00000000000E+00 -0.12393161481E+04  0.12393161481E+04  0.00000000000E+00 0. -1.
         23    2    1    2    0    0 -0.59077495210E+03 -0.30920354532E+03 -0.76404972186E+03  0.10181166576E+04  0.90375187614E+02 0.  0.
         13    1    3    3    0    0 -0.30110922481E+03 -0.10732042124E+03 -0.35208180065E+03  0.47554813893E+03  0.00000000000E+00 0.  1.
        -13    1    3    3    0    0 -0.28966572728E+03 -0.20188312408E+03 -0.41196792120E+03  0.54256851867E+03  0.00000000000E+00 0. -1.
         22    1    1    2    0    0  0.59077495210E+03  0.30920354532E+03 -0.29034368974E+02  0.66743154783E+03  0.00000000000E+00 0.  1.
<mgrwt>
<rscale>  0 0.14873098E+04</rscale>
<asrwt>0</asrwt>
<pdfrwt beam="1">  1        1 0.19066402E+00 0.14873098E+04</pdfrwt>
<pdfrwt beam="2">  1       -1 0.68651087E-01 0.14873098E+04</pdfrwt>
<totfact> 0.20800891E+01</totfact>
</mgrwt>
</event>
<event>
 6    1  0.9988873E-007  0.2302160E+04  0.7818608E-02  0.8477070E-01
         -1   -1    0    0    0  501 -0.00000000000E+00  0.00000000000E+00  0.46815528872E+03  0.46815528872E+03  0.00000000000E+00 0.  1.
          1   -1    0    0  501    0  0.00000000000E+00 -0.00000000000E+00 -0.28302264096E+04  0.28302264096E+04  0.00000000000E+00 0. -1.
         23    2    1    2    0    0  0.77144825105E+03  0.78322912455E+03 -0.16618976028E+04  0.19949925695E+04  0.97526636524E+02 0.  0.
         13    1    3    3    0    0  0.42989483356E+03  0.36768513840E+03 -0.86428779945E+03  0.10329546598E+04  0.00000000000E+00 0.  1.
        -13    1    3    3    0    0  0.34155341748E+03  0.41554398615E+03 -0.79760980332E+03  0.96203790974E+03  0.00000000000E+00 0. -1.
         22    1    1    2    0    0 -0.77144825105E+03 -0.78322912455E+03 -0.70017351810E+03  0.13033891288E+04  0.00000000000E+00 0.  1.
<mgrwt>
<rscale>  0 0.23021603E+04</rscale>
<asrwt>0</asrwt>
<pdfrwt beam="1">  1        1 0.43541945E+00 0.23021603E+04</pdfrwt>
<pdfrwt beam="2">  1       -1 0.72023890E-01 0.23021603E+04</pdfrwt>
<totfact> 0.13943507E+00</totfact>
</mgrwt>
</event>
<event>
 6    1  0.9988873E-007  0.4895673E+04  0.7818608E-02  0.7844805E-01
         -2   -1    0    0    0  501 -0.00000000000E+00  0.00000000000E+00  0.33291561697E+04  0.33291561697E+04  0.00000000000E+00 0.  1.
          2   -1    0    0  501    0  0.00000000000E+00 -0.00000000000E+00 -0.17998263813E+04  0.17998263813E+04  0.00000000000E+00 0. -1.
         23    2    1    2    0    0  0.72047069211E+03  0.22871553216E+04  0.25454729077E+03  0.24132454688E+04  0.93818366790E+02 0.  0.
         11    1    3    3    0    0  0.24092600244E+03  0.74671892047E+03  0.39423858159E+02  0.78561359804E+03  0.00000000000E+00 0. -1.
        -11    1    3    3    0    0  0.47954468967E+03  0.15404364011E+04  0.21512343261E+03  0.16276318707E+04  0.00000000000E+00 0.  1.
         22    1    1    2    0    0 -0.72047069211E+03 -0.22871553216E+04  0.12747824976E+04  0.27157370822E+04  0.00000000000E+00 0.  1.
<mgrwt>
<rscale>  0 0.48956728E+04</rscale>
<asrwt>0</asrwt>
<pdfrwt beam="1">  1        2 0.27689637E+00 0.48956728E+04</pdfrwt>
<pdfrwt beam="2">  1       -2 0.51217787E+00 0.48956728E+04</pdfrwt>
<totfact> 0.88691842E-03</totfact>
</mgrwt>
</event>
<event>
 6    1  0.9988873E-007  0.1633769E+04  0.7818608E-02  0.8800067E-01
         -1   -1    0    0    0  501 -0.00000000000E+00  0.00000000000E+00  0.20337659360E+04  0.20337659360E+04  0.00000000000E+00 0.  1.
          1   -1    0    0  501    0  0.00000000000E+00 -0.00000000000E+00 -0.32811076810E+03  0.32811076810E+03  0.00000000000E+00 0. -1.
         23    2    1    2    0    0 -0.29253388327E+02  0.70791697043E+03  0.27515387722E+03  0.76552582150E+03  0.91202683578E+02 0.  0.
         13    1    3    3    0    0 -0.40177017618E+02  0.40380858213E+03  0.19832311172E+03  0.45167202746E+03  0.00000000000E+00 0.  1.
        -13    1    3    3    0    0  0.10923629291E+02  0.30410838829E+03  0.76830765507E+02  0.31385379404E+03  0.00000000000E+00 0. -1.
         22    1    1    2    0    0  0.29253388327E+02 -0.70791697043E+03  0.14305012907E+04  0.15963508826E+04  0.00000000000E+00 0. -1.
<mgrwt>
<rscale>  0 0.16337693E+04</rscale>
<asrwt>0</asrwt>
<pdfrwt beam="1">  1        1 0.50478581E-01 0.16337693E+04</pdfrwt>
<pdfrwt beam="2">  1       -1 0.31288706E+00 0.16337693E+04</pdfrwt>
<totfact> 0.20364239E+00</totfact>
</mgrwt>
</event>
<event>
 6    1  0.9988873E-007  0.1718867E+04  0.7818608E-02  0.8750677E-01
          2   -1    0    0  501    0  0.00000000000E+00  0.00000000000E+00  0.16826659696E+04  0.16826659696E+04  0.00000000000E+00 0. -1.
         -2   -1    0    0    0  501 -0.00000000000E+00 -0.00000000000E+00 -0.43896150124E+03  0.43896150124E+03  0.00000000000E+00 0.  1.
         23    2    1    2    0    0 -0.50438083328E+02 -0.45248322845E+03  0.15191774952E+04  0.15894898376E+04  0.10626669098E+03 0.  0.
         11    1    3    3    0    0 -0.55732179049E+02 -0.11729418201E+03  0.35495018723E+03  0.37795983428E+03  0.00000000000E+00 0.  1.
        -11    1    3    3    0    0  0.52940957216E+01 -0.33518904644E+03  0.11642273079E+04  0.12115300033E+04  0.00000000000E+00 0. -1.
         22    1    1    2    0    0  0.50438083328E+02  0.45248322845E+03 -0.27547302680E+03  0.53213763330E+03  0.00000000000E+00 0.  1.
<mgrwt>
<rscale>  0 0.17188666E+04</rscale>
<asrwt>0</asrwt>
<pdfrwt beam="1">  1        2 0.25887168E+00 0.17188666E+04</pdfrwt>
<pdfrwt beam="2">  1       -2 0.67532539E-01 0.17188666E+04</pdfrwt>
<totfact> 0.19148639E+01</totfact>
</mgrwt>
</event>
<event>
 6    1  0.9988873E-007  0.6793178E+03  0.7818608E-02  0.9753270E-01
         -1   -1    0    0    0  501 -0.00000000000E+00  0.00000000000E+00  0.26558132816E+03  0.26558132816E+03  0.00000000000E+00 0.  1.
          1   -1    0    0  501    0  0.00000000000E+00 -0.00000000000E+00 -0.43439861349E+03  0.43439861349E+03  0.00000000000E+00 0. -1.
         23    2    1    2    0    0 -0.14316581656E+03 -0.28732628627E+03 -0.18109422493E+03  0.37872681861E+03  0.87097870323E+02 0.  0.
         11    1    3    3    0    0 -0.82711067993E+02 -0.15805954927E+03 -0.50791876484E+02  0.18548249675E+03  0.00000000000E+00 0. -1.
        -11    1    3    3    0    0 -0.60454748571E+02 -0.12926673701E+03 -0.13030234845E+03  0.19324432186E+03  0.00000000000E+00 0.  1.
         22    1    1    2    0    0  0.14316581656E+03  0.28732628627E+03  0.12276939609E+02  0.32125312304E+03  0.00000000000E+00 0.  1.
<mgrwt>
<rscale>  0 0.67931778E+03</rscale>
<asrwt>0</asrwt>
<pdfrwt beam="1">  1        1 0.66830556E-01 0.67931778E+03</pdfrwt>
<pdfrwt beam="2">  1       -1 0.40858666E-01 0.67931778E+03</pdfrwt>
<totfact> 0.31866812E+02</totfact>
</mgrwt>
</event>
<event>
 6    1  0.9988873E-007  0.2604487E+04  0.7818608E-02  0.8366679E-01
          1   -1    0    0  501    0  0.00000000000E+00  0.00000000000E+00  0.46575478203E+04  0.46575478203E+04  0.00000000000E+00 0. -1.
         -1   -1    0    0    0  501 -0.00000000000E+00 -0.00000000000E+00 -0.36410541015E+03  0.36410541015E+03  0.00000000000E+00 0.  1.
         23    2    1    2    0    0 -0.75281286577E+03 -0.10386559098E+04  0.25636078257E+04  0.28680838678E+04  0.91031199457E+02 0.  0.
         11    1    3    3    0    0 -0.17644199331E+03 -0.18685552120E+03  0.48005638761E+03  0.54451896027E+03  0.00000000000E+00 0.  1.
        -11    1    3    3    0    0 -0.57637087246E+03 -0.85180038862E+03  0.20835514381E+04  0.23235649076E+04  0.00000000000E+00 0. -1.
         22    1    1    2    0    0  0.75281286577E+03  0.10386559098E+04  0.17298345844E+04  0.21535693626E+04  0.00000000000E+00 0.  1.
<mgrwt>
<rscale>  0 0.26044872E+04</rscale>
<asrwt>0</asrwt>
<pdfrwt beam="1">  1        1 0.71654577E+00 0.26044872E+04</pdfrwt>
<pdfrwt beam="2">  1       -1 0.56016220E-01 0.26044872E+04</pdfrwt>
<totfact> 0.62543187E-02</totfact>
</mgrwt>
</event>
<event>
 6    1  0.9988873E-007  0.2188559E+04  0.7818608E-02  0.8523205E-01
         -2   -1    0    0    0  501 -0.00000000000E+00  0.00000000000E+00  0.66382438518E+03  0.66382438518E+03  0.00000000000E+00 0.  1.
          2   -1    0    0  501    0  0.00000000000E+00 -0.00000000000E+00 -0.18038614865E+04  0.18038614865E+04  0.00000000000E+00 0. -1.
         23    2    1    2    0    0 -0.20660494943E+03  0.48429820521E+03 -0.16501831900E+04  0.17345560138E+04  0.91376407797E+02 0.  0.
         13    1    3    3    0    0 -0.22657319127E+02  0.13504263566E+03 -0.50578858202E+03  0.52399614241E+03  0.00000000000E+00 0.  1.
        -13    1    3    3    0    0 -0.18394763030E+03  0.34925556955E+03 -0.11443946079E+04  0.12105598714E+04  0.00000000000E+00 0. -1.
         22    1    1    2    0    0  0.20660494943E+03 -0.48429820521E+03  0.51014608867E+03  0.73312985786E+03  0.00000000000E+00 0.  1.
<mgrwt>
<rscale>  0 0.21885587E+04</rscale>
<asrwt>0</asrwt>
<pdfrwt beam="1">  1        2 0.27751715E+00 0.21885587E+04</pdfrwt>
<pdfrwt beam="2">  1       -2 0.10212683E+00 0.21885587E+04</pdfrwt>
<totfact> 0.61715026E+00</totfact>
</mgrwt>
</event>
<event>
 6    1  0.9988873E-007  0.1713407E+04  0.7818608E-02  0.8753755E-01
          2   -1    0    0  501    0  0.00000000000E+00  0.00000000000E+00  0.11886980887E+04  0.11886980887E+04  0.00000000000E+00 0. -1.
         -2   -1    0    0    0  501 -0.00000000000E+00 -0.00000000000E+00 -0.61743228848E+03  0.61743228848E+03  0.00000000000E+00 0.  1.
         23    2    1    2    0    0  0.70822679238E+03 -0.46375660216E+03  0.40552301975E+03  0.94350296934E+03  0.95360149509E+02 0.  0.
         13    1    3    3    0    0  0.34327694086E+03 -0.24195656523E+03  0.15073482196E+03  0.44620961906E+03  0.00000000000E+00 0.  1.
        -13    1    3    3    0    0  0.36494985152E+03 -0.22180003692E+03  0.25478819779E+03  0.49729335028E+03  0.00000000000E+00 0. -1.
         22    1    1    2    0    0 -0.70822679238E+03  0.46375660216E+03  0.16574278049E+03  0.86262740785E+03  0.00000000000E+00 0.  1.
<mgrwt>
<rscale>  0 0.17134066E+04</rscale>
<asrwt>0</asrwt>
<pdfrwt beam="1">  1        2 0.18287663E+00 0.17134066E+04</pdfrwt>
<pdfrwt beam="2">  1       -2 0.94989583E-01 0.17134066E+04</pdfrwt>
<totfact> 0.17051243E+01</totfact>
</mgrwt>
</event>
<event>
 6    1  0.9988873E-007  0.1592943E+04  0.7818608E-02  0.8824895E-01
          2   -1    0    0  501    0  0.00000000000E+00  0.00000000000E+00  0.18095163508E+04  0.18095163508E+04  0.00000000000E+00 0. -1.
         -2   -1    0    0    0  501 -0.00000000000E+00 -0.00000000000E+00 -0.35057269318E+03  0.35057269318E+03  0.00000000000E+00 0.  1.
         23    2    1    2    0    0 -0.25688528253E+03  0.23375391808E+03 -0.23619819662E+03  0.42973161021E+03  0.90822497941E+02 0.  0.
         11    1    3    3    0    0 -0.57451755216E+02  0.87487648455E+02 -0.33305953946E+02  0.10983660309E+03  0.00000000000E+00 0. -1.
        -11    1    3    3    0    0 -0.19943352731E+03  0.14626626962E+03 -0.20289224267E+03  0.31989500712E+03  0.00000000000E+00 0.  1.
         22    1    1    2    0    0  0.25688528253E+03 -0.23375391808E+03  0.16951418543E+04  0.17303574338E+04  0.00000000000E+00 0. -1.
<mgrwt>
<rscale>  0 0.15929432E+04</rscale>
<asrwt>0</asrwt>
<pdfrwt beam="1">  1        2 0.27838712E+00 0.15929432E+04</pdfrwt>
<pdfrwt beam="2">  1       -2 0.53934262E-01 0.15929432E+04</pdfrwt>
<totfact> 0.26481337E+01</totfact>
</mgrwt>
</event>
<event>
 6    1  0.9988873E-007  0.2816635E+04  0.7818608E-02  0.8298122E-01
         -1   -1    0    0    0  501 -0.00000000000E+00  0.00000000000E+00  0.11440919777E+04  0.11440919777E+04  0.00000000000E+00 0.  1.
          1   -1    0    0  501    0  0.00000000000E+00 -0.00000000000E+00 -0.17335657430E+04  0.17335657430E+04  0.00000000000E+00 0. -1.
         23    2    1    2    0    0  0.11208408684E+04 -0.15081603406E+03 -0.11499510892E+04  0.16154514939E+04  0.90919158796E+02 0.  0.
         13    1    3    3    0    0  0.13110742652E+03 -0.29647397971E+02 -0.17739943716E+03  0.22257287751E+03  0.00000000000E+00 0.  1.
        -13    1    3    3    0    0  0.98973344186E+03 -0.12116863609E+03 -0.97255165201E+03  0.13928786164E+04  0.00000000000E+00 0. -1.
         22    1    1    2    0    0 -0.11208408684E+04  0.15081603406E+03  0.56047732378E+03  0.12622062268E+04  0.00000000000E+00 0.  1.
<mgrwt>
<rscale>  0 0.28166353E+04</rscale>
<asrwt>0</asrwt>
<pdfrwt beam="1">  1        1 0.26670242E+00 0.28166353E+04</pdfrwt>
<pdfrwt beam="2">  1       -1 0.17601415E+00 0.28166353E+04</pdfrwt>
<totfact> 0.86921192E-01</totfact>
</mgrwt>
</event>
<event>
 6    1  0.9988873E-007  0.2000083E+04  0.7818608E-02  0.8606582E-01
         -1   -1    0    0    0  501 -0.00000000000E+00  0.00000000000E+00  0.12226780049E+04  0.12226780049E+04  0.00000000000E+00 0.  1.
          1   -1    0    0  501    0  0.00000000000E+00 -0.00000000000E+00 -0.81794463848E+03  0.81794463848E+03  0.00000000000E+00 0. -1.
         23    2    1    2    0    0  0.93246525810E+03 -0.49088849731E+02 -0.15695439673E+03  0.95094639970E+03  0.88109021705E+02 0.  0.
         11    1    3    3    0    0  0.47291458789E+03 -0.68511886247E+02 -0.73324126735E+02  0.48344442655E+03  0.00000000000E+00 0. -1.
        -11    1    3    3    0    0  0.45955067021E+03  0.19423036516E+02 -0.83630269999E+02  0.46750197315E+03  0.00000000000E+00 0.  1.
         22    1    1    2    0    0 -0.93246525810E+03  0.49088849731E+02  0.56168776311E+03  0.10896762436E+04  0.00000000000E+00 0.  1.
<mgrwt>
<rscale>  0 0.20000829E+04</rscale>
<asrwt>0</asrwt>
<pdfrwt beam="1">  1        1 0.12583764E+00 0.20000829E+04</pdfrwt>
<pdfrwt beam="2">  1       -1 0.18810431E+00 0.20000829E+04</pdfrwt>
<totfact> 0.36052073E+00</totfact>
</mgrwt>
</event>
<event>
 6    1  0.9988873E-007  0.2573253E+04  0.7818608E-02  0.8377344E-01
          2   -1    0    0  501    0  0.00000000000E+00  0.00000000000E+00  0.18307734692E+04  0.18307734692E+04  0.00000000000E+00 0. -1.
         -2   -1    0    0    0  501 -0.00000000000E+00 -0.00000000000E+00 -0.90421210540E+03  0.90421210540E+03  0.00000000000E+00 0.  1.
         23    2    1    2    0    0 -0.71585296614E+03  0.79498374915E+03  0.12202759707E+04  0.16256105700E+04  0.95350144864E+02 0.  0.
         11    1    3    3    0    0 -0.38421210139E+03  0.48954598017E+03  0.73939338045E+03  0.96642473924E+03  0.00000000000E+00 0. -1.
        -11    1    3    3    0    0 -0.33164086475E+03  0.30543776899E+03  0.48088259026E+03  0.65918583079E+03  0.00000000000E+00 0.  1.
         22    1    1    2    0    0  0.71585296614E+03 -0.79498374915E+03 -0.29371460688E+03  0.11093750046E+04  0.00000000000E+00 0.  1.
<mgrwt>
<rscale>  0 0.25732528E+04</rscale>
<asrwt>0</asrwt>
<pdfrwt beam="1">  1        2 0.28165746E+00 0.25732528E+04</pdfrwt>
<pdfrwt beam="2">  1       -2 0.13910956E+00 0.25732528E+04</pdfrwt>
<totfact> 0.26859206E+00</totfact>
</mgrwt>
</event>
<event>
 6    1  0.9988873E-007  0.3250243E+04  0.7818608E-02  0.8175673E-01
          1   -1    0    0  501    0  0.00000000000E+00  0.00000000000E+00  0.17973201812E+04  0.17973201812E+04  0.00000000000E+00 0. -1.
         -1   -1    0    0    0  501 -0.00000000000E+00 -0.00000000000E+00 -0.14694209690E+04  0.14694209690E+04  0.00000000000E+00 0.  1.
         23    2    1    2    0    0  0.63582381260E+02 -0.40521967299E+03 -0.14150695629E+04  0.14761586044E+04  0.91524067091E+02 0.  0.
         13    1    3    3    0    0 -0.15155546581E+02 -0.16312476880E+03 -0.48770133106E+03  0.51448223400E+03  0.00000000000E+00 0.  1.
        -13    1    3    3    0    0  0.78737927841E+02 -0.24209490419E+03 -0.92736823182E+03  0.96167637035E+03  0.00000000000E+00 0. -1.
         22    1    1    2    0    0 -0.63582381260E+02  0.40521967299E+03  0.17429687751E+04  0.17905825459E+04  0.00000000000E+00 0. -1.
<mgrwt>
<rscale>  0 0.32502430E+04</rscale>
<asrwt>0</asrwt>
<pdfrwt beam="1">  1        1 0.27651080E+00 0.32502430E+04</pdfrwt>
<pdfrwt beam="2">  1       -1 0.22606477E+00 0.32502430E+04</pdfrwt>
<totfact> 0.34170381E-01</totfact>
</mgrwt>
</event>
<event>
 6    1  0.9988873E-007  0.2865584E+04  0.7818608E-02  0.8283192E-01
         -2   -1    0    0    0  501 -0.00000000000E+00  0.00000000000E+00  0.68831957736E+03  0.68831957736E+03  0.00000000000E+00 0.  1.
          2   -1    0    0  501    0  0.00000000000E+00 -0.00000000000E+00 -0.29824698145E+04  0.29824698145E+04  0.00000000000E+00 0. -1.
         23    2    1    2    0    0  0.14301961055E+04  0.22314014446E+02 -0.10777309287E+04  0.17931220227E+04  0.88452350248E+02 0.  0.
         13    1    3    3    0    0  0.11063171615E+04 -0.94054129722E+01 -0.80001568621E+03  0.13653026118E+04  0.00000000000E+00 0. -1.
        -13    1    3    3    0    0  0.32387894395E+03  0.31719427418E+02 -0.27771524251E+03  0.42781941089E+03  0.00000000000E+00 0.  1.
         22    1    1    2    0    0 -0.14301961055E+04 -0.22314014446E+02 -0.12164193084E+04  0.18776673692E+04  0.00000000000E+00 0. -1.
<mgrwt>
<rscale>  0 0.28655836E+04</rscale>
<asrwt>0</asrwt>
<pdfrwt beam="1">  1        2 0.45884151E+00 0.28655836E+04</pdfrwt>
<pdfrwt beam="2">  1       -2 0.10589532E+00 0.28655836E+04</pdfrwt>
<totfact> 0.11126069E+00</totfact>
</mgrwt>
</event>
<event>
 6    1  0.9988873E-007  0.2484548E+04  0.7818608E-02  0.8408511E-01
         -2   -1    0    0    0  501 -0.00000000000E+00  0.00000000000E+00  0.62995182691E+03  0.62995182691E+03  0.00000000000E+00 0.  1.
          2   -1    0    0  501    0  0.00000000000E+00 -0.00000000000E+00 -0.24497819521E+04  0.24497819521E+04  0.00000000000E+00 0. -1.
         23    2    1    2    0    0  0.84957013053E+03  0.84746527605E+03 -0.13014067392E+04  0.17725499328E+04  0.91142539252E+02 0.  0.
         13    1    3    3    0    0  0.42518030210E+03  0.37031178706E+03 -0.64691198349E+03  0.85813997886E+03  0.00000000000E+00 0. -1.
        -13    1    3    3    0    0  0.42438982843E+03  0.47715348898E+03 -0.65449475572E+03  0.91440995390E+03  0.00000000000E+00 0.  1.
         22    1    1    2    0    0 -0.84957013053E+03 -0.84746527605E+03 -0.51842338601E+03  0.13071838463E+04  0.00000000000E+00 0.  1.
<mgrwt>
<rscale>  0 0.24845479E+04</rscale>
<asrwt>0</asrwt>
<pdfrwt beam="1">  1        2 0.37688954E+00 0.24845479E+04</pdfrwt>
<pdfrwt beam="2">  1       -2 0.96915664E-01 0.24845479E+04</pdfrwt>
<totfact> 0.29555473E+00</totfact>
</mgrwt>
</event>
<event>
 6    1  0.9988873E-007  0.2595468E+04  0.7818608E-02  0.8369742E-01
         -2   -1    0    0    0  501 -0.00000000000E+00  0.00000000000E+00  0.53104544091E+03  0.53104544091E+03  0.00000000000E+00 0.  1.
          2   -1    0    0  501    0  0.00000000000E+00 -0.00000000000E+00 -0.31713175231E+04  0.31713175231E+04  0.00000000000E+00 0. -1.
         23    2    1    2    0    0  0.53637953898E+03 -0.37673982396E+02  0.36039131063E+03  0.65390382277E+03  0.92660530238E+02 0.  0.
         13    1    3    3    0    0  0.11966608933E+03 -0.35554896045E+02  0.11820186529E+03  0.17191801687E+03  0.00000000000E+00 0.  1.
        -13    1    3    3    0    0  0.41671344965E+03 -0.21190863512E+01  0.24218944535E+03  0.48198580590E+03  0.00000000000E+00 0. -1.
         22    1    1    2    0    0 -0.53637953898E+03  0.37673982396E+02 -0.30006633928E+04  0.30484591412E+04  0.00000000000E+00 0. -1.
<mgrwt>
<rscale>  0 0.25954681E+04</rscale>
<asrwt>0</asrwt>
<pdfrwt beam="1">  1        2 0.48789500E+00 0.25954681E+04</pdfrwt>
<pdfrwt beam="2">  1       -2 0.81699298E-01 0.25954681E+04</pdfrwt>
<totfact> 0.15793711E+00</totfact>
</mgrwt>
</event>
<event>
 6    1  0.9988873E-007  0.3226023E+04  0.7818608E-02  0.8181978E-01
          1   -1    0    0  501    0  0.00000000000E+00  0.00000000000E+00  0.21205814573E+04  0.21205814573E+04  0.00000000000E+00 0. -1.
         -1   -1    0    0    0  501 -0.00000000000E+00 -0.00000000000E+00 -0.12269303134E+04  0.12269303134E+04  0.00000000000E+00 0.  1.
         23    2    1    2    0    0  0.45829091910E+03 -0.39016036992E+03 -0.11044796244E+04  0.12607002678E+04  0.85054357655E+02 0.  0.
         11    1    3    3    0    0  0.30357886107E+03 -0.30653508330E+03 -0.75944008893E+03  0.87342608781E+03  0.00000000000E+00 0.  1.
        -11    1    3    3    0    0  0.15471205803E+03 -0.83625286624E+02 -0.34503953550E+03  0.38727418004E+03  0.00000000000E+00 0. -1.
         22    1    1    2    0    0 -0.45829091910E+03  0.39016036992E+03  0.19981307684E+04  0.20868115029E+04  0.00000000000E+00 0. -1.
<mgrwt>
<rscale>  0 0.32260227E+04</rscale>
<asrwt>0</asrwt>
<pdfrwt beam="1">  1        1 0.32624330E+00 0.32260227E+04</pdfrwt>
<pdfrwt beam="2">  1       -1 0.18875851E+00 0.32260227E+04</pdfrwt>
<totfact> 0.37138288E-01</totfact>
</mgrwt>
</event>
<event>
 6    1  0.9988873E-007  0.4194029E+04  0.7818608E-02  0.7966509E-01
         -2   -1    0    0    0  501 -0.00000000000E+00  0.00000000000E+00  0.23300761775E+04  0.23300761775E+04  0.00000000000E+00 0.  1.
          2   -1    0    0  501    0  0.00000000000E+00 -0.00000000000E+00 -0.18872647688E+04  0.18872647688E+04  0.00000000000E+00 0. -1.
         23    2    1    2    0    0  0.16887538568E+04  0.26819523304E+03  0.14402381441E+04  0.22377757505E+04  0.97653090069E+02 0.  0.
         11    1    3    3    0    0  0.56480077314E+03  0.12196776972E+03  0.44304192405E+03  0.72812237753E+03  0.00000000000E+00 0. -1.
        -11    1    3    3    0    0  0.11239530837E+04  0.14622746332E+03  0.99719622006E+03  0.15096533730E+04  0.00000000000E+00 0.  1.
         22    1    1    2    0    0 -0.16887538568E+04 -0.26819523304E+03 -0.99742673536E+03  0.19795651958E+04  0.00000000000E+00 0. -1.
<mgrwt>
<rscale>  0 0.41940294E+04</rscale>
<asrwt>0</asrwt>
<pdfrwt beam="1">  1        2 0.29034843E+00 0.41940294E+04</pdfrwt>
<pdfrwt beam="2">  1       -2 0.35847326E+00 0.41940294E+04</pdfrwt>
<totfact> 0.82411607E-02</totfact>
</mgrwt>
</event>
<event>
 6    1  0.9988873E-007  0.2906813E+04  0.7818608E-02  0.8270853E-01
         -2   -1    0    0    0  501 -0.00000000000E+00  0.00000000000E+00  0.12238744576E+04  0.12238744576E+04  0.00000000000E+00 0.  1.
          2   -1    0    0  501    0  0.00000000000E+00 -0.00000000000E+00 -0.17259856568E+04  0.17259856568E+04  0.00000000000E+00 0. -1.
         23    2    1    2    0    0 -0.12857777239E+04  0.68638663343E+02 -0.93219948679E+03  0.15923213280E+04  0.92497065683E+02 0.  0.
         11    1    3    3    0    0 -0.11152553343E+04  0.40570058184E+02 -0.83719854768E+03  0.13951135432E+04  0.00000000000E+00 0. -1.
        -11    1    3    3    0    0 -0.17052238959E+03  0.28068605159E+02 -0.95000939113E+02  0.19720778479E+03  0.00000000000E+00 0.  1.
         22    1    1    2    0    0  0.12857777239E+04 -0.68638663343E+02  0.43008828758E+03  0.13575387863E+04  0.00000000000E+00 0.  1.
<mgrwt>
<rscale>  0 0.29068125E+04</rscale>
<asrwt>0</asrwt>
<pdfrwt beam="1">  1        2 0.26553625E+00 0.29068125E+04</pdfrwt>
<pdfrwt beam="2">  1       -2 0.18828838E+00 0.29068125E+04</pdfrwt>
<totfact> 0.13025281E+00</totfact>
</mgrwt>
</event>
<event>
 6    1  0.9988873E-007  0.1294516E+04  0.7818608E-02  0.9033925E-01
          1   -1    0    0  501    0  0.00000000000E+00  0.00000000000E+00  0.75224602682E+03  0.75224602682E+03  0.00000000000E+00 0. -1.
         -1   -1    0    0    0  501 -0.00000000000E+00 -0.00000000000E+00 -0.55692269797E+03  0.55692269797E+03  0.00000000000E+00 0.  1.
         23    2    1    2    0    0  0.42927786324E+03 -0.42038020391E+03  0.33287817956E+03  0.69279194337E+03  0.90298364698E+02 0.  0.
         13    1    3    3    0    0  0.39717916020E+02 -0.73473136148E+02  0.25482499631E+02  0.87322232999E+02  0.00000000000E+00 0. -1.
        -13    1    3    3    0    0  0.38955994722E+03 -0.34690706777E+03  0.30739567993E+03  0.60546971037E+03  0.00000000000E+00 0.  1.
         22    1    1    2    0    0 -0.42927786324E+03  0.42038020391E+03 -0.13755485071E+03  0.61637678141E+03  0.00000000000E+00 0.  1.
<mgrwt>
<rscale>  0 0.12945160E+04</rscale>
<asrwt>0</asrwt>
<pdfrwt beam="1">  1        1 0.11573016E+00 0.12945160E+04</pdfrwt>
<pdfrwt beam="2">  1       -1 0.85680415E-01 0.12945160E+04</pdfrwt>
<totfact> 0.32257333E+01</totfact>
</mgrwt>
</event>
<event>
 6    1  0.1128730E-006  0.3585410E+04  0.7818608E-02  0.8093842E-01
          1   -1    0    0  501    0  0.00000000000E+00  0.00000000000E+00  0.27555846826E+04  0.27555846826E+04  0.00000000000E+00 0. -1.
         -1   -1    0    0    0  501 -0.00000000000E+00 -0.00000000000E+00 -0.11662829752E+04  0.11662829752E+04  0.00000000000E+00 0.  1.
         23    2    1    2    0    0  0.74843516488E+03  0.16086294734E+04  0.52206322627E+03  0.18513986398E+04  0.85340099026E+02 0.  0.
         11    1    3    3    0    0  0.39890585114E+03  0.82917369132E+03  0.22802661608E+03  0.94797205976E+03  0.00000000000E+00 0.  1.
        -11    1    3    3    0    0  0.34952931374E+03  0.77945578209E+03  0.29403661018E+03  0.90342658004E+03  0.00000000000E+00 0. -1.
         22    1    1    2    0    0 -0.74843516488E+03 -0.16086294734E+04  0.10672384811E+04  0.20704690179E+04  0.00000000000E+00 0.  1.
<mgrwt>
<rscale>  0 0.35854102E+04</rscale>
<asrwt>0</asrwt>
<pdfrwt beam="1">  1        1 0.42393610E+00 0.35854102E+04</pdfrwt>
<pdfrwt beam="2">  1       -1 0.17942815E+00 0.35854102E+04</pdfrwt>
<totfact> 0.15247989E-01</totfact>
</mgrwt>
</event>
<event>
 6    1  0.9988873E-007  0.2351365E+04  0.7818608E-02  0.8457940E-01
         -1   -1    0    0    0  501 -0.00000000000E+00  0.00000000000E+00  0.20169412191E+04  0.20169412191E+04  0.00000000000E+00 0.  1.
          1   -1    0    0  501    0  0.00000000000E+00 -0.00000000000E+00 -0.68530948806E+03  0.68530948806E+03  0.00000000000E+00 0. -1.
         23    2    1    2    0    0 -0.97637957829E+03  0.39331121773E+03  0.69520684834E+02  0.10587985211E+04  0.90611190052E+02 0.  0.
         13    1    3    3    0    0 -0.55795754395E+03  0.27118484192E+03  0.52481656275E+02  0.62258506534E+03  0.00000000000E+00 0.  1.
        -13    1    3    3    0    0 -0.41842203434E+03  0.12212637581E+03  0.17039028559E+02  0.43621345576E+03  0.00000000000E+00 0. -1.
         22    1    1    2    0    0  0.97637957829E+03 -0.39331121773E+03  0.12621110462E+04  0.16434521860E+04  0.00000000000E+00 0.  1.
<mgrwt>
<rscale>  0 0.23513647E+04</rscale>
<asrwt>0</asrwt>
<pdfrwt beam="1">  1        1 0.10543223E+00 0.23513647E+04</pdfrwt>
<pdfrwt beam="2">  1       -1 0.31029865E+00 0.23513647E+04</pdfrwt>
<totfact> 0.71697852E-01</totfact>
</mgrwt>
</event>
<event>
 6    1  0.9988873E-007  0.1932805E+04  0.7818608E-02  0.8638697E-01
         -1   -1    0    0    0  501 -0.00000000000E+00  0.00000000000E+00  0.42823936355E+03  0.42823936355E+03  0.00000000000E+00 0.  1.
          1   -1    0    0  501    0  0.00000000000E+00 -0.00000000000E+00 -0.21808690375E+04  0.21808690375E+04  0.00000000000E+00 0. -1.
         23    2    1    2    0    0  0.67436139603E+03  0.30346901640E+02  0.51210435897E+02  0.68309610390E+03  0.91178679105E+02 0.  0.
         11    1    3    3    0    0  0.46262299713E+03 -0.21463758224E+02  0.39324915015E+02  0.46478724093E+03  0.00000000000E+00 0. -1.
        -11    1    3    3    0    0  0.21173839890E+03  0.51810659865E+02  0.11885520882E+02  0.21830886297E+03  0.00000000000E+00 0.  1.
         22    1    1    2    0    0 -0.67436139603E+03 -0.30346901640E+02 -0.18038401098E+04  0.19260122971E+04  0.00000000000E+00 0. -1.
<mgrwt>
<rscale>  0 0.19328052E+04</rscale>
<asrwt>0</asrwt>
<pdfrwt beam="1">  1        1 0.33551832E+00 0.19328052E+04</pdfrwt>
<pdfrwt beam="2">  1       -1 0.65882979E-01 0.19328052E+04</pdfrwt>
<totfact> 0.48916419E+00</totfact>
</mgrwt>
</event>
<event>
 6    1  0.9988873E-007  0.2522016E+04  0.7818608E-02  0.8395184E-01
         -2   -1    0    0    0  501 -0.00000000000E+00  0.00000000000E+00  0.47630761195E+03  0.47630761195E+03  0.00000000000E+00 0.  1.
          2   -1    0    0  501    0  0.00000000000E+00 -0.00000000000E+00 -0.33384750494E+04  0.33384750494E+04  0.00000000000E+00 0. -1.
         23    2    1    2    0    0 -0.27651161174E+03  0.69240449737E+03 -0.29681234102E+04  0.30617160458E+04  0.92010366360E+02 0.  0.
         13    1    3    3    0    0 -0.21604359422E+03  0.46099788369E+03 -0.18888756858E+04  0.19562835274E+04  0.00000000000E+00 0. -1.
        -13    1    3    3    0    0 -0.60468017520E+02  0.23140661368E+03 -0.10792477244E+04  0.11054325183E+04  0.00000000000E+00 0.  1.
         22    1    1    2    0    0  0.27651161174E+03 -0.69240449737E+03  0.10595597269E+03  0.75306661562E+03  0.00000000000E+00 0.  1.
<mgrwt>
<rscale>  0 0.25220159E+04</rscale>
<asrwt>0</asrwt>
<pdfrwt beam="1">  1        2 0.51361154E+00 0.25220159E+04</pdfrwt>
<pdfrwt beam="2">  1       -2 0.73278095E-01 0.25220159E+04</pdfrwt>
<totfact> 0.15719693E+00</totfact>
</mgrwt>
</event>
<event>
 6    1  0.9988873E-007  0.2892742E+04  0.7818608E-02  0.8275040E-01
          2   -1    0    0  501    0  0.00000000000E+00  0.00000000000E+00  0.13858900528E+04  0.13858900528E+04  0.00000000000E+00 0. -1.
         -2   -1    0    0    0  501 -0.00000000000E+00 -0.00000000000E+00 -0.15094915106E+04  0.15094915106E+04  0.00000000000E+00 0.  1.
         23    2    1    2    0    0  0.13519403610E+04 -0.17903094007E+03 -0.53924288276E+03  0.14697053690E+04  0.97242830468E+02 0.  0.
         13    1    3    3    0    0  0.10644758266E+04 -0.17502274454E+03 -0.44782898049E+03  0.11680293414E+04  0.00000000000E+00 0. -1.
        -13    1    3    3    0    0  0.28746453431E+03 -0.40081955339E+01 -0.91413902272E+02  0.30167602763E+03  0.00000000000E+00 0.  1.
         22    1    1    2    0    0 -0.13519403610E+04  0.17903094007E+03  0.41564142503E+03  0.14256761944E+04  0.00000000000E+00 0. -1.
<mgrwt>
<rscale>  0 0.28927421E+04</rscale>
<asrwt>0</asrwt>
<pdfrwt beam="1">  1        2 0.21321385E+00 0.28927421E+04</pdfrwt>
<pdfrwt beam="2">  1       -2 0.23222946E+00 0.28927421E+04</pdfrwt>
<totfact> 0.10541754E+00</totfact>
</mgrwt>
</event>
<event>
 6    1  0.9988873E-007  0.2646739E+04  0.7818608E-02  0.8352496E-01
          1   -1    0    0  501    0  0.00000000000E+00  0.00000000000E+00  0.33389244498E+04  0.33389244498E+04  0.00000000000E+00 0. -1.
         -1   -1    0    0    0  501 -0.00000000000E+00 -0.00000000000E+00 -0.52451210715E+03  0.52451210715E+03  0.00000000000E+00 0.  1.
         23    2    1    2    0    0 -0.13661149887E+03  0.12390216106E+04  0.20506320104E+04  0.24015208106E+04  0.91505785308E+02 0.  0.
         11    1    3    3    0    0 -0.66040034743E+02  0.43086483459E+03  0.79410649224E+03  0.90587577123E+03  0.00000000000E+00 0. -1.
        -11    1    3    3    0    0 -0.70571464130E+02  0.80815677606E+03  0.12565255181E+04  0.14956450394E+04  0.00000000000E+00 0.  1.
         22    1    1    2    0    0  0.13661149887E+03 -0.12390216106E+04  0.76378033226E+03  0.14619157463E+04  0.00000000000E+00 0.  1.
<mgrwt>
<rscale>  0 0.26467386E+04</rscale>
<asrwt>0</asrwt>
<pdfrwt beam="1">  1        1 0.51368067E+00 0.26467386E+04</pdfrwt>
<pdfrwt beam="2">  1       -1 0.80694173E-01 0.26467386E+04</pdfrwt>
<totfact> 0.44792671E-01</totfact>
</mgrwt>
</event>
<event>
 6    1  0.9988873E-007  0.3558120E+04  0.7818608E-02  0.8100153E-01
          1   -1    0    0  501    0  0.00000000000E+00  0.00000000000E+00  0.27316322241E+04  0.27316322241E+04  0.00000000000E+00 0. -1.
         -1   -1    0    0    0  501 -0.00000000000E+00 -0.00000000000E+00 -0.11586675650E+04  0.11586675650E+04  0.00000000000E+00 0.  1.
         23    2    1    2    0    0  0.19600188496E+03  0.11596459485E+04 -0.67071634428E+03  0.13570607735E+04  0.92509803613E+02 0.  0.
         13    1    3    3    0    0  0.18416682628E+03  0.84463236444E+03 -0.48869429925E+03  0.99304751603E+03  0.00000000000E+00 0.  1.
        -13    1    3    3    0    0  0.11835058673E+02  0.31501358404E+03 -0.18202204503E+03  0.36401325748E+03  0.00000000000E+00 0. -1.
         22    1    1    2    0    0 -0.19600188496E+03 -0.11596459485E+04  0.22436810034E+04  0.25332390155E+04  0.00000000000E+00 0. -1.
<mgrwt>
<rscale>  0 0.35581195E+04</rscale>
<asrwt>0</asrwt>
<pdfrwt beam="1">  1        1 0.42025111E+00 0.35581195E+04</pdfrwt>
<pdfrwt beam="2">  1       -1 0.17825655E+00 0.35581195E+04</pdfrwt>
<totfact> 0.16204995E-01</totfact>
</mgrwt>
</event>
<event>
 6    1  0.9988873E-007  0.1564390E+04  0.7818608E-02  0.8842728E-01
         -2   -1    0    0    0  501 -0.00000000000E+00  0.00000000000E+00  0.16429580751E+03  0.16429580751E+03  0.00000000000E+00 0.  1.
          2   -1    0    0  501    0  0.00000000000E+00 -0.00000000000E+00 -0.37239465701E+04  0.37239465701E+04  0.00000000000E+00 0. -1.
         23    2    1    2    0    0  0.19353023708E+03 -0.75510126453E+03 -0.18085354961E+04  0.19714647304E+04  0.90778136976E+02 0.  0.
         13    1    3    3    0    0  0.34593265990E+02 -0.23851330101E+03 -0.47739973087E+03  0.53478574387E+03  0.00000000000E+00 0. -1.
        -13    1    3    3    0    0  0.15893697109E+03 -0.51658796352E+03 -0.13311357652E+04  0.14366789865E+04  0.00000000000E+00 0.  1.
         22    1    1    2    0    0 -0.19353023708E+03  0.75510126453E+03 -0.17511152665E+04  0.19167776472E+04  0.00000000000E+00 0. -1.
<mgrwt>
<rscale>  0 0.15643897E+04</rscale>
<asrwt>0</asrwt>
<pdfrwt beam="1">  1        2 0.57291490E+00 0.15643897E+04</pdfrwt>
<pdfrwt beam="2">  1       -2 0.25276276E-01 0.15643897E+04</pdfrwt>
<totfact> 0.77001443E+00</totfact>
</mgrwt>
</event>
<event>
 6    1  0.9988873E-007  0.4232318E+04  0.7818608E-02  0.7959253E-01
          2   -1    0    0  501    0  0.00000000000E+00  0.00000000000E+00  0.20656145468E+04  0.20656145468E+04  0.00000000000E+00 0. -1.
         -2   -1    0    0    0  501 -0.00000000000E+00 -0.00000000000E+00 -0.21679403056E+04  0.21679403056E+04  0.00000000000E+00 0.  1.
         23    2    1    2    0    0 -0.12435057545E+04  0.91956059665E+02 -0.17602518893E+04  0.21590714149E+04  0.91324598817E+02 0.  0.
         11    1    3    3    0    0 -0.66330320803E+03  0.81979698831E+02 -0.88753132259E+03  0.11110372025E+04  0.00000000000E+00 0. -1.
        -11    1    3    3    0    0 -0.58020254650E+03  0.99763608341E+01 -0.87272056668E+03  0.10480342123E+04  0.00000000000E+00 0.  1.
         22    1    1    2    0    0  0.12435057545E+04 -0.91956059665E+02  0.16579261305E+04  0.20744834375E+04  0.00000000000E+00 0. -1.
<mgrwt>
<rscale>  0 0.42323181E+04</rscale>
<asrwt>0</asrwt>
<pdfrwt beam="1">  1        2 0.31778685E+00 0.42323181E+04</pdfrwt>
<pdfrwt beam="2">  1       -2 0.33352928E+00 0.42323181E+04</pdfrwt>
<totfact> 0.93834303E-02</totfact>
</mgrwt>
</event>
<event>
 6    1  0.9988873E-007  0.2692888E+04  0.7818608E-02  0.8337316E-01
          2   -1    0    0  501    0  0.00000000000E+00  0.00000000000E+00  0.11170611394E+04  0.11170611394E+04  0.00000000000E+00 0. -1.
         -2   -1    0    0    0  501 -0.00000000000E+00 -0.00000000000E+00 -0.16229292587E+04  0.16229292587E+04  0.00000000000E+00 0.  1.
         23    2    1    2    0    0 -0.79396810438E+03  0.37244776436E+03  0.78440366276E+03  0.11798929782E+04  0.88066144690E+02 0.  0.
         13    1    3    3    0    0 -0.69690014879E+02  0.38103269673E+02  0.40602221866E+02  0.89202565849E+02  0.00000000000E+00 0. -1.
        -13    1    3    3    0    0 -0.72427808950E+03  0.33434449469E+03  0.74380144089E+03  0.10906904123E+04  0.00000000000E+00 0.  1.
         22    1    1    2    0    0  0.79396810438E+03 -0.37244776436E+03 -0.12902717821E+04  0.15600974199E+04  0.00000000000E+00 0.  1.
<mgrwt>
<rscale>  0 0.26928878E+04</rscale>
<asrwt>0</asrwt>
<pdfrwt beam="1">  1        2 0.17185556E+00 0.26928878E+04</pdfrwt>
<pdfrwt beam="2">  1       -2 0.24968142E+00 0.26928878E+04</pdfrwt>
<totfact> 0.12049243E+00</totfact>
</mgrwt>
</event>
<event>
 6    1  0.9988873E-007  0.1456438E+04  0.7818608E-02  0.8913949E-01
         -2   -1    0    0    0  501 -0.00000000000E+00  0.00000000000E+00  0.70837029534E+03  0.70837029534E+03  0.00000000000E+00 0.  1.
          2   -1    0    0  501    0  0.00000000000E+00 -0.00000000000E+00 -0.74862369713E+03  0.74862369713E+03  0.00000000000E+00 0. -1.
         23    2    1    2    0    0  0.48420528259E+03 -0.33743217820E+03  0.40148274953E+03  0.71980605310E+03  0.92828472693E+02 0.  0.
         13    1    3    3    0    0  0.37699396818E+03 -0.24552071637E+03  0.34808937008E+03  0.56883308956E+03  0.00000000000E+00 0.  1.
        -13    1    3    3    0    0  0.10721131441E+03 -0.91911461830E+02  0.53393379445E+02  0.15097296354E+03  0.00000000000E+00 0. -1.
         22    1    1    2    0    0 -0.48420528259E+03  0.33743217820E+03 -0.44173615132E+03  0.73718793937E+03  0.00000000000E+00 0. -1.
<mgrwt>
<rscale>  0 0.14564378E+04</rscale>
<asrwt>0</asrwt>
<pdfrwt beam="1">  1        2 0.11517288E+00 0.14564378E+04</pdfrwt>
<pdfrwt beam="2">  1       -2 0.10898005E+00 0.14564378E+04</pdfrwt>
<totfact> 0.24487830E+01</totfact>
</mgrwt>
</event>
<event>
 6    1  0.9988873E-007  0.2129310E+04  0.7818608E-02  0.8548441E-01
          2   -1    0    0  501    0  0.00000000000E+00  0.00000000000E+00  0.22017501856E+04  0.22017501856E+04  0.00000000000E+00 0. -1.
         -2   -1    0    0    0  501 -0.00000000000E+00 -0.00000000000E+00 -0.51481305852E+03  0.51481305852E+03  0.00000000000E+00 0.  1.
         23    2    1    2    0    0  0.46280776199E+03 -0.62134441243E+03 -0.83067692005E+02  0.78442014305E+03  0.90304019599E+02 0.  0.
         11    1    3    3    0    0  0.55232548915E+02 -0.13214624597E+03 -0.18667416011E+02  0.14443592768E+03  0.00000000000E+00 0.  1.
        -11    1    3    3    0    0  0.40757521307E+03 -0.48919816646E+03 -0.64400275994E+02  0.63998421537E+03  0.00000000000E+00 0. -1.
         22    1    1    2    0    0 -0.46280776199E+03  0.62134441243E+03  0.17700048191E+04  0.19321431010E+04  0.00000000000E+00 0. -1.
<mgrwt>
<rscale>  0 0.21293095E+04</rscale>
<asrwt>0</asrwt>
<pdfrwt beam="1">  1        2 0.33873079E+00 0.21293095E+04</pdfrwt>
<pdfrwt beam="2">  1       -2 0.79202010E-01 0.21293095E+04</pdfrwt>
<totfact> 0.66961307E+00</totfact>
</mgrwt>
</event>
<event>
 6    1  0.9988873E-007  0.2803926E+04  0.7818608E-02  0.8302050E-01
         -2   -1    0    0    0  501 -0.00000000000E+00  0.00000000000E+00  0.24984730716E+04  0.24984730716E+04  0.00000000000E+00 0.  1.
          2   -1    0    0  501    0  0.00000000000E+00 -0.00000000000E+00 -0.78668071013E+03  0.78668071013E+03  0.00000000000E+00 0. -1.
         23    2    1    2    0    0 -0.44385240282E+02  0.83256212778E+03  0.21751851925E+04  0.23312865677E+04  0.91305492178E+02 0.  0.
         13    1    3    3    0    0  0.24544541737E+02  0.37139346102E+03  0.93827181486E+03  0.10094005825E+04  0.00000000000E+00 0. -1.
        -13    1    3    3    0    0 -0.68929782019E+02  0.46116866676E+03  0.12369133776E+04  0.13218859852E+04  0.00000000000E+00 0.  1.
         22    1    1    2    0    0  0.44385240282E+02 -0.83256212778E+03 -0.46339283102E+03  0.95386721403E+03  0.00000000000E+00 0. -1.
<mgrwt>
<rscale>  0 0.28039262E+04</rscale>
<asrwt>0</asrwt>
<pdfrwt beam="1">  1        2 0.12102780E+00 0.28039262E+04</pdfrwt>
<pdfrwt beam="2">  1       -2 0.38438047E+00 0.28039262E+04</pdfrwt>
<totfact> 0.28733173E-01</totfact>
</mgrwt>
</event>
<event>
 6    1  0.9988873E-007  0.1226913E+04  0.7818608E-02  0.9089621E-01
          1   -1    0    0  501    0  0.00000000000E+00  0.00000000000E+00  0.12042444657E+04  0.12042444657E+04  0.00000000000E+00 0. -1.
         -1   -1    0    0    0  501 -0.00000000000E+00 -0.00000000000E+00 -0.31250200515E+03  0.31250200515E+03  0.00000000000E+00 0.  1.
         23    2    1    2    0    0  0.43308126374E+03 -0.32415839201E+03  0.97720042274E+02  0.55596051923E+03  0.83095416091E+02 0.  0.
         11    1    3    3    0    0  0.16651798128E+03 -0.17577097723E+03  0.37956509425E+02  0.24508033608E+03  0.00000000000E+00 0.  1.
        -11    1    3    3    0    0  0.26656328246E+03 -0.14838741478E+03  0.59763532849E+02  0.31088018316E+03  0.00000000000E+00 0. -1.
         22    1    1    2    0    0 -0.43308126374E+03  0.32415839201E+03  0.79402241830E+03  0.96078595164E+03  0.00000000000E+00 0.  1.
<mgrwt>
<rscale>  0 0.12269129E+04</rscale>
<asrwt>0</asrwt>
<pdfrwt beam="1">  1        1 0.18526838E+00 0.12269129E+04</pdfrwt>
<pdfrwt beam="2">  1       -1 0.48077232E-01 0.12269129E+04</pdfrwt>
<totfact> 0.45305825E+01</totfact>
</mgrwt>
</event>
<event>
 6    1  0.9988873E-007  0.1942405E+04  0.7818608E-02  0.8634032E-01
          1   -1    0    0  501    0  0.00000000000E+00  0.00000000000E+00  0.20107068100E+04  0.20107068100E+04  0.00000000000E+00 0. -1.
         -1   -1    0    0    0  501 -0.00000000000E+00 -0.00000000000E+00 -0.46910601572E+03  0.46910601572E+03  0.00000000000E+00 0.  1.
         23    2    1    2    0    0  0.69844038372E+03 -0.19574336936E+03 -0.47550921644E+02  0.73294774435E+03  0.93898187107E+02 0.  0.
         13    1    3    3    0    0  0.21607250823E+03 -0.10532615295E+03 -0.64905541408E+01  0.24046424807E+03  0.00000000000E+00 0. -1.
        -13    1    3    3    0    0  0.48236787549E+03 -0.90417216411E+02 -0.41060367504E+02  0.49248349628E+03  0.00000000000E+00 0.  1.
         22    1    1    2    0    0 -0.69844038372E+03  0.19574336936E+03  0.15891517159E+04  0.17468650813E+04  0.00000000000E+00 0. -1.
<mgrwt>
<rscale>  0 0.19424054E+04</rscale>
<asrwt>0</asrwt>
<pdfrwt beam="1">  1        1 0.30933950E+00 0.19424054E+04</pdfrwt>
<pdfrwt beam="2">  1       -1 0.72170157E-01 0.19424054E+04</pdfrwt>
<totfact> 0.52920603E+00</totfact>
</mgrwt>
</event>
<event>
 6    1  0.9988873E-007  0.7696560E+03  0.7818608E-02  0.9605008E-01
          2   -1    0    0  501    0  0.00000000000E+00  0.00000000000E+00  0.21420628090E+04  0.21420628090E+04  0.00000000000E+00 0. -1.
         -2   -1    0    0    0  501 -0.00000000000E+00 -0.00000000000E+00 -0.69135510877E+02  0.69135510877E+02  0.00000000000E+00 0.  1.
         23    2    1    2    0    0 -0.18981700883E+03  0.32301513560E+03  0.12244625148E+04  0.12836953478E+04  0.90531879182E+02 0.  0.
         11    1    3    3    0    0 -0.28981957994E+02  0.99258646772E+02  0.44819195396E+03  0.45996549918E+03  0.00000000000E+00 0. -1.
        -11    1    3    3    0    0 -0.16083505083E+03  0.22375648883E+03  0.77627056080E+03  0.82372984858E+03  0.00000000000E+00 0.  1.
         22    1    1    2    0    0  0.18981700883E+03 -0.32301513560E+03  0.84846478333E+03  0.92750297209E+03  0.00000000000E+00 0.  1.
<mgrwt>
<rscale>  0 0.76965604E+03</rscale>
<asrwt>0</asrwt>
<pdfrwt beam="1">  1        2 0.32954807E+00 0.76965604E+03</pdfrwt>
<pdfrwt beam="2">  1       -2 0.10636234E-01 0.76965604E+03</pdfrwt>
<totfact> 0.35433362E+02</totfact>
</mgrwt>
</event>
<event>
 6    1  0.9988873E-007  0.2532263E+04  0.7818608E-02  0.8391581E-01
         -3   -1    0    0    0  501 -0.00000000000E+00  0.00000000000E+00  0.72125769452E+03  0.72125769452E+03  0.00000000000E+00 0.  1.
          3   -1    0    0  501    0  0.00000000000E+00 -0.00000000000E+00 -0.22226291918E+04  0.22226291918E+04  0.00000000000E+00 0. -1.
         23    2    1    2    0    0 -0.53779098083E+03 -0.53442326831E+03 -0.19282885560E+04  0.20737802584E+04  0.86257962239E+02 0.  0.
         11    1    3    3    0    0 -0.43485302405E+03 -0.42369485281E+03 -0.16292229180E+04  0.17386724239E+04  0.00000000000E+00 0.  1.
        -11    1    3    3    0    0 -0.10293795679E+03 -0.11072841550E+03 -0.29906563799E+03  0.33510783455E+03  0.00000000000E+00 0. -1.
         22    1    1    2    0    0  0.53779098083E+03  0.53442326831E+03  0.42691705879E+03  0.87010662787E+03  0.00000000000E+00 0.  1.
<mgrwt>
<rscale>  0 0.25322626E+04</rscale>
<asrwt>0</asrwt>
<pdfrwt beam="1">  1        3 0.34194295E+00 0.25322626E+04</pdfrwt>
<pdfrwt beam="2">  1       -3 0.11096272E+00 0.25322626E+04</pdfrwt>
<totfact> 0.36095017E-02</totfact>
</mgrwt>
</event>
<event>
 6    1  0.1119178E-006  0.3073250E+04  0.7818608E-02  0.8223118E-01
         -2   -1    0    0    0  501 -0.00000000000E+00  0.00000000000E+00  0.12144855461E+04  0.12144855461E+04  0.00000000000E+00 0.  1.
          2   -1    0    0  501    0  0.00000000000E+00 -0.00000000000E+00 -0.19442116079E+04  0.19442116079E+04  0.00000000000E+00 0. -1.
         23    2    1    2    0    0 -0.13444783094E+04  0.48513470368E+03  0.20941846815E+03  0.14484427715E+04  0.10560663920E+03 0.  0.
         11    1    3    3    0    0 -0.89995027798E+03  0.30511736435E+03  0.92189541998E+02  0.95472824432E+03  0.00000000000E+00 0. -1.
        -11    1    3    3    0    0 -0.44452803141E+03  0.18001733933E+03  0.11722892616E+03  0.49371452713E+03  0.00000000000E+00 0.  1.
         22    1    1    2    0    0  0.13444783094E+04 -0.48513470368E+03 -0.93914452991E+03  0.17102543826E+04  0.00000000000E+00 0. -1.
<mgrwt>
<rscale>  0 0.30732503E+04</rscale>
<asrwt>0</asrwt>
<pdfrwt beam="1">  1        2 0.29910948E+00 0.30732503E+04</pdfrwt>
<pdfrwt beam="2">  1       -2 0.18684393E+00 0.30732503E+04</pdfrwt>
<totfact> 0.99406999E-01</totfact>
</mgrwt>
</event>
<event>
 6    1  0.9988873E-007  0.3144222E+04  0.7818608E-02  0.8203705E-01
          1   -1    0    0  501    0  0.00000000000E+00  0.00000000000E+00  0.21184313904E+04  0.21184313904E+04  0.00000000000E+00 0. -1.
         -1   -1    0    0    0  501 -0.00000000000E+00 -0.00000000000E+00 -0.11666809000E+04  0.11666809000E+04  0.00000000000E+00 0.  1.
         23    2    1    2    0    0  0.10311373885E+04 -0.72579111278E+03  0.14549122010E+04  0.19274714099E+04  0.91430137784E+02 0.  0.
         11    1    3    3    0    0  0.58150617497E+03 -0.46421210664E+03  0.86063392337E+03  0.11376875940E+04  0.00000000000E+00 0.  1.
        -11    1    3    3    0    0  0.44963121355E+03 -0.26157900615E+03  0.59427827760E+03  0.78978381591E+03  0.00000000000E+00 0. -1.
         22    1    1    2    0    0 -0.10311373885E+04  0.72579111278E+03 -0.50316171063E+03  0.13576408805E+04  0.00000000000E+00 0.  1.
<mgrwt>
<rscale>  0 0.31442223E+04</rscale>
<asrwt>0</asrwt>
<pdfrwt beam="1">  1        1 0.32591252E+00 0.31442223E+04</pdfrwt>
<pdfrwt beam="2">  1       -1 0.17948937E+00 0.31442223E+04</pdfrwt>
<totfact> 0.43682036E-01</totfact>
</mgrwt>
</event>
<event>
 6    1  0.9988873E-007  0.5506159E+04  0.7818608E-02  0.7754842E-01
         -2   -1    0    0    0  501 -0.00000000000E+00  0.00000000000E+00  0.28185261802E+04  0.28185261802E+04  0.00000000000E+00 0.  1.
          2   -1    0    0  501    0  0.00000000000E+00 -0.00000000000E+00 -0.26891523631E+04  0.26891523631E+04  0.00000000000E+00 0. -1.
         23    2    1    2    0    0  0.17146270889E+04  0.11116874550E+04 -0.17795742170E+04  0.27112741289E+04  0.91257639622E+02 0.  0.
         13    1    3    3    0    0  0.88715382272E+03  0.52204575891E+03 -0.90837784999E+03  0.13728525041E+04  0.00000000000E+00 0.  1.
        -13    1    3    3    0    0  0.82747326621E+03  0.58964169611E+03 -0.87119636697E+03  0.13384216249E+04  0.00000000000E+00 0. -1.
         22    1    1    2    0    0 -0.17146270889E+04 -0.11116874550E+04  0.19089480340E+04  0.27964044143E+04  0.00000000000E+00 0.  1.
<mgrwt>
<rscale>  0 0.55061589E+04</rscale>
<asrwt>0</asrwt>
<pdfrwt beam="1">  1        2 0.41371575E+00 0.55061589E+04</pdfrwt>
<pdfrwt beam="2">  1       -2 0.43361941E+00 0.55061589E+04</pdfrwt>
<totfact> 0.84222313E-03</totfact>
</mgrwt>
</event>
<event>
 6    1  0.9988873E-007  0.2776858E+04  0.7818608E-02  0.8310489E-01
         -2   -1    0    0    0  501 -0.00000000000E+00  0.00000000000E+00  0.84857684671E+03  0.84857684671E+03  0.00000000000E+00 0.  1.
          2   -1    0    0  501    0  0.00000000000E+00 -0.00000000000E+00 -0.22717270904E+04  0.22717270904E+04  0.00000000000E+00 0. -1.
         23    2    1    2    0    0 -0.69447410074E+03  0.10560823976E+04 -0.70543998514E+02  0.12690481574E+04  0.88895798454E+02 0.  0.
         11    1    3    3    0    0 -0.22424903738E+03  0.27755674799E+03 -0.30343597921E+00  0.35682694853E+03  0.00000000000E+00 0.  1.
        -11    1    3    3    0    0 -0.47022506336E+03  0.77852564966E+03 -0.70240562535E+02  0.91222120892E+03  0.00000000000E+00 0. -1.
         22    1    1    2    0    0  0.69447410074E+03 -0.10560823976E+04 -0.13526062452E+04  0.18512557796E+04  0.00000000000E+00 0. -1.
<mgrwt>
<rscale>  0 0.27768579E+04</rscale>
<asrwt>0</asrwt>
<pdfrwt beam="1">  1        2 0.34949647E+00 0.27768579E+04</pdfrwt>
<pdfrwt beam="2">  1       -2 0.13055029E+00 0.27768579E+04</pdfrwt>
<totfact> 0.17619350E+00</totfact>
</mgrwt>
</event>
<event>
 6    1  0.9988873E-007  0.1783267E+04  0.7818608E-02  0.8715249E-01
          2   -1    0    0  501    0  0.00000000000E+00  0.00000000000E+00  0.12766007804E+04  0.12766007804E+04  0.00000000000E+00 0. -1.
         -2   -1    0    0    0  501 -0.00000000000E+00 -0.00000000000E+00 -0.62275553469E+03  0.62275553469E+03  0.00000000000E+00 0.  1.
         23    2    1    2    0    0  0.82324438454E+03 -0.18506829066E+03  0.28434203383E+02  0.84906085153E+03  0.90079058632E+02 0.  0.
         13    1    3    3    0    0  0.24386900685E+03 -0.31032781256E+02 -0.25411638136E+02  0.24714545791E+03  0.00000000000E+00 0. -1.
        -13    1    3    3    0    0  0.57937537769E+03 -0.15403550940E+03  0.53845841519E+02  0.60191539362E+03  0.00000000000E+00 0.  1.
         22    1    1    2    0    0 -0.82324438454E+03  0.18506829066E+03  0.62541104229E+03  0.10502954635E+04  0.00000000000E+00 0.  1.
<mgrwt>
<rscale>  0 0.17832669E+04</rscale>
<asrwt>0</asrwt>
<pdfrwt beam="1">  1        2 0.19640012E+00 0.17832669E+04</pdfrwt>
<pdfrwt beam="2">  1       -2 0.95808544E-01 0.17832669E+04</pdfrwt>
<totfact> 0.14738631E+01</totfact>
</mgrwt>
</event>
<event>
 6    1  0.9988873E-007  0.1967614E+04  0.7818608E-02  0.8621914E-01
          1   -1    0    0  501    0  0.00000000000E+00  0.00000000000E+00  0.89924087026E+03  0.89924087026E+03  0.00000000000E+00 0. -1.
         -1   -1    0    0    0  501 -0.00000000000E+00 -0.00000000000E+00 -0.10763261222E+04  0.10763261222E+04  0.00000000000E+00 0.  1.
         23    2    1    2    0    0  0.32156277742E+02 -0.62307031730E+03  0.67230437285E+03  0.92166311583E+03  0.90659157451E+02 0.  0.
         13    1    3    3    0    0  0.40561488222E+02 -0.36673707342E+03  0.33862397466E+03  0.50080686054E+03  0.00000000000E+00 0.  1.
        -13    1    3    3    0    0 -0.84052104806E+01 -0.25633324387E+03  0.33368039820E+03  0.42085625529E+03  0.00000000000E+00 0. -1.
         22    1    1    2    0    0 -0.32156277742E+02  0.62307031730E+03 -0.84938962483E+03  0.10539038767E+04  0.00000000000E+00 0.  1.
<mgrwt>
<rscale>  0 0.19676142E+04</rscale>
<asrwt>0</asrwt>
<pdfrwt beam="1">  1        1 0.13834475E+00 0.19676142E+04</pdfrwt>
<pdfrwt beam="2">  1       -1 0.16558863E+00 0.19676142E+04</pdfrwt>
<totfact> 0.44971156E+00</totfact>
</mgrwt>
</event>
<event>
 6    1  0.9988873E-007  0.4322580E+04  0.7818608E-02  0.7942456E-01
          2   -1    0    0  501    0  0.00000000000E+00  0.00000000000E+00  0.22425084000E+04  0.22425084000E+04  0.00000000000E+00 0. -1.
         -2   -1    0    0    0  501 -0.00000000000E+00 -0.00000000000E+00 -0.20830132289E+04  0.20830132289E+04  0.00000000000E+00 0.  1.
         23    2    1    2    0    0  0.79863914149E+03 -0.89874994549E+03  0.18758048087E+04  0.22299800008E+04  0.92688622668E+02 0.  0.
         13    1    3    3    0    0  0.40242177895E+03 -0.40310576854E+03  0.94735112405E+03  0.11054011494E+04  0.00000000000E+00 0.  1.
        -13    1    3    3    0    0  0.39621736254E+03 -0.49564417695E+03  0.92845368468E+03  0.11245788514E+04  0.00000000000E+00 0. -1.
         22    1    1    2    0    0 -0.79863914149E+03  0.89874994549E+03 -0.17163096376E+04  0.20955416281E+04  0.00000000000E+00 0.  1.
<mgrwt>
<rscale>  0 0.43225801E+04</rscale>
<asrwt>0</asrwt>
<pdfrwt beam="1">  1        2 0.34500129E+00 0.43225801E+04</pdfrwt>
<pdfrwt beam="2">  1       -2 0.32046357E+00 0.43225801E+04</pdfrwt>
<totfact> 0.89341710E-02</totfact>
</mgrwt>
</event>
<event>
 6    1  0.9988873E-007  0.2639284E+04  0.7818608E-02  0.8354978E-01
          2   -1    0    0  501    0  0.00000000000E+00  0.00000000000E+00  0.11429091432E+04  0.11429091432E+04  0.00000000000E+00 0. -1.
         -2   -1    0    0    0  501 -0.00000000000E+00 -0.00000000000E+00 -0.15237041989E+04  0.15237041989E+04  0.00000000000E+00 0.  1.
         23    2    1    2    0    0  0.72849431935E+03  0.87792114310E+03 -0.85772954357E+03  0.14301199080E+04  0.89963740325E+02 0.  0.
         13    1    3    3    0    0  0.59229620903E+03  0.68111696220E+03 -0.63928745607E+03  0.11060847919E+04  0.00000000000E+00 0. -1.
        -13    1    3    3    0    0  0.13619811032E+03  0.19680418090E+03 -0.21844208749E+03  0.32403511610E+03  0.00000000000E+00 0.  1.
         22    1    1    2    0    0 -0.72849431935E+03 -0.87792114310E+03  0.47693448790E+03  0.12364934341E+04  0.00000000000E+00 0.  1.
<mgrwt>
<rscale>  0 0.26392843E+04</rscale>
<asrwt>0</asrwt>
<pdfrwt beam="1">  1        2 0.17583218E+00 0.26392843E+04</pdfrwt>
<pdfrwt beam="2">  1       -2 0.23441603E+00 0.26392843E+04</pdfrwt>
<totfact> 0.14505255E+00</totfact>
</mgrwt>
</event>
<event>
 6    1  0.9988873E-007  0.2262842E+04  0.7818608E-02  0.8492718E-01
          2   -1    0    0  501    0  0.00000000000E+00  0.00000000000E+00  0.16090840893E+04  0.16090840893E+04  0.00000000000E+00 0. -1.
         -2   -1    0    0    0  501 -0.00000000000E+00 -0.00000000000E+00 -0.79555431755E+03  0.79555431755E+03  0.00000000000E+00 0.  1.
         23    2    1    2    0    0 -0.97260659012E+03 -0.56086763485E+03  0.27560137240E+03  0.11596873854E+04  0.91556717336E+02 0.  0.
         13    1    3    3    0    0 -0.16512668611E+03 -0.12682980355E+03  0.27911429877E+02  0.21007538993E+03  0.00000000000E+00 0.  1.
        -13    1    3    3    0    0 -0.80747990401E+03 -0.43403783130E+03  0.24768994253E+03  0.94961199550E+03  0.00000000000E+00 0. -1.
         22    1    1    2    0    0  0.97260659012E+03  0.56086763485E+03  0.53792839938E+03  0.12449510215E+04  0.00000000000E+00 0.  1.
<mgrwt>
<rscale>  0 0.22628423E+04</rscale>
<asrwt>0</asrwt>
<pdfrwt beam="1">  1        2 0.24755140E+00 0.22628423E+04</pdfrwt>
<pdfrwt beam="2">  1       -2 0.12239297E+00 0.22628423E+04</pdfrwt>
<totfact> 0.50672821E+00</totfact>
</mgrwt>
</event>
<event>
 6    1  0.9988873E-007  0.1252216E+04  0.7818608E-02  0.9068341E-01
          2   -1    0    0  501    0  0.00000000000E+00  0.00000000000E+00  0.14870838961E+04  0.14870838961E+04  0.00000000000E+00 0. -1.
         -2   -1    0    0    0  501 -0.00000000000E+00 -0.00000000000E+00 -0.26361077467E+03  0.26361077467E+03  0.00000000000E+00 0.  1.
         23    2    1    2    0    0 -0.40267080218E+03 -0.13111623370E+03  0.12533870258E+04  0.13261595329E+04  0.91568709705E+02 0.  0.
         11    1    3    3    0    0 -0.85053601178E+02 -0.41787487774E+02  0.40341693358E+03  0.41439779380E+03  0.00000000000E+00 0.  1.
        -11    1    3    3    0    0 -0.31761720101E+03 -0.89328745922E+02  0.84997009219E+03  0.91176173908E+03  0.00000000000E+00 0. -1.
         22    1    1    2    0    0  0.40267080218E+03  0.13111623370E+03 -0.29913904296E+02  0.42453513793E+03  0.00000000000E+00 0. -1.
<mgrwt>
<rscale>  0 0.12522162E+04</rscale>
<asrwt>0</asrwt>
<pdfrwt beam="1">  1        2 0.22878213E+00 0.12522162E+04</pdfrwt>
<pdfrwt beam="2">  1       -2 0.40555505E-01 0.12522162E+04</pdfrwt>
<totfact> 0.73037519E+01</totfact>
</mgrwt>
</event>
<event>
 6    1  0.9988873E-007  0.5069651E+04  0.7818608E-02  0.7817852E-01
         -1   -1    0    0    0  501 -0.00000000000E+00  0.00000000000E+00  0.12628527733E+04  0.12628527733E+04  0.00000000000E+00 0.  1.
          1   -1    0    0  501    0  0.00000000000E+00 -0.00000000000E+00 -0.50879565924E+04  0.50879565924E+04  0.00000000000E+00 0. -1.
         23    2    1    2    0    0 -0.10419318931E+04  0.23047659326E+04 -0.17210023525E+04  0.30607013043E+04  0.92061407022E+02 0.  0.
         11    1    3    3    0    0 -0.56563974757E+03  0.12370486321E+04 -0.87037424881E+03  0.16148650022E+04  0.00000000000E+00 0.  1.
        -11    1    3    3    0    0 -0.47629214556E+03  0.10677173004E+04 -0.85062810370E+03  0.14458363021E+04  0.00000000000E+00 0. -1.
         22    1    1    2    0    0  0.10419318931E+04 -0.23047659326E+04 -0.21041014667E+04  0.32901080614E+04  0.00000000000E+00 0.  1.
<mgrwt>
<rscale>  0 0.50696509E+04</rscale>
<asrwt>0</asrwt>
<pdfrwt beam="1">  1        1 0.78276256E+00 0.50696509E+04</pdfrwt>
<pdfrwt beam="2">  1       -1 0.19428504E+00 0.50696509E+04</pdfrwt>
<totfact> 0.77191382E-04</totfact>
</mgrwt>
</event>
<event>
 6    1  0.9988873E-007  0.8892752E+03  0.7818608E-02  0.9439088E-01
         -2   -1    0    0    0  501 -0.00000000000E+00  0.00000000000E+00  0.33777774633E+03  0.33777774633E+03  0.00000000000E+00 0.  1.
          2   -1    0    0  501    0  0.00000000000E+00 -0.00000000000E+00 -0.58530379182E+03  0.58530379182E+03  0.00000000000E+00 0. -1.
         23    2    1    2    0    0  0.30485186219E+03 -0.24800204605E+03 -0.32956045151E+03  0.52162255332E+03  0.95080619492E+02 0.  0.
         11    1    3    3    0    0  0.19255093730E+03 -0.14696676607E+03 -0.14196092492E+03  0.28076324187E+03  0.00000000000E+00 0.  1.
        -11    1    3    3    0    0  0.11230092489E+03 -0.10103527998E+03 -0.18759952659E+03  0.24085931144E+03  0.00000000000E+00 0. -1.
         22    1    1    2    0    0 -0.30485186219E+03  0.24800204605E+03  0.82034406020E+02  0.40145898483E+03  0.00000000000E+00 0.  1.
<mgrwt>
<rscale>  0 0.88927520E+03</rscale>
<asrwt>0</asrwt>
<pdfrwt beam="1">  1        2 0.90046738E-01 0.88927520E+03</pdfrwt>
<pdfrwt beam="2">  1       -2 0.51965807E-01 0.88927520E+03</pdfrwt>
<totfact> 0.17939164E+02</totfact>
</mgrwt>
</event>
<event>
 6    1  0.9988873E-007  0.1949923E+04  0.7818608E-02  0.8630398E-01
         -1   -1    0    0    0  501 -0.00000000000E+00  0.00000000000E+00  0.93623345073E+03  0.93623345073E+03  0.00000000000E+00 0.  1.
          1   -1    0    0  501    0  0.00000000000E+00 -0.00000000000E+00 -0.10152919563E+04  0.10152919563E+04  0.00000000000E+00 0. -1.
         23    2    1    2    0    0 -0.44652602435E+03  0.29106940283E+03  0.77484400222E+03  0.94491903883E+03  0.91552577629E+02 0.  0.
         11    1    3    3    0    0 -0.15729680937E+03  0.54008198118E+02  0.25838633192E+03  0.30728271710E+03  0.00000000000E+00 0. -1.
        -11    1    3    3    0    0 -0.28922921498E+03  0.23706120471E+03  0.51645767030E+03  0.63763632173E+03  0.00000000000E+00 0.  1.
         22    1    1    2    0    0  0.44652602435E+03 -0.29106940283E+03 -0.85390250778E+03  0.10066063682E+04  0.00000000000E+00 0. -1.
<mgrwt>
<rscale>  0 0.19499234E+04</rscale>
<asrwt>0</asrwt>
<pdfrwt beam="1">  1        1 0.15619876E+00 0.19499234E+04</pdfrwt>
<pdfrwt beam="2">  1       -1 0.14403592E+00 0.19499234E+04</pdfrwt>
<totfact> 0.53342553E+00</totfact>
</mgrwt>
</event>
<event>
 6    1  0.9988873E-007  0.1180552E+04  0.7818608E-02  0.9130052E-01
         -1   -1    0    0    0  501 -0.00000000000E+00  0.00000000000E+00  0.22782700723E+03  0.22782700723E+03  0.00000000000E+00 0.  1.
          1   -1    0    0  501    0  0.00000000000E+00 -0.00000000000E+00 -0.15293437656E+04  0.15293437656E+04  0.00000000000E+00 0. -1.
         23    2    1    2    0    0  0.23770613817E+03 -0.42299799704E+03 -0.11457198269E+04  0.12475589623E+04  0.91092969173E+02 0.  0.
         13    1    3    3    0    0 -0.21479780601E+01 -0.51091944546E+02 -0.12108717633E+03  0.13144240137E+03  0.00000000000E+00 0.  1.
        -13    1    3    3    0    0  0.23985411623E+03 -0.37190605249E+03 -0.10246326506E+04  0.11161165609E+04  0.00000000000E+00 0. -1.
         22    1    1    2    0    0 -0.23770613817E+03  0.42299799704E+03 -0.15579693153E+03  0.50961181060E+03  0.00000000000E+00 0.  1.
<mgrwt>
<rscale>  0 0.11805521E+04</rscale>
<asrwt>0</asrwt>
<pdfrwt beam="1">  1        1 0.23528366E+00 0.11805521E+04</pdfrwt>
<pdfrwt beam="2">  1       -1 0.35050308E-01 0.11805521E+04</pdfrwt>
<totfact> 0.47876487E+01</totfact>
</mgrwt>
</event>
<event>
 6    1  0.9988873E-007  0.2085114E+04  0.7818608E-02  0.8567829E-01
         -2   -1    0    0    0  501 -0.00000000000E+00  0.00000000000E+00  0.44452240423E+03  0.44452240423E+03  0.00000000000E+00 0.  1.
          2   -1    0    0  501    0  0.00000000000E+00 -0.00000000000E+00 -0.24451532969E+04  0.24451532969E+04  0.00000000000E+00 0. -1.
         23    2    1    2    0    0  0.96095947749E+03  0.28424231451E+03 -0.61443033993E+03  0.11791819762E+04  0.93320306264E+02 0.  0.
         11    1    3    3    0    0  0.72697959126E+03  0.18400344417E+03 -0.42578023815E+03  0.86234877212E+03  0.00000000000E+00 0. -1.
        -11    1    3    3    0    0  0.23397988622E+03  0.10023887034E+03 -0.18865010178E+03  0.31683320405E+03  0.00000000000E+00 0.  1.
         22    1    1    2    0    0 -0.96095947749E+03 -0.28424231451E+03 -0.13862005528E+04  0.17104937250E+04  0.00000000000E+00 0. -1.
<mgrwt>
<rscale>  0 0.20851143E+04</rscale>
<asrwt>0</asrwt>
<pdfrwt beam="1">  1        2 0.37617743E+00 0.20851143E+04</pdfrwt>
<pdfrwt beam="2">  1       -2 0.68388063E-01 0.20851143E+04</pdfrwt>
<totfact> 0.67594355E+00</totfact>
</mgrwt>
</event>
<event>
 6    1  0.9988873E-007  0.3952143E+04  0.7818608E-02  0.8014271E-01
          2   -1    0    0  501    0  0.00000000000E+00  0.00000000000E+00  0.17794998913E+04  0.17794998913E+04  0.00000000000E+00 0. -1.
         -2   -1    0    0    0  501 -0.00000000000E+00 -0.00000000000E+00 -0.21943575028E+04  0.21943575028E+04  0.00000000000E+00 0.  1.
         23    2    1    2    0    0  0.68093237697E+03 -0.56647429417E+03 -0.19824291278E+04  0.21733456649E+04  0.94043098028E+02 0.  0.
         11    1    3    3    0    0  0.16097346667E+03 -0.86310781301E+02 -0.43090614770E+03  0.46801935437E+03  0.00000000000E+00 0. -1.
        -11    1    3    3    0    0  0.51995891030E+03 -0.48016351287E+03 -0.15515229801E+04  0.17053263105E+04  0.00000000000E+00 0.  1.
         22    1    1    2    0    0 -0.68093237697E+03  0.56647429417E+03  0.15675715163E+04  0.18005117291E+04  0.00000000000E+00 0. -1.
<mgrwt>
<rscale>  0 0.39521432E+04</rscale>
<asrwt>0</asrwt>
<pdfrwt beam="1">  1        2 0.27376921E+00 0.39521432E+04</pdfrwt>
<pdfrwt beam="2">  1       -2 0.33759346E+00 0.39521432E+04</pdfrwt>
<totfact> 0.13055837E-01</totfact>
</mgrwt>
</event>
<event>
 6    1  0.9988873E-007  0.9769217E+03  0.7818608E-02  0.9334225E-01
         -2   -1    0    0    0  501 -0.00000000000E+00  0.00000000000E+00  0.18070120782E+03  0.18070120782E+03  0.00000000000E+00 0.  1.
          2   -1    0    0  501    0  0.00000000000E+00 -0.00000000000E+00 -0.13203784483E+04  0.13203784483E+04  0.00000000000E+00 0. -1.
         23    2    1    2    0    0 -0.15914067530E+03 -0.33000970690E+03 -0.10619402031E+04  0.11265463356E+04  0.84601951246E+02 0.  0.
         13    1    3    3    0    0 -0.10717020079E+03 -0.13263126757E+03 -0.43545391479E+03  0.46765010102E+03  0.00000000000E+00 0.  1.
        -13    1    3    3    0    0 -0.51970474503E+02 -0.19737843933E+03 -0.62648628830E+03  0.65889623459E+03  0.00000000000E+00 0. -1.
         22    1    1    2    0    0  0.15914067530E+03  0.33000970690E+03 -0.77737037373E+02  0.37453332050E+03  0.00000000000E+00 0.  1.
<mgrwt>
<rscale>  0 0.97692166E+03</rscale>
<asrwt>0</asrwt>
<pdfrwt beam="1">  1        2 0.20313514E+00 0.97692166E+03</pdfrwt>
<pdfrwt beam="2">  1       -2 0.27800186E-01 0.97692166E+03</pdfrwt>
<totfact> 0.18964575E+02</totfact>
</mgrwt>
</event>
<event>
 6    1  0.9988873E-007  0.1474068E+04  0.7818608E-02  0.8901883E-01
         -1   -1    0    0    0  501 -0.00000000000E+00  0.00000000000E+00  0.38882014662E+03  0.38882014662E+03  0.00000000000E+00 0.  1.
          1   -1    0    0  501    0  0.00000000000E+00 -0.00000000000E+00 -0.13970962594E+04  0.13970962594E+04  0.00000000000E+00 0. -1.
         23    2    1    2    0    0 -0.65654544930E+03 -0.51732305667E+02 -0.90258557254E+03  0.11189091731E+04  0.59739965104E+02 0.  0.
         11    1    3    3    0    0 -0.64734357717E+02  0.12644665111E+02 -0.92934808164E+02  0.11396184973E+03  0.00000000000E+00 0.  1.
        -11    1    3    3    0    0 -0.59181109158E+03 -0.64376970778E+02 -0.80965076438E+03  0.10049473234E+04  0.00000000000E+00 0. -1.
         22    1    1    2    0    0  0.65654544930E+03  0.51732305667E+02 -0.10569054021E+03  0.66700723290E+03  0.00000000000E+00 0.  1.
<mgrwt>
<rscale>  0 0.14740681E+04</rscale>
<asrwt>0</asrwt>
<pdfrwt beam="1">  1        1 0.21493789E+00 0.14740681E+04</pdfrwt>
<pdfrwt beam="2">  1       -1 0.59818484E-01 0.14740681E+04</pdfrwt>
<totfact> 0.21200669E+01</totfact>
</mgrwt>
</event>
<event>
 6    1  0.9988873E-007  0.5684497E+03  0.7818608E-02  0.9973115E-01
         -3   -1    0    0    0  501 -0.00000000000E+00  0.00000000000E+00  0.79409035436E+02  0.79409035436E+02  0.00000000000E+00 0.  1.
          3   -1    0    0  501    0  0.00000000000E+00 -0.00000000000E+00 -0.10173119363E+04  0.10173119363E+04  0.00000000000E+00 0. -1.
         23    2    1    2    0    0  0.56066265348E+02 -0.18356105298E+03 -0.86627753641E+03  0.89185936208E+03  0.90212334864E+02 0.  0.
         13    1    3    3    0    0 -0.21666715984E+02 -0.14757714424E+02 -0.10314136224E+03  0.10642075606E+03  0.00000000000E+00 0. -1.
        -13    1    3    3    0    0  0.77732981332E+02 -0.16880333856E+03 -0.76313617417E+03  0.78543860602E+03  0.00000000000E+00 0.  1.
         22    1    1    2    0    0 -0.56066265348E+02  0.18356105298E+03 -0.71625364477E+02  0.20486160968E+03  0.00000000000E+00 0.  1.
<mgrwt>
<rscale>  0 0.56844968E+03</rscale>
<asrwt>0</asrwt>
<pdfrwt beam="1">  1        3 0.15650952E+00 0.56844968E+03</pdfrwt>
<pdfrwt beam="2">  1       -3 0.12216775E-01 0.56844968E+03</pdfrwt>
<totfact> 0.41847137E+01</totfact>
</mgrwt>
</event>
<event>
 6    1  0.9988873E-007  0.2568771E+04  0.7818608E-02  0.8378887E-01
         -1   -1    0    0    0  501 -0.00000000000E+00  0.00000000000E+00  0.79588309831E+03  0.79588309831E+03  0.00000000000E+00 0.  1.
          1   -1    0    0  501    0  0.00000000000E+00 -0.00000000000E+00 -0.20727242983E+04  0.20727242983E+04  0.00000000000E+00 0. -1.
         23    2    1    2    0    0 -0.20017131562E+03  0.11288426330E+04 -0.12815013630E+04  0.17221450280E+04  0.95830623013E+02 0.  0.
         13    1    3    3    0    0 -0.79633930144E+02  0.63398884590E+03 -0.76520239240E+03  0.99690426866E+03  0.00000000000E+00 0. -1.
        -13    1    3    3    0    0 -0.12053738547E+03  0.49485378712E+03 -0.51629897060E+03  0.72524075931E+03  0.00000000000E+00 0.  1.
         22    1    1    2    0    0  0.20017131562E+03 -0.11288426330E+04  0.46601629547E+01  0.11464623687E+04  0.00000000000E+00 0.  1.
<mgrwt>
<rscale>  0 0.25687711E+04</rscale>
<asrwt>0</asrwt>
<pdfrwt beam="1">  1        1 0.31888066E+00 0.25687711E+04</pdfrwt>
<pdfrwt beam="2">  1       -1 0.12244355E+00 0.25687711E+04</pdfrwt>
<totfact> 0.13833618E+00</totfact>
</mgrwt>
</event>
<event>
 6    1  0.9988873E-007  0.7484569E+03  0.7818608E-02  0.9637774E-01
          2   -1    0    0  501    0  0.00000000000E+00  0.00000000000E+00  0.26215403172E+04  0.26215403172E+04  0.00000000000E+00 0. -1.
         -2   -1    0    0    0  501 -0.00000000000E+00 -0.00000000000E+00 -0.53421627744E+02  0.53421627744E+02  0.00000000000E+00 0.  1.
         23    2    1    2    0    0 -0.36507842396E+03 -0.52108710771E+02  0.13680363108E+04  0.14194957810E+04  0.86298036435E+02 0.  0.
         11    1    3    3    0    0 -0.23358212963E+03 -0.15619156048E+02  0.71486457612E+03  0.75222066676E+03  0.00000000000E+00 0.  1.
        -11    1    3    3    0    0 -0.13149629433E+03 -0.36489554722E+02  0.65317173469E+03  0.66727511419E+03  0.00000000000E+00 0. -1.
         22    1    1    2    0    0  0.36507842396E+03  0.52108710771E+02  0.12000823787E+04  0.12554661640E+04  0.00000000000E+00 0. -1.
<mgrwt>
<rscale>  0 0.74845695E+03</rscale>
<asrwt>0</asrwt>
<pdfrwt beam="1">  1        2 0.40331379E+00 0.74845695E+03</pdfrwt>
<pdfrwt beam="2">  1       -2 0.82187140E-02 0.74845695E+03</pdfrwt>
<totfact> 0.29023254E+02</totfact>
</mgrwt>
</event>
<event>
 6    1  0.9988873E-007  0.4346484E+04  0.7818608E-02  0.7938078E-01
          2   -1    0    0  501    0  0.00000000000E+00  0.00000000000E+00  0.26012984508E+04  0.26012984508E+04  0.00000000000E+00 0. -1.
         -2   -1    0    0    0  501 -0.00000000000E+00 -0.00000000000E+00 -0.18156240918E+04  0.18156240918E+04  0.00000000000E+00 0.  1.
         23    2    1    2    0    0 -0.82727441969E+03 -0.10245399619E+04 -0.13627161626E+04  0.18970719651E+04  0.88439821009E+02 0.  0.
         13    1    3    3    0    0 -0.55685878081E+03 -0.62534120406E+03 -0.84532196523E+03  0.11898371940E+04  0.00000000000E+00 0. -1.
        -13    1    3    3    0    0 -0.27041563887E+03 -0.39919875787E+03 -0.51739419740E+03  0.70723477116E+03  0.00000000000E+00 0.  1.
         22    1    1    2    0    0  0.82727441969E+03  0.10245399619E+04  0.21483905216E+04  0.25198505774E+04  0.00000000000E+00 0. -1.
<mgrwt>
<rscale>  0 0.43464837E+04</rscale>
<asrwt>0</asrwt>
<pdfrwt beam="1">  1        2 0.40019976E+00 0.43464837E+04</pdfrwt>
<pdfrwt beam="2">  1       -2 0.27932678E+00 0.43464837E+04</pdfrwt>
<totfact> 0.99072274E-02</totfact>
</mgrwt>
</event>
<event>
 6    1  0.9988873E-007  0.1726432E+04  0.7818608E-02  0.8746431E-01
          2   -1    0    0  501    0  0.00000000000E+00  0.00000000000E+00  0.14639137411E+04  0.14639137411E+04  0.00000000000E+00 0. -1.
         -2   -1    0    0    0  501 -0.00000000000E+00 -0.00000000000E+00 -0.50900672969E+03  0.50900672969E+03  0.00000000000E+00 0.  1.
         23    2    1    2    0    0 -0.27862467749E+03  0.11156769193E+03  0.14009979503E+04  0.14352624135E+04  0.84284507253E+02 0.  0.
         13    1    3    3    0    0 -0.28626209945E+02  0.26539532004E+02  0.32501034543E+03  0.32734619486E+03  0.00000000000E+00 0. -1.
        -13    1    3    3    0    0 -0.24999846754E+03  0.85028159929E+02  0.10759876049E+04  0.11079162187E+04  0.00000000000E+00 0.  1.
         22    1    1    2    0    0  0.27862467749E+03 -0.11156769193E+03 -0.44609093888E+03  0.53765805726E+03  0.00000000000E+00 0.  1.
<mgrwt>
<rscale>  0 0.17264321E+04</rscale>
<asrwt>0</asrwt>
<pdfrwt beam="1">  1        2 0.22521750E+00 0.17264321E+04</pdfrwt>
<pdfrwt beam="2">  1       -2 0.78308728E-01 0.17264321E+04</pdfrwt>
<totfact> 0.18323448E+01</totfact>
</mgrwt>
</event>
<event>
 6    1  0.9988873E-007  0.4879407E+04  0.7818608E-02  0.7847384E-01
          2   -1    0    0  501    0  0.00000000000E+00  0.00000000000E+00  0.29163180812E+04  0.29163180812E+04  0.00000000000E+00 0. -1.
         -2   -1    0    0    0  501 -0.00000000000E+00 -0.00000000000E+00 -0.20409824776E+04  0.20409824776E+04  0.00000000000E+00 0.  1.
         23    2    1    2    0    0  0.19276664503E+04 -0.99017940194E+03  0.15744394571E+04  0.26802192274E+04  0.91445674466E+02 0.  0.
         11    1    3    3    0    0  0.64179546369E+03 -0.31814261226E+03  0.46921270474E+03  0.85631577192E+03  0.00000000000E+00 0.  1.
        -11    1    3    3    0    0  0.12858709866E+04 -0.67203678968E+03  0.11052267524E+04  0.18239034555E+04  0.00000000000E+00 0. -1.
         22    1    1    2    0    0 -0.19276664503E+04  0.99017940194E+03 -0.69910385354E+03  0.22770813313E+04  0.00000000000E+00 0.  1.
<mgrwt>
<rscale>  0 0.48794074E+04</rscale>
<asrwt>0</asrwt>
<pdfrwt beam="1">  1        2 0.44866432E+00 0.48794074E+04</pdfrwt>
<pdfrwt beam="2">  1       -2 0.31399730E+00 0.48794074E+04</pdfrwt>
<totfact> 0.37610095E-02</totfact>
</mgrwt>
</event>
<event>
 6    1  0.9988873E-007  0.3464939E+04  0.7818608E-02  0.8122150E-01
         -1   -1    0    0    0  501 -0.00000000000E+00  0.00000000000E+00  0.13943985475E+04  0.13943985475E+04  0.00000000000E+00 0.  1.
          1   -1    0    0  501    0  0.00000000000E+00 -0.00000000000E+00 -0.21525050580E+04  0.21525050580E+04  0.00000000000E+00 0. -1.
         23    2    1    2    0    0  0.41923749964E+03  0.12789923738E+04 -0.14938969565E+04  0.20129645083E+04  0.93361779643E+02 0.  0.
         13    1    3    3    0    0  0.28669064992E+03  0.76156842208E+03 -0.94497454146E+03  0.12470584887E+04  0.00000000000E+00 0.  1.
        -13    1    3    3    0    0  0.13254684972E+03  0.51742395172E+03 -0.54892241500E+03  0.76590601961E+03  0.00000000000E+00 0. -1.
         22    1    1    2    0    0 -0.41923749964E+03 -0.12789923738E+04  0.73579044604E+03  0.15339390972E+04  0.00000000000E+00 0.  1.
<mgrwt>
<rscale>  0 0.34649386E+04</rscale>
<asrwt>0</asrwt>
<pdfrwt beam="1">  1        1 0.33115462E+00 0.34649386E+04</pdfrwt>
<pdfrwt beam="2">  1       -1 0.21452286E+00 0.34649386E+04</pdfrwt>
<totfact> 0.23008936E-01</totfact>
</mgrwt>
</event>
<event>
 6    1  0.9988873E-007  0.3502222E+04  0.7818608E-02  0.8113264E-01
          2   -1    0    0  501    0  0.00000000000E+00  0.00000000000E+00  0.15108513476E+04  0.15108513476E+04  0.00000000000E+00 0. -1.
         -2   -1    0    0    0  501 -0.00000000000E+00 -0.00000000000E+00 -0.20295775008E+04  0.20295775008E+04  0.00000000000E+00 0.  1.
         23    2    1    2    0    0  0.10032573712E+04  0.11384969698E+04  0.62125078579E+03  0.16424699120E+04  0.95153401789E+02 0.  0.
         13    1    3    3    0    0  0.11967018991E+03  0.13393494981E+03  0.10772742200E+03  0.20943906652E+03  0.00000000000E+00 0.  1.
        -13    1    3    3    0    0  0.88358718127E+03  0.10045620199E+04  0.51352336379E+03  0.14330308454E+04  0.00000000000E+00 0. -1.
         22    1    1    2    0    0 -0.10032573712E+04 -0.11384969698E+04 -0.11399769390E+04  0.18979589364E+04  0.00000000000E+00 0.  1.
<mgrwt>
<rscale>  0 0.35022221E+04</rscale>
<asrwt>0</asrwt>
<pdfrwt beam="1">  1        2 0.23243867E+00 0.35022221E+04</pdfrwt>
<pdfrwt beam="2">  1       -2 0.31224269E+00 0.35022221E+04</pdfrwt>
<totfact> 0.27483276E-01</totfact>
</mgrwt>
</event>
<event>
 6    1  0.9988873E-007  0.4382726E+04  0.7818608E-02  0.7931496E-01
          2   -1    0    0  501    0  0.00000000000E+00  0.00000000000E+00  0.36069619941E+04  0.36069619941E+04  0.00000000000E+00 0. -1.
         -2   -1    0    0    0  501 -0.00000000000E+00 -0.00000000000E+00 -0.13313342230E+04  0.13313342230E+04  0.00000000000E+00 0.  1.
         23    2    1    2    0    0  0.15558313511E+04 -0.88277141648E+03 -0.28601918722E+03  0.18138872000E+04  0.92104461522E+02 0.  0.
         11    1    3    3    0    0  0.93566369235E+03 -0.47904203292E+03 -0.17270970068E+03  0.10652588677E+04  0.00000000000E+00 0. -1.
        -11    1    3    3    0    0  0.62016765878E+03 -0.40372938355E+03 -0.11330948655E+03  0.74862833227E+03  0.00000000000E+00 0.  1.
         22    1    1    2    0    0 -0.15558313511E+04  0.88277141648E+03  0.25616469583E+04  0.31244090171E+04  0.00000000000E+00 0. -1.
<mgrwt>
<rscale>  0 0.43827261E+04</rscale>
<asrwt>0</asrwt>
<pdfrwt beam="1">  1        2 0.55491723E+00 0.43827261E+04</pdfrwt>
<pdfrwt beam="2">  1       -2 0.20482065E+00 0.43827261E+04</pdfrwt>
<totfact> 0.64424115E-02</totfact>
</mgrwt>
</event>
<event>
 6    1  0.9988873E-007  0.2941765E+04  0.7818608E-02  0.8260559E-01
         -1   -1    0    0    0  501 -0.00000000000E+00  0.00000000000E+00  0.23932907316E+04  0.23932907316E+04  0.00000000000E+00 0.  1.
          1   -1    0    0  501    0  0.00000000000E+00 -0.00000000000E+00 -0.90398321303E+03  0.90398321303E+03  0.00000000000E+00 0. -1.
         23    2    1    2    0    0 -0.82333218885E+03  0.33580740279E+03 -0.56594431955E+03  0.10579207740E+04  0.90889417259E+02 0.  0.
         11    1    3    3    0    0 -0.78722308961E+03  0.30450727428E+03 -0.55042674138E+03  0.10076777613E+04  0.00000000000E+00 0. -1.
        -11    1    3    3    0    0 -0.36109099237E+02  0.31300128507E+02 -0.15517578163E+02  0.50243012691E+02  0.00000000000E+00 0.  1.
         22    1    1    2    0    0  0.82333218885E+03 -0.33580740279E+03  0.20552518381E+04  0.22393531707E+04  0.00000000000E+00 0.  1.
<mgrwt>
<rscale>  0 0.29417645E+04</rscale>
<asrwt>0</asrwt>
<pdfrwt beam="1">  1        1 0.13907434E+00 0.29417645E+04</pdfrwt>
<pdfrwt beam="2">  1       -1 0.36819857E+00 0.29417645E+04</pdfrwt>
<totfact> 0.18141717E-01</totfact>
</mgrwt>
</event>
<event>
 6    1  0.9988873E-007  0.2152351E+04  0.7818608E-02  0.8538527E-01
         -2   -1    0    0    0  501 -0.00000000000E+00  0.00000000000E+00  0.53154836063E+03  0.53154836063E+03  0.00000000000E+00 0.  1.
          2   -1    0    0  501    0  0.00000000000E+00 -0.00000000000E+00 -0.21788307002E+04  0.21788307002E+04  0.00000000000E+00 0. -1.
         23    2    1    2    0    0 -0.52947008408E+03  0.77062476353E+03 -0.15859849468E+03  0.95243119864E+03  0.88151060854E+02 0.  0.
         13    1    3    3    0    0 -0.23203021021E+03  0.37678097068E+03 -0.11358670503E+03  0.45684117358E+03  0.00000000000E+00 0. -1.
        -13    1    3    3    0    0 -0.29743987387E+03  0.39384379284E+03 -0.45011789647E+02  0.49559002506E+03  0.00000000000E+00 0.  1.
         22    1    1    2    0    0  0.52947008408E+03 -0.77062476353E+03 -0.14886838449E+04  0.17579478622E+04  0.00000000000E+00 0. -1.
<mgrwt>
<rscale>  0 0.21523512E+04</rscale>
<asrwt>0</asrwt>
<pdfrwt beam="1">  1        2 0.33520472E+00 0.21523512E+04</pdfrwt>
<pdfrwt beam="2">  1       -2 0.81776671E-01 0.21523512E+04</pdfrwt>
<totfact> 0.64058103E+00</totfact>
</mgrwt>
</event>
<event>
 6    1  0.1222307E-006  0.3680792E+04  0.7818608E-02  0.8072232E-01
         -2   -1    0    0    0  501 -0.00000000000E+00  0.00000000000E+00  0.15398640875E+04  0.15398640875E+04  0.00000000000E+00 0.  1.
          2   -1    0    0  501    0  0.00000000000E+00 -0.00000000000E+00 -0.21995824162E+04  0.21995824162E+04  0.00000000000E+00 0. -1.
         23    2    1    2    0    0 -0.67427161654E+03  0.47181849636E+03 -0.20011613744E+04  0.21656852921E+04  0.91055100856E+02 0.  0.
         11    1    3    3    0    0 -0.55181091394E+03  0.34567822056E+03 -0.15301688810E+04  0.16629508475E+04  0.00000000000E+00 0.  1.
        -11    1    3    3    0    0 -0.12246070260E+03  0.12614027580E+03 -0.47099249342E+03  0.50273444453E+03  0.00000000000E+00 0. -1.
         22    1    1    2    0    0  0.67427161654E+03 -0.47181849636E+03  0.13414430457E+04  0.15737612117E+04  0.00000000000E+00 0.  1.
<mgrwt>
<rscale>  0 0.36807923E+04</rscale>
<asrwt>0</asrwt>
<pdfrwt beam="1">  1        2 0.33839730E+00 0.36807923E+04</pdfrwt>
<pdfrwt beam="2">  1       -2 0.23690217E+00 0.36807923E+04</pdfrwt>
<totfact> 0.32391816E-01</totfact>
</mgrwt>
</event>
<event>
 6    1  0.9988873E-007  0.1161678E+04  0.7818608E-02  0.9147077E-01
         -2   -1    0    0    0  501 -0.00000000000E+00  0.00000000000E+00  0.64611254920E+03  0.64611254920E+03  0.00000000000E+00 0.  1.
          2   -1    0    0  501    0  0.00000000000E+00 -0.00000000000E+00 -0.52216004842E+03  0.52216004842E+03  0.00000000000E+00 0. -1.
         23    2    1    2    0    0 -0.19707115155E+03  0.26917218834E+03 -0.41187376067E+03  0.53708285737E+03  0.86759986215E+02 0.  0.
         13    1    3    3    0    0 -0.18331857421E+03  0.19297689550E+03 -0.30036160070E+03  0.40132639213E+03  0.00000000000E+00 0.  1.
        -13    1    3    3    0    0 -0.13752577348E+02  0.76195292839E+02 -0.11151215997E+03  0.13575646524E+03  0.00000000000E+00 0. -1.
         22    1    1    2    0    0  0.19707115155E+03 -0.26917218834E+03  0.53582626144E+03  0.63118974025E+03  0.00000000000E+00 0.  1.
<mgrwt>
<rscale>  0 0.11616784E+04</rscale>
<asrwt>0</asrwt>
<pdfrwt beam="1">  1        2 0.80332315E-01 0.11616784E+04</pdfrwt>
<pdfrwt beam="2">  1       -2 0.99401931E-01 0.11616784E+04</pdfrwt>
<totfact> 0.48521538E+01</totfact>
</mgrwt>
</event>
<event>
 6    1  0.9988873E-007  0.3991050E+04  0.7818608E-02  0.8006354E-01
          2   -1    0    0  501    0  0.00000000000E+00  0.00000000000E+00  0.24648052123E+04  0.24648052123E+04  0.00000000000E+00 0. -1.
         -2   -1    0    0    0  501 -0.00000000000E+00 -0.00000000000E+00 -0.16155921979E+04  0.16155921979E+04  0.00000000000E+00 0.  1.
         23    2    1    2    0    0 -0.13736851562E+04  0.12807776419E+04 -0.26149889993E+03  0.18984067519E+04  0.90356210426E+02 0.  0.
         13    1    3    3    0    0 -0.72718896395E+03  0.73478021417E+03 -0.12640833487E+03  0.10414820304E+04  0.00000000000E+00 0.  1.
        -13    1    3    3    0    0 -0.64649619224E+03  0.54599742770E+03 -0.13509056506E+03  0.85692472155E+03  0.00000000000E+00 0. -1.
         22    1    1    2    0    0  0.13736851562E+04 -0.12807776419E+04  0.11107119143E+04  0.21819906583E+04  0.00000000000E+00 0. -1.
<mgrwt>
<rscale>  0 0.39910500E+04</rscale>
<asrwt>0</asrwt>
<pdfrwt beam="1">  1        2 0.37920080E+00 0.39910500E+04</pdfrwt>
<pdfrwt beam="2">  1       -2 0.24855264E+00 0.39910500E+04</pdfrwt>
<totfact> 0.18892649E-01</totfact>
</mgrwt>
</event>
<event>
 6    1  0.9988873E-007  0.4072288E+04  0.7818608E-02  0.7990120E-01
          1   -1    0    0  501    0  0.00000000000E+00  0.00000000000E+00  0.29933177338E+04  0.29933177338E+04  0.00000000000E+00 0. -1.
         -1   -1    0    0    0  501 -0.00000000000E+00 -0.00000000000E+00 -0.13850458242E+04  0.13850458242E+04  0.00000000000E+00 0.  1.
         23    2    1    2    0    0  0.14373880429E+04 -0.12572470812E+04  0.15615532115E+04  0.24681443962E+04  0.80831424401E+02 0.  0.
         13    1    3    3    0    0  0.89077462903E+03 -0.81435528542E+03  0.10232309952E+04  0.15822944227E+04  0.00000000000E+00 0.  1.
        -13    1    3    3    0    0  0.54661341387E+03 -0.44289179578E+03  0.53832221632E+03  0.88584997351E+03  0.00000000000E+00 0. -1.
         22    1    1    2    0    0 -0.14373880429E+04  0.12572470812E+04  0.46718698007E+02  0.19102191617E+04  0.00000000000E+00 0. -1.
<mgrwt>
<rscale>  0 0.40722879E+04</rscale>
<asrwt>0</asrwt>
<pdfrwt beam="1">  1        1 0.46051042E+00 0.40722879E+04</pdfrwt>
<pdfrwt beam="2">  1       -1 0.21308397E+00 0.40722879E+04</pdfrwt>
<totfact> 0.57594125E-02</totfact>
</mgrwt>
</event>
<event>
 6    1  0.9988873E-007  0.3287114E+04  0.7818608E-02  0.8166182E-01
          2   -1    0    0  501    0  0.00000000000E+00  0.00000000000E+00  0.16218919419E+04  0.16218919419E+04  0.00000000000E+00 0. -1.
         -2   -1    0    0    0  501 -0.00000000000E+00 -0.00000000000E+00 -0.16655113281E+04  0.16655113281E+04  0.00000000000E+00 0.  1.
         23    2    1    2    0    0 -0.13450194975E+04 -0.13676850223E+02 -0.96409312373E+03  0.16575148056E+04  0.92818503800E+02 0.  0.
         11    1    3    3    0    0 -0.98748177002E+03 -0.15258986822E+02 -0.65675195904E+03  0.11860338184E+04  0.00000000000E+00 0. -1.
        -11    1    3    3    0    0 -0.35753772752E+03  0.15821365993E+01 -0.30734116469E+03  0.47148098718E+03  0.00000000000E+00 0.  1.
         22    1    1    2    0    0  0.13450194975E+04  0.13676850223E+02  0.92047373749E+03  0.16298884644E+04  0.00000000000E+00 0. -1.
<mgrwt>
<rscale>  0 0.32871139E+04</rscale>
<asrwt>0</asrwt>
<pdfrwt beam="1">  1        2 0.24952184E+00 0.32871139E+04</pdfrwt>
<pdfrwt beam="2">  1       -2 0.25623251E+00 0.32871139E+04</pdfrwt>
<totfact> 0.53336197E-01</totfact>
</mgrwt>
</event>
<event>
 6    1  0.9988873E-007  0.4317097E+03  0.7818608E-02  0.1033321E+00
         -1   -1    0    0    0  501 -0.00000000000E+00  0.00000000000E+00  0.93702273807E+02  0.93702273807E+02  0.00000000000E+00 0.  1.
          1   -1    0    0  501    0  0.00000000000E+00 -0.00000000000E+00 -0.49724846393E+03  0.49724846393E+03  0.00000000000E+00 0. -1.
         23    2    1    2    0    0  0.11501412298E+03  0.16986927578E+03 -0.24668820864E+03  0.33271006376E+03  0.88074371446E+02 0.  0.
         13    1    3    3    0    0  0.35588292885E+02  0.72716166033E+02 -0.16264186346E+03  0.18167702976E+03  0.00000000000E+00 0.  1.
        -13    1    3    3    0    0  0.79425830095E+02  0.97153109752E+02 -0.84046345172E+02  0.15103303399E+03  0.00000000000E+00 0. -1.
         22    1    1    2    0    0 -0.11501412298E+03 -0.16986927578E+03 -0.15685798148E+03  0.25824067398E+03  0.00000000000E+00 0. -1.
<mgrwt>
<rscale>  0 0.43170968E+03</rscale>
<asrwt>0</asrwt>
<pdfrwt beam="1">  1        1 0.76499763E-01 0.43170968E+03</pdfrwt>
<pdfrwt beam="2">  1       -1 0.14415734E-01 0.43170968E+03</pdfrwt>
<totfact> 0.15639038E+03</totfact>
</mgrwt>
</event>
<event>
 6    1  0.9988873E-007  0.2957370E+04  0.7818608E-02  0.8256010E-01
          1   -1    0    0  501    0  0.00000000000E+00  0.00000000000E+00  0.23855230025E+04  0.23855230025E+04  0.00000000000E+00 0. -1.
         -1   -1    0    0    0  501 -0.00000000000E+00 -0.00000000000E+00 -0.91657430273E+03  0.91657430273E+03  0.00000000000E+00 0.  1.
         23    2    1    2    0    0  0.66563599633E+03 -0.12882485326E+04  0.10505052019E+04  0.17928754785E+04  0.90475083134E+02 0.  0.
         13    1    3    3    0    0  0.38779521866E+03 -0.81263188505E+03  0.69270426209E+03  0.11360435321E+04  0.00000000000E+00 0.  1.
        -13    1    3    3    0    0  0.27784077767E+03 -0.47561664758E+03  0.35780093985E+03  0.65683194636E+03  0.00000000000E+00 0. -1.
         22    1    1    2    0    0 -0.66563599633E+03  0.12882485326E+04  0.41844349785E+03  0.15092218267E+04  0.00000000000E+00 0.  1.
<mgrwt>
<rscale>  0 0.29573698E+04</rscale>
<asrwt>0</asrwt>
<pdfrwt beam="1">  1        1 0.36700353E+00 0.29573698E+04</pdfrwt>
<pdfrwt beam="2">  1       -1 0.14101143E+00 0.29573698E+04</pdfrwt>
<totfact> 0.57095381E-01</totfact>
</mgrwt>
</event>
<event>
 6    1  0.9988873E-007  0.2843537E+04  0.7818608E-02  0.8289878E-01
         -1   -1    0    0    0  501 -0.00000000000E+00  0.00000000000E+00  0.10926215669E+04  0.10926215669E+04  0.00000000000E+00 0.  1.
          1   -1    0    0  501    0  0.00000000000E+00 -0.00000000000E+00 -0.18500696318E+04  0.18500696318E+04  0.00000000000E+00 0. -1.
         23    2    1    2    0    0  0.56612225758E+03  0.13025804878E+04 -0.38851682856E+03  0.14752714923E+04  0.90941256327E+02 0.  0.
         13    1    3    3    0    0  0.30602017368E+03  0.63931361182E+03 -0.23254992781E+03  0.74595556830E+03  0.00000000000E+00 0. -1.
        -13    1    3    3    0    0  0.26010208390E+03  0.66326687599E+03 -0.15596690075E+03  0.72931592397E+03  0.00000000000E+00 0.  1.
         22    1    1    2    0    0 -0.56612225758E+03 -0.13025804878E+04 -0.36893123633E+03  0.14674197064E+04  0.00000000000E+00 0. -1.
<mgrwt>
<rscale>  0 0.28435372E+04</rscale>
<asrwt>0</asrwt>
<pdfrwt beam="1">  1        1 0.28462610E+00 0.28435372E+04</pdfrwt>
<pdfrwt beam="2">  1       -1 0.16809563E+00 0.28435372E+04</pdfrwt>
<totfact> 0.82576858E-01</totfact>
</mgrwt>
</event>
<event>
 6    1  0.9988873E-007  0.2458000E+04  0.7818608E-02  0.8418103E-01
          1   -1    0    0  501    0  0.00000000000E+00  0.00000000000E+00  0.67618342897E+03  0.67618342897E+03  0.00000000000E+00 0. -1.
         -1   -1    0    0    0  501 -0.00000000000E+00 -0.00000000000E+00 -0.22337748280E+04  0.22337748280E+04  0.00000000000E+00 0.  1.
         23    2    1    2    0    0 -0.10975733036E+04  0.54824203440E+03 -0.74477985657E+03  0.14382588690E+04  0.93032544420E+02 0.  0.
         11    1    3    3    0    0 -0.41100273296E+03  0.24353846724E+03 -0.25494445284E+03  0.54150799215E+03  0.00000000000E+00 0. -1.
        -11    1    3    3    0    0 -0.68657057065E+03  0.30470356715E+03 -0.48983540373E+03  0.89675087681E+03  0.00000000000E+00 0.  1.
         22    1    1    2    0    0  0.10975733036E+04 -0.54824203440E+03 -0.81281154245E+03  0.14716993880E+04  0.00000000000E+00 0.  1.
<mgrwt>
<rscale>  0 0.24580004E+04</rscale>
<asrwt>0</asrwt>
<pdfrwt beam="1">  1        1 0.10402822E+00 0.24580004E+04</pdfrwt>
<pdfrwt beam="2">  1       -1 0.34365767E+00 0.24580004E+04</pdfrwt>
<totfact> 0.43828023E-01</totfact>
</mgrwt>
</event>
<event>
 6    1  0.9988873E-007  0.2109455E+04  0.7818608E-02  0.8557090E-01
         -2   -1    0    0    0  501 -0.00000000000E+00  0.00000000000E+00  0.30403693885E+03  0.30403693885E+03  0.00000000000E+00 0.  1.
          2   -1    0    0  501    0  0.00000000000E+00 -0.00000000000E+00 -0.36589290676E+04  0.36589290676E+04  0.00000000000E+00 0. -1.
         23    2    1    2    0    0 -0.33552446950E+03  0.85491698895E+03 -0.71314439004E+03  0.11661301438E+04  0.88458259105E+02 0.  0.
         11    1    3    3    0    0 -0.16878770212E+03  0.41706690224E+03 -0.29385217135E+03  0.53738551147E+03  0.00000000000E+00 0. -1.
        -11    1    3    3    0    0 -0.16673676737E+03  0.43785008671E+03 -0.41929221870E+03  0.62874463233E+03  0.00000000000E+00 0.  1.
         22    1    1    2    0    0  0.33552446950E+03 -0.85491698895E+03 -0.26417477387E+04  0.27968358627E+04  0.00000000000E+00 0. -1.
<mgrwt>
<rscale>  0 0.21094545E+04</rscale>
<asrwt>0</asrwt>
<pdfrwt beam="1">  1        2 0.56291211E+00 0.21094545E+04</pdfrwt>
<pdfrwt beam="2">  1       -2 0.46774919E-01 0.21094545E+04</pdfrwt>
<totfact> 0.25105244E+00</totfact>
</mgrwt>
</event>
<event>
 6    1  0.9988873E-007  0.1935533E+04  0.7818608E-02  0.8637369E-01
          1   -1    0    0  501    0  0.00000000000E+00  0.00000000000E+00  0.18137994978E+04  0.18137994978E+04  0.00000000000E+00 0. -1.
         -1   -1    0    0    0  501 -0.00000000000E+00 -0.00000000000E+00 -0.51635913176E+03  0.51635913176E+03  0.00000000000E+00 0.  1.
         23    2    1    2    0    0  0.25257977658E+02 -0.31792065677E+03  0.17473844862E+04  0.17786504967E+04  0.92377147241E+02 0.  0.
         11    1    3    3    0    0  0.51378807446E+02 -0.28681894879E+03  0.15415596197E+04  0.15688565748E+04  0.00000000000E+00 0.  1.
        -11    1    3    3    0    0 -0.26120829788E+02 -0.31101707979E+02  0.20582486650E+03  0.20979392188E+03  0.00000000000E+00 0. -1.
         22    1    1    2    0    0 -0.25257977658E+02  0.31792065677E+03 -0.44994412012E+03  0.55150813291E+03  0.00000000000E+00 0.  1.
<mgrwt>
<rscale>  0 0.19355329E+04</rscale>
<asrwt>0</asrwt>
<pdfrwt beam="1">  1        1 0.27904607E+00 0.19355329E+04</pdfrwt>
<pdfrwt beam="2">  1       -1 0.79439867E-01 0.19355329E+04</pdfrwt>
<totfact> 0.58881855E+00</totfact>
</mgrwt>
</event>
<event>
 6    1  0.9988873E-007  0.2261826E+04  0.7818608E-02  0.8493127E-01
         -2   -1    0    0    0  501 -0.00000000000E+00  0.00000000000E+00  0.44739877599E+03  0.44739877599E+03  0.00000000000E+00 0.  1.
          2   -1    0    0  501    0  0.00000000000E+00 -0.00000000000E+00 -0.28586668403E+04  0.28586668403E+04  0.00000000000E+00 0. -1.
         23    2    1    2    0    0  0.85574960857E+03  0.22410733163E+03 -0.22331474715E+04  0.24037029208E+04  0.91151595559E+02 0.  0.
         13    1    3    3    0    0  0.80180986459E+02  0.32987923666E+02 -0.29302182413E+03  0.30557974918E+03  0.00000000000E+00 0.  1.
        -13    1    3    3    0    0  0.77556862211E+03  0.19111940797E+03 -0.19401256474E+04  0.20981231716E+04  0.00000000000E+00 0. -1.
         22    1    1    2    0    0 -0.85574960857E+03 -0.22410733163E+03 -0.17812059284E+03  0.90236269551E+03  0.00000000000E+00 0.  1.
<mgrwt>
<rscale>  0 0.22618259E+04</rscale>
<asrwt>0</asrwt>
<pdfrwt beam="1">  1        2 0.43979491E+00 0.22618259E+04</pdfrwt>
<pdfrwt beam="2">  1       -2 0.68830580E-01 0.22618259E+04</pdfrwt>
<totfact> 0.37378630E+00</totfact>
</mgrwt>
</event>
<event>
 6    1  0.9988873E-007  0.2035297E+04  0.7818608E-02  0.8590294E-01
         -2   -1    0    0    0  501 -0.00000000000E+00  0.00000000000E+00  0.35208777619E+03  0.35208777619E+03  0.00000000000E+00 0.  1.
          2   -1    0    0  501    0  0.00000000000E+00 -0.00000000000E+00 -0.29413359882E+04  0.29413359882E+04  0.00000000000E+00 0. -1.
         23    2    1    2    0    0 -0.97258058907E+03 -0.25138744176E+03 -0.10574589270E+04  0.14616249048E+04  0.94970164406E+02 0.  0.
         13    1    3    3    0    0 -0.46629915788E+03 -0.72362212874E+02 -0.48241883989E+03  0.67483266931E+03  0.00000000000E+00 0.  1.
        -13    1    3    3    0    0 -0.50628143119E+03 -0.17902522889E+03 -0.57504008708E+03  0.78679223553E+03  0.00000000000E+00 0. -1.
         22    1    1    2    0    0  0.97258058907E+03  0.25138744176E+03 -0.15317892851E+04  0.18317988596E+04  0.00000000000E+00 0. -1.
<mgrwt>
<rscale>  0 0.20352970E+04</rscale>
<asrwt>0</asrwt>
<pdfrwt beam="1">  1        2 0.45251322E+00 0.20352970E+04</pdfrwt>
<pdfrwt beam="2">  1       -2 0.54167352E-01 0.20352970E+04</pdfrwt>
<totfact> 0.56423200E+00</totfact>
</mgrwt>
</event>
<event>
 6    1  0.9988873E-007  0.3240537E+04  0.7818608E-02  0.8178193E-01
          3   -1    0    0  501    0  0.00000000000E+00  0.00000000000E+00  0.13179983648E+04  0.13179983648E+04  0.00000000000E+00 0. -1.
         -3   -1    0    0    0  501 -0.00000000000E+00 -0.00000000000E+00 -0.19918612141E+04  0.19918612141E+04  0.00000000000E+00 0.  1.
         23    2    1    2    0    0  0.24325617264E+03  0.15978614853E+04 -0.43300137182E+03  0.16757392826E+04  0.90978368282E+02 0.  0.
         13    1    3    3    0    0  0.11245438942E+03  0.52382628580E+03 -0.11444821324E+03  0.54784884860E+03  0.00000000000E+00 0.  1.
        -13    1    3    3    0    0  0.13080178322E+03  0.10740351995E+04 -0.31855315858E+03  0.11278904340E+04  0.00000000000E+00 0. -1.
         22    1    1    2    0    0 -0.24325617264E+03 -0.15978614853E+04 -0.24086147748E+03  0.16341202964E+04  0.00000000000E+00 0. -1.
<mgrwt>
<rscale>  0 0.32405369E+04</rscale>
<asrwt>0</asrwt>
<pdfrwt beam="1">  1        3 0.20276898E+00 0.32405369E+04</pdfrwt>
<pdfrwt beam="2">  1       -3 0.30644019E+00 0.32405369E+04</pdfrwt>
<totfact> 0.10750660E-02</totfact>
</mgrwt>
</event>
<event>
 6    1  0.9988873E-007  0.3622235E+04  0.7818608E-02  0.8085417E-01
          1   -1    0    0  501    0  0.00000000000E+00  0.00000000000E+00  0.21480967606E+04  0.21480967606E+04  0.00000000000E+00 0. -1.
         -1   -1    0    0    0  501 -0.00000000000E+00 -0.00000000000E+00 -0.15270011504E+04  0.15270011504E+04  0.00000000000E+00 0.  1.
         23    2    1    2    0    0  0.74608459313E+02  0.67060951772E+03  0.20147541700E+04  0.21266897836E+04  0.91057798325E+02 0.  0.
         13    1    3    3    0    0  0.53349894037E+02  0.60922117704E+03  0.18824455624E+04  0.19792922849E+04  0.00000000000E+00 0. -1.
        -13    1    3    3    0    0  0.21258565276E+02  0.61388340682E+02  0.13230860762E+03  0.14739749869E+03  0.00000000000E+00 0.  1.
         22    1    1    2    0    0 -0.74608459313E+02 -0.67060951772E+03 -0.13936585599E+04  0.15484081274E+04  0.00000000000E+00 0.  1.
<mgrwt>
<rscale>  0 0.36222348E+04</rscale>
<asrwt>0</asrwt>
<pdfrwt beam="1">  1        1 0.33047643E+00 0.36222348E+04</pdfrwt>
<pdfrwt beam="2">  1       -1 0.23492325E+00 0.36222348E+04</pdfrwt>
<totfact> 0.16714208E-01</totfact>
</mgrwt>
</event>
<event>
 6    1  0.9988873E-007  0.2220045E+04  0.7818608E-02  0.8510131E-01
          2   -1    0    0  501    0  0.00000000000E+00  0.00000000000E+00  0.13195887051E+04  0.13195887051E+04  0.00000000000E+00 0. -1.
         -2   -1    0    0    0  501 -0.00000000000E+00 -0.00000000000E+00 -0.93373792081E+03  0.93373792081E+03  0.00000000000E+00 0.  1.
         23    2    1    2    0    0  0.13597824441E+02  0.62737595421E+03 -0.73405375701E+03  0.96959313707E+03  0.86547354196E+02 0.  0.
         11    1    3    3    0    0  0.49340702075E+02  0.31861477138E+03 -0.36074360682E+03  0.48382416980E+03  0.00000000000E+00 0. -1.
        -11    1    3    3    0    0 -0.35742877633E+02  0.30876118283E+03 -0.37331015019E+03  0.48576896727E+03  0.00000000000E+00 0.  1.
         22    1    1    2    0    0 -0.13597824441E+02 -0.62737595421E+03  0.11199045413E+04  0.12837334889E+04  0.00000000000E+00 0. -1.
<mgrwt>
<rscale>  0 0.22200451E+04</rscale>
<asrwt>0</asrwt>
<pdfrwt beam="1">  1        2 0.20301365E+00 0.22200451E+04</pdfrwt>
<pdfrwt beam="2">  1       -2 0.14365199E+00 0.22200451E+04</pdfrwt>
<totfact> 0.49351904E+00</totfact>
</mgrwt>
</event>
<event>
 6    1  0.9988873E-007  0.2748617E+04  0.7818608E-02  0.8319401E-01
         -2   -1    0    0    0  501 -0.00000000000E+00  0.00000000000E+00  0.57623668383E+03  0.57623668383E+03  0.00000000000E+00 0.  1.
          2   -1    0    0  501    0  0.00000000000E+00 -0.00000000000E+00 -0.32776877651E+04  0.32776877651E+04  0.00000000000E+00 0. -1.
         23    2    1    2    0    0 -0.11775647878E+04 -0.25902527793E+03 -0.22727500949E+04  0.25742614231E+04  0.87612534583E+02 0.  0.
         13    1    3    3    0    0 -0.37785358869E+03 -0.42135593583E+02 -0.69957965363E+03  0.79621632394E+03  0.00000000000E+00 0.  1.
        -13    1    3    3    0    0 -0.79971119912E+03 -0.21688968435E+03 -0.15731704413E+04  0.17780450991E+04  0.00000000000E+00 0. -1.
         22    1    1    2    0    0  0.11775647878E+04  0.25902527793E+03 -0.42870098639E+03  0.12796630259E+04  0.00000000000E+00 0.  1.
<mgrwt>
<rscale>  0 0.27486171E+04</rscale>
<asrwt>0</asrwt>
<pdfrwt beam="1">  1        2 0.50425965E+00 0.27486171E+04</pdfrwt>
<pdfrwt beam="2">  1       -2 0.88651798E-01 0.27486171E+04</pdfrwt>
<totfact> 0.11018571E+00</totfact>
</mgrwt>
</event>
<event>
 6    1  0.9988873E-007  0.1204545E+04  0.7818608E-02  0.9108887E-01
         -2   -1    0    0    0  501 -0.00000000000E+00  0.00000000000E+00  0.31782264487E+03  0.31782264487E+03  0.00000000000E+00 0.  1.
          2   -1    0    0  501    0  0.00000000000E+00 -0.00000000000E+00 -0.11413041226E+04  0.11413041226E+04  0.00000000000E+00 0. -1.
         23    2    1    2    0    0 -0.77560407779E+01 -0.10098340416E+03 -0.11289180409E+04  0.11373359996E+04  0.93911814197E+02 0.  0.
         11    1    3    3    0    0 -0.42069180197E+02 -0.89067868218E+02 -0.70227800797E+03  0.70915252348E+03  0.00000000000E+00 0.  1.
        -11    1    3    3    0    0  0.34313139419E+02 -0.11915535938E+02 -0.42664003294E+03  0.42818347614E+03  0.00000000000E+00 0. -1.
         22    1    1    2    0    0  0.77560407779E+01  0.10098340416E+03  0.30543656323E+03  0.32179076780E+03  0.00000000000E+00 0.  1.
<mgrwt>
<rscale>  0 0.12045452E+04</rscale>
<asrwt>0</asrwt>
<pdfrwt beam="1">  1        2 0.17558525E+00 0.12045452E+04</pdfrwt>
<pdfrwt beam="2">  1       -2 0.48895791E-01 0.12045452E+04</pdfrwt>
<totfact> 0.80267499E+01</totfact>
</mgrwt>
</event>
<event>
 6    1  0.9988873E-007  0.1927916E+04  0.7818608E-02  0.8641084E-01
         -1   -1    0    0    0  501 -0.00000000000E+00  0.00000000000E+00  0.59693389212E+03  0.59693389212E+03  0.00000000000E+00 0.  1.
          1   -1    0    0  501    0  0.00000000000E+00 -0.00000000000E+00 -0.15566468905E+04  0.15566468905E+04  0.00000000000E+00 0. -1.
         23    2    1    2    0    0 -0.75778864031E+03  0.23168208029E+02  0.18013606883E+03  0.78462633296E+03  0.91701089650E+02 0.  0.
         11    1    3    3    0    0 -0.74672024145E+02 -0.23834860665E+02  0.95323828765E+01  0.78961244267E+02  0.00000000000E+00 0. -1.
        -11    1    3    3    0    0 -0.68311661616E+03  0.47003068693E+02  0.17060368595E+03  0.70566508870E+03  0.00000000000E+00 0.  1.
         22    1    1    2    0    0  0.75778864031E+03 -0.23168208029E+02 -0.11398490673E+04  0.13689544497E+04  0.00000000000E+00 0.  1.
<mgrwt>
<rscale>  0 0.19279163E+04</rscale>
<asrwt>0</asrwt>
<pdfrwt beam="1">  1        1 0.23948413E+00 0.19279163E+04</pdfrwt>
<pdfrwt beam="2">  1       -1 0.91835984E-01 0.19279163E+04</pdfrwt>
<totfact> 0.64436549E+00</totfact>
</mgrwt>
</event>
<event>
 6    1  0.9988873E-007  0.2975806E+04  0.7818608E-02  0.8250674E-01
         -2   -1    0    0    0  501 -0.00000000000E+00  0.00000000000E+00  0.82251603283E+03  0.82251603283E+03  0.00000000000E+00 0.  1.
          2   -1    0    0  501    0  0.00000000000E+00 -0.00000000000E+00 -0.26915650858E+04  0.26915650858E+04  0.00000000000E+00 0. -1.
         23    2    1    2    0    0  0.93101775060E+03 -0.11181028284E+04 -0.57419710576E+03  0.15663671889E+04  0.82800165565E+02 0.  0.
         11    1    3    3    0    0  0.64418693001E+03 -0.81327255380E+03 -0.43857407403E+03  0.11263819361E+04  0.00000000000E+00 0. -1.
        -11    1    3    3    0    0  0.28683082060E+03 -0.30483027461E+03 -0.13562303172E+03  0.43998525282E+03  0.00000000000E+00 0.  1.
         22    1    1    2    0    0 -0.93101775060E+03  0.11181028284E+04 -0.12948519472E+04  0.19477139297E+04  0.00000000000E+00 0.  1.
<mgrwt>
<rscale>  0 0.29758061E+04</rscale>
<asrwt>0</asrwt>
<pdfrwt beam="1">  1        2 0.41408694E+00 0.29758061E+04</pdfrwt>
<pdfrwt beam="2">  1       -2 0.12654093E+00 0.29758061E+04</pdfrwt>
<totfact> 0.10708948E+00</totfact>
</mgrwt>
</event>
<event>
 6    1  0.9988873E-007  0.1117109E+04  0.7818608E-02  0.9188675E-01
          3   -1    0    0  501    0  0.00000000000E+00  0.00000000000E+00  0.24198779189E+03  0.24198779189E+03  0.00000000000E+00 0. -1.
         -3   -1    0    0    0  501 -0.00000000000E+00 -0.00000000000E+00 -0.12892522135E+04  0.12892522135E+04  0.00000000000E+00 0.  1.
         23    2    1    2    0    0  0.40434002692E+02 -0.39550256534E+03 -0.10573634146E+04  0.11335476904E+04  0.94105196513E+02 0.  0.
         13    1    3    3    0    0 -0.97794007782E+01 -0.17722971201E+03 -0.57393237506E+03  0.60075317614E+03  0.00000000000E+00 0. -1.
        -13    1    3    3    0    0  0.50213403471E+02 -0.21827285333E+03 -0.48343103956E+03  0.53279451423E+03  0.00000000000E+00 0.  1.
         22    1    1    2    0    0 -0.40434002692E+02  0.39550256534E+03  0.10098993016E+02  0.39769231501E+03  0.00000000000E+00 0. -1.
<mgrwt>
<rscale>  0 0.11171093E+04</rscale>
<asrwt>0</asrwt>
<pdfrwt beam="1">  1        3 0.37228891E-01 0.11171093E+04</pdfrwt>
<pdfrwt beam="2">  1       -3 0.19834650E+00 0.11171093E+04</pdfrwt>
<totfact> 0.27957801E+00</totfact>
</mgrwt>
</event>
<event>
 6    1  0.9988873E-007  0.1234374E+04  0.7818608E-02  0.9083290E-01
         -2   -1    0    0    0  501 -0.00000000000E+00  0.00000000000E+00  0.27797546952E+03  0.27797546952E+03  0.00000000000E+00 0.  1.
          2   -1    0    0  501    0  0.00000000000E+00 -0.00000000000E+00 -0.13703349275E+04  0.13703349275E+04  0.00000000000E+00 0. -1.
         23    2    1    2    0    0  0.29068352300E+03 -0.32659078649E+03 -0.11252596215E+04  0.12098575796E+04  0.79923054694E+02 0.  0.
         13    1    3    3    0    0  0.82099438126E+02 -0.10275818530E+03 -0.24708220844E+03  0.27990923550E+03  0.00000000000E+00 0. -1.
        -13    1    3    3    0    0  0.20858408487E+03 -0.22383260118E+03 -0.87817741309E+03  0.92994834409E+03  0.00000000000E+00 0.  1.
         22    1    1    2    0    0 -0.29068352300E+03  0.32659078649E+03  0.32900163541E+02  0.43845281744E+03  0.00000000000E+00 0.  1.
<mgrwt>
<rscale>  0 0.12343735E+04</rscale>
<asrwt>0</asrwt>
<pdfrwt beam="1">  1        2 0.21082076E+00 0.12343735E+04</pdfrwt>
<pdfrwt beam="2">  1       -2 0.42765457E-01 0.12343735E+04</pdfrwt>
<totfact> 0.76766972E+01</totfact>
</mgrwt>
</event>
<event>
 6    1  0.9988873E-007  0.2599512E+04  0.7818608E-02  0.8368367E-01
         -1   -1    0    0    0  501 -0.00000000000E+00  0.00000000000E+00  0.18794405705E+04  0.18794405705E+04  0.00000000000E+00 0.  1.
          1   -1    0    0  501    0  0.00000000000E+00 -0.00000000000E+00 -0.89886654239E+03  0.89886654239E+03  0.00000000000E+00 0. -1.
         23    2    1    2    0    0 -0.87616600321E+03  0.56223937170E+03  0.13196974850E+04  0.16834168466E+04  0.92254275139E+02 0.  0.
         13    1    3    3    0    0 -0.13860848879E+03  0.51003398999E+02  0.18308225660E+03  0.23522919155E+03  0.00000000000E+00 0. -1.
        -13    1    3    3    0    0 -0.73755751442E+03  0.51123597270E+03  0.11366152284E+04  0.14481876551E+04  0.00000000000E+00 0.  1.
         22    1    1    2    0    0  0.87616600321E+03 -0.56223937170E+03 -0.33912345684E+03  0.10948902663E+04  0.00000000000E+00 0. -1.
<mgrwt>
<rscale>  0 0.25995125E+04</rscale>
<asrwt>0</asrwt>
<pdfrwt beam="1">  1        1 0.13828716E+00 0.25995125E+04</pdfrwt>
<pdfrwt beam="2">  1       -1 0.28914470E+00 0.25995125E+04</pdfrwt>
<totfact> 0.62371541E-01</totfact>
</mgrwt>
</event>
<event>
 6    1  0.9988873E-007  0.1052324E+04  0.7818608E-02  0.9252948E-01
         -2   -1    0    0    0  501 -0.00000000000E+00  0.00000000000E+00  0.22319804228E+03  0.22319804228E+03  0.00000000000E+00 0.  1.
          2   -1    0    0  501    0  0.00000000000E+00 -0.00000000000E+00 -0.12403624714E+04  0.12403624714E+04  0.00000000000E+00 0. -1.
         23    2    1    2    0    0  0.22205239208E+02  0.49482101878E+03 -0.28276605380E+03  0.57773779612E+03  0.92105410328E+02 0.  0.
         13    1    3    3    0    0 -0.19894848188E+02  0.24887432821E+02 -0.14728683330E+02  0.35101615482E+02  0.00000000000E+00 0. -1.
        -13    1    3    3    0    0  0.42100087396E+02  0.46993358596E+03 -0.26803737047E+03  0.54263618064E+03  0.00000000000E+00 0.  1.
         22    1    1    2    0    0 -0.22205239208E+02 -0.49482101878E+03 -0.73439837533E+03  0.88582271757E+03  0.00000000000E+00 0.  1.
<mgrwt>
<rscale>  0 0.10523240E+04</rscale>
<asrwt>0</asrwt>
<pdfrwt beam="1">  1        2 0.19082499E+00 0.10523240E+04</pdfrwt>
<pdfrwt beam="2">  1       -2 0.34338161E-01 0.10523240E+04</pdfrwt>
<totfact> 0.14160587E+02</totfact>
</mgrwt>
</event>
<event>
 6    1  0.9988873E-007  0.3581601E+04  0.7818608E-02  0.8094719E-01
         -2   -1    0    0    0  501 -0.00000000000E+00  0.00000000000E+00  0.17377450289E+04  0.17377450289E+04  0.00000000000E+00 0.  1.
          2   -1    0    0  501    0  0.00000000000E+00 -0.00000000000E+00 -0.18454755724E+04  0.18454755724E+04  0.00000000000E+00 0. -1.
         23    2    1    2    0    0  0.87136401935E+03  0.33449208168E+03  0.14738573266E+04  0.17467619446E+04  0.88100311508E+02 0.  0.
         13    1    3    3    0    0  0.81188251568E+03  0.30406433772E+03  0.13227412993E+04  0.15815349777E+04  0.00000000000E+00 0.  1.
        -13    1    3    3    0    0  0.59481503670E+02  0.30427743952E+02  0.15111602727E+03  0.16522696687E+03  0.00000000000E+00 0. -1.
         22    1    1    2    0    0 -0.87136401935E+03 -0.33449208168E+03 -0.15815878702E+04  0.18364586568E+04  0.00000000000E+00 0. -1.
<mgrwt>
<rscale>  0 0.35816008E+04</rscale>
<asrwt>0</asrwt>
<pdfrwt beam="1">  1        2 0.28391932E+00 0.35816008E+04</pdfrwt>
<pdfrwt beam="2">  1       -2 0.26734539E+00 0.35816008E+04</pdfrwt>
<totfact> 0.33436153E-01</totfact>
</mgrwt>
</event>
<event>
 6    1  0.9988873E-007  0.4830622E+04  0.7818608E-02  0.7855180E-01
          2   -1    0    0  501    0  0.00000000000E+00  0.00000000000E+00  0.41366484655E+04  0.41366484655E+04  0.00000000000E+00 0. -1.
         -2   -1    0    0    0  501 -0.00000000000E+00 -0.00000000000E+00 -0.14102542993E+04  0.14102542993E+04  0.00000000000E+00 0.  1.
         23    2    1    2    0    0  0.15667925307E+04 -0.73798950018E+03 -0.56781280321E+03  0.18251737454E+04  0.96852902985E+02 0.  0.
         13    1    3    3    0    0  0.21323656365E+03 -0.69299393866E+02 -0.56602350629E+02  0.23124892251E+03  0.00000000000E+00 0. -1.
        -13    1    3    3    0    0  0.13535559671E+04 -0.66869010631E+03 -0.51121045258E+03  0.15939248229E+04  0.00000000000E+00 0.  1.
         22    1    1    2    0    0 -0.15667925307E+04  0.73798950018E+03  0.32942069694E+04  0.37217290194E+04  0.00000000000E+00 0. -1.
<mgrwt>
<rscale>  0 0.48306216E+04</rscale>
<asrwt>0</asrwt>
<pdfrwt beam="1">  1        2 0.63640745E+00 0.48306216E+04</pdfrwt>
<pdfrwt beam="2">  1       -2 0.21696220E+00 0.48306216E+04</pdfrwt>
<totfact> 0.19982416E-02</totfact>
</mgrwt>
</event>
<event>
 6    1  0.9988873E-007  0.1734644E+04  0.7818608E-02  0.8741849E-01
          1   -1    0    0  501    0  0.00000000000E+00  0.00000000000E+00  0.13289948383E+04  0.13289948383E+04  0.00000000000E+00 0. -1.
         -1   -1    0    0    0  501 -0.00000000000E+00 -0.00000000000E+00 -0.56602713377E+03  0.56602713377E+03  0.00000000000E+00 0.  1.
         23    2    1    2    0    0 -0.75987509279E+03 -0.38457343142E+03  0.54745523397E+03  0.10165275180E+04  0.91181581916E+02 0.  0.
         13    1    3    3    0    0 -0.39745675418E+03 -0.25199443246E+03  0.30132801526E+03  0.55881270405E+03  0.00000000000E+00 0. -1.
        -13    1    3    3    0    0 -0.36241833861E+03 -0.13257899896E+03  0.24612721870E+03  0.45771481396E+03  0.00000000000E+00 0.  1.
         22    1    1    2    0    0  0.75987509279E+03  0.38457343142E+03  0.21551247055E+03  0.87849445403E+03  0.00000000000E+00 0.  1.
<mgrwt>
<rscale>  0 0.17346436E+04</rscale>
<asrwt>0</asrwt>
<pdfrwt beam="1">  1        1 0.20446074E+00 0.17346436E+04</pdfrwt>
<pdfrwt beam="2">  1       -1 0.87081097E-01 0.17346436E+04</pdfrwt>
<totfact> 0.10628934E+01</totfact>
</mgrwt>
</event>
<event>
 6    1  0.9988873E-007  0.3306512E+04  0.7818608E-02  0.8161240E-01
          2   -1    0    0  501    0  0.00000000000E+00  0.00000000000E+00  0.23144260803E+04  0.23144260803E+04  0.00000000000E+00 0. -1.
         -2   -1    0    0    0  501 -0.00000000000E+00 -0.00000000000E+00 -0.11809646332E+04  0.11809646332E+04  0.00000000000E+00 0.  1.
         23    2    1    2    0    0 -0.11973272069E+04 -0.72560244959E+03  0.14941701191E+04  0.20496375875E+04  0.91534364811E+02 0.  0.
         13    1    3    3    0    0 -0.30743397328E+03 -0.17896719950E+03  0.43867994170E+03  0.56478756863E+03  0.00000000000E+00 0. -1.
        -13    1    3    3    0    0 -0.88989323366E+03 -0.54663525009E+03  0.10554901774E+04  0.14848500188E+04  0.00000000000E+00 0.  1.
         22    1    1    2    0    0  0.11973272069E+04  0.72560244959E+03 -0.36070867190E+03  0.14457531260E+04  0.00000000000E+00 0.  1.
<mgrwt>
<rscale>  0 0.33065120E+04</rscale>
<asrwt>0</asrwt>
<pdfrwt beam="1">  1        2 0.35606555E+00 0.33065120E+04</pdfrwt>
<pdfrwt beam="2">  1       -2 0.18168687E+00 0.33065120E+04</pdfrwt>
<totfact> 0.65557564E-01</totfact>
</mgrwt>
</event>
<event>
 6    1  0.9988873E-007  0.9533467E+03  0.7818608E-02  0.9361247E-01
         -1   -1    0    0    0  501 -0.00000000000E+00  0.00000000000E+00  0.87109675289E+03  0.87109675289E+03  0.00000000000E+00 0.  1.
          1   -1    0    0  501    0  0.00000000000E+00 -0.00000000000E+00 -0.26084069273E+03  0.26084069273E+03  0.00000000000E+00 0. -1.
         23    2    1    2    0    0  0.11817455937E+02  0.34629304630E+03  0.68903146062E+03  0.77660085885E+03  0.91027545587E+02 0.  0.
         11    1    3    3    0    0  0.17420648527E+02  0.11429004886E+03  0.14727859381E+03  0.18723428761E+03  0.00000000000E+00 0.  1.
        -11    1    3    3    0    0 -0.56031925907E+01  0.23200299744E+03  0.54175286681E+03  0.58936657124E+03  0.00000000000E+00 0. -1.
         22    1    1    2    0    0 -0.11817455937E+02 -0.34629304630E+03 -0.78775400456E+02  0.35533658677E+03  0.00000000000E+00 0. -1.
<mgrwt>
<rscale>  0 0.95334670E+03</rscale>
<asrwt>0</asrwt>
<pdfrwt beam="1">  1        1 0.40129338E-01 0.95334670E+03</pdfrwt>
<pdfrwt beam="2">  1       -1 0.13401488E+00 0.95334670E+03</pdfrwt>
<totfact> 0.49667030E+01</totfact>
</mgrwt>
</event>
<event>
 6    1  0.9988873E-007  0.3659409E+04  0.7818608E-02  0.8077017E-01
          2   -1    0    0  501    0  0.00000000000E+00  0.00000000000E+00  0.38152476357E+04  0.38152476357E+04  0.00000000000E+00 0. -1.
         -2   -1    0    0    0  501 -0.00000000000E+00 -0.00000000000E+00 -0.87748386997E+03  0.87748386997E+03  0.00000000000E+00 0.  1.
         23    2    1    2    0    0  0.56897734370E+03  0.54118515689E+03 -0.64796671685E+03  0.10220258943E+04  0.89774555330E+02 0.  0.
         11    1    3    3    0    0  0.35053605584E+03  0.32079987047E+03 -0.33562603781E+03  0.58174987804E+03  0.00000000000E+00 0.  1.
        -11    1    3    3    0    0  0.21844128786E+03  0.22038528642E+03 -0.31234067903E+03  0.44027601626E+03  0.00000000000E+00 0. -1.
         22    1    1    2    0    0 -0.56897734370E+03 -0.54118515689E+03  0.35857304825E+04  0.36707056113E+04  0.00000000000E+00 0. -1.
<mgrwt>
<rscale>  0 0.36594088E+04</rscale>
<asrwt>0</asrwt>
<pdfrwt beam="1">  1        2 0.58696116E+00 0.36594088E+04</pdfrwt>
<pdfrwt beam="2">  1       -2 0.13499752E+00 0.36594088E+04</pdfrwt>
<totfact> 0.15262185E-01</totfact>
</mgrwt>
</event>
<event>
 6    1  0.9988873E-007  0.2241001E+04  0.7818608E-02  0.8501554E-01
         -2   -1    0    0    0  501 -0.00000000000E+00  0.00000000000E+00  0.76683911198E+03  0.76683911198E+03  0.00000000000E+00 0.  1.
          2   -1    0    0  501    0  0.00000000000E+00 -0.00000000000E+00 -0.16372676515E+04  0.16372676515E+04  0.00000000000E+00 0. -1.
         23    2    1    2    0    0  0.21342323241E+02  0.68624882088E+03  0.51147369637E+03  0.86104269208E+03  0.91630980455E+02 0.  0.
         13    1    3    3    0    0 -0.36214540427E+02  0.23899545054E+03  0.17731159771E+03  0.29978278970E+03  0.00000000000E+00 0. -1.
        -13    1    3    3    0    0  0.57556863668E+02  0.44725337035E+03  0.33416209866E+03  0.56125990238E+03  0.00000000000E+00 0.  1.
         22    1    1    2    0    0 -0.21342323241E+02 -0.68624882088E+03 -0.13819022359E+04  0.15430640714E+04  0.00000000000E+00 0. -1.
<mgrwt>
<rscale>  0 0.22410006E+04</rscale>
<asrwt>0</asrwt>
<pdfrwt beam="1">  1        2 0.25188733E+00 0.22410006E+04</pdfrwt>
<pdfrwt beam="2">  1       -2 0.11797525E+00 0.22410006E+04</pdfrwt>
<totfact> 0.53639957E+00</totfact>
</mgrwt>
</event>
<event>
 6    1  0.9988873E-007  0.3587557E+04  0.7818608E-02  0.8093348E-01
          2   -1    0    0  501    0  0.00000000000E+00  0.00000000000E+00  0.17600414220E+04  0.17600414220E+04  0.00000000000E+00 0. -1.
         -2   -1    0    0    0  501 -0.00000000000E+00 -0.00000000000E+00 -0.18281619020E+04  0.18281619020E+04  0.00000000000E+00 0.  1.
         23    2    1    2    0    0 -0.90628732292E+03  0.10706656724E+03 -0.15772028075E+04  0.18246417479E+04  0.94492594629E+02 0.  0.
         11    1    3    3    0    0 -0.39072697544E+03  0.91267421365E+02 -0.66274071502E+03  0.77474032223E+03  0.00000000000E+00 0.  1.
        -11    1    3    3    0    0 -0.51556034748E+03  0.15799145875E+02 -0.91446209253E+03  0.10499014256E+04  0.00000000000E+00 0. -1.
         22    1    1    2    0    0  0.90628732292E+03 -0.10706656724E+03  0.15090823275E+04  0.17635615761E+04  0.00000000000E+00 0. -1.
<mgrwt>
<rscale>  0 0.35875566E+04</rscale>
<asrwt>0</asrwt>
<pdfrwt beam="1">  1        2 0.27077560E+00 0.35875566E+04</pdfrwt>
<pdfrwt beam="2">  1       -2 0.28125568E+00 0.35875566E+04</pdfrwt>
<totfact> 0.30655610E-01</totfact>
</mgrwt>
</event>
<event>
 6    1  0.9988873E-007  0.1578956E+04  0.7818608E-02  0.8833581E-01
         -2   -1    0    0    0  501 -0.00000000000E+00  0.00000000000E+00  0.66795500153E+03  0.66795500153E+03  0.00000000000E+00 0.  1.
          2   -1    0    0  501    0  0.00000000000E+00 -0.00000000000E+00 -0.93311059289E+03  0.93311059289E+03  0.00000000000E+00 0. -1.
         23    2    1    2    0    0  0.38323967672E+03  0.46468216275E+03  0.38042142964E+03  0.71813193200E+03  0.90503289698E+02 0.  0.
         13    1    3    3    0    0  0.25106437769E+03  0.31077074790E+03  0.20067240352E+03  0.44708074554E+03  0.00000000000E+00 0.  1.
        -13    1    3    3    0    0  0.13217529903E+03  0.15391141485E+03  0.17974902612E+03  0.27105118647E+03  0.00000000000E+00 0. -1.
         22    1    1    2    0    0 -0.38323967672E+03 -0.46468216275E+03 -0.64557702100E+03  0.88293366242E+03  0.00000000000E+00 0. -1.
<mgrwt>
<rscale>  0 0.15789565E+04</rscale>
<asrwt>0</asrwt>
<pdfrwt beam="1">  1        2 0.14355548E+00 0.15789565E+04</pdfrwt>
<pdfrwt beam="2">  1       -2 0.10276231E+00 0.15789565E+04</pdfrwt>
<totfact> 0.20714912E+01</totfact>
</mgrwt>
</event>
<event>
 6    1  0.9988873E-007  0.2950446E+04  0.7818608E-02  0.8258025E-01
          1   -1    0    0  501    0  0.00000000000E+00  0.00000000000E+00  0.14817305353E+04  0.14817305353E+04  0.00000000000E+00 0. -1.
         -1   -1    0    0    0  501 -0.00000000000E+00 -0.00000000000E+00 -0.14687442974E+04  0.14687442974E+04  0.00000000000E+00 0.  1.
         23    2    1    2    0    0  0.62570766934E+03  0.12076337888E+04  0.57439086913E+03  0.14790589788E+04  0.88324044859E+02 0.  0.
         11    1    3    3    0    0  0.28115418022E+03  0.53327901087E+03  0.20733892383E+03  0.63751361227E+03  0.00000000000E+00 0.  1.
        -11    1    3    3    0    0  0.34455348912E+03  0.67435477793E+03  0.36705194530E+03  0.84154536653E+03  0.00000000000E+00 0. -1.
         22    1    1    2    0    0 -0.62570766934E+03 -0.12076337888E+04 -0.56140463119E+03  0.14714158539E+04  0.00000000000E+00 0.  1.
<mgrwt>
<rscale>  0 0.29504463E+04</rscale>
<asrwt>0</asrwt>
<pdfrwt beam="1">  1        1 0.22795855E+00 0.29504463E+04</pdfrwt>
<pdfrwt beam="2">  1       -1 0.22596066E+00 0.29504463E+04</pdfrwt>
<totfact> 0.57805196E-01</totfact>
</mgrwt>
</event>
<event>
 6    1  0.9988873E-007  0.1996327E+04  0.7818608E-02  0.8608340E-01
         -2   -1    0    0    0  501 -0.00000000000E+00  0.00000000000E+00  0.48521023386E+03  0.48521023386E+03  0.00000000000E+00 0.  1.
          2   -1    0    0  501    0  0.00000000000E+00 -0.00000000000E+00 -0.20533994734E+04  0.20533994734E+04  0.00000000000E+00 0. -1.
         23    2    1    2    0    0 -0.88735912105E+03  0.14290597185E+03 -0.23982370133E+03  0.93474458524E+03  0.91671726419E+02 0.  0.
         11    1    3    3    0    0 -0.70355587481E+02  0.24554542296E+02  0.19323311937E+01  0.74542391570E+02  0.00000000000E+00 0.  1.
        -11    1    3    3    0    0 -0.81700353357E+03  0.11835142955E+03 -0.24175603252E+03  0.86020219367E+03  0.00000000000E+00 0. -1.
         22    1    1    2    0    0  0.88735912105E+03 -0.14290597185E+03 -0.13283655382E+04  0.16038651220E+04  0.00000000000E+00 0. -1.
<mgrwt>
<rscale>  0 0.19963271E+04</rscale>
<asrwt>0</asrwt>
<pdfrwt beam="1">  1        2 0.31590761E+00 0.19963271E+04</pdfrwt>
<pdfrwt beam="2">  1       -2 0.74647728E-01 0.19963271E+04</pdfrwt>
<totfact> 0.93547455E+00</totfact>
</mgrwt>
</event>
<event>
 6    1  0.9988873E-007  0.1833982E+04  0.7818608E-02  0.8688434E-01
         -2   -1    0    0    0  501 -0.00000000000E+00  0.00000000000E+00  0.81921853584E+03  0.81921853584E+03  0.00000000000E+00 0.  1.
          2   -1    0    0  501    0  0.00000000000E+00 -0.00000000000E+00 -0.10264325971E+04  0.10264325971E+04  0.00000000000E+00 0. -1.
         23    2    1    2    0    0 -0.62809102694E+03  0.58801761960E+03  0.20867082925E+03  0.89002395601E+03  0.91302071206E+02 0.  0.
         11    1    3    3    0    0 -0.39143033926E+03  0.31364725602E+03  0.14508194166E+03  0.52215043953E+03  0.00000000000E+00 0.  1.
        -11    1    3    3    0    0 -0.23666068768E+03  0.27437036358E+03  0.63588887596E+02  0.36787351649E+03  0.00000000000E+00 0. -1.
         22    1    1    2    0    0  0.62809102694E+03 -0.58801761960E+03 -0.41588489049E+03  0.95562717690E+03  0.00000000000E+00 0. -1.
<mgrwt>
<rscale>  0 0.18339821E+04</rscale>
<asrwt>0</asrwt>
<pdfrwt beam="1">  1        2 0.15791271E+00 0.18339821E+04</pdfrwt>
<pdfrwt beam="2">  1       -2 0.12603362E+00 0.18339821E+04</pdfrwt>
<totfact> 0.10713102E+01</totfact>
</mgrwt>
</event>
<event>
 6    1  0.9988873E-007  0.1609350E+04  0.7818608E-02  0.8814824E-01
          1   -1    0    0  501    0  0.00000000000E+00  0.00000000000E+00  0.77163410508E+03  0.77163410508E+03  0.00000000000E+00 0. -1.
         -1   -1    0    0    0  501 -0.00000000000E+00 -0.00000000000E+00 -0.83913094402E+03  0.83913094402E+03  0.00000000000E+00 0.  1.
         23    2    1    2    0    0 -0.14276608821E+02  0.54813932893E+03 -0.61973514891E+03  0.83254419582E+03  0.91638625770E+02 0.  0.
         11    1    3    3    0    0 -0.17850847180E+02  0.35757071965E+03 -0.46612271146E+03  0.58774642018E+03  0.00000000000E+00 0. -1.
        -11    1    3    3    0    0  0.35742383594E+01  0.19056860927E+03 -0.15361243745E+03  0.24479777564E+03  0.00000000000E+00 0.  1.
         22    1    1    2    0    0  0.14276608821E+02 -0.54813932893E+03  0.55223830997E+03  0.77822085328E+03  0.00000000000E+00 0. -1.
<mgrwt>
<rscale>  0 0.16093502E+04</rscale>
<asrwt>0</asrwt>
<pdfrwt beam="1">  1        1 0.11871294E+00 0.16093502E+04</pdfrwt>
<pdfrwt beam="2">  1       -1 0.12909707E+00 0.16093502E+04</pdfrwt>
<totfact> 0.11593301E+01</totfact>
</mgrwt>
</event>
<event>
 6    1  0.9988873E-007  0.4831130E+04  0.7818608E-02  0.7855098E-01
          2   -1    0    0  501    0  0.00000000000E+00  0.00000000000E+00  0.23964601198E+04  0.23964601198E+04  0.00000000000E+00 0. -1.
         -2   -1    0    0    0  501 -0.00000000000E+00 -0.00000000000E+00 -0.24348224497E+04  0.24348224497E+04  0.00000000000E+00 0.  1.
         23    2    1    2    0    0 -0.35647432725E+02  0.23192843809E+04 -0.69039082990E+03  0.24218237208E+04  0.90773662535E+02 0.  0.
         13    1    3    3    0    0 -0.55543041151E+02  0.83420811421E+03 -0.23969316309E+03  0.86973617820E+03  0.00000000000E+00 0.  1.
        -13    1    3    3    0    0  0.19895608427E+02  0.14850762667E+04 -0.45069766681E+03  0.15520875426E+04  0.00000000000E+00 0. -1.
         22    1    1    2    0    0  0.35647432725E+02 -0.23192843809E+04  0.65202849999E+03  0.24094588487E+04  0.00000000000E+00 0. -1.
<mgrwt>
<rscale>  0 0.48311303E+04</rscale>
<asrwt>0</asrwt>
<pdfrwt beam="1">  1        2 0.36868617E+00 0.48311303E+04</pdfrwt>
<pdfrwt beam="2">  1       -2 0.37458807E+00 0.48311303E+04</pdfrwt>
<totfact> 0.31979394E-02</totfact>
</mgrwt>
</event>
<event>
 6    1  0.9988873E-007  0.6976050E+04  0.7818608E-02  0.7579910E-01
          1   -1    0    0  501    0  0.00000000000E+00  0.00000000000E+00  0.30189981517E+04  0.30189981517E+04  0.00000000000E+00 0. -1.
         -1   -1    0    0    0  501 -0.00000000000E+00 -0.00000000000E+00 -0.40299190527E+04  0.40299190527E+04  0.00000000000E+00 0.  1.
         23    2    1    2    0    0  0.11276379574E+04  0.14117884718E+04 -0.35196217912E+04  0.39572680961E+04  0.86713201877E+02 0.  0.
         13    1    3    3    0    0  0.99080562805E+03  0.12553649201E+04 -0.31691684150E+04  0.35498260968E+04  0.00000000000E+00 0.  1.
        -13    1    3    3    0    0  0.13683232934E+03  0.15642355174E+03 -0.35045337618E+03  0.40744199927E+03  0.00000000000E+00 0. -1.
         22    1    1    2    0    0 -0.11276379574E+04 -0.14117884718E+04  0.25087008902E+04  0.30916491083E+04  0.00000000000E+00 0. -1.
<mgrwt>
<rscale>  0 0.69760499E+04</rscale>
<asrwt>0</asrwt>
<pdfrwt beam="1">  1        1 0.46446126E+00 0.69760499E+04</pdfrwt>
<pdfrwt beam="2">  1       -1 0.61998754E+00 0.69760499E+04</pdfrwt>
<totfact> 0.13723572E-04</totfact>
</mgrwt>
</event>
<event>
 6    1  0.9988873E-007  0.3681986E+04  0.7818608E-02  0.8071966E-01
         -1   -1    0    0    0  501 -0.00000000000E+00  0.00000000000E+00  0.16491667787E+04  0.16491667787E+04  0.00000000000E+00 0.  1.
          1   -1    0    0  501    0  0.00000000000E+00 -0.00000000000E+00 -0.20551319097E+04  0.20551319097E+04  0.00000000000E+00 0. -1.
         23    2    1    2    0    0 -0.61527312468E+03  0.13091301714E+04 -0.13468890625E+04  0.19786913552E+04  0.93415784473E+02 0.  0.
         11    1    3    3    0    0 -0.37681323456E+03  0.70431538067E+03 -0.71381688109E+03  0.10712529621E+04  0.00000000000E+00 0. -1.
        -11    1    3    3    0    0 -0.23845989012E+03  0.60481479073E+03 -0.63307218140E+03  0.90743839303E+03  0.00000000000E+00 0.  1.
         22    1    1    2    0    0  0.61527312468E+03 -0.13091301714E+04  0.94092393151E+03  0.17256073332E+04  0.00000000000E+00 0.  1.
<mgrwt>
<rscale>  0 0.36819860E+04</rscale>
<asrwt>0</asrwt>
<pdfrwt beam="1">  1        1 0.31617414E+00 0.36819860E+04</pdfrwt>
<pdfrwt beam="2">  1       -1 0.25371797E+00 0.36819860E+04</pdfrwt>
<totfact> 0.14483868E-01</totfact>
</mgrwt>
</event>
<event>
 6    1  0.9988873E-007  0.4219307E+04  0.7818608E-02  0.7961710E-01
          2   -1    0    0  501    0  0.00000000000E+00  0.00000000000E+00  0.23762270292E+04  0.23762270292E+04  0.00000000000E+00 0. -1.
         -2   -1    0    0    0  501 -0.00000000000E+00 -0.00000000000E+00 -0.18729854029E+04  0.18729854029E+04  0.00000000000E+00 0.  1.
         23    2    1    2    0    0  0.51237215942E+03 -0.18080147845E+03 -0.18001727749E+04  0.18825835411E+04  0.91018488816E+02 0.  0.
         11    1    3    3    0    0  0.32746227688E+03 -0.14523930942E+03 -0.12882262994E+04  0.13371062030E+04  0.00000000000E+00 0.  1.
        -11    1    3    3    0    0  0.18490988254E+03 -0.35562169030E+02 -0.51194647555E+03  0.54547733807E+03  0.00000000000E+00 0. -1.
         22    1    1    2    0    0 -0.51237215942E+03  0.18080147845E+03  0.23034144012E+04  0.23666288911E+04  0.00000000000E+00 0. -1.
<mgrwt>
<rscale>  0 0.42193073E+04</rscale>
<asrwt>0</asrwt>
<pdfrwt beam="1">  1        2 0.36557339E+00 0.42193073E+04</pdfrwt>
<pdfrwt beam="2">  1       -2 0.28815160E+00 0.42193073E+04</pdfrwt>
<totfact> 0.11940219E-01</totfact>
</mgrwt>
</event>
<event>
 6    1  0.9988873E-007  0.1788688E+04  0.7818608E-02  0.8712338E-01
         -2   -1    0    0    0  501 -0.00000000000E+00  0.00000000000E+00  0.86845018358E+03  0.86845018358E+03  0.00000000000E+00 0.  1.
          2   -1    0    0  501    0  0.00000000000E+00 -0.00000000000E+00 -0.92100965146E+03  0.92100965146E+03  0.00000000000E+00 0. -1.
         23    2    1    2    0    0  0.64011414422E+03 -0.38795203716E+03  0.45908239192E+03  0.88280097226E+03  0.91257949264E+02 0.  0.
         11    1    3    3    0    0  0.27722661332E+02  0.20439292683E+01  0.13073235499E+02  0.30718611371E+02  0.00000000000E+00 0.  1.
        -11    1    3    3    0    0  0.61239148288E+03 -0.38999596642E+03  0.44600915642E+03  0.85208236089E+03  0.00000000000E+00 0. -1.
         22    1    1    2    0    0 -0.64011414422E+03  0.38795203716E+03 -0.51164185979E+03  0.90665886278E+03  0.00000000000E+00 0. -1.
<mgrwt>
<rscale>  0 0.17886878E+04</rscale>
<asrwt>0</asrwt>
<pdfrwt beam="1">  1        2 0.14169379E+00 0.17886878E+04</pdfrwt>
<pdfrwt beam="2">  1       -2 0.13360772E+00 0.17886878E+04</pdfrwt>
<totfact> 0.10862977E+01</totfact>
</mgrwt>
</event>
<event>
 6    1  0.9988873E-007  0.3571013E+04  0.7818608E-02  0.8097164E-01
          1   -1    0    0  501    0  0.00000000000E+00  0.00000000000E+00  0.16287852297E+04  0.16287852297E+04  0.00000000000E+00 0. -1.
         -1   -1    0    0    0  501 -0.00000000000E+00 -0.00000000000E+00 -0.19573073170E+04  0.19573073170E+04  0.00000000000E+00 0.  1.
         23    2    1    2    0    0 -0.30662700017E+03  0.31351802918E+03  0.15726250142E+04  0.16350225907E+04  0.88519857716E+02 0.  0.
         11    1    3    3    0    0 -0.12205818431E+03  0.18748152700E+03  0.80927603033E+03  0.83962802275E+03  0.00000000000E+00 0.  1.
        -11    1    3    3    0    0 -0.18456881585E+03  0.12603650219E+03  0.76334898383E+03  0.79539456799E+03  0.00000000000E+00 0. -1.
         22    1    1    2    0    0  0.30662700017E+03 -0.31351802918E+03 -0.19011471014E+04  0.19510699560E+04  0.00000000000E+00 0.  1.
<mgrwt>
<rscale>  0 0.35710129E+04</rscale>
<asrwt>0</asrwt>
<pdfrwt beam="1">  1        1 0.25058234E+00 0.35710129E+04</pdfrwt>
<pdfrwt beam="2">  1       -1 0.30112420E+00 0.35710129E+04</pdfrwt>
<totfact> 0.14041343E-01</totfact>
</mgrwt>
</event>
<event>
 6    1  0.9988873E-007  0.1831003E+04  0.7818608E-02  0.8689984E-01
         -1   -1    0    0    0  501 -0.00000000000E+00  0.00000000000E+00  0.18925935694E+04  0.18925935694E+04  0.00000000000E+00 0.  1.
          1   -1    0    0  501    0  0.00000000000E+00 -0.00000000000E+00 -0.44285440207E+03  0.44285440207E+03  0.00000000000E+00 0. -1.
         23    2    1    2    0    0 -0.35953502592E+03 -0.67152990731E+03  0.84075010151E+02  0.77171639556E+03  0.90883092880E+02 0.  0.
         11    1    3    3    0    0 -0.21227861813E+03 -0.47610619985E+03  0.37530027624E+02  0.52263546400E+03  0.00000000000E+00 0.  1.
        -11    1    3    3    0    0 -0.14725640778E+03 -0.19542370746E+03  0.46544982527E+02  0.24908093157E+03  0.00000000000E+00 0. -1.
         22    1    1    2    0    0  0.35953502592E+03  0.67152990731E+03  0.13656641572E+04  0.15637315759E+04  0.00000000000E+00 0.  1.
<mgrwt>
<rscale>  0 0.18310034E+04</rscale>
<asrwt>0</asrwt>
<pdfrwt beam="1">  1        1 0.68131448E-01 0.18310034E+04</pdfrwt>
<pdfrwt beam="2">  1       -1 0.29116824E+00 0.18310034E+04</pdfrwt>
<totfact> 0.18570435E+00</totfact>
</mgrwt>
</event>
<event>
 6    1  0.9988873E-007  0.3472421E+04  0.7818608E-02  0.8120357E-01
         -2   -1    0    0    0  501 -0.00000000000E+00  0.00000000000E+00  0.14956060576E+04  0.14956060576E+04  0.00000000000E+00 0.  1.
          2   -1    0    0  501    0  0.00000000000E+00 -0.00000000000E+00 -0.20155215731E+04  0.20155215731E+04  0.00000000000E+00 0. -1.
         23    2    1    2    0    0  0.14914246625E+04  0.91455889095E+02  0.63150524342E+03  0.16247338575E+04  0.90826933077E+02 0.  0.
         13    1    3    3    0    0  0.40417551929E+03  0.12782063392E+02  0.12952253284E+03  0.42461431682E+03  0.00000000000E+00 0. -1.
        -13    1    3    3    0    0  0.10872491432E+04  0.78673825703E+02  0.50198271059E+03  0.12001195407E+04  0.00000000000E+00 0.  1.
         22    1    1    2    0    0 -0.14914246625E+04 -0.91455889095E+02 -0.11514207589E+04  0.18863937732E+04  0.00000000000E+00 0. -1.
<mgrwt>
<rscale>  0 0.34724206E+04</rscale>
<asrwt>0</asrwt>
<pdfrwt beam="1">  1        2 0.31008024E+00 0.34724206E+04</pdfrwt>
<pdfrwt beam="2">  1       -2 0.23009324E+00 0.34724206E+04</pdfrwt>
<totfact> 0.46059051E-01</totfact>
</mgrwt>
</event>
<event>
 6    1  0.9988873E-007  0.1856134E+04  0.7818608E-02  0.8677005E-01
         -1   -1    0    0    0  501 -0.00000000000E+00  0.00000000000E+00  0.38036100934E+03  0.38036100934E+03  0.00000000000E+00 0.  1.
          1   -1    0    0  501    0  0.00000000000E+00 -0.00000000000E+00 -0.22644495153E+04  0.22644495153E+04  0.00000000000E+00 0. -1.
         23    2    1    2    0    0  0.54628929269E+03  0.63734643899E+03 -0.15011533112E+04  0.17221611666E+04  0.87950811075E+02 0.  0.
         11    1    3    3    0    0  0.14612106362E+03  0.14011277479E+03 -0.29917423424E+03  0.36123147333E+03  0.00000000000E+00 0. -1.
        -11    1    3    3    0    0  0.40016822907E+03  0.49723366420E+03 -0.12019790770E+04  0.13609296932E+04  0.00000000000E+00 0.  1.
         22    1    1    2    0    0 -0.54628929269E+03 -0.63734643899E+03 -0.38293519472E+03  0.92264935807E+03  0.00000000000E+00 0. -1.
<mgrwt>
<rscale>  0 0.18561339E+04</rscale>
<asrwt>0</asrwt>
<pdfrwt beam="1">  1        1 0.34837685E+00 0.18561339E+04</pdfrwt>
<pdfrwt beam="2">  1       -1 0.58517078E-01 0.18561339E+04</pdfrwt>
<totfact> 0.54728185E+00</totfact>
</mgrwt>
</event>
<event>
 6    1  0.9988873E-007  0.4178851E+04  0.7818608E-02  0.7969407E-01
         -2   -1    0    0    0  501 -0.00000000000E+00  0.00000000000E+00  0.20799386736E+04  0.20799386736E+04  0.00000000000E+00 0.  1.
          2   -1    0    0  501    0  0.00000000000E+00 -0.00000000000E+00 -0.20989558255E+04  0.20989558255E+04  0.00000000000E+00 0. -1.
         23    2    1    2    0    0  0.14525655596E+04  0.49767631006E+03 -0.14250153708E+04  0.20969580432E+04  0.94529431292E+02 0.  0.
         13    1    3    3    0    0  0.87402225321E+03  0.25038987892E+03 -0.84525920702E+03  0.12413996607E+04  0.00000000000E+00 0.  1.
        -13    1    3    3    0    0  0.57854330643E+03  0.24728643114E+03 -0.57975616381E+03  0.85555838253E+03  0.00000000000E+00 0. -1.
         22    1    1    2    0    0 -0.14525655596E+04 -0.49767631006E+03  0.14059982189E+04  0.20819364559E+04  0.00000000000E+00 0.  1.
<mgrwt>
<rscale>  0 0.41788512E+04</rscale>
<asrwt>0</asrwt>
<pdfrwt beam="1">  1        2 0.32291628E+00 0.41788512E+04</pdfrwt>
<pdfrwt beam="2">  1       -2 0.31999057E+00 0.41788512E+04</pdfrwt>
<totfact> 0.10956101E-01</totfact>
</mgrwt>
</event>
<event>
 6    1  0.9988873E-007  0.5289780E+04  0.7818608E-02  0.7785297E-01
          2   -1    0    0  501    0  0.00000000000E+00  0.00000000000E+00  0.37235185878E+04  0.37235185878E+04  0.00000000000E+00 0. -1.
         -2   -1    0    0    0  501 -0.00000000000E+00 -0.00000000000E+00 -0.18787181575E+04  0.18787181575E+04  0.00000000000E+00 0.  1.
         23    2    1    2    0    0 -0.12247920128E+04 -0.22880558848E+04  0.38599259620E+03  0.26250844980E+04  0.82238256620E+02 0.  0.
         13    1    3    3    0    0 -0.15761828863E+03 -0.25912176278E+03  0.65911377341E+02  0.31037384316E+03  0.00000000000E+00 0.  1.
        -13    1    3    3    0    0 -0.10671737242E+04 -0.20289341220E+04  0.32008121886E+03  0.23147106548E+04  0.00000000000E+00 0. -1.
         22    1    1    2    0    0  0.12247920128E+04  0.22880558848E+04  0.14588078341E+04  0.29771522473E+04  0.00000000000E+00 0. -1.
<mgrwt>
<rscale>  0 0.52897796E+04</rscale>
<asrwt>0</asrwt>
<pdfrwt beam="1">  1        2 0.57284901E+00 0.52897796E+04</pdfrwt>
<pdfrwt beam="2">  1       -2 0.28903356E+00 0.52897796E+04</pdfrwt>
<totfact> 0.14751490E-02</totfact>
</mgrwt>
</event>
<event>
 6    1  0.9988873E-007  0.8333751E+03  0.7818608E-02  0.9512926E-01
         -1   -1    0    0    0  501 -0.00000000000E+00  0.00000000000E+00  0.19735635411E+03  0.19735635411E+03  0.00000000000E+00 0.  1.
          1   -1    0    0  501    0  0.00000000000E+00 -0.00000000000E+00 -0.87977151960E+03  0.87977151960E+03  0.00000000000E+00 0. -1.
         23    2    1    2    0    0 -0.15312659284E+03 -0.25258536016E+03  0.24399608688E+02  0.31107680323E+03  0.94479198764E+02 0.  0.
         11    1    3    3    0    0 -0.57186853278E+01 -0.28504366652E+02  0.31366397787E+02  0.42767431420E+02  0.00000000000E+00 0.  1.
        -11    1    3    3    0    0 -0.14740790751E+03 -0.22408099351E+03 -0.69667890992E+01  0.26830937181E+03  0.00000000000E+00 0. -1.
         22    1    1    2    0    0  0.15312659284E+03  0.25258536016E+03 -0.70681477418E+03  0.76605107049E+03  0.00000000000E+00 0. -1.
<mgrwt>
<rscale>  0 0.83337506E+03</rscale>
<asrwt>0</asrwt>
<pdfrwt beam="1">  1        1 0.13534946E+00 0.83337506E+03</pdfrwt>
<pdfrwt beam="2">  1       -1 0.30362517E-01 0.83337506E+03</pdfrwt>
<totfact> 0.19056438E+02</totfact>
</mgrwt>
</event>
<event>
 6    1  0.2536455E-006  0.4577461E+04  0.7818608E-02  0.7897214E-01
         -2   -1    0    0    0  501 -0.00000000000E+00  0.00000000000E+00  0.19927155902E+04  0.19927155902E+04  0.00000000000E+00 0.  1.
          2   -1    0    0  501    0  0.00000000000E+00 -0.00000000000E+00 -0.26287182157E+04  0.26287182157E+04  0.00000000000E+00 0. -1.
         23    2    1    2    0    0 -0.94470154561E+03 -0.24873488903E+03 -0.24067667545E+04  0.25990748725E+04  0.91290343432E+02 0.  0.
         11    1    3    3    0    0 -0.42558121709E+03 -0.15385326997E+03 -0.10558679298E+04  0.11487590201E+04  0.00000000000E+00 0.  1.
        -11    1    3    3    0    0 -0.51912032852E+03 -0.94881619064E+02 -0.13508988247E+04  0.14503158523E+04  0.00000000000E+00 0. -1.
         22    1    1    2    0    0  0.94470154561E+03  0.24873488903E+03  0.17707641289E+04  0.20223589334E+04  0.00000000000E+00 0.  1.
<mgrwt>
<rscale>  0 0.45774612E+04</rscale>
<asrwt>0</asrwt>
<pdfrwt beam="1">  1        2 0.40441819E+00 0.45774612E+04</pdfrwt>
<pdfrwt beam="2">  1       -2 0.30657163E+00 0.45774612E+04</pdfrwt>
<totfact> 0.63839616E-02</totfact>
</mgrwt>
</event>
<event>
 6    1  0.9988873E-007  0.8520294E+03  0.7818608E-02  0.9487617E-01
         -2   -1    0    0    0  501 -0.00000000000E+00  0.00000000000E+00  0.56465006182E+02  0.56465006182E+02  0.00000000000E+00 0.  1.
          2   -1    0    0  501    0  0.00000000000E+00 -0.00000000000E+00 -0.32141771330E+04  0.32141771330E+04  0.00000000000E+00 0. -1.
         23    2    1    2    0    0  0.15549970665E+03  0.37613645983E+03 -0.11824707644E+04  0.12539028811E+04  0.91523392928E+02 0.  0.
         11    1    3    3    0    0  0.12907204154E+03  0.28722654396E+03 -0.78611200998E+03  0.84683574068E+03  0.00000000000E+00 0.  1.
        -11    1    3    3    0    0  0.26427665108E+02  0.88909915867E+02 -0.39635875440E+03  0.40706714043E+03  0.00000000000E+00 0. -1.
         22    1    1    2    0    0 -0.15549970665E+03 -0.37613645983E+03 -0.19752413624E+04  0.20167392581E+04  0.00000000000E+00 0.  1.
<mgrwt>
<rscale>  0 0.85202942E+03</rscale>
<asrwt>0</asrwt>
<pdfrwt beam="1">  1        2 0.49448871E+00 0.85202942E+03</pdfrwt>
<pdfrwt beam="2">  1       -2 0.86869254E-02 0.85202942E+03</pdfrwt>
<totfact> 0.11496021E+02</totfact>
</mgrwt>
</event>
<event>
 6    1  0.9988873E-007  0.2277958E+04  0.7818608E-02  0.8486663E-01
          1   -1    0    0  501    0  0.00000000000E+00  0.00000000000E+00  0.26841442888E+04  0.26841442888E+04  0.00000000000E+00 0. -1.
         -1   -1    0    0    0  501 -0.00000000000E+00 -0.00000000000E+00 -0.48330956397E+03  0.48330956397E+03  0.00000000000E+00 0.  1.
         23    2    1    2    0    0 -0.96413338619E+03 -0.43072722982E+03  0.51558850038E+03  0.11787019904E+04  0.91802765175E+02 0.  0.
         11    1    3    3    0    0 -0.30527395370E+03 -0.12130068756E+03  0.11624938260E+03  0.34845367348E+03  0.00000000000E+00 0. -1.
        -11    1    3    3    0    0 -0.65885943249E+03 -0.30942654226E+03  0.39933911777E+03  0.83024831696E+03  0.00000000000E+00 0.  1.
         22    1    1    2    0    0  0.96413338619E+03  0.43072722982E+03  0.16852462245E+04  0.19887518623E+04  0.00000000000E+00 0. -1.
<mgrwt>
<rscale>  0 0.22779575E+04</rscale>
<asrwt>0</asrwt>
<pdfrwt beam="1">  1        1 0.41294527E+00 0.22779575E+04</pdfrwt>
<pdfrwt beam="2">  1       -1 0.74355319E-01 0.22779575E+04</pdfrwt>
<totfact> 0.16603484E+00</totfact>
</mgrwt>
</event>
<event>
 6    1  0.9988873E-007  0.2418901E+04  0.7818608E-02  0.8432461E-01
          2   -1    0    0  501    0  0.00000000000E+00  0.00000000000E+00  0.15075787738E+04  0.15075787738E+04  0.00000000000E+00 0. -1.
         -2   -1    0    0    0  501 -0.00000000000E+00 -0.00000000000E+00 -0.97027824118E+03  0.97027824118E+03  0.00000000000E+00 0.  1.
         23    2    1    2    0    0  0.11851601126E+04  0.20671348247E+03  0.16070721364E+03  0.12172391172E+04  0.92245885749E+02 0.  0.
         11    1    3    3    0    0  0.56909641728E+03  0.53758830054E+02  0.86834048372E+02  0.57818759579E+03  0.00000000000E+00 0. -1.
        -11    1    3    3    0    0  0.61606369535E+03  0.15295465242E+03  0.73873165263E+02  0.63905152138E+03  0.00000000000E+00 0.  1.
         22    1    1    2    0    0 -0.11851601126E+04 -0.20671348247E+03  0.37659331900E+03  0.12606178978E+04  0.00000000000E+00 0. -1.
<mgrwt>
<rscale>  0 0.24189013E+04</rscale>
<asrwt>0</asrwt>
<pdfrwt beam="1">  1        2 0.23193520E+00 0.24189013E+04</pdfrwt>
<pdfrwt beam="2">  1       -2 0.14927357E+00 0.24189013E+04</pdfrwt>
<totfact> 0.34256379E+00</totfact>
</mgrwt>
</event>
<event>
 6    1  0.9988873E-007  0.1096071E+04  0.7818608E-02  0.9209030E-01
         -2   -1    0    0    0  501 -0.00000000000E+00  0.00000000000E+00  0.16943880279E+03  0.16943880279E+03  0.00000000000E+00 0.  1.
          2   -1    0    0  501    0  0.00000000000E+00 -0.00000000000E+00 -0.17725739967E+04  0.17725739967E+04  0.00000000000E+00 0. -1.
         23    2    1    2    0    0 -0.20795651701E+02 -0.36061439464E+03 -0.15283786212E+04  0.15731446037E+04  0.91474223852E+02 0.  0.
         11    1    3    3    0    0 -0.53156956685E+02 -0.15637316262E+03 -0.72567228253E+03  0.74423013219E+03  0.00000000000E+00 0. -1.
        -11    1    3    3    0    0  0.32361304984E+02 -0.20424123202E+03 -0.80270633863E+03  0.82891447146E+03  0.00000000000E+00 0.  1.
         22    1    1    2    0    0  0.20795651701E+02  0.36061439464E+03 -0.74756572781E+02  0.36886819587E+03  0.00000000000E+00 0.  1.
<mgrwt>
<rscale>  0 0.10960708E+04</rscale>
<asrwt>0</asrwt>
<pdfrwt beam="1">  1        2 0.27270370E+00 0.10960708E+04</pdfrwt>
<pdfrwt beam="2">  1       -2 0.26067507E-01 0.10960708E+04</pdfrwt>
<totfact> 0.11803273E+02</totfact>
</mgrwt>
</event>
<event>
 6    1  0.9988873E-007  0.1686479E+04  0.7818608E-02  0.8769114E-01
          2   -1    0    0  501    0  0.00000000000E+00  0.00000000000E+00  0.41794590256E+03  0.41794590256E+03  0.00000000000E+00 0. -1.
         -2   -1    0    0    0  501 -0.00000000000E+00 -0.00000000000E+00 -0.17013028768E+04  0.17013028768E+04  0.00000000000E+00 0.  1.
         23    2    1    2    0    0 -0.60623522291E+02  0.12390273716E+03 -0.16857927583E+04  0.16938293861E+04  0.90186836511E+02 0.  0.
         11    1    3    3    0    0  0.11713242089E+02  0.28893104313E+02 -0.13991958219E+03  0.14335097138E+03  0.00000000000E+00 0. -1.
        -11    1    3    3    0    0 -0.72336764380E+02  0.95009632851E+02 -0.15458731762E+04  0.15504784147E+04  0.00000000000E+00 0.  1.
         22    1    1    2    0    0  0.60623522291E+02 -0.12390273716E+03  0.40243578415E+03  0.42541939318E+03  0.00000000000E+00 0. -1.
<mgrwt>
<rscale>  0 0.16864787E+04</rscale>
<asrwt>0</asrwt>
<pdfrwt beam="1">  1        2 0.64299371E-01 0.16864787E+04</pdfrwt>
<pdfrwt beam="2">  1       -2 0.26173890E+00 0.16864787E+04</pdfrwt>
<totfact> 0.39259541E+00</totfact>
</mgrwt>
</event>
<event>
 6    1  0.9988873E-007  0.3283429E+04  0.7818608E-02  0.8167125E-01
         -2   -1    0    0    0  501 -0.00000000000E+00  0.00000000000E+00  0.20276021446E+04  0.20276021446E+04  0.00000000000E+00 0.  1.
          2   -1    0    0  501    0  0.00000000000E+00 -0.00000000000E+00 -0.13292675288E+04  0.13292675288E+04  0.00000000000E+00 0. -1.
         23    2    1    2    0    0  0.13904407584E+03 -0.61364175974E+03 -0.11994052268E+04  0.13575432931E+04  0.91986032795E+02 0.  0.
         13    1    3    3    0    0  0.48779159107E+02 -0.17172268425E+03 -0.25894913023E+03  0.31451985422E+03  0.00000000000E+00 0. -1.
        -13    1    3    3    0    0  0.90264916738E+02 -0.44191907549E+03 -0.94045609662E+03  0.10430234389E+04  0.00000000000E+00 0.  1.
         22    1    1    2    0    0 -0.13904407584E+03  0.61364175974E+03  0.18977398427E+04  0.19993263802E+04  0.00000000000E+00 0.  1.
<mgrwt>
<rscale>  0 0.32834285E+04</rscale>
<asrwt>0</asrwt>
<pdfrwt beam="1">  1        2 0.20450270E+00 0.32834285E+04</pdfrwt>
<pdfrwt beam="2">  1       -2 0.31193879E+00 0.32834285E+04</pdfrwt>
<totfact> 0.35684876E-01</totfact>
</mgrwt>
</event>
<event>
 6    1  0.9988873E-007  0.1473098E+04  0.7818608E-02  0.8902542E-01
         -1   -1    0    0    0  501 -0.00000000000E+00  0.00000000000E+00  0.41418377797E+03  0.41418377797E+03  0.00000000000E+00 0.  1.
          1   -1    0    0  501    0  0.00000000000E+00 -0.00000000000E+00 -0.13098164550E+04  0.13098164550E+04  0.00000000000E+00 0. -1.
         23    2    1    2    0    0  0.58622450169E+03  0.34492460304E+03 -0.12805194690E+03  0.69842121337E+03  0.93609518866E+02 0.  0.
         13    1    3    3    0    0  0.31752980610E+03  0.16873791450E+03 -0.22751912428E+02  0.36029891905E+03  0.00000000000E+00 0. -1.
        -13    1    3    3    0    0  0.26869469559E+03  0.17618668854E+03 -0.10530003448E+03  0.33812229432E+03  0.00000000000E+00 0.  1.
         22    1    1    2    0    0 -0.58622450169E+03 -0.34492460304E+03 -0.76758073014E+03  0.10255790196E+04  0.00000000000E+00 0. -1.
<mgrwt>
<rscale>  0 0.14730984E+04</rscale>
<asrwt>0</asrwt>
<pdfrwt beam="1">  1        1 0.20151022E+00 0.14730984E+04</pdfrwt>
<pdfrwt beam="2">  1       -1 0.63720582E-01 0.14730984E+04</pdfrwt>
<totfact> 0.21551764E+01</totfact>
</mgrwt>
</event>
<event>
 6    1  0.9988873E-007  0.5049867E+04  0.7818608E-02  0.7820860E-01
          1   -1    0    0  501    0  0.00000000000E+00  0.00000000000E+00  0.24132669212E+04  0.24132669212E+04  0.00000000000E+00 0. -1.
         -1   -1    0    0    0  501 -0.00000000000E+00 -0.00000000000E+00 -0.26417674521E+04  0.26417674521E+04  0.00000000000E+00 0.  1.
         23    2    1    2    0    0 -0.49359028790E+02 -0.19247679584E+04  0.15195478833E+04  0.24544880335E+04  0.91201589532E+02 0.  0.
         11    1    3    3    0    0 -0.77301198650E+01 -0.98286884812E+03  0.82918036654E+03  0.12859358489E+04  0.00000000000E+00 0. -1.
        -11    1    3    3    0    0 -0.41628908925E+02 -0.94189911025E+03  0.69036751673E+03  0.11685521846E+04  0.00000000000E+00 0.  1.
         22    1    1    2    0    0  0.49359028790E+02  0.19247679584E+04 -0.17480484142E+04  0.26005463398E+04  0.00000000000E+00 0.  1.
<mgrwt>
<rscale>  0 0.50498673E+04</rscale>
<asrwt>0</asrwt>
<pdfrwt beam="1">  1        1 0.37127183E+00 0.50498673E+04</pdfrwt>
<pdfrwt beam="2">  1       -1 0.40642577E+00 0.50498673E+04</pdfrwt>
<totfact> 0.72358515E-03</totfact>
</mgrwt>
</event>
<event>
 6    1  0.9988873E-007  0.2553362E+04  0.7818608E-02  0.8384218E-01
          2   -1    0    0  501    0  0.00000000000E+00  0.00000000000E+00  0.25309031222E+04  0.25309031222E+04  0.00000000000E+00 0. -1.
         -2   -1    0    0    0  501 -0.00000000000E+00 -0.00000000000E+00 -0.64400513898E+03  0.64400513898E+03  0.00000000000E+00 0.  1.
         23    2    1    2    0    0  0.89782410305E+03  0.64357026120E+03  0.15292368681E+03  0.11189564958E+04  0.91690699211E+02 0.  0.
         13    1    3    3    0    0  0.59642391126E+03  0.39689696210E+03  0.62579887746E+02  0.71914179603E+03  0.00000000000E+00 0. -1.
        -13    1    3    3    0    0  0.30140019179E+03  0.24667329909E+03  0.90343799068E+02  0.39981469974E+03  0.00000000000E+00 0.  1.
         22    1    1    2    0    0 -0.89782410305E+03 -0.64357026120E+03  0.17339742964E+04  0.20559517654E+04  0.00000000000E+00 0. -1.
<mgrwt>
<rscale>  0 0.25533622E+04</rscale>
<asrwt>0</asrwt>
<pdfrwt beam="1">  1        2 0.38936971E+00 0.25533622E+04</pdfrwt>
<pdfrwt beam="2">  1       -2 0.99077715E-01 0.25533622E+04</pdfrwt>
<totfact> 0.25036740E+00</totfact>
</mgrwt>
</event>
<event>
 6    1  0.9988873E-007  0.8754268E+03  0.7818608E-02  0.9456831E-01
          2   -1    0    0  501    0  0.00000000000E+00  0.00000000000E+00  0.13231096363E+04  0.13231096363E+04  0.00000000000E+00 0. -1.
         -2   -1    0    0    0  501 -0.00000000000E+00 -0.00000000000E+00 -0.14480510624E+03  0.14480510624E+03  0.00000000000E+00 0.  1.
         23    2    1    2    0    0 -0.42338538632E+03  0.73002781343E+02  0.67649682648E+03  0.80731231839E+03  0.97573724673E+02 0.  0.
         11    1    3    3    0    0 -0.27220923877E+03  0.13411040993E+02  0.48344349014E+03  0.55497327310E+03  0.00000000000E+00 0. -1.
        -11    1    3    3    0    0 -0.15117614754E+03  0.59591740350E+02  0.19305333634E+03  0.25233904529E+03  0.00000000000E+00 0.  1.
         22    1    1    2    0    0  0.42338538632E+03 -0.73002781343E+02  0.50180770358E+03  0.66060242416E+03  0.00000000000E+00 0.  1.
<mgrwt>
<rscale>  0 0.87542682E+03</rscale>
<asrwt>0</asrwt>
<pdfrwt beam="1">  1        2 0.20355532E+00 0.87542682E+03</pdfrwt>
<pdfrwt beam="2">  1       -2 0.22277710E-01 0.87542682E+03</pdfrwt>
<totfact> 0.28366542E+02</totfact>
</mgrwt>
</event>
<event>
 6    1  0.9988873E-007  0.1016653E+04  0.7818608E-02  0.9290467E-01
          1   -1    0    0  501    0  0.00000000000E+00  0.00000000000E+00  0.15078664097E+04  0.15078664097E+04  0.00000000000E+00 0. -1.
         -1   -1    0    0    0  501 -0.00000000000E+00 -0.00000000000E+00 -0.17136514233E+03  0.17136514233E+03  0.00000000000E+00 0.  1.
         23    2    1    2    0    0  0.40825872652E+03  0.12644337660E+03  0.11160162524E+04  0.11983191306E+04  0.88393143944E+02 0.  0.
         11    1    3    3    0    0  0.15827335023E+03  0.93463881185E+02  0.44311893107E+03  0.47972944203E+03  0.00000000000E+00 0. -1.
        -11    1    3    3    0    0  0.24998537629E+03  0.32979495414E+02  0.67289732132E+03  0.71858968856E+03  0.00000000000E+00 0.  1.
         22    1    1    2    0    0 -0.40825872652E+03 -0.12644337660E+03  0.22048501498E+03  0.48091242144E+03  0.00000000000E+00 0.  1.
<mgrwt>
<rscale>  0 0.10166528E+04</rscale>
<asrwt>0</asrwt>
<pdfrwt beam="1">  1        1 0.23197944E+00 0.10166528E+04</pdfrwt>
<pdfrwt beam="2">  1       -1 0.26363869E-01 0.10166528E+04</pdfrwt>
<totfact> 0.82702950E+01</totfact>
</mgrwt>
</event>
<event>
 6    1  0.9988873E-007  0.1372864E+04  0.7818608E-02  0.8973699E-01
          2   -1    0    0  501    0  0.00000000000E+00  0.00000000000E+00  0.13470796584E+04  0.13470796584E+04  0.00000000000E+00 0. -1.
         -2   -1    0    0    0  501 -0.00000000000E+00 -0.00000000000E+00 -0.34978534764E+03  0.34978534764E+03  0.00000000000E+00 0.  1.
         23    2    1    2    0    0 -0.47757564163E+03  0.40176207542E+03  0.15673040072E+03  0.64994621951E+03  0.91511808038E+02 0.  0.
         11    1    3    3    0    0 -0.19406101559E+03  0.22183230861E+03  0.82202672895E+02  0.30598452632E+03  0.00000000000E+00 0. -1.
        -11    1    3    3    0    0 -0.28351462604E+03  0.17992976681E+03  0.74527727824E+02  0.34396169318E+03  0.00000000000E+00 0.  1.
         22    1    1    2    0    0  0.47757564163E+03 -0.40176207542E+03  0.84056391000E+03  0.10469187865E+04  0.00000000000E+00 0. -1.
<mgrwt>
<rscale>  0 0.13728638E+04</rscale>
<asrwt>0</asrwt>
<pdfrwt beam="1">  1        2 0.20724302E+00 0.13728638E+04</pdfrwt>
<pdfrwt beam="2">  1       -2 0.53813131E-01 0.13728638E+04</pdfrwt>
<totfact> 0.49233953E+01</totfact>
</mgrwt>
</event>
<event>
 6    1  0.9988873E-007  0.1871645E+04  0.7818608E-02  0.8669101E-01
          2   -1    0    0  501    0  0.00000000000E+00  0.00000000000E+00  0.12795917010E+04  0.12795917010E+04  0.00000000000E+00 0. -1.
         -2   -1    0    0    0  501 -0.00000000000E+00 -0.00000000000E+00 -0.68440850109E+03  0.68440850109E+03  0.00000000000E+00 0.  1.
         23    2    1    2    0    0  0.39707848934E+03  0.82876316684E+03  0.12559959778E+03  0.93199803503E+03  0.91243437724E+02 0.  0.
         13    1    3    3    0    0  0.26542413190E+03  0.63285694959E+03  0.72656924660E+02  0.69009920819E+03  0.00000000000E+00 0.  1.
        -13    1    3    3    0    0  0.13165435744E+03  0.19590621725E+03  0.52942673117E+02  0.24189882684E+03  0.00000000000E+00 0. -1.
         22    1    1    2    0    0 -0.39707848934E+03 -0.82876316684E+03  0.46958360212E+03  0.10320021670E+04  0.00000000000E+00 0. -1.
<mgrwt>
<rscale>  0 0.18716447E+04</rscale>
<asrwt>0</asrwt>
<pdfrwt beam="1">  1        2 0.19686026E+00 0.18716447E+04</pdfrwt>
<pdfrwt beam="2">  1       -2 0.10529362E+00 0.18716447E+04</pdfrwt>
<totfact> 0.11648549E+01</totfact>
</mgrwt>
</event>
<event>
 6    1  0.9988873E-007  0.2220020E+04  0.7818608E-02  0.8510141E-01
          1   -1    0    0  501    0  0.00000000000E+00  0.00000000000E+00  0.77192873496E+03  0.77192873496E+03  0.00000000000E+00 0. -1.
         -1   -1    0    0    0  501 -0.00000000000E+00 -0.00000000000E+00 -0.15961610648E+04  0.15961610648E+04  0.00000000000E+00 0.  1.
         23    2    1    2    0    0 -0.68991121125E+03 -0.75002207473E+03  0.51400186292E+02  0.10244965223E+04  0.91872482468E+02 0.  0.
         13    1    3    3    0    0 -0.45281581707E+03 -0.49140691828E+03  0.77361230324E+02  0.67268691341E+03  0.00000000000E+00 0. -1.
        -13    1    3    3    0    0 -0.23709539418E+03 -0.25861515645E+03 -0.25961044032E+02  0.35180960887E+03  0.00000000000E+00 0.  1.
         22    1    1    2    0    0  0.68991121125E+03  0.75002207473E+03 -0.87563251613E+03  0.13435932775E+04  0.00000000000E+00 0.  1.
<mgrwt>
<rscale>  0 0.22200204E+04</rscale>
<asrwt>0</asrwt>
<pdfrwt beam="1">  1        1 0.11875827E+00 0.22200204E+04</pdfrwt>
<pdfrwt beam="2">  1       -1 0.24556324E+00 0.22200204E+04</pdfrwt>
<totfact> 0.15878343E+00</totfact>
</mgrwt>
</event>
<event>
 6    1  0.9988873E-007  0.3194718E+04  0.7818608E-02  0.8190213E-01
         -2   -1    0    0    0  501 -0.00000000000E+00  0.00000000000E+00  0.16575584026E+04  0.16575584026E+04  0.00000000000E+00 0.  1.
          2   -1    0    0  501    0  0.00000000000E+00 -0.00000000000E+00 -0.15393463156E+04  0.15393463156E+04  0.00000000000E+00 0. -1.
         23    2    1    2    0    0  0.99450280710E+03 -0.65254227995E+03  0.11239479155E+04  0.16392295860E+04  0.94696665966E+02 0.  0.
         13    1    3    3    0    0  0.27300800545E+03 -0.15200873144E+03  0.34420513792E+03  0.46488407420E+03  0.00000000000E+00 0. -1.
        -13    1    3    3    0    0  0.72149480166E+03 -0.50053354852E+03  0.77974277755E+03  0.11743455118E+04  0.00000000000E+00 0.  1.
         22    1    1    2    0    0 -0.99450280710E+03  0.65254227995E+03 -0.10057358285E+04  0.15576751321E+04  0.00000000000E+00 0. -1.
<mgrwt>
<rscale>  0 0.31947184E+04</rscale>
<asrwt>0</asrwt>
<pdfrwt beam="1">  1        2 0.23682251E+00 0.31947184E+04</pdfrwt>
<pdfrwt beam="2">  1       -2 0.25500899E+00 0.31947184E+04</pdfrwt>
<totfact> 0.60828440E-01</totfact>
</mgrwt>
</event>
<event>
 6    1  0.9988873E-007  0.8637096E+03  0.7818608E-02  0.9472119E-01
         -1   -1    0    0    0  501 -0.00000000000E+00  0.00000000000E+00  0.21058367990E+03  0.21058367990E+03  0.00000000000E+00 0.  1.
          1   -1    0    0  501    0  0.00000000000E+00 -0.00000000000E+00 -0.88562693957E+03  0.88562693957E+03  0.00000000000E+00 0. -1.
         23    2    1    2    0    0  0.82620797151E+02  0.29899558848E+03 -0.71380553279E+03  0.78359732503E+03  0.91004786130E+02 0.  0.
         11    1    3    3    0    0  0.30488671139E+02  0.16812288007E+03 -0.28554947655E+03  0.33276623240E+03  0.00000000000E+00 0. -1.
        -11    1    3    3    0    0  0.52132126011E+02  0.13087270840E+03 -0.42825605624E+03  0.45083109262E+03  0.00000000000E+00 0.  1.
         22    1    1    2    0    0 -0.82620797151E+02 -0.29899558848E+03  0.38762273116E+02  0.31261329445E+03  0.00000000000E+00 0.  1.
<mgrwt>
<rscale>  0 0.86370963E+03</rscale>
<asrwt>0</asrwt>
<pdfrwt beam="1">  1        1 0.13625030E+00 0.86370963E+03</pdfrwt>
<pdfrwt beam="2">  1       -1 0.32397489E-01 0.86370963E+03</pdfrwt>
<totfact> 0.16785988E+02</totfact>
</mgrwt>
</event>
<event>
 6    1  0.9988873E-007  0.2410187E+04  0.7818608E-02  0.8435700E-01
          1   -1    0    0  501    0  0.00000000000E+00  0.00000000000E+00  0.23263230391E+04  0.23263230391E+04  0.00000000000E+00 0. -1.
         -1   -1    0    0    0  501 -0.00000000000E+00 -0.00000000000E+00 -0.62426845212E+03  0.62426845212E+03  0.00000000000E+00 0.  1.
         23    2    1    2    0    0 -0.16288912778E+03 -0.11369286373E+04  0.12918948456E+04  0.17310134463E+04  0.90970681582E+02 0.  0.
         13    1    3    3    0    0 -0.12881502974E+03 -0.94083745043E+03  0.11165647498E+04  0.14657712170E+04  0.00000000000E+00 0.  1.
        -13    1    3    3    0    0 -0.34074098039E+02 -0.19609118686E+03  0.17533009587E+03  0.26524222937E+03  0.00000000000E+00 0. -1.
         22    1    1    2    0    0  0.16288912778E+03  0.11369286373E+04  0.41015974137E+03  0.12195780449E+04  0.00000000000E+00 0.  1.
<mgrwt>
<rscale>  0 0.24101868E+04</rscale>
<asrwt>0</asrwt>
<pdfrwt beam="1">  1        1 0.35789585E+00 0.24101868E+04</pdfrwt>
<pdfrwt beam="2">  1       -1 0.96041301E-01 0.24101868E+04</pdfrwt>
<totfact> 0.16696330E+00</totfact>
</mgrwt>
</event>
<event>
 6    1  0.9988873E-007  0.1810415E+04  0.7818608E-02  0.8700780E-01
         -1   -1    0    0    0  501 -0.00000000000E+00  0.00000000000E+00  0.43377693858E+03  0.43377693858E+03  0.00000000000E+00 0.  1.
          1   -1    0    0  501    0  0.00000000000E+00 -0.00000000000E+00 -0.18889914260E+04  0.18889914260E+04  0.00000000000E+00 0. -1.
         23    2    1    2    0    0 -0.15809780693E+02 -0.29973649751E+03 -0.18219882571E+04  0.18488328044E+04  0.91921773993E+02 0.  0.
         13    1    3    3    0    0 -0.41458018698E+02 -0.12106968650E+03 -0.93019244769E+03  0.93895400635E+03  0.00000000000E+00 0.  1.
        -13    1    3    3    0    0  0.25648238005E+02 -0.17866681101E+03 -0.89179580939E+03  0.90987879803E+03  0.00000000000E+00 0. -1.
         22    1    1    2    0    0  0.15809780693E+02  0.29973649751E+03  0.36677376966E+03  0.47393556019E+03  0.00000000000E+00 0.  1.
<mgrwt>
<rscale>  0 0.18104153E+04</rscale>
<asrwt>0</asrwt>
<pdfrwt beam="1">  1        1 0.29061407E+00 0.18104153E+04</pdfrwt>
<pdfrwt beam="2">  1       -1 0.66734914E-01 0.18104153E+04</pdfrwt>
<totfact> 0.76023002E+00</totfact>
</mgrwt>
</event>
<event>
 6    1  0.9988873E-007  0.4349718E+03  0.7818608E-02  0.1032301E+00
         -1   -1    0    0    0  501 -0.00000000000E+00  0.00000000000E+00  0.25268119582E+02  0.25268119582E+02  0.00000000000E+00 0.  1.
          1   -1    0    0  501    0  0.00000000000E+00 -0.00000000000E+00 -0.18719286282E+04  0.18719286282E+04  0.00000000000E+00 0. -1.
         23    2    1    2    0    0 -0.30320904111E+02 -0.19351236477E+03 -0.12712386184E+04  0.12893507605E+04  0.89506234879E+02 0.  0.
         13    1    3    3    0    0  0.10453445200E+02 -0.13837346620E+03 -0.67040534033E+03  0.68461654304E+03  0.00000000000E+00 0. -1.
        -13    1    3    3    0    0 -0.40774349310E+02 -0.55138898566E+02 -0.60083327809E+03  0.60473421745E+03  0.00000000000E+00 0.  1.
         22    1    1    2    0    0  0.30320904111E+02  0.19351236477E+03 -0.57542189022E+03  0.60784598731E+03  0.00000000000E+00 0.  1.
<mgrwt>
<rscale>  0 0.43497180E+03</rscale>
<asrwt>0</asrwt>
<pdfrwt beam="1">  1        1 0.28798903E+00 0.43497180E+03</pdfrwt>
<pdfrwt beam="2">  1       -1 0.38874028E-02 0.43497180E+03</pdfrwt>
<totfact> 0.10360304E+03</totfact>
</mgrwt>
</event>
<event>
 6    1  0.9988873E-007  0.2497747E+04  0.7818608E-02  0.8403789E-01
         -1   -1    0    0    0  501 -0.00000000000E+00  0.00000000000E+00  0.76377670439E+03  0.76377670439E+03  0.00000000000E+00 0.  1.
          1   -1    0    0  501    0  0.00000000000E+00 -0.00000000000E+00 -0.20420688706E+04  0.20420688706E+04  0.00000000000E+00 0. -1.
         23    2    1    2    0    0 -0.56989760765E+03 -0.86359949330E+03  0.14194434529E+03  0.10486719590E+04  0.94748680511E+02 0.  0.
         13    1    3    3    0    0 -0.42142537202E+03 -0.55888123942E+03  0.10222577748E+03  0.70738793709E+03  0.00000000000E+00 0. -1.
        -13    1    3    3    0    0 -0.14847223562E+03 -0.30471825389E+03  0.39718567811E+02  0.34128402194E+03  0.00000000000E+00 0.  1.
         22    1    1    2    0    0  0.56989760765E+03  0.86359949330E+03 -0.14202365115E+04  0.17571736160E+04  0.00000000000E+00 0. -1.
<mgrwt>
<rscale>  0 0.24977467E+04</rscale>
<asrwt>0</asrwt>
<pdfrwt beam="1">  1        1 0.31416444E+00 0.24977467E+04</pdfrwt>
<pdfrwt beam="2">  1       -1 0.11750411E+00 0.24977467E+04</pdfrwt>
<totfact> 0.16153895E+00</totfact>
</mgrwt>
</event>
<event>
 6    1  0.9988873E-007  0.1810506E+04  0.7818608E-02  0.8700732E-01
         -2   -1    0    0    0  501 -0.00000000000E+00  0.00000000000E+00  0.32622273591E+03  0.32622273591E+03  0.00000000000E+00 0.  1.
          2   -1    0    0  501    0  0.00000000000E+00 -0.00000000000E+00 -0.25120356487E+04  0.25120356487E+04  0.00000000000E+00 0. -1.
         23    2    1    2    0    0 -0.28605326344E+03  0.75726971802E+03 -0.46764574696E+03  0.93894737662E+03  0.87439899701E+02 0.  0.
         13    1    3    3    0    0 -0.58149414393E+02  0.25859128292E+03 -0.13225425689E+03  0.29621275203E+03  0.00000000000E+00 0.  1.
        -13    1    3    3    0    0 -0.22790384905E+03  0.49867843510E+03 -0.33539149007E+03  0.64273462460E+03  0.00000000000E+00 0. -1.
         22    1    1    2    0    0  0.28605326344E+03 -0.75726971802E+03 -0.17181671659E+04  0.18993110080E+04  0.00000000000E+00 0. -1.
<mgrwt>
<rscale>  0 0.18105062E+04</rscale>
<asrwt>0</asrwt>
<pdfrwt beam="1">  1        2 0.38646702E+00 0.18105062E+04</pdfrwt>
<pdfrwt beam="2">  1       -2 0.50188113E-01 0.18105062E+04</pdfrwt>
<totfact> 0.12148741E+01</totfact>
</mgrwt>
</event>
<event>
 6    1  0.9988873E-007  0.7938436E+03  0.7818608E-02  0.9568971E-01
         -2   -1    0    0    0  501 -0.00000000000E+00  0.00000000000E+00  0.14116937284E+03  0.14116937284E+03  0.00000000000E+00 0.  1.
          2   -1    0    0  501    0  0.00000000000E+00 -0.00000000000E+00 -0.11160134573E+04  0.11160134573E+04  0.00000000000E+00 0. -1.
         23    2    1    2    0    0  0.26797078413E+02  0.34794754751E+03 -0.21182821414E+03  0.41814838651E+03  0.90505809811E+02 0.  0.
         13    1    3    3    0    0  0.33884462961E+02  0.64420860981E+02 -0.19121450332E+02  0.75258448180E+02  0.00000000000E+00 0. -1.
        -13    1    3    3    0    0 -0.70873845482E+01  0.28352668653E+03 -0.19270676381E+03  0.34288993833E+03  0.00000000000E+00 0.  1.
         22    1    1    2    0    0 -0.26797078413E+02 -0.34794754751E+03 -0.76301587033E+03  0.83903444363E+03  0.00000000000E+00 0. -1.
<mgrwt>
<rscale>  0 0.79384361E+03</rscale>
<asrwt>0</asrwt>
<pdfrwt beam="1">  1        2 0.17169439E+00 0.79384361E+03</pdfrwt>
<pdfrwt beam="2">  1       -2 0.21718364E-01 0.79384361E+03</pdfrwt>
<totfact> 0.39507673E+02</totfact>
</mgrwt>
</event>
<event>
 6    1  0.9988873E-007  0.3316544E+04  0.7818608E-02  0.8158699E-01
          2   -1    0    0  501    0  0.00000000000E+00  0.00000000000E+00  0.24910192399E+04  0.24910192399E+04  0.00000000000E+00 0. -1.
         -2   -1    0    0    0  501 -0.00000000000E+00 -0.00000000000E+00 -0.11039118047E+04  0.11039118047E+04  0.00000000000E+00 0.  1.
         23    2    1    2    0    0 -0.12464054959E+04 -0.32873306009E+03 -0.43452093130E+03  0.13633571626E+04  0.91335799037E+02 0.  0.
         13    1    3    3    0    0 -0.19658046947E+03 -0.39022689885E+02 -0.35748177712E+02  0.20357942802E+03  0.00000000000E+00 0.  1.
        -13    1    3    3    0    0 -0.10498250264E+04 -0.28971037021E+03 -0.39877275359E+03  0.11597777346E+04  0.00000000000E+00 0. -1.
         22    1    1    2    0    0  0.12464054959E+04  0.32873306009E+03  0.18216283665E+04  0.22315738819E+04  0.00000000000E+00 0. -1.
<mgrwt>
<rscale>  0 0.33165437E+04</rscale>
<asrwt>0</asrwt>
<pdfrwt beam="1">  1        2 0.38323373E+00 0.33165437E+04</pdfrwt>
<pdfrwt beam="2">  1       -2 0.16983259E+00 0.33165437E+04</pdfrwt>
<totfact> 0.62793045E-01</totfact>
</mgrwt>
</event>
<event>
 6    1  0.2009695E-006  0.3681194E+04  0.7818608E-02  0.8072142E-01
          2   -1    0    0  501    0  0.00000000000E+00  0.00000000000E+00  0.14548608603E+04  0.14548608603E+04  0.00000000000E+00 0. -1.
         -2   -1    0    0    0  501 -0.00000000000E+00 -0.00000000000E+00 -0.23286051151E+04  0.23286051151E+04  0.00000000000E+00 0.  1.
         23    2    1    2    0    0  0.12683570354E+03 -0.31085092686E+03 -0.22959430387E+04  0.23221771692E+04  0.91851910886E+02 0.  0.
         11    1    3    3    0    0  0.12145608909E+03 -0.18237330650E+03 -0.13949774267E+04  0.14120813099E+04  0.00000000000E+00 0. -1.
        -11    1    3    3    0    0  0.53796144549E+01 -0.12847762036E+03 -0.90096561197E+03  0.91009585931E+03  0.00000000000E+00 0.  1.
         22    1    1    2    0    0 -0.12683570354E+03  0.31085092686E+03  0.14221987839E+04  0.14612888063E+04  0.00000000000E+00 0. -1.
<mgrwt>
<rscale>  0 0.36811935E+04</rscale>
<asrwt>0</asrwt>
<pdfrwt beam="1">  1        2 0.22382475E+00 0.36811935E+04</pdfrwt>
<pdfrwt beam="2">  1       -2 0.35824694E+00 0.36811935E+04</pdfrwt>
<totfact> 0.15033318E-01</totfact>
</mgrwt>
</event>
<event>
 6    1  0.9988873E-007  0.1830352E+04  0.7818608E-02  0.8690323E-01
          2   -1    0    0  501    0  0.00000000000E+00  0.00000000000E+00  0.10361292999E+04  0.10361292999E+04  0.00000000000E+00 0. -1.
         -2   -1    0    0    0  501 -0.00000000000E+00 -0.00000000000E+00 -0.80834225768E+03  0.80834225768E+03  0.00000000000E+00 0.  1.
         23    2    1    2    0    0  0.18168172622E+02 -0.91248425628E+03  0.94911184766E+02  0.92218440383E+03  0.91969240629E+02 0.  0.
         11    1    3    3    0    0  0.47881664757E+02 -0.33419684482E+03  0.51424026021E+02  0.34150346317E+03  0.00000000000E+00 0. -1.
        -11    1    3    3    0    0 -0.29713492134E+02 -0.57828741146E+03  0.43487158745E+02  0.58068094066E+03  0.00000000000E+00 0.  1.
         22    1    1    2    0    0 -0.18168172622E+02  0.91248425628E+03  0.13287585743E+03  0.92228715373E+03  0.00000000000E+00 0.  1.
<mgrwt>
<rscale>  0 0.18303520E+04</rscale>
<asrwt>0</asrwt>
<pdfrwt beam="1">  1        2 0.15940451E+00 0.18303520E+04</pdfrwt>
<pdfrwt beam="2">  1       -2 0.12436035E+00 0.18303520E+04</pdfrwt>
<totfact> 0.10926445E+01</totfact>
</mgrwt>
</event>
<event>
 6    1  0.9988873E-007  0.8625504E+03  0.7818608E-02  0.9473645E-01
         -2   -1    0    0    0  501 -0.00000000000E+00  0.00000000000E+00  0.13463513453E+03  0.13463513453E+03  0.00000000000E+00 0.  1.
          2   -1    0    0  501    0  0.00000000000E+00 -0.00000000000E+00 -0.13814988508E+04  0.13814988508E+04  0.00000000000E+00 0. -1.
         23    2    1    2    0    0 -0.33864694416E+01  0.32922343092E+03 -0.11069476053E+04  0.11583965763E+04  0.90277857992E+02 0.  0.
         11    1    3    3    0    0 -0.24134802232E+02  0.24965457774E+03 -0.70943039125E+03  0.75246353858E+03  0.00000000000E+00 0.  1.
        -11    1    3    3    0    0  0.20748332790E+02  0.79568853185E+02 -0.39751721402E+03  0.40593303777E+03  0.00000000000E+00 0. -1.
         22    1    1    2    0    0  0.33864694416E+01 -0.32922343092E+03 -0.13991611095E+03  0.35773740893E+03  0.00000000000E+00 0.  1.
<mgrwt>
<rscale>  0 0.86255037E+03</rscale>
<asrwt>0</asrwt>
<pdfrwt beam="1">  1        2 0.21253829E+00 0.86255037E+03</pdfrwt>
<pdfrwt beam="2">  1       -2 0.20713097E-01 0.86255037E+03</pdfrwt>
<totfact> 0.29898494E+02</totfact>
</mgrwt>
</event>
<event>
 6    1  0.9988873E-007  0.3754713E+04  0.7818608E-02  0.8055944E-01
          2   -1    0    0  501    0  0.00000000000E+00  0.00000000000E+00  0.33875110483E+04  0.33875110483E+04  0.00000000000E+00 0. -1.
         -2   -1    0    0    0  501 -0.00000000000E+00 -0.00000000000E+00 -0.10404296529E+04  0.10404296529E+04  0.00000000000E+00 0.  1.
         23    2    1    2    0    0 -0.38954625623E+03  0.14431402165E+04  0.25115563496E+04  0.29241282194E+04  0.90612226651E+02 0.  0.
         13    1    3    3    0    0 -0.19471519489E+03  0.55177979888E+03  0.97908641843E+03  0.11406073682E+04  0.00000000000E+00 0.  1.
        -13    1    3    3    0    0 -0.19483106134E+03  0.89136041761E+03  0.15324699312E+04  0.17835208512E+04  0.00000000000E+00 0. -1.
         22    1    1    2    0    0  0.38954625623E+03 -0.14431402165E+04 -0.16447495426E+03  0.15038124819E+04  0.00000000000E+00 0.  1.
<mgrwt>
<rscale>  0 0.37547127E+04</rscale>
<asrwt>0</asrwt>
<pdfrwt beam="1">  1        2 0.52115554E+00 0.37547127E+04</pdfrwt>
<pdfrwt beam="2">  1       -2 0.16006610E+00 0.37547127E+04</pdfrwt>
<totfact> 0.19659311E-01</totfact>
</mgrwt>
</event>
<event>
 6    1  0.9988873E-007  0.1249761E+04  0.7818608E-02  0.9070382E-01
         -1   -1    0    0    0  501 -0.00000000000E+00  0.00000000000E+00  0.60301098953E+03  0.60301098953E+03  0.00000000000E+00 0.  1.
          1   -1    0    0  501    0  0.00000000000E+00 -0.00000000000E+00 -0.64754304624E+03  0.64754304624E+03  0.00000000000E+00 0. -1.
         23    2    1    2    0    0  0.29776320062E+03  0.52781946439E+03 -0.15690561882E+03  0.63420662717E+03  0.10169740462E+03 0.  0.
         11    1    3    3    0    0  0.23527147060E+03  0.41953243588E+03 -0.16603282475E+03  0.50884872853E+03  0.00000000000E+00 0. -1.
        -11    1    3    3    0    0  0.62491730016E+02  0.10828702851E+03  0.91272059345E+01  0.12535789864E+03  0.00000000000E+00 0.  1.
         22    1    1    2    0    0 -0.29776320062E+03 -0.52781946439E+03  0.11237356212E+03  0.61634740860E+03  0.00000000000E+00 0.  1.
<mgrwt>
<rscale>  0 0.12497609E+04</rscale>
<asrwt>0</asrwt>
<pdfrwt beam="1">  1        1 0.99622007E-01 0.12497609E+04</pdfrwt>
<pdfrwt beam="2">  1       -1 0.92770922E-01 0.12497609E+04</pdfrwt>
<totfact> 0.34127619E+01</totfact>
</mgrwt>
</event>
<event>
 6    1  0.9988873E-007  0.1630929E+04  0.7818608E-02  0.8801769E-01
          2   -1    0    0  501    0  0.00000000000E+00  0.00000000000E+00  0.19478317433E+04  0.19478317433E+04  0.00000000000E+00 0. -1.
         -2   -1    0    0    0  501 -0.00000000000E+00 -0.00000000000E+00 -0.34139635396E+03  0.34139635396E+03  0.00000000000E+00 0.  1.
         23    2    1    2    0    0  0.46136946657E+03  0.32733451275E+03  0.16253038963E+04  0.17232195386E+04  0.88674432685E+02 0.  0.
         13    1    3    3    0    0  0.34732970350E+03  0.28020078190E+03  0.11964682924E+04  0.12769834674E+04  0.00000000000E+00 0.  1.
        -13    1    3    3    0    0  0.11403976307E+03  0.47133730850E+02  0.42883560388E+03  0.44623607127E+03  0.00000000000E+00 0. -1.
         22    1    1    2    0    0 -0.46136946657E+03 -0.32733451275E+03 -0.18868506950E+02  0.56600855866E+03  0.00000000000E+00 0.  1.
<mgrwt>
<rscale>  0 0.16309294E+04</rscale>
<asrwt>0</asrwt>
<pdfrwt beam="1">  1        2 0.29966641E+00 0.16309294E+04</pdfrwt>
<pdfrwt beam="2">  1       -2 0.52522518E-01 0.16309294E+04</pdfrwt>
<totfact> 0.23375844E+01</totfact>
</mgrwt>
</event>
<event>
 6    1  0.9988873E-007  0.5391743E+04  0.7818608E-02  0.7770764E-01
          2   -1    0    0  501    0  0.00000000000E+00  0.00000000000E+00  0.30627538706E+04  0.30627538706E+04  0.00000000000E+00 0. -1.
         -2   -1    0    0    0  501 -0.00000000000E+00 -0.00000000000E+00 -0.23729372348E+04  0.23729372348E+04  0.00000000000E+00 0.  1.
         23    2    1    2    0    0 -0.26071340055E+04  0.35927819248E+03 -0.24039142584E+03  0.26443624648E+04  0.92931508415E+02 0.  0.
         11    1    3    3    0    0 -0.57927505640E+03  0.73221996023E+02 -0.15190499498E+02  0.58408201731E+03  0.00000000000E+00 0.  1.
        -11    1    3    3    0    0 -0.20278589491E+04  0.28605619645E+03 -0.22520092634E+03  0.20602804475E+04  0.00000000000E+00 0. -1.
         22    1    1    2    0    0  0.26071340055E+04 -0.35927819248E+03  0.93020806163E+03  0.27913286406E+04  0.00000000000E+00 0. -1.
<mgrwt>
<rscale>  0 0.53917428E+04</rscale>
<asrwt>0</asrwt>
<pdfrwt beam="1">  1        2 0.47119290E+00 0.53917428E+04</pdfrwt>
<pdfrwt beam="2">  1       -2 0.36506727E+00 0.53917428E+04</pdfrwt>
<totfact> 0.14000307E-02</totfact>
</mgrwt>
</event>
<event>
 6    1  0.9988873E-007  0.1631525E+04  0.7818608E-02  0.8801411E-01
          2   -1    0    0  501    0  0.00000000000E+00  0.00000000000E+00  0.72913083969E+03  0.72913083969E+03  0.00000000000E+00 0. -1.
         -2   -1    0    0    0  501 -0.00000000000E+00 -0.00000000000E+00 -0.91268774424E+03  0.91268774424E+03  0.00000000000E+00 0.  1.
         23    2    1    2    0    0  0.27692309617E+03 -0.44335151430E+03  0.53491595672E+03  0.75330847211E+03  0.89953360008E+02 0.  0.
         11    1    3    3    0    0  0.15009240615E+03 -0.32017968642E+03  0.35766659597E+03  0.50295939782E+03  0.00000000000E+00 0. -1.
        -11    1    3    3    0    0  0.12683069001E+03 -0.12317182788E+03  0.17724936075E+03  0.25034907429E+03  0.00000000000E+00 0.  1.
         22    1    1    2    0    0 -0.27692309617E+03  0.44335151430E+03 -0.71847286127E+03  0.88851011181E+03  0.00000000000E+00 0.  1.
<mgrwt>
<rscale>  0 0.16315254E+04</rscale>
<asrwt>0</asrwt>
<pdfrwt beam="1">  1        2 0.11217398E+00 0.16315254E+04</pdfrwt>
<pdfrwt beam="2">  1       -2 0.14041350E+00 0.16315254E+04</pdfrwt>
<totfact> 0.13255472E+01</totfact>
</mgrwt>
</event>
<event>
 6    1  0.9988873E-007  0.2549427E+04  0.7818608E-02  0.8385585E-01
          1   -1    0    0  501    0  0.00000000000E+00  0.00000000000E+00  0.11748740633E+04  0.11748740633E+04  0.00000000000E+00 0. -1.
         -1   -1    0    0    0  501 -0.00000000000E+00 -0.00000000000E+00 -0.13830373236E+04  0.13830373236E+04  0.00000000000E+00 0.  1.
         23    2    1    2    0    0 -0.58478957545E+02  0.12069432414E+04 -0.50715966323E+03  0.13131099468E+04  0.83156671929E+02 0.  0.
         13    1    3    3    0    0 -0.35587930920E+02  0.15977087635E+03 -0.62577789209E+02  0.17524044470E+03  0.00000000000E+00 0.  1.
        -13    1    3    3    0    0 -0.22891026625E+02  0.10471723650E+04 -0.44458187402E+03  0.11378695021E+04  0.00000000000E+00 0. -1.
         22    1    1    2    0    0  0.58478957545E+02 -0.12069432414E+04  0.29899640293E+03  0.12448014401E+04  0.00000000000E+00 0. -1.
<mgrwt>
<rscale>  0 0.25494271E+04</rscale>
<asrwt>0</asrwt>
<pdfrwt beam="1">  1        1 0.18074986E+00 0.25494271E+04</pdfrwt>
<pdfrwt beam="2">  1       -1 0.21277497E+00 0.25494271E+04</pdfrwt>
<totfact> 0.12142061E+00</totfact>
</mgrwt>
</event>
<event>
 6    1  0.9988873E-007  0.4503891E+04  0.7818608E-02  0.7909956E-01
         -1   -1    0    0    0  501 -0.00000000000E+00  0.00000000000E+00  0.14646442715E+04  0.14646442715E+04  0.00000000000E+00 0.  1.
          1   -1    0    0  501    0  0.00000000000E+00 -0.00000000000E+00 -0.34624506004E+04  0.34624506004E+04  0.00000000000E+00 0. -1.
         23    2    1    2    0    0 -0.80783102930E+03 -0.63448024747E+02  0.12981467233E+04  0.15329936440E+04  0.90928397876E+02 0.  0.
         11    1    3    3    0    0 -0.58378318530E+02  0.22469896558E+01  0.56911031197E+02  0.81559441568E+02  0.00000000000E+00 0. -1.
        -11    1    3    3    0    0 -0.74945271077E+03 -0.65695014403E+02  0.12412356921E+04  0.14514342024E+04  0.00000000000E+00 0.  1.
         22    1    1    2    0    0  0.80783102930E+03  0.63448024747E+02 -0.32959530521E+04  0.33941012279E+04  0.00000000000E+00 0. -1.
<mgrwt>
<rscale>  0 0.45038910E+04</rscale>
<asrwt>0</asrwt>
<pdfrwt beam="1">  1        1 0.53268471E+00 0.45038910E+04</pdfrwt>
<pdfrwt beam="2">  1       -1 0.22532989E+00 0.45038910E+04</pdfrwt>
<totfact> 0.20345652E-02</totfact>
</mgrwt>
</event>
<event>
 6    1  0.9988873E-007  0.1797112E+04  0.7818608E-02  0.8707837E-01
         -1   -1    0    0    0  501 -0.00000000000E+00  0.00000000000E+00  0.32403835478E+03  0.32403835478E+03  0.00000000000E+00 0.  1.
          1   -1    0    0  501    0  0.00000000000E+00 -0.00000000000E+00 -0.24916904126E+04  0.24916904126E+04  0.00000000000E+00 0. -1.
         23    2    1    2    0    0 -0.40914236330E+02  0.74451404387E+03 -0.30751296527E+03  0.81170966071E+03  0.91286435105E+02 0.  0.
         13    1    3    3    0    0 -0.25886891831E+02  0.21069896198E+03 -0.46532990519E+02  0.21732349840E+03  0.00000000000E+00 0.  1.
        -13    1    3    3    0    0 -0.15027344499E+02  0.53381508189E+03 -0.26097997475E+03  0.59438616231E+03  0.00000000000E+00 0. -1.
         22    1    1    2    0    0  0.40914236330E+02 -0.74451404387E+03 -0.18601390925E+04  0.20040191067E+04  0.00000000000E+00 0. -1.
<mgrwt>
<rscale>  0 0.17971124E+04</rscale>
<asrwt>0</asrwt>
<pdfrwt beam="1">  1        1 0.38333698E+00 0.17971124E+04</pdfrwt>
<pdfrwt beam="2">  1       -1 0.49852055E-01 0.17971124E+04</pdfrwt>
<totfact> 0.52361436E+00</totfact>
</mgrwt>
</event>
<event>
 6    1  0.9988873E-007  0.2786217E+04  0.7818608E-02  0.8307560E-01
         -2   -1    0    0    0  501 -0.00000000000E+00  0.00000000000E+00  0.16433802841E+04  0.16433802841E+04  0.00000000000E+00 0.  1.
          2   -1    0    0  501    0  0.00000000000E+00 -0.00000000000E+00 -0.11809508380E+04  0.11809508380E+04  0.00000000000E+00 0. -1.
         23    2    1    2    0    0  0.83436414088E+02  0.68672257518E+03 -0.99250977451E+03  0.12133073277E+04  0.92138420123E+02 0.  0.
         13    1    3    3    0    0 -0.38466107037E+01  0.35025873551E+03 -0.49700784371E+03  0.60804010963E+03  0.00000000000E+00 0. -1.
        -13    1    3    3    0    0  0.87283024792E+02  0.33646383967E+03 -0.49550193080E+03  0.60526721805E+03  0.00000000000E+00 0.  1.
         22    1    1    2    0    0 -0.83436414088E+02 -0.68672257518E+03  0.14549392206E+04  0.16110237944E+04  0.00000000000E+00 0.  1.
<mgrwt>
<rscale>  0 0.27862170E+04</rscale>
<asrwt>0</asrwt>
<pdfrwt beam="1">  1        2 0.18168474E+00 0.27862170E+04</pdfrwt>
<pdfrwt beam="2">  1       -2 0.25282774E+00 0.27862170E+04</pdfrwt>
<totfact> 0.10458505E+00</totfact>
</mgrwt>
</event>
<event>
 6    1  0.9988873E-007  0.1546892E+04  0.7818608E-02  0.8853855E-01
          1   -1    0    0  501    0  0.00000000000E+00  0.00000000000E+00  0.72638876680E+03  0.72638876680E+03  0.00000000000E+00 0. -1.
         -1   -1    0    0    0  501 -0.00000000000E+00 -0.00000000000E+00 -0.82355205226E+03  0.82355205226E+03  0.00000000000E+00 0.  1.
         23    2    1    2    0    0  0.54316748051E+03  0.51873042607E+03  0.12360862469E+03  0.76709191721E+03  0.95072343690E+02 0.  0.
         13    1    3    3    0    0  0.38088750315E+03  0.37799543863E+03  0.45554702874E+02  0.53854533016E+03  0.00000000000E+00 0.  1.
        -13    1    3    3    0    0  0.16227997736E+03  0.14073498744E+03  0.78053921815E+02  0.22854658705E+03  0.00000000000E+00 0. -1.
         22    1    1    2    0    0 -0.54316748051E+03 -0.51873042607E+03 -0.22077191015E+03  0.78284890185E+03  0.00000000000E+00 0.  1.
<mgrwt>
<rscale>  0 0.15468923E+04</rscale>
<asrwt>0</asrwt>
<pdfrwt beam="1">  1        1 0.11175212E+00 0.15468923E+04</pdfrwt>
<pdfrwt beam="2">  1       -1 0.12670032E+00 0.15468923E+04</pdfrwt>
<totfact> 0.13424868E+01</totfact>
</mgrwt>
</event>
<event>
 6    1  0.1035576E-006  0.3626287E+04  0.7818608E-02  0.8084497E-01
          2   -1    0    0  501    0  0.00000000000E+00  0.00000000000E+00  0.19160768583E+04  0.19160768583E+04  0.00000000000E+00 0. -1.
         -2   -1    0    0    0  501 -0.00000000000E+00 -0.00000000000E+00 -0.17157396553E+04  0.17157396553E+04  0.00000000000E+00 0.  1.
         23    2    1    2    0    0  0.61829029633E+03 -0.16528116128E+04  0.51227298618E+03  0.18397860867E+04  0.91214661260E+02 0.  0.
         11    1    3    3    0    0  0.47132554598E+03 -0.12074927225E+04  0.33858744599E+03  0.13397118734E+04  0.00000000000E+00 0. -1.
        -11    1    3    3    0    0  0.14696475036E+03 -0.44531889034E+03  0.17368554019E+03  0.50007421330E+03  0.00000000000E+00 0.  1.
         22    1    1    2    0    0 -0.61829029633E+03  0.16528116128E+04 -0.31193578321E+03  0.17920304269E+04  0.00000000000E+00 0. -1.
<mgrwt>
<rscale>  0 0.36262868E+04</rscale>
<asrwt>0</asrwt>
<pdfrwt beam="1">  1        2 0.29478106E+00 0.36262868E+04</pdfrwt>
<pdfrwt beam="2">  1       -2 0.26395995E+00 0.36262868E+04</pdfrwt>
<totfact> 0.31925430E-01</totfact>
</mgrwt>
</event>
<event>
 6    1  0.9988873E-007  0.8779520E+04  0.7818608E-02  0.7417418E-01
          2   -1    0    0  501    0  0.00000000000E+00  0.00000000000E+00  0.37672136138E+04  0.37672136138E+04  0.00000000000E+00 0. -1.
         -2   -1    0    0    0  501 -0.00000000000E+00 -0.00000000000E+00 -0.51151848367E+04  0.51151848367E+04  0.00000000000E+00 0.  1.
         23    2    1    2    0    0 -0.17459244829E+04 -0.13656801959E+04 -0.45069586917E+04  0.50233135169E+04  0.87563366421E+02 0.  0.
         11    1    3    3    0    0 -0.58888253203E+03 -0.47976071168E+03 -0.14575161398E+04  0.16435651112E+04  0.00000000000E+00 0. -1.
        -11    1    3    3    0    0 -0.11570419509E+04 -0.88591948424E+03 -0.30494425518E+04  0.33797484057E+04  0.00000000000E+00 0.  1.
         22    1    1    2    0    0  0.17459244829E+04  0.13656801959E+04  0.31589874687E+04  0.38590849336E+04  0.00000000000E+00 0. -1.
<mgrwt>
<rscale>  0 0.87795202E+04</rscale>
<asrwt>0</asrwt>
<pdfrwt beam="1">  1        2 0.57957132E+00 0.87795202E+04</pdfrwt>
<pdfrwt beam="2">  1       -2 0.78695152E+00 0.87795202E+04</pdfrwt>
<totfact> 0.26928115E-05</totfact>
</mgrwt>
</event>
<event>
 6    1  0.9988873E-007  0.1701998E+04  0.7818608E-02  0.8760226E-01
         -1   -1    0    0    0  501 -0.00000000000E+00  0.00000000000E+00  0.57005735369E+03  0.57005735369E+03  0.00000000000E+00 0.  1.
          1   -1    0    0  501    0  0.00000000000E+00 -0.00000000000E+00 -0.12703972452E+04  0.12703972452E+04  0.00000000000E+00 0. -1.
         23    2    1    2    0    0  0.19830413326E+03 -0.83023295335E+02 -0.12391066626E+04  0.12603795775E+04  0.83390414501E+02 0.  0.
         11    1    3    3    0    0  0.14361296930E+03 -0.49995521026E+02 -0.63730993978E+03  0.65520088249E+03  0.00000000000E+00 0. -1.
        -11    1    3    3    0    0  0.54691163964E+02 -0.33027774309E+02 -0.60179672281E+03  0.60517869500E+03  0.00000000000E+00 0.  1.
         22    1    1    2    0    0 -0.19830413326E+03  0.83023295335E+02  0.53876677108E+03  0.58007502140E+03  0.00000000000E+00 0.  1.
<mgrwt>
<rscale>  0 0.17019980E+04</rscale>
<asrwt>0</asrwt>
<pdfrwt beam="1">  1        1 0.19544573E+00 0.17019980E+04</pdfrwt>
<pdfrwt beam="2">  1       -1 0.87701132E-01 0.17019980E+04</pdfrwt>
<totfact> 0.11558219E+01</totfact>
</mgrwt>
</event>
<event>
 6    1  0.9988873E-007  0.8863490E+03  0.7818608E-02  0.9442809E-01
          1   -1    0    0  501    0  0.00000000000E+00  0.00000000000E+00  0.84571351455E+03  0.84571351455E+03  0.00000000000E+00 0. -1.
         -1   -1    0    0    0  501 -0.00000000000E+00 -0.00000000000E+00 -0.23223422593E+03  0.23223422593E+03  0.00000000000E+00 0.  1.
         23    2    1    2    0    0  0.22615182315E+03 -0.18919935170E+01  0.76676457073E+03  0.80473609273E+03  0.92325756237E+02 0.  0.
         11    1    3    3    0    0  0.76778995296E+02  0.61244855594E+01  0.13427156002E+03  0.15479462288E+03  0.00000000000E+00 0.  1.
        -11    1    3    3    0    0  0.14937282785E+03 -0.80164790764E+01  0.63249301070E+03  0.64994146985E+03  0.00000000000E+00 0. -1.
         22    1    1    2    0    0 -0.22615182315E+03  0.18919935170E+01 -0.15328528211E+03  0.27321164775E+03  0.00000000000E+00 0.  1.
<mgrwt>
<rscale>  0 0.88634897E+03</rscale>
<asrwt>0</asrwt>
<pdfrwt beam="1">  1        1 0.13010977E+00 0.88634897E+03</pdfrwt>
<pdfrwt beam="2">  1       -1 0.35728343E-01 0.88634897E+03</pdfrwt>
<totfact> 0.15207708E+02</totfact>
</mgrwt>
</event>
<event>
 6    1  0.9988873E-007  0.1137244E+04  0.7818608E-02  0.9169633E-01
         -2   -1    0    0    0  501 -0.00000000000E+00  0.00000000000E+00  0.40187058260E+03  0.40187058260E+03  0.00000000000E+00 0.  1.
          2   -1    0    0  501    0  0.00000000000E+00 -0.00000000000E+00 -0.80456427298E+03  0.80456427298E+03  0.00000000000E+00 0. -1.
         23    2    1    2    0    0  0.23981196909E+03 -0.34389733798E+03  0.19907518532E+03  0.47301755327E+03  0.91320954338E+02 0.  0.
         13    1    3    3    0    0  0.13344364902E+03 -0.11485250279E+03  0.92866316941E+02  0.19905390647E+03  0.00000000000E+00 0.  1.
        -13    1    3    3    0    0  0.10636832007E+03 -0.22904483519E+03  0.10620886838E+03  0.27396364680E+03  0.00000000000E+00 0. -1.
         22    1    1    2    0    0 -0.23981196909E+03  0.34389733798E+03 -0.60176887569E+03  0.73341730232E+03  0.00000000000E+00 0. -1.
<mgrwt>
<rscale>  0 0.11372435E+04</rscale>
<asrwt>0</asrwt>
<pdfrwt beam="1">  1        2 0.12377912E+00 0.11372435E+04</pdfrwt>
<pdfrwt beam="2">  1       -2 0.61826244E-01 0.11372435E+04</pdfrwt>
<totfact> 0.82329704E+01</totfact>
</mgrwt>
</event>
<event>
 6    1  0.9988873E-007  0.3931092E+04  0.7818608E-02  0.8018594E-01
          2   -1    0    0  501    0  0.00000000000E+00  0.00000000000E+00  0.19673390508E+04  0.19673390508E+04  0.00000000000E+00 0. -1.
         -2   -1    0    0    0  501 -0.00000000000E+00 -0.00000000000E+00 -0.19637541178E+04  0.19637541178E+04  0.00000000000E+00 0.  1.
         23    2    1    2    0    0 -0.60714520436E+02 -0.51497597377E+03 -0.18930034276E+04  0.19648953362E+04  0.92006513727E+02 0.  0.
         11    1    3    3    0    0  0.63385702394E+01 -0.32637090678E+03 -0.11617179337E+04  0.12067090385E+04  0.00000000000E+00 0. -1.
        -11    1    3    3    0    0 -0.67053090675E+02 -0.18860506699E+03 -0.73128549394E+03  0.75818629763E+03  0.00000000000E+00 0.  1.
         22    1    1    2    0    0  0.60714520436E+02  0.51497597377E+03  0.18965883606E+04  0.19661978324E+04  0.00000000000E+00 0. -1.
<mgrwt>
<rscale>  0 0.39310915E+04</rscale>
<asrwt>0</asrwt>
<pdfrwt beam="1">  1        2 0.30266755E+00 0.39310915E+04</pdfrwt>
<pdfrwt beam="2">  1       -2 0.30211602E+00 0.39310915E+04</pdfrwt>
<totfact> 0.17048928E-01</totfact>
</mgrwt>
</event>
<event>
 6    1  0.9988873E-007  0.2919650E+04  0.7818608E-02  0.8267055E-01
          2   -1    0    0  501    0  0.00000000000E+00  0.00000000000E+00  0.93665398328E+03  0.93665398328E+03  0.00000000000E+00 0. -1.
         -2   -1    0    0    0  501 -0.00000000000E+00 -0.00000000000E+00 -0.22752153992E+04  0.22752153992E+04  0.00000000000E+00 0.  1.
         23    2    1    2    0    0  0.61120361438E+03  0.76500513346E+03 -0.18589053262E+04  0.21030138926E+04  0.91300098991E+02 0.  0.
         13    1    3    3    0    0  0.24492153807E+03  0.34338412075E+03 -0.88388281537E+03  0.97936103940E+03  0.00000000000E+00 0.  1.
        -13    1    3    3    0    0  0.36628207631E+03  0.42162101271E+03 -0.97502251086E+03  0.11236528532E+04  0.00000000000E+00 0. -1.
         22    1    1    2    0    0 -0.61120361438E+03 -0.76500513346E+03  0.52034391032E+03  0.11088554899E+04  0.00000000000E+00 0. -1.
<mgrwt>
<rscale>  0 0.29196504E+04</rscale>
<asrwt>0</asrwt>
<pdfrwt beam="1">  1        2 0.14410061E+00 0.29196504E+04</pdfrwt>
<pdfrwt beam="2">  1       -2 0.35003314E+00 0.29196504E+04</pdfrwt>
<totfact> 0.37120491E-01</totfact>
</mgrwt>
</event>
<event>
 6    1  0.9988873E-007  0.1225329E+04  0.7818608E-02  0.9090971E-01
         -1   -1    0    0    0  501 -0.00000000000E+00  0.00000000000E+00  0.28656798876E+03  0.28656798876E+03  0.00000000000E+00 0.  1.
          1   -1    0    0  501    0  0.00000000000E+00 -0.00000000000E+00 -0.13098379469E+04  0.13098379469E+04  0.00000000000E+00 0. -1.
         23    2    1    2    0    0  0.54828793759E+02 -0.45804953556E+03 -0.10331135539E+04  0.11349815431E+04  0.89687871930E+02 0.  0.
         11    1    3    3    0    0  0.47974375366E+01 -0.26228306350E+03 -0.66842046008E+03  0.71805385053E+03  0.00000000000E+00 0.  1.
        -11    1    3    3    0    0  0.50031356222E+02 -0.19576647205E+03 -0.36469309380E+03  0.41692769260E+03  0.00000000000E+00 0. -1.
         22    1    1    2    0    0 -0.54828793759E+02  0.45804953556E+03  0.98435957489E+01  0.46142439254E+03  0.00000000000E+00 0.  1.
<mgrwt>
<rscale>  0 0.12253287E+04</rscale>
<asrwt>0</asrwt>
<pdfrwt beam="1">  1        1 0.20151353E+00 0.12253287E+04</pdfrwt>
<pdfrwt beam="2">  1       -1 0.44087383E-01 0.12253287E+04</pdfrwt>
<totfact> 0.44725561E+01</totfact>
</mgrwt>
</event>
<event>
 6    1  0.9988873E-007  0.5455578E+04  0.7818608E-02  0.7761831E-01
         -2   -1    0    0    0  501 -0.00000000000E+00  0.00000000000E+00  0.17326519046E+04  0.17326519046E+04  0.00000000000E+00 0.  1.
          2   -1    0    0  501    0  0.00000000000E+00 -0.00000000000E+00 -0.42944766700E+04  0.42944766700E+04  0.00000000000E+00 0. -1.
         23    2    1    2    0    0  0.79255571699E+03  0.14642815125E+04  0.11046872429E+04  0.20002718328E+04  0.92133534439E+02 0.  0.
         13    1    3    3    0    0  0.29142475279E+03  0.45530915062E+03  0.33771758334E+03  0.63740722876E+03  0.00000000000E+00 0.  1.
        -13    1    3    3    0    0  0.50113096419E+03  0.10089723619E+04  0.76696965960E+03  0.13628646041E+04  0.00000000000E+00 0. -1.
         22    1    1    2    0    0 -0.79255571699E+03 -0.14642815125E+04 -0.36665120083E+04  0.40268567419E+04  0.00000000000E+00 0. -1.
<mgrwt>
<rscale>  0 0.54555781E+04</rscale>
<asrwt>0</asrwt>
<pdfrwt beam="1">  1        2 0.66068872E+00 0.54555781E+04</pdfrwt>
<pdfrwt beam="2">  1       -2 0.26656183E+00 0.54555781E+04</pdfrwt>
<totfact> 0.67993994E-03</totfact>
</mgrwt>
</event>
<event>
 6    1  0.9988873E-007  0.3978874E+04  0.7818608E-02  0.8008822E-01
          1   -1    0    0  501    0  0.00000000000E+00  0.00000000000E+00  0.19065917506E+04  0.19065917506E+04  0.00000000000E+00 0. -1.
         -1   -1    0    0    0  501 -0.00000000000E+00 -0.00000000000E+00 -0.20758825239E+04  0.20758825239E+04  0.00000000000E+00 0.  1.
         23    2    1    2    0    0 -0.13169479607E+04 -0.11317380128E+04 -0.10542707851E+04  0.20335328997E+04  0.92662317635E+02 0.  0.
         13    1    3    3    0    0 -0.88013428169E+03 -0.80169025252E+03 -0.69169055040E+03  0.13768730633E+04  0.00000000000E+00 0.  1.
        -13    1    3    3    0    0 -0.43681367902E+03 -0.33004776030E+03 -0.36258023467E+03  0.65665983646E+03  0.00000000000E+00 0. -1.
         22    1    1    2    0    0  0.13169479607E+04  0.11317380128E+04  0.88498001180E+03  0.19489413747E+04  0.00000000000E+00 0. -1.
<mgrwt>
<rscale>  0 0.39788745E+04</rscale>
<asrwt>0</asrwt>
<pdfrwt beam="1">  1        1 0.29332181E+00 0.39788745E+04</pdfrwt>
<pdfrwt beam="2">  1       -1 0.31936654E+00 0.39788745E+04</pdfrwt>
<totfact> 0.66793910E-02</totfact>
</mgrwt>
</event>
<event>
 6    1  0.9988873E-007  0.1787779E+04  0.7818608E-02  0.8712826E-01
          1   -1    0    0  501    0  0.00000000000E+00  0.00000000000E+00  0.57251378592E+03  0.57251378592E+03  0.00000000000E+00 0. -1.
         -1   -1    0    0    0  501 -0.00000000000E+00 -0.00000000000E+00 -0.13956665124E+04  0.13956665124E+04  0.00000000000E+00 0.  1.
         23    2    1    2    0    0  0.60396222183E+03  0.43334791331E+03  0.12865292041E+03  0.76049873068E+03  0.96155946658E+02 0.  0.
         13    1    3    3    0    0  0.22733252789E+03  0.11386479202E+03  0.21778018527E+02  0.25518532715E+03  0.00000000000E+00 0. -1.
        -13    1    3    3    0    0  0.37662969393E+03  0.31948312129E+03  0.10687490189E+03  0.50531340354E+03  0.00000000000E+00 0.  1.
         22    1    1    2    0    0 -0.60396222183E+03 -0.43334791331E+03 -0.95180564688E+03  0.12076815676E+04  0.00000000000E+00 0.  1.
<mgrwt>
<rscale>  0 0.17877789E+04</rscale>
<asrwt>0</asrwt>
<pdfrwt beam="1">  1        1 0.88079045E-01 0.17877789E+04</pdfrwt>
<pdfrwt beam="2">  1       -1 0.21471792E+00 0.17877789E+04</pdfrwt>
<totfact> 0.41328737E+00</totfact>
</mgrwt>
</event>
<event>
 6    1  0.9988873E-007  0.1044909E+04  0.7818608E-02  0.9260616E-01
         -2   -1    0    0    0  501 -0.00000000000E+00  0.00000000000E+00  0.11683587368E+03  0.11683587368E+03  0.00000000000E+00 0.  1.
          2   -1    0    0  501    0  0.00000000000E+00 -0.00000000000E+00 -0.23362591636E+04  0.23362591636E+04  0.00000000000E+00 0. -1.
         23    2    1    2    0    0  0.46415984755E+03  0.15980292217E+03 -0.15085031485E+04  0.15891570850E+04  0.94112451718E+02 0.  0.
         13    1    3    3    0    0  0.17490707479E+03  0.76318874643E+02 -0.45291736117E+03  0.49147857683E+03  0.00000000000E+00 0. -1.
        -13    1    3    3    0    0  0.28925277276E+03  0.83484047526E+02 -0.10555857874E+04  0.10976785081E+04  0.00000000000E+00 0.  1.
         22    1    1    2    0    0 -0.46415984755E+03 -0.15980292217E+03 -0.71092014139E+03  0.86393795231E+03  0.00000000000E+00 0.  1.
<mgrwt>
<rscale>  0 0.10449093E+04</rscale>
<asrwt>0</asrwt>
<pdfrwt beam="1">  1        2 0.35942447E+00 0.10449093E+04</pdfrwt>
<pdfrwt beam="2">  1       -2 0.17974750E-01 0.10449093E+04</pdfrwt>
<totfact> 0.11175257E+02</totfact>
</mgrwt>
</event>
<event>
 6    1  0.1697025E-006  0.2936638E+04  0.7818608E-02  0.8262059E-01
          2   -1    0    0  501    0  0.00000000000E+00  0.00000000000E+00  0.15359275034E+04  0.15359275034E+04  0.00000000000E+00 0. -1.
         -2   -1    0    0    0  501 -0.00000000000E+00 -0.00000000000E+00 -0.14036861010E+04  0.14036861010E+04  0.00000000000E+00 0.  1.
         23    2    1    2    0    0  0.75849606263E+03  0.11504112356E+04 -0.43730012681E+03  0.14485938724E+04  0.91817852434E+02 0.  0.
         11    1    3    3    0    0  0.39579985648E+03  0.53557267201E+03 -0.24138970158E+03  0.70835344385E+03  0.00000000000E+00 0.  1.
        -11    1    3    3    0    0  0.36269620615E+03  0.61483856363E+03 -0.19591042523E+03  0.74024042850E+03  0.00000000000E+00 0. -1.
         22    1    1    2    0    0 -0.75849606263E+03 -0.11504112356E+04  0.56954152921E+03  0.14910197321E+04  0.00000000000E+00 0. -1.
<mgrwt>
<rscale>  0 0.29366376E+04</rscale>
<asrwt>0</asrwt>
<pdfrwt beam="1">  1        2 0.23629654E+00 0.29366376E+04</pdfrwt>
<pdfrwt beam="2">  1       -2 0.21595171E+00 0.29366376E+04</pdfrwt>
<totfact> 0.10933523E+00</totfact>
</mgrwt>
</event>
<event>
 6    1  0.9988873E-007  0.3461652E+04  0.7818608E-02  0.8122939E-01
         -2   -1    0    0    0  501 -0.00000000000E+00  0.00000000000E+00  0.14220689142E+04  0.14220689142E+04  0.00000000000E+00 0.  1.
          2   -1    0    0  501    0  0.00000000000E+00 -0.00000000000E+00 -0.21066198308E+04  0.21066198308E+04  0.00000000000E+00 0. -1.
         23    2    1    2    0    0 -0.91689578552E+03 -0.14067097069E+04  0.80379942930E+02  0.16835195656E+04  0.90813608260E+02 0.  0.
         13    1    3    3    0    0 -0.57175042490E+03 -0.93867097606E+03  0.25338937021E+02  0.10993833778E+04  0.00000000000E+00 0. -1.
        -13    1    3    3    0    0 -0.34514536062E+03 -0.46803873084E+03  0.55041005908E+02  0.58413618777E+03  0.00000000000E+00 0.  1.
         22    1    1    2    0    0  0.91689578552E+03  0.14067097069E+04 -0.76493085944E+03  0.18451691794E+04  0.00000000000E+00 0. -1.
<mgrwt>
<rscale>  0 0.34616520E+04</rscale>
<asrwt>0</asrwt>
<pdfrwt beam="1">  1        2 0.32409536E+00 0.34616520E+04</pdfrwt>
<pdfrwt beam="2">  1       -2 0.21877983E+00 0.34616520E+04</pdfrwt>
<totfact> 0.48319765E-01</totfact>
</mgrwt>
</event>
<event>
 6    1  0.9988873E-007  0.1990979E+04  0.7818608E-02  0.8610850E-01
          3   -1    0    0  501    0  0.00000000000E+00  0.00000000000E+00  0.99126670764E+03  0.99126670764E+03  0.00000000000E+00 0. -1.
         -3   -1    0    0    0  501 -0.00000000000E+00 -0.00000000000E+00 -0.99972984483E+03  0.99972984483E+03  0.00000000000E+00 0.  1.
         23    2    1    2    0    0  0.23272820433E+03  0.61274007175E+03 -0.75052135014E+03  0.10009141296E+04  0.94519761265E+02 0.  0.
         13    1    3    3    0    0  0.13490808488E+03  0.29721706340E+03 -0.43734472882E+03  0.54571841271E+03  0.00000000000E+00 0. -1.
        -13    1    3    3    0    0  0.97820119443E+02  0.31552300835E+03 -0.31317662132E+03  0.45519571693E+03  0.00000000000E+00 0.  1.
         22    1    1    2    0    0 -0.23272820433E+03 -0.61274007175E+03  0.74205821295E+03  0.99008242284E+03  0.00000000000E+00 0. -1.
<mgrwt>
<rscale>  0 0.19909786E+04</rscale>
<asrwt>0</asrwt>
<pdfrwt beam="1">  1        3 0.15250257E+00 0.19909786E+04</pdfrwt>
<pdfrwt beam="2">  1       -3 0.15380459E+00 0.19909786E+04</pdfrwt>
<totfact> 0.22751102E-01</totfact>
</mgrwt>
</event>
<event>
 6    1  0.9988873E-007  0.3760381E+04  0.7818608E-02  0.8054711E-01
          2   -1    0    0  501    0  0.00000000000E+00  0.00000000000E+00  0.20299758995E+04  0.20299758995E+04  0.00000000000E+00 0. -1.
         -2   -1    0    0    0  501 -0.00000000000E+00 -0.00000000000E+00 -0.17414573819E+04  0.17414573819E+04  0.00000000000E+00 0.  1.
         23    2    1    2    0    0  0.18119308477E+04  0.39896653906E+03 -0.15419221993E+03  0.18640108076E+04  0.92159394990E+02 0.  0.
         13    1    3    3    0    0  0.61109913499E+03  0.16658225971E+03 -0.22020689017E+02  0.63377970366E+03  0.00000000000E+00 0.  1.
        -13    1    3    3    0    0  0.12008317127E+04  0.23238427935E+03 -0.13217153091E+03  0.12302311040E+04  0.00000000000E+00 0. -1.
         22    1    1    2    0    0 -0.18119308477E+04 -0.39896653906E+03  0.44271073757E+03  0.19074224738E+04  0.00000000000E+00 0. -1.
<mgrwt>
<rscale>  0 0.37603811E+04</rscale>
<asrwt>0</asrwt>
<pdfrwt beam="1">  1        2 0.31230398E+00 0.37603811E+04</pdfrwt>
<pdfrwt beam="2">  1       -2 0.26791652E+00 0.37603811E+04</pdfrwt>
<totfact> 0.25813458E-01</totfact>
</mgrwt>
</event>
<event>
 6    1  0.9988873E-007  0.3435216E+04  0.7818608E-02  0.8129317E-01
         -1   -1    0    0    0  501 -0.00000000000E+00  0.00000000000E+00  0.26251452914E+04  0.26251452914E+04  0.00000000000E+00 0.  1.
          1   -1    0    0  501    0  0.00000000000E+00 -0.00000000000E+00 -0.11238147499E+04  0.11238147499E+04  0.00000000000E+00 0. -1.
         23    2    1    2    0    0  0.77281929081E+03  0.15187632525E+04  0.52918819748E+03  0.17870853739E+04  0.98704164732E+02 0.  0.
         11    1    3    3    0    0  0.34841778567E+03  0.79043997509E+03  0.25559750702E+03  0.90084426689E+03  0.00000000000E+00 0.  1.
        -11    1    3    3    0    0  0.42440150515E+03  0.72832327737E+03  0.27359069046E+03  0.88624110706E+03  0.00000000000E+00 0. -1.
         22    1    1    2    0    0 -0.77281929081E+03 -0.15187632525E+04  0.97214234408E+03  0.19618746674E+04  0.00000000000E+00 0.  1.
<mgrwt>
<rscale>  0 0.34352159E+04</rscale>
<asrwt>0</asrwt>
<pdfrwt beam="1">  1        1 0.17289458E+00 0.34352159E+04</pdfrwt>
<pdfrwt beam="2">  1       -1 0.40386851E+00 0.34352159E+04</pdfrwt>
<totfact> 0.67113349E-02</totfact>
</mgrwt>
</event>
<event>
 6    1  0.9988873E-007  0.3637254E+04  0.7818608E-02  0.8082011E-01
         -1   -1    0    0    0  501 -0.00000000000E+00  0.00000000000E+00  0.12400315935E+04  0.12400315935E+04  0.00000000000E+00 0.  1.
          1   -1    0    0  501    0  0.00000000000E+00 -0.00000000000E+00 -0.26671940902E+04  0.26671940902E+04  0.00000000000E+00 0. -1.
         23    2    1    2    0    0  0.71215169433E+03  0.13620598745E+04  0.32789727103E+03  0.15742872091E+04  0.92176238069E+02 0.  0.
         13    1    3    3    0    0  0.33754699919E+03  0.55120814455E+03  0.12486188933E+03  0.65829999748E+03  0.00000000000E+00 0. -1.
        -13    1    3    3    0    0  0.37460469514E+03  0.81085172998E+03  0.20303538170E+03  0.91598721162E+03  0.00000000000E+00 0.  1.
         22    1    1    2    0    0 -0.71215169433E+03 -0.13620598745E+04 -0.17550597677E+04  0.23329384745E+04  0.00000000000E+00 0. -1.
<mgrwt>
<rscale>  0 0.36372544E+04</rscale>
<asrwt>0</asrwt>
<pdfrwt beam="1">  1        1 0.41033754E+00 0.36372544E+04</pdfrwt>
<pdfrwt beam="2">  1       -1 0.19077410E+00 0.36372544E+04</pdfrwt>
<totfact> 0.14564265E-01</totfact>
</mgrwt>
</event>
<event>
 6    1  0.1242333E-006  0.4315321E+04  0.7818608E-02  0.7943791E-01
          2   -1    0    0  501    0  0.00000000000E+00  0.00000000000E+00  0.23870521825E+04  0.23870521825E+04  0.00000000000E+00 0. -1.
         -2   -1    0    0    0  501 -0.00000000000E+00 -0.00000000000E+00 -0.19503126823E+04  0.19503126823E+04  0.00000000000E+00 0.  1.
         23    2    1    2    0    0  0.19436180256E+04 -0.26699755347E+03  0.11188153862E+04  0.22603077550E+04  0.91129337963E+02 0.  0.
         11    1    3    3    0    0  0.79894760727E+03 -0.14823716958E+03  0.43584218043E+03  0.92208998685E+03  0.00000000000E+00 0.  1.
        -11    1    3    3    0    0  0.11446704183E+04 -0.11876038389E+03  0.68297320575E+03  0.13382177682E+04  0.00000000000E+00 0. -1.
         22    1    1    2    0    0 -0.19436180256E+04  0.26699755347E+03 -0.68207588603E+03  0.20770571098E+04  0.00000000000E+00 0.  1.
<mgrwt>
<rscale>  0 0.43153207E+04</rscale>
<asrwt>0</asrwt>
<pdfrwt beam="1">  1        2 0.36723880E+00 0.43153207E+04</pdfrwt>
<pdfrwt beam="2">  1       -2 0.30004811E+00 0.43153207E+04</pdfrwt>
<totfact> 0.98788456E-02</totfact>
</mgrwt>
</event>
<event>
 6    1  0.9988873E-007  0.2025379E+04  0.7818608E-02  0.8594846E-01
          2   -1    0    0  501    0  0.00000000000E+00  0.00000000000E+00  0.34922115232E+04  0.34922115232E+04  0.00000000000E+00 0. -1.
         -2   -1    0    0    0  501 -0.00000000000E+00 -0.00000000000E+00 -0.29366491702E+03  0.29366491702E+03  0.00000000000E+00 0.  1.
         23    2    1    2    0    0  0.93583575273E+03  0.23271847313E+03  0.21676660426E+04  0.23742599271E+04  0.91584306827E+02 0.  0.
         11    1    3    3    0    0  0.44817749232E+03  0.15789817142E+03  0.10831596203E+04  0.11828058421E+04  0.00000000000E+00 0. -1.
        -11    1    3    3    0    0  0.48765826040E+03  0.74820301704E+02  0.10845064223E+04  0.11914540850E+04  0.00000000000E+00 0.  1.
         22    1    1    2    0    0 -0.93583575273E+03 -0.23271847313E+03  0.10308805636E+04  0.14116165131E+04  0.00000000000E+00 0.  1.
<mgrwt>
<rscale>  0 0.20253790E+04</rscale>
<asrwt>0</asrwt>
<pdfrwt beam="1">  1        2 0.53726328E+00 0.20253790E+04</pdfrwt>
<pdfrwt beam="2">  1       -2 0.45179220E-01 0.20253790E+04</pdfrwt>
<totfact> 0.35650357E+00</totfact>
</mgrwt>
</event>
<event>
 6    1  0.9988873E-007  0.3651152E+03  0.7818608E-02  0.1056577E+00
          2   -1    0    0  501    0  0.00000000000E+00  0.00000000000E+00  0.24535345150E+04  0.24535345150E+04  0.00000000000E+00 0. -1.
         -2   -1    0    0    0  501 -0.00000000000E+00 -0.00000000000E+00 -0.13583371695E+02  0.13583371695E+02  0.00000000000E+00 0.  1.
         23    2    1    2    0    0  0.94314046467E+02  0.88731928313E+02  0.20519987425E+04  0.20581245375E+04  0.91702114602E+02 0.  0.
         13    1    3    3    0    0 -0.49627792689E+01 -0.13322096687E+02  0.11020901528E+03  0.11112216020E+03  0.00000000000E+00 0.  1.
        -13    1    3    3    0    0  0.99276825736E+02  0.10205402500E+03  0.19417897273E+04  0.19470023773E+04  0.00000000000E+00 0. -1.
         22    1    1    2    0    0 -0.94314046467E+02 -0.88731928313E+02  0.38795240075E+03  0.40899334923E+03  0.00000000000E+00 0.  1.
<mgrwt>
<rscale>  0 0.36511517E+03</rscale>
<asrwt>0</asrwt>
<pdfrwt beam="1">  1        2 0.37746650E+00 0.36511517E+03</pdfrwt>
<pdfrwt beam="2">  1       -2 0.20897514E-02 0.36511517E+03</pdfrwt>
<totfact> 0.30635036E+03</totfact>
</mgrwt>
</event>
<event>
 6    1  0.9988873E-007  0.1213829E+04  0.7818608E-02  0.9100837E-01
          2   -1    0    0  501    0  0.00000000000E+00  0.00000000000E+00  0.29250624963E+04  0.29250624963E+04  0.00000000000E+00 0. -1.
         -2   -1    0    0    0  501 -0.00000000000E+00 -0.00000000000E+00 -0.12592736281E+03  0.12592736281E+03  0.00000000000E+00 0.  1.
         23    2    1    2    0    0  0.51617439050E+03 -0.30211547319E+03  0.16095314791E+04  0.17194994854E+04  0.91526705043E+02 0.  0.
         11    1    3    3    0    0  0.30926309806E+03 -0.20417550895E+03  0.87852260456E+03  0.95348480271E+03  0.00000000000E+00 0.  1.
        -11    1    3    3    0    0  0.20691129244E+03 -0.97939964249E+02  0.73100887451E+03  0.76601468272E+03  0.00000000000E+00 0. -1.
         22    1    1    2    0    0 -0.51617439050E+03  0.30211547319E+03  0.11896036544E+04  0.13314903737E+04  0.00000000000E+00 0.  1.
<mgrwt>
<rscale>  0 0.12138293E+04</rscale>
<asrwt>0</asrwt>
<pdfrwt beam="1">  1        2 0.45000956E+00 0.12138293E+04</pdfrwt>
<pdfrwt beam="2">  1       -2 0.19373443E-01 0.12138293E+04</pdfrwt>
<totfact> 0.43753141E+01</totfact>
</mgrwt>
</event>
<event>
 6    1  0.1516662E-006  0.2851762E+04  0.7818608E-02  0.8287376E-01
          2   -1    0    0  501    0  0.00000000000E+00  0.00000000000E+00  0.17040339913E+04  0.17040339913E+04  0.00000000000E+00 0. -1.
         -2   -1    0    0    0  501 -0.00000000000E+00 -0.00000000000E+00 -0.11931313895E+04  0.11931313895E+04  0.00000000000E+00 0.  1.
         23    2    1    2    0    0 -0.50723764531E+03 -0.12737498837E+04  0.64846940089E+03  0.15192490484E+04  0.88748589742E+02 0.  0.
         13    1    3    3    0    0 -0.29059730450E+03 -0.83175295349E+03  0.39422186407E+03  0.96523087763E+03  0.00000000000E+00 0.  1.
        -13    1    3    3    0    0 -0.21664034081E+03 -0.44199693018E+03  0.25424753682E+03  0.55401817076E+03  0.00000000000E+00 0. -1.
         22    1    1    2    0    0  0.50723764531E+03  0.12737498837E+04 -0.13756679916E+03  0.13779163324E+04  0.00000000000E+00 0.  1.
<mgrwt>
<rscale>  0 0.28517619E+04</rscale>
<asrwt>0</asrwt>
<pdfrwt beam="1">  1        2 0.26215908E+00 0.28517619E+04</pdfrwt>
<pdfrwt beam="2">  1       -2 0.18355867E+00 0.28517619E+04</pdfrwt>
<totfact> 0.14490865E+00</totfact>
</mgrwt>
</event>
<event>
 6    1  0.9988873E-007  0.1613886E+04  0.7818608E-02  0.8812063E-01
         -1   -1    0    0    0  501 -0.00000000000E+00  0.00000000000E+00  0.34486025315E+03  0.34486025315E+03  0.00000000000E+00 0.  1.
          1   -1    0    0  501    0  0.00000000000E+00 -0.00000000000E+00 -0.18881753666E+04  0.18881753666E+04  0.00000000000E+00 0. -1.
         23    2    1    2    0    0 -0.48180339947E+03 -0.55234736713E+03 -0.31579244815E+03  0.80333844079E+03  0.91682334320E+02 0.  0.
         13    1    3    3    0    0 -0.43921784414E+03 -0.53596362210E+03 -0.29314016544E+03  0.75239648818E+03  0.00000000000E+00 0. -1.
        -13    1    3    3    0    0 -0.42585555331E+02 -0.16383745025E+02 -0.22652282709E+02  0.50941952611E+02  0.00000000000E+00 0.  1.
         22    1    1    2    0    0  0.48180339947E+03  0.55234736713E+03 -0.12275226653E+04  0.14296971790E+04  0.00000000000E+00 0. -1.
<mgrwt>
<rscale>  0 0.16138855E+04</rscale>
<asrwt>0</asrwt>
<pdfrwt beam="1">  1        1 0.29048852E+00 0.16138855E+04</pdfrwt>
<pdfrwt beam="2">  1       -1 0.53055423E-01 0.16138855E+04</pdfrwt>
<totfact> 0.12188050E+01</totfact>
</mgrwt>
</event>
<event>
 6    1  0.9988873E-007  0.3065689E+04  0.7818608E-02  0.8225218E-01
          2   -1    0    0  501    0  0.00000000000E+00  0.00000000000E+00  0.32671734942E+04  0.32671734942E+04  0.00000000000E+00 0. -1.
         -2   -1    0    0    0  501 -0.00000000000E+00 -0.00000000000E+00 -0.71915763100E+03  0.71915763100E+03  0.00000000000E+00 0.  1.
         23    2    1    2    0    0 -0.72529400363E+03 -0.48935701657E+03 -0.35939267346E+03  0.95012525596E+03  0.89739773249E+02 0.  0.
         13    1    3    3    0    0 -0.20665540061E+03 -0.14005488955E+03 -0.14717124092E+03  0.28979510148E+03  0.00000000000E+00 0. -1.
        -13    1    3    3    0    0 -0.51863860302E+03 -0.34930212702E+03 -0.21222143254E+03  0.66033015448E+03  0.00000000000E+00 0.  1.
         22    1    1    2    0    0  0.72529400363E+03  0.48935701657E+03  0.29074085367E+04  0.30362058693E+04  0.00000000000E+00 0. -1.
<mgrwt>
<rscale>  0 0.30656893E+04</rscale>
<asrwt>0</asrwt>
<pdfrwt beam="1">  1        2 0.50264207E+00 0.30656893E+04</pdfrwt>
<pdfrwt beam="2">  1       -2 0.11063964E+00 0.30656893E+04</pdfrwt>
<totfact> 0.64551441E-01</totfact>
</mgrwt>
</event>
<event>
 6    1  0.9988873E-007  0.2556405E+04  0.7818608E-02  0.8383162E-01
          4   -1    0    0  501    0  0.00000000000E+00  0.00000000000E+00  0.29484555857E+04  0.29484555857E+04  0.00000000000E+00 0. -1.
         -4   -1    0    0    0  501 -0.00000000000E+00 -0.00000000000E+00 -0.55412133733E+03  0.55412133733E+03  0.00000000000E+00 0.  1.
         23    2    1    2    0    0  0.10467181932E+04 -0.42131768452E+03  0.37992322479E+03  0.11936855572E+04  0.86116116147E+02 0.  0.
         11    1    3    3    0    0  0.24055414599E+03 -0.12270008986E+03  0.12047407942E+03  0.29569513526E+03  0.00000000000E+00 0.  1.
        -11    1    3    3    0    0  0.80616404723E+03 -0.29861759466E+03  0.25944914537E+03  0.89799042195E+03  0.00000000000E+00 0. -1.
         22    1    1    2    0    0 -0.10467181932E+04  0.42131768452E+03  0.20144110236E+04  0.23088913659E+04  0.00000000000E+00 0. -1.
<mgrwt>
<rscale>  0 0.25564054E+04</rscale>
<asrwt>0</asrwt>
<pdfrwt beam="1">  1        4 0.45360854E+00 0.25564054E+04</pdfrwt>
<pdfrwt beam="2">  1       -4 0.85249438E-01 0.25564054E+04</pdfrwt>
<totfact> 0.59096593E-03</totfact>
</mgrwt>
</event>
<event>
 6    1  0.9988873E-007  0.2051986E+04  0.7818608E-02  0.8582694E-01
         -1   -1    0    0    0  501 -0.00000000000E+00  0.00000000000E+00  0.85220200105E+03  0.85220200105E+03  0.00000000000E+00 0.  1.
          1   -1    0    0  501    0  0.00000000000E+00 -0.00000000000E+00 -0.12352257892E+04  0.12352257892E+04  0.00000000000E+00 0. -1.
         23    2    1    2    0    0 -0.44066437365E+03 -0.87425330010E+02 -0.11277490151E+04  0.12176899320E+04  0.95512570215E+02 0.  0.
         11    1    3    3    0    0 -0.21525351171E+03 -0.33581515142E+02 -0.42286459844E+03  0.47568504399E+03  0.00000000000E+00 0.  1.
        -11    1    3    3    0    0 -0.22541086194E+03 -0.53843814868E+02 -0.70488441664E+03  0.74200488806E+03  0.00000000000E+00 0. -1.
         22    1    1    2    0    0  0.44066437365E+03  0.87425330010E+02  0.74472522687E+03  0.86973785825E+03  0.00000000000E+00 0.  1.
<mgrwt>
<rscale>  0 0.20519862E+04</rscale>
<asrwt>0</asrwt>
<pdfrwt beam="1">  1        1 0.19003473E+00 0.20519862E+04</pdfrwt>
<pdfrwt beam="2">  1       -1 0.13110800E+00 0.20519862E+04</pdfrwt>
<totfact> 0.46172910E+00</totfact>
</mgrwt>
</event>
<event>
 6    1  0.9988873E-007  0.2413053E+04  0.7818608E-02  0.8434633E-01
          2   -1    0    0  501    0  0.00000000000E+00  0.00000000000E+00  0.11718887568E+04  0.11718887568E+04  0.00000000000E+00 0. -1.
         -2   -1    0    0    0  501 -0.00000000000E+00 -0.00000000000E+00 -0.12421883131E+04  0.12421883131E+04  0.00000000000E+00 0.  1.
         23    2    1    2    0    0 -0.10948137647E+03 -0.54056404522E+03  0.10362202783E+04  0.11777187873E+04  0.95254491156E+02 0.  0.
         13    1    3    3    0    0 -0.56935842411E+01 -0.24476000683E+03  0.41348255319E+03  0.48052856277E+03  0.00000000000E+00 0. -1.
        -13    1    3    3    0    0 -0.10378779223E+03 -0.29580403838E+03  0.62273772508E+03  0.69719022453E+03  0.00000000000E+00 0.  1.
         22    1    1    2    0    0  0.10948137647E+03  0.54056404522E+03 -0.11065198345E+04  0.12363582826E+04  0.00000000000E+00 0.  1.
<mgrwt>
<rscale>  0 0.24130533E+04</rscale>
<asrwt>0</asrwt>
<pdfrwt beam="1">  1        2 0.18029058E+00 0.24130533E+04</pdfrwt>
<pdfrwt beam="2">  1       -2 0.19110590E+00 0.24130533E+04</pdfrwt>
<totfact> 0.26952485E+00</totfact>
</mgrwt>
</event>
<event>
 6    1  0.9988873E-007  0.3969002E+04  0.7818608E-02  0.8010829E-01
         -2   -1    0    0    0  501 -0.00000000000E+00  0.00000000000E+00  0.14413939875E+04  0.14413939875E+04  0.00000000000E+00 0.  1.
          2   -1    0    0  501    0  0.00000000000E+00 -0.00000000000E+00 -0.27322474069E+04  0.27322474069E+04  0.00000000000E+00 0. -1.
         23    2    1    2    0    0 -0.78625123731E+03 -0.18004252971E+04 -0.35844470548E+03  0.19989900963E+04  0.88071218532E+02 0.  0.
         13    1    3    3    0    0 -0.92342776771E+02 -0.14914507134E+03 -0.34413813633E+02  0.17876171653E+03  0.00000000000E+00 0. -1.
        -13    1    3    3    0    0 -0.69390846054E+03 -0.16512802257E+04 -0.32403089184E+03  0.18202283797E+04  0.00000000000E+00 0.  1.
         22    1    1    2    0    0  0.78625123731E+03  0.18004252971E+04 -0.93240871392E+03  0.21746512981E+04  0.00000000000E+00 0. -1.
<mgrwt>
<rscale>  0 0.39690024E+04</rscale>
<asrwt>0</asrwt>
<pdfrwt beam="1">  1        2 0.42034575E+00 0.39690024E+04</pdfrwt>
<pdfrwt beam="2">  1       -2 0.22175292E+00 0.39690024E+04</pdfrwt>
<totfact> 0.19350756E-01</totfact>
</mgrwt>
</event>
<event>
 6    1  0.9988873E-007  0.2129416E+04  0.7818608E-02  0.8548395E-01
         -1   -1    0    0    0  501 -0.00000000000E+00  0.00000000000E+00  0.10984583907E+04  0.10984583907E+04  0.00000000000E+00 0.  1.
          1   -1    0    0  501    0  0.00000000000E+00 -0.00000000000E+00 -0.10319948477E+04  0.10319948477E+04  0.00000000000E+00 0. -1.
         23    2    1    2    0    0  0.65279846634E+03 -0.55303785993E+03  0.66400376774E+03  0.10868771595E+04  0.91674664848E+02 0.  0.
         13    1    3    3    0    0  0.31807087725E+03 -0.32860945461E+03  0.34350853811E+03  0.57197147863E+03  0.00000000000E+00 0. -1.
        -13    1    3    3    0    0  0.33472758909E+03 -0.22442840533E+03  0.32049522963E+03  0.51490568091E+03  0.00000000000E+00 0.  1.
         22    1    1    2    0    0 -0.65279846634E+03  0.55303785993E+03 -0.59754022470E+03  0.10435760788E+04  0.00000000000E+00 0. -1.
<mgrwt>
<rscale>  0 0.21294163E+04</rscale>
<asrwt>0</asrwt>
<pdfrwt beam="1">  1        1 0.15876844E+00 0.21294163E+04</pdfrwt>
<pdfrwt beam="2">  1       -1 0.16899360E+00 0.21294163E+04</pdfrwt>
<totfact> 0.32808820E+00</totfact>
</mgrwt>
</event>
<event>
 6    1  0.9988873E-007  0.2509332E+04  0.7818608E-02  0.8399669E-01
         -2   -1    0    0    0  501 -0.00000000000E+00  0.00000000000E+00  0.81314358891E+03  0.81314358891E+03  0.00000000000E+00 0.  1.
          2   -1    0    0  501    0  0.00000000000E+00 -0.00000000000E+00 -0.19359265121E+04  0.19359265121E+04  0.00000000000E+00 0. -1.
         23    2    1    2    0    0 -0.88331036380E+03  0.71435992652E+03 -0.11413735435E+04  0.16128954161E+04  0.90281526735E+02 0.  0.
         13    1    3    3    0    0 -0.49919747326E+03  0.45194247758E+03 -0.70844089999E+03  0.97741425666E+03  0.00000000000E+00 0.  1.
        -13    1    3    3    0    0 -0.38411289054E+03  0.26241744895E+03 -0.43293264353E+03  0.63548115945E+03  0.00000000000E+00 0. -1.
         22    1    1    2    0    0  0.88331036380E+03 -0.71435992652E+03  0.18590620327E+02  0.11361746849E+04  0.00000000000E+00 0.  1.
<mgrwt>
<rscale>  0 0.25093316E+04</rscale>
<asrwt>0</asrwt>
<pdfrwt beam="1">  1        2 0.29783485E+00 0.25093316E+04</pdfrwt>
<pdfrwt beam="2">  1       -2 0.12509901E+00 0.25093316E+04</pdfrwt>
<totfact> 0.30930301E+00</totfact>
</mgrwt>
</event>
<event>
 6    1  0.9988873E-007  0.1214960E+04  0.7818608E-02  0.9099862E-01
          1   -1    0    0  501    0  0.00000000000E+00  0.00000000000E+00  0.32847773176E+04  0.32847773176E+04  0.00000000000E+00 0. -1.
         -1   -1    0    0    0  501 -0.00000000000E+00 -0.00000000000E+00 -0.11234603491E+03  0.11234603491E+03  0.00000000000E+00 0.  1.
         23    2    1    2    0    0 -0.28197405054E+03  0.35030332727E+03  0.27229282200E+04  0.27612972838E+04  0.90569377048E+02 0.  0.
         11    1    3    3    0    0 -0.11468656132E+03  0.10693694354E+03  0.73388044110E+03  0.75044588018E+03  0.00000000000E+00 0.  1.
        -11    1    3    3    0    0 -0.16728748922E+03  0.24336638373E+03  0.19890477789E+04  0.20108514036E+04  0.00000000000E+00 0. -1.
         22    1    1    2    0    0  0.28197405054E+03 -0.35030332727E+03  0.44950306272E+03  0.63582606873E+03  0.00000000000E+00 0. -1.
<mgrwt>
<rscale>  0 0.12149596E+04</rscale>
<asrwt>0</asrwt>
<pdfrwt beam="1">  1        1 0.50535028E+00 0.12149596E+04</pdfrwt>
<pdfrwt beam="2">  1       -1 0.17284008E-01 0.12149596E+04</pdfrwt>
<totfact> 0.96229564E+00</totfact>
</mgrwt>
</event>
<event>
 6    1  0.9988873E-007  0.7428417E+03  0.7818608E-02  0.9646648E-01
          3   -1    0    0  501    0  0.00000000000E+00  0.00000000000E+00  0.10989131288E+03  0.10989131288E+03  0.00000000000E+00 0. -1.
         -3   -1    0    0    0  501 -0.00000000000E+00 -0.00000000000E+00 -0.12553627515E+04  0.12553627515E+04  0.00000000000E+00 0.  1.
         23    2    1    2    0    0  0.24956988830E+03 -0.23100339409E+03 -0.33377303705E+03  0.48519611610E+03  0.91450169943E+02 0.  0.
         11    1    3    3    0    0  0.18769128881E+03 -0.14046925880E+03 -0.17641615747E+03  0.29339784113E+03  0.00000000000E+00 0.  1.
        -11    1    3    3    0    0  0.61878599489E+02 -0.90534135293E+02 -0.15735687958E+03  0.19179827496E+03  0.00000000000E+00 0. -1.
         22    1    1    2    0    0 -0.24956988830E+03  0.23100339409E+03 -0.81169840159E+03  0.88005794831E+03  0.00000000000E+00 0.  1.
<mgrwt>
<rscale>  0 0.74284174E+03</rscale>
<asrwt>0</asrwt>
<pdfrwt beam="1">  1        3 0.16906356E-01 0.74284174E+03</pdfrwt>
<pdfrwt beam="2">  1       -3 0.19313272E+00 0.74284174E+03</pdfrwt>
<totfact> 0.13335474E+01</totfact>
</mgrwt>
</event>
<event>
 6    1  0.9988873E-007  0.1087014E+04  0.7818608E-02  0.9217942E-01
         -1   -1    0    0    0  501 -0.00000000000E+00  0.00000000000E+00  0.87378839041E+03  0.87378839041E+03  0.00000000000E+00 0.  1.
          1   -1    0    0  501    0  0.00000000000E+00 -0.00000000000E+00 -0.33806823056E+03  0.33806823056E+03  0.00000000000E+00 0. -1.
         23    2    1    2    0    0  0.14945530936E+02  0.39935404121E+03 -0.13473812496E+03  0.43133030443E+03  0.90467950549E+02 0.  0.
         11    1    3    3    0    0 -0.20434067526E+02  0.32976877108E+03 -0.12215543225E+03  0.35225976654E+03  0.00000000000E+00 0. -1.
        -11    1    3    3    0    0  0.35379598463E+02  0.69585270134E+02 -0.12582692713E+02  0.79070537895E+02  0.00000000000E+00 0.  1.
         22    1    1    2    0    0 -0.14945530936E+02 -0.39935404121E+03  0.67045828482E+03  0.78052631654E+03  0.00000000000E+00 0.  1.
<mgrwt>
<rscale>  0 0.10870144E+04</rscale>
<asrwt>0</asrwt>
<pdfrwt beam="1">  1        1 0.52010497E-01 0.10870144E+04</pdfrwt>
<pdfrwt beam="2">  1       -1 0.13442898E+00 0.10870144E+04</pdfrwt>
<totfact> 0.34824231E+01</totfact>
</mgrwt>
</event>
<event>
 6    1  0.9988873E-007  0.3339423E+04  0.7818608E-02  0.8152936E-01
          2   -1    0    0  501    0  0.00000000000E+00  0.00000000000E+00  0.30937845403E+04  0.30937845403E+04  0.00000000000E+00 0. -1.
         -2   -1    0    0    0  501 -0.00000000000E+00 -0.00000000000E+00 -0.90114098707E+03  0.90114098707E+03  0.00000000000E+00 0.  1.
         23    2    1    2    0    0  0.16233098288E+04 -0.11448875970E+03  0.65656668741E+03  0.17571197686E+04  0.90264000208E+02 0.  0.
         11    1    3    3    0    0  0.12195500028E+04 -0.10455399562E+03  0.45626700229E+03  0.13062975636E+04  0.00000000000E+00 0. -1.
        -11    1    3    3    0    0  0.40375982603E+03 -0.99347640806E+01  0.20029968512E+03  0.45082220499E+03  0.00000000000E+00 0.  1.
         22    1    1    2    0    0 -0.16233098288E+04  0.11448875970E+03  0.15360768658E+04  0.22378057588E+04  0.00000000000E+00 0. -1.
<mgrwt>
<rscale>  0 0.33394227E+04</rscale>
<asrwt>0</asrwt>
<pdfrwt beam="1">  1        2 0.47596685E+00 0.33394227E+04</pdfrwt>
<pdfrwt beam="2">  1       -2 0.13863708E+00 0.33394227E+04</pdfrwt>
<totfact> 0.46539481E-01</totfact>
</mgrwt>
</event>
<event>
 6    1  0.9988873E-007  0.2540972E+04  0.7818608E-02  0.8388533E-01
         -1   -1    0    0    0  501 -0.00000000000E+00  0.00000000000E+00  0.10288910349E+04  0.10288910349E+04  0.00000000000E+00 0.  1.
          1   -1    0    0  501    0  0.00000000000E+00 -0.00000000000E+00 -0.15688101271E+04  0.15688101271E+04  0.00000000000E+00 0. -1.
         23    2    1    2    0    0 -0.11819946971E+04  0.44974517381E+03 -0.16503393732E+03  0.12786404870E+04  0.91121398230E+02 0.  0.
         11    1    3    3    0    0 -0.13809041755E+03  0.29828927781E+02 -0.37997012909E+02  0.14629593755E+03  0.00000000000E+00 0. -1.
        -11    1    3    3    0    0 -0.10439042795E+04  0.41991624602E+03 -0.12703692441E+03  0.11323445494E+04  0.00000000000E+00 0.  1.
         22    1    1    2    0    0  0.11819946971E+04 -0.44974517381E+03 -0.37488515486E+03  0.13190606751E+04  0.00000000000E+00 0.  1.
<mgrwt>
<rscale>  0 0.25409720E+04</rscale>
<asrwt>0</asrwt>
<pdfrwt beam="1">  1        1 0.24135540E+00 0.25409720E+04</pdfrwt>
<pdfrwt beam="2">  1       -1 0.15829093E+00 0.25409720E+04</pdfrwt>
<totfact> 0.15629002E+00</totfact>
</mgrwt>
</event>
<event>
 6    1  0.9988873E-007  0.2790393E+04  0.7818608E-02  0.8306257E-01
         -1   -1    0    0    0  501 -0.00000000000E+00  0.00000000000E+00  0.50551872812E+03  0.50551872812E+03  0.00000000000E+00 0.  1.
          1   -1    0    0  501    0  0.00000000000E+00 -0.00000000000E+00 -0.38506453241E+04  0.38506453241E+04  0.00000000000E+00 0. -1.
         23    2    1    2    0    0  0.15346510626E+03 -0.64526724883E+03 -0.35879760655E+04  0.36498374804E+04  0.88430909334E+02 0.  0.
         11    1    3    3    0    0  0.58265264952E+02 -0.13421133655E+03 -0.93957880742E+03  0.95090265502E+03  0.00000000000E+00 0.  1.
        -11    1    3    3    0    0  0.95199841303E+02 -0.51105591228E+03 -0.26483972581E+04  0.26989348254E+04  0.00000000000E+00 0. -1.
         22    1    1    2    0    0 -0.15346510626E+03  0.64526724883E+03  0.24284946948E+03  0.70632657184E+03  0.00000000000E+00 0.  1.
<mgrwt>
<rscale>  0 0.27903930E+04</rscale>
<asrwt>0</asrwt>
<pdfrwt beam="1">  1        1 0.59240699E+00 0.27903930E+04</pdfrwt>
<pdfrwt beam="2">  1       -1 0.77772110E-01 0.27903930E+04</pdfrwt>
<totfact> 0.18540270E-01</totfact>
</mgrwt>
</event>
<event>
 6    1  0.9988873E-007  0.3387437E+04  0.7818608E-02  0.8140997E-01
         -1   -1    0    0    0  501 -0.00000000000E+00  0.00000000000E+00  0.12505496761E+04  0.12505496761E+04  0.00000000000E+00 0.  1.
          1   -1    0    0  501    0  0.00000000000E+00 -0.00000000000E+00 -0.22939368258E+04  0.22939368258E+04  0.00000000000E+00 0. -1.
         23    2    1    2    0    0  0.15135008038E+04 -0.72839683649E+03 -0.73890666897E+03  0.18374554543E+04  0.94936014114E+02 0.  0.
         13    1    3    3    0    0  0.10589442219E+04 -0.55449185732E+03 -0.54119235175E+03  0.13121407114E+04  0.00000000000E+00 0.  1.
        -13    1    3    3    0    0  0.45455658188E+03 -0.17390497917E+03 -0.19771431721E+03  0.52531474293E+03  0.00000000000E+00 0. -1.
         22    1    1    2    0    0 -0.15135008038E+04  0.72839683649E+03 -0.30448048073E+03  0.17070310476E+04  0.00000000000E+00 0.  1.
<mgrwt>
<rscale>  0 0.33874368E+04</rscale>
<asrwt>0</asrwt>
<pdfrwt beam="1">  1        1 0.35291335E+00 0.33874368E+04</pdfrwt>
<pdfrwt beam="2">  1       -1 0.19239226E+00 0.33874368E+04</pdfrwt>
<totfact> 0.26307091E-01</totfact>
</mgrwt>
</event>
<event>
 6    1  0.9988873E-007  0.3282517E+04  0.7818608E-02  0.8167358E-01
          1   -1    0    0  501    0  0.00000000000E+00  0.00000000000E+00  0.27093991295E+04  0.27093991295E+04  0.00000000000E+00 0. -1.
         -1   -1    0    0    0  501 -0.00000000000E+00 -0.00000000000E+00 -0.99421655538E+03  0.99421655538E+03  0.00000000000E+00 0.  1.
         23    2    1    2    0    0 -0.42074375291E+03 -0.14416737681E+04  0.16027943082E+04  0.21976011825E+04  0.71083076467E+02 0.  0.
         13    1    3    3    0    0 -0.18292814785E+03 -0.65211541186E+03  0.77361204010E+03  0.10281988165E+04  0.00000000000E+00 0. -1.
        -13    1    3    3    0    0 -0.23781560507E+03 -0.78955835620E+03  0.82918226808E+03  0.11694023660E+04  0.00000000000E+00 0.  1.
         22    1    1    2    0    0  0.42074375291E+03  0.14416737681E+04  0.11238826594E+03  0.15060145024E+04  0.00000000000E+00 0.  1.
<mgrwt>
<rscale>  0 0.32825170E+04</rscale>
<asrwt>0</asrwt>
<pdfrwt beam="1">  1        1 0.41683063E+00 0.32825170E+04</pdfrwt>
<pdfrwt beam="2">  1       -1 0.15295639E+00 0.32825170E+04</pdfrwt>
<totfact> 0.26558793E-01</totfact>
</mgrwt>
</event>
<event>
 6    1  0.9988873E-007  0.2873562E+04  0.7818608E-02  0.8280787E-01
         -2   -1    0    0    0  501 -0.00000000000E+00  0.00000000000E+00  0.14211373235E+04  0.14211373235E+04  0.00000000000E+00 0.  1.
          2   -1    0    0  501    0  0.00000000000E+00 -0.00000000000E+00 -0.14525966989E+04  0.14525966989E+04  0.00000000000E+00 0. -1.
         23    2    1    2    0    0  0.15272651453E+02  0.28804398748E+03  0.13903550658E+04  0.14229553012E+04  0.92260433569E+02 0.  0.
         13    1    3    3    0    0 -0.23288027451E+02  0.60065348752E+02  0.19264119669E+03  0.20312756830E+03  0.00000000000E+00 0.  1.
        -13    1    3    3    0    0  0.38560678904E+02  0.22797863873E+03  0.11977138691E+04  0.12198277329E+04  0.00000000000E+00 0. -1.
         22    1    1    2    0    0 -0.15272651453E+02 -0.28804398748E+03 -0.14218144412E+04  0.14507787212E+04  0.00000000000E+00 0. -1.
<mgrwt>
<rscale>  0 0.28735618E+04</rscale>
<asrwt>0</asrwt>
<pdfrwt beam="1">  1        2 0.22347642E+00 0.28735618E+04</pdfrwt>
<pdfrwt beam="2">  1       -2 0.21863651E+00 0.28735618E+04</pdfrwt>
<totfact> 0.11777223E+00</totfact>
</mgrwt>
</event>
<event>
 6    1  0.9988873E-007  0.1689197E+04  0.7818608E-02  0.8767550E-01
         -2   -1    0    0    0  501 -0.00000000000E+00  0.00000000000E+00  0.24971747455E+03  0.24971747455E+03  0.00000000000E+00 0.  1.
          2   -1    0    0  501    0  0.00000000000E+00 -0.00000000000E+00 -0.28566144141E+04  0.28566144141E+04  0.00000000000E+00 0. -1.
         23    2    1    2    0    0  0.50891049235E+03 -0.59486190132E+03 -0.18790955567E+04  0.20374327242E+04  0.85331257762E+02 0.  0.
         11    1    3    3    0    0  0.31340713063E+03 -0.38337506233E+03 -0.12879410182E+04  0.13798523596E+04  0.00000000000E+00 0. -1.
        -11    1    3    3    0    0  0.19550336171E+03 -0.21148683898E+03 -0.59115453855E+03  0.65758036464E+03  0.00000000000E+00 0.  1.
         22    1    1    2    0    0 -0.50891049235E+03  0.59486190132E+03 -0.72780138281E+03  0.10688991644E+04  0.00000000000E+00 0.  1.
<mgrwt>
<rscale>  0 0.16891969E+04</rscale>
<asrwt>0</asrwt>
<pdfrwt beam="1">  1        2 0.43947916E+00 0.16891969E+04</pdfrwt>
<pdfrwt beam="2">  1       -2 0.38418072E-01 0.16891969E+04</pdfrwt>
<totfact> 0.13068247E+01</totfact>
</mgrwt>
</event>
<event>
 6    1  0.1012111E-006  0.2127864E+04  0.7818608E-02  0.8549067E-01
         -2   -1    0    0    0  501 -0.00000000000E+00  0.00000000000E+00  0.84758445874E+03  0.84758445874E+03  0.00000000000E+00 0.  1.
          2   -1    0    0  501    0  0.00000000000E+00 -0.00000000000E+00 -0.13355028866E+04  0.13355028866E+04  0.00000000000E+00 0. -1.
         23    2    1    2    0    0  0.28837266404E+03 -0.39469909751E+03 -0.12116375432E+04  0.13097514827E+04  0.91854446958E+02 0.  0.
         13    1    3    3    0    0  0.32176682265E+02 -0.88968884316E+02 -0.30272310739E+03  0.31716254666E+03  0.00000000000E+00 0. -1.
        -13    1    3    3    0    0  0.25619598178E+03 -0.30573021319E+03 -0.90891443585E+03  0.99258893608E+03  0.00000000000E+00 0.  1.
         22    1    1    2    0    0 -0.28837266404E+03  0.39469909751E+03  0.72371911538E+03  0.87333586260E+03  0.00000000000E+00 0.  1.
<mgrwt>
<rscale>  0 0.21278642E+04</rscale>
<asrwt>0</asrwt>
<pdfrwt beam="1">  1        2 0.20546198E+00 0.21278642E+04</pdfrwt>
<pdfrwt beam="2">  1       -2 0.13039761E+00 0.21278642E+04</pdfrwt>
<totfact> 0.62472869E+00</totfact>
</mgrwt>
</event>
<event>
 6    1  0.9988873E-007  0.1857465E+04  0.7818608E-02  0.8676323E-01
         -2   -1    0    0    0  501 -0.00000000000E+00  0.00000000000E+00  0.12099204205E+04  0.12099204205E+04  0.00000000000E+00 0.  1.
          2   -1    0    0  501    0  0.00000000000E+00 -0.00000000000E+00 -0.71289318760E+03  0.71289318760E+03  0.00000000000E+00 0. -1.
         23    2    1    2    0    0  0.21074924769E+03 -0.11357582357E+03 -0.67743249951E+03  0.72420175426E+03  0.90767154706E+02 0.  0.
         13    1    3    3    0    0  0.17697718826E+03 -0.55073903753E+02 -0.54280680483E+03  0.57357936452E+03  0.00000000000E+00 0. -1.
        -13    1    3    3    0    0  0.33772059438E+02 -0.58501919818E+02 -0.13462569469E+03  0.15062238974E+03  0.00000000000E+00 0.  1.
         22    1    1    2    0    0 -0.21074924769E+03  0.11357582357E+03  0.11744597325E+04  0.11986118539E+04  0.00000000000E+00 0.  1.
<mgrwt>
<rscale>  0 0.18574650E+04</rscale>
<asrwt>0</asrwt>
<pdfrwt beam="1">  1        2 0.10967588E+00 0.18574650E+04</pdfrwt>
<pdfrwt beam="2">  1       -2 0.18614160E+00 0.18574650E+04</pdfrwt>
<totfact> 0.61874112E+00</totfact>
</mgrwt>
</event>
<event>
 6    1  0.9988873E-007  0.3131353E+04  0.7818608E-02  0.8207186E-01
         -2   -1    0    0    0  501 -0.00000000000E+00  0.00000000000E+00  0.12976262637E+04  0.12976262637E+04  0.00000000000E+00 0.  1.
          2   -1    0    0  501    0  0.00000000000E+00 -0.00000000000E+00 -0.18890981985E+04  0.18890981985E+04  0.00000000000E+00 0. -1.
         23    2    1    2    0    0 -0.63338512258E+03 -0.12329979012E+04 -0.10341707998E+04  0.17315808875E+04  0.86038299174E+02 0.  0.
         13    1    3    3    0    0 -0.10680545390E+03 -0.21796978779E+03 -0.14192995147E+03  0.28118027046E+03  0.00000000000E+00 0.  1.
        -13    1    3    3    0    0 -0.52657966869E+03 -0.10150281134E+04 -0.89224084831E+03  0.14504006170E+04  0.00000000000E+00 0. -1.
         22    1    1    2    0    0  0.63338512258E+03  0.12329979012E+04  0.44269886503E+03  0.14551435747E+04  0.00000000000E+00 0.  1.
<mgrwt>
<rscale>  0 0.31313533E+04</rscale>
<asrwt>0</asrwt>
<pdfrwt beam="1">  1        2 0.29063049E+00 0.31313533E+04</pdfrwt>
<pdfrwt beam="2">  1       -2 0.19963481E+00 0.31313533E+04</pdfrwt>
<totfact> 0.87213469E-01</totfact>
</mgrwt>
</event>
<event>
 6    1  0.9988873E-007  0.5080530E+04  0.7818608E-02  0.7816203E-01
         -2   -1    0    0    0  501 -0.00000000000E+00  0.00000000000E+00  0.38431613513E+04  0.38431613513E+04  0.00000000000E+00 0.  1.
          2   -1    0    0  501    0  0.00000000000E+00 -0.00000000000E+00 -0.16790721245E+04  0.16790721245E+04  0.00000000000E+00 0. -1.
         23    2    1    2    0    0  0.19365250304E+04  0.10340750722E+04  0.24698756631E+04  0.33057168860E+04  0.89654285426E+02 0.  0.
         11    1    3    3    0    0  0.96617274913E+03  0.49886677025E+03  0.11597242291E+04  0.15897541078E+04  0.00000000000E+00 0. -1.
        -11    1    3    3    0    0  0.97035228126E+03  0.53520830195E+03  0.13101514340E+04  0.17159627782E+04  0.00000000000E+00 0.  1.
         22    1    1    2    0    0 -0.19365250304E+04 -0.10340750722E+04 -0.30578643639E+03  0.22165165898E+04  0.00000000000E+00 0. -1.
<mgrwt>
<rscale>  0 0.50805295E+04</rscale>
<asrwt>0</asrwt>
<pdfrwt beam="1">  1        2 0.25831879E+00 0.50805295E+04</pdfrwt>
<pdfrwt beam="2">  1       -2 0.59125559E+00 0.50805295E+04</pdfrwt>
<totfact> 0.40579014E-03</totfact>
</mgrwt>
</event>
<event>
 6    1  0.9988873E-007  0.3000492E+04  0.7818608E-02  0.8243590E-01
          1   -1    0    0  501    0  0.00000000000E+00  0.00000000000E+00  0.37878685027E+04  0.37878685027E+04  0.00000000000E+00 0. -1.
         -1   -1    0    0    0  501 -0.00000000000E+00 -0.00000000000E+00 -0.59419651918E+03  0.59419651918E+03  0.00000000000E+00 0.  1.
         23    2    1    2    0    0  0.77269268065E+03  0.87332455488E+03  0.29737323068E+04  0.31954213440E+04  0.88791757843E+02 0.  0.
         13    1    3    3    0    0  0.33574498501E+03  0.42439480041E+03  0.12889960079E+04  0.13979793811E+04  0.00000000000E+00 0. -1.
        -13    1    3    3    0    0  0.43694769565E+03  0.44892975447E+03  0.16847362989E+04  0.17974419629E+04  0.00000000000E+00 0.  1.
         22    1    1    2    0    0 -0.77269268065E+03 -0.87332455488E+03  0.21993967672E+03  0.11866436779E+04  0.00000000000E+00 0.  1.
<mgrwt>
<rscale>  0 0.30004921E+04</rscale>
<asrwt>0</asrwt>
<pdfrwt beam="1">  1        1 0.58274898E+00 0.30004921E+04</pdfrwt>
<pdfrwt beam="2">  1       -1 0.91414852E-01 0.30004921E+04</pdfrwt>
<totfact> 0.14477021E-01</totfact>
</mgrwt>
</event>
<event>
 6    1  0.9988873E-007  0.3355993E+04  0.7818608E-02  0.8148792E-01
         -2   -1    0    0    0  501 -0.00000000000E+00  0.00000000000E+00  0.27656856589E+04  0.27656856589E+04  0.00000000000E+00 0.  1.
          2   -1    0    0  501    0  0.00000000000E+00 -0.00000000000E+00 -0.10180737321E+04  0.10180737321E+04  0.00000000000E+00 0. -1.
         23    2    1    2    0    0  0.15905768123E+04  0.48720978878E+03  0.63723639513E+03  0.17836989430E+04  0.90574399910E+02 0.  0.
         11    1    3    3    0    0  0.10827648502E+04  0.28748071626E+03  0.43349637803E+03  0.12012260373E+04  0.00000000000E+00 0.  1.
        -11    1    3    3    0    0  0.50781196212E+03  0.19972907251E+03  0.20374001710E+03  0.58247290567E+03  0.00000000000E+00 0. -1.
         22    1    1    2    0    0 -0.15905768123E+04 -0.48720978878E+03  0.11103755317E+04  0.20000604479E+04  0.00000000000E+00 0.  1.
<mgrwt>
<rscale>  0 0.33559928E+04</rscale>
<asrwt>0</asrwt>
<pdfrwt beam="1">  1        2 0.15662673E+00 0.33559928E+04</pdfrwt>
<pdfrwt beam="2">  1       -2 0.42549010E+00 0.33559928E+04</pdfrwt>
<totfact> 0.10272322E-01</totfact>
</mgrwt>
</event>
<event>
 6    1  0.9988873E-007  0.1326747E+04  0.7818608E-02  0.9008619E-01
          1   -1    0    0  501    0  0.00000000000E+00  0.00000000000E+00  0.13771997585E+04  0.13771997585E+04  0.00000000000E+00 0. -1.
         -1   -1    0    0    0  501 -0.00000000000E+00 -0.00000000000E+00 -0.31953563780E+03  0.31953563780E+03  0.00000000000E+00 0.  1.
         23    2    1    2    0    0  0.48761881773E+03  0.73016396868E+02 -0.30085332792E+02  0.50245637564E+03  0.91944421045E+02 0.  0.
         11    1    3    3    0    0  0.43658103862E+03  0.93406859729E+02 -0.30399964582E+02  0.44749525425E+03  0.00000000000E+00 0. -1.
        -11    1    3    3    0    0  0.51037779107E+02 -0.20390462861E+02  0.31463179019E+00  0.54961121395E+02  0.00000000000E+00 0.  1.
         22    1    1    2    0    0 -0.48761881773E+03 -0.73016396868E+02  0.10877494535E+04  0.11942790207E+04  0.00000000000E+00 0. -1.
<mgrwt>
<rscale>  0 0.13267470E+04</rscale>
<asrwt>0</asrwt>
<pdfrwt beam="1">  1        1 0.21187688E+00 0.13267470E+04</pdfrwt>
<pdfrwt beam="2">  1       -1 0.49159329E-01 0.13267470E+04</pdfrwt>
<totfact> 0.32401453E+01</totfact>
</mgrwt>
</event>
<event>
 6    1  0.9988873E-007  0.2241321E+04  0.7818608E-02  0.8501424E-01
          2   -1    0    0  501    0  0.00000000000E+00  0.00000000000E+00  0.12665855286E+04  0.12665855286E+04  0.00000000000E+00 0. -1.
         -2   -1    0    0    0  501 -0.00000000000E+00 -0.00000000000E+00 -0.99154728084E+03  0.99154728084E+03  0.00000000000E+00 0.  1.
         23    2    1    2    0    0  0.66961678043E+03 -0.89344579291E+03  0.20949089817E+03  0.11396836722E+04  0.91435325755E+02 0.  0.
         11    1    3    3    0    0  0.56136064303E+03 -0.77140627074E+03  0.14854343062E+03  0.96553537318E+03  0.00000000000E+00 0.  1.
        -11    1    3    3    0    0  0.10825613740E+03 -0.12203952217E+03  0.60947467553E+02  0.17414829903E+03  0.00000000000E+00 0. -1.
         22    1    1    2    0    0 -0.66961678043E+03  0.89344579291E+03  0.65547349581E+02  0.11184491372E+04  0.00000000000E+00 0.  1.
<mgrwt>
<rscale>  0 0.22413205E+04</rscale>
<asrwt>0</asrwt>
<pdfrwt beam="1">  1        2 0.19485931E+00 0.22413205E+04</pdfrwt>
<pdfrwt beam="2">  1       -2 0.15254574E+00 0.22413205E+04</pdfrwt>
<totfact> 0.45140150E+00</totfact>
</mgrwt>
</event>
<event>
 6    1  0.9988873E-007  0.8096945E+04  0.7818608E-02  0.7473801E-01
          1   -1    0    0  501    0  0.00000000000E+00  0.00000000000E+00  0.34508432430E+04  0.34508432430E+04  0.00000000000E+00 0. -1.
         -1   -1    0    0    0  501 -0.00000000000E+00 -0.00000000000E+00 -0.47496010532E+04  0.47496010532E+04  0.00000000000E+00 0.  1.
         23    2    1    2    0    0  0.36528215854E+04  0.98625426897E+02  0.11143880163E+04  0.38213912834E+04  0.91313636900E+02 0.  0.
         11    1    3    3    0    0  0.22991416133E+04  0.17973811186E+02  0.70246294038E+03  0.24041275753E+04  0.00000000000E+00 0.  1.
        -11    1    3    3    0    0  0.13536799721E+04  0.80651615711E+02  0.41192507593E+03  0.14172637080E+04  0.00000000000E+00 0. -1.
         22    1    1    2    0    0 -0.36528215854E+04 -0.98625426897E+02 -0.24131458265E+04  0.43790530128E+04  0.00000000000E+00 0. -1.
<mgrwt>
<rscale>  0 0.80969448E+04</rscale>
<asrwt>0</asrwt>
<pdfrwt beam="1">  1        1 0.53089896E+00 0.80969448E+04</pdfrwt>
<pdfrwt beam="2">  1       -1 0.73070785E+00 0.80969448E+04</pdfrwt>
<totfact> 0.24681898E-05</totfact>
</mgrwt>
</event>
<event>
 6    1  0.9988873E-007  0.5168619E+04  0.7818608E-02  0.7803010E-01
          1   -1    0    0  501    0  0.00000000000E+00  0.00000000000E+00  0.15083028059E+04  0.15083028059E+04  0.00000000000E+00 0. -1.
         -1   -1    0    0    0  501 -0.00000000000E+00 -0.00000000000E+00 -0.44279273941E+04  0.44279273941E+04  0.00000000000E+00 0.  1.
         23    2    1    2    0    0 -0.21834808347E+04  0.33742083926E+03  0.77840884649E+02  0.22124900588E+04  0.87244935210E+02 0.  0.
         11    1    3    3    0    0 -0.12202451041E+04  0.23150103077E+03  0.52314081026E+02  0.12431120643E+04  0.00000000000E+00 0.  1.
        -11    1    3    3    0    0 -0.96323573053E+03  0.10591980849E+03  0.25526803623E+02  0.96937799444E+03  0.00000000000E+00 0. -1.
         22    1    1    2    0    0  0.21834808347E+04 -0.33742083926E+03 -0.29974654729E+04  0.37237401412E+04  0.00000000000E+00 0.  1.
<mgrwt>
<rscale>  0 0.51686189E+04</rscale>
<asrwt>0</asrwt>
<pdfrwt beam="1">  1        1 0.23204659E+00 0.51686189E+04</pdfrwt>
<pdfrwt beam="2">  1       -1 0.68121959E+00 0.51686189E+04</pdfrwt>
<totfact> 0.10778080E-03</totfact>
</mgrwt>
</event>
<event>
 6    1  0.9988873E-007  0.2144360E+04  0.7818608E-02  0.8541950E-01
          2   -1    0    0  501    0  0.00000000000E+00  0.00000000000E+00  0.25177433734E+04  0.25177433734E+04  0.00000000000E+00 0. -1.
         -2   -1    0    0    0  501 -0.00000000000E+00 -0.00000000000E+00 -0.45658735420E+03  0.45658735420E+03  0.00000000000E+00 0.  1.
         23    2    1    2    0    0  0.23236805425E+03  0.95942911269E+03  0.16058706040E+04  0.18872318618E+04  0.91239071452E+02 0.  0.
         13    1    3    3    0    0  0.94845509285E+02  0.41227701149E+03  0.77457432386E+03  0.88257202993E+03  0.00000000000E+00 0. -1.
        -13    1    3    3    0    0  0.13752254496E+03  0.54715210120E+03  0.83129628018E+03  0.10046598318E+04  0.00000000000E+00 0.  1.
         22    1    1    2    0    0 -0.23236805425E+03 -0.95942911269E+03  0.45528541518E+03  0.10870988659E+04  0.00000000000E+00 0. -1.
<mgrwt>
<rscale>  0 0.21443598E+04</rscale>
<asrwt>0</asrwt>
<pdfrwt beam="1">  1        2 0.38734513E+00 0.21443598E+04</pdfrwt>
<pdfrwt beam="2">  1       -2 0.70244210E-01 0.21443598E+04</pdfrwt>
<totfact> 0.57599080E+00</totfact>
</mgrwt>
</event>
<event>
 6    1  0.9988873E-007  0.1020422E+04  0.7818608E-02  0.9286425E-01
          2   -1    0    0  501    0  0.00000000000E+00  0.00000000000E+00  0.28823468913E+03  0.28823468913E+03  0.00000000000E+00 0. -1.
         -2   -1    0    0    0  501 -0.00000000000E+00 -0.00000000000E+00 -0.90313689852E+03  0.90313689852E+03  0.00000000000E+00 0.  1.
         23    2    1    2    0    0  0.43019775833E+03  0.21248048945E+03 -0.12251087164E+03  0.50386355194E+03  0.93013416443E+02 0.  0.
         13    1    3    3    0    0  0.15486845134E+03  0.12059747406E+03 -0.26093661630E+02  0.19801229039E+03  0.00000000000E+00 0. -1.
        -13    1    3    3    0    0  0.27532930699E+03  0.91883015388E+02 -0.96417210013E+02  0.30585126155E+03  0.00000000000E+00 0.  1.
         22    1    1    2    0    0 -0.43019775833E+03 -0.21248048945E+03 -0.49239133775E+03  0.68750803571E+03  0.00000000000E+00 0.  1.
<mgrwt>
<rscale>  0 0.10204222E+04</rscale>
<asrwt>0</asrwt>
<pdfrwt beam="1">  1        2 0.44343799E-01 0.10204222E+04</pdfrwt>
<pdfrwt beam="2">  1       -2 0.13894414E+00 0.10204222E+04</pdfrwt>
<totfact> 0.41902511E+01</totfact>
</mgrwt>
</event>
<event>
 6    1  0.9988873E-007  0.1435087E+04  0.7818608E-02  0.8928805E-01
         -2   -1    0    0    0  501 -0.00000000000E+00  0.00000000000E+00  0.14292139106E+03  0.14292139106E+03  0.00000000000E+00 0.  1.
          2   -1    0    0  501    0  0.00000000000E+00 -0.00000000000E+00 -0.36024628411E+04  0.36024628411E+04  0.00000000000E+00 0. -1.
         23    2    1    2    0    0  0.58420608283E+03 -0.10948811049E+02 -0.28106219702E+04  0.28721642627E+04  0.91187000517E+02 0.  0.
         11    1    3    3    0    0  0.40539467753E+03  0.33778008311E+02 -0.19733105659E+04  0.20148052978E+04  0.00000000000E+00 0. -1.
        -11    1    3    3    0    0  0.17881140530E+03 -0.44726819360E+02 -0.83731140428E+03  0.85735896495E+03  0.00000000000E+00 0.  1.
         22    1    1    2    0    0 -0.58420608283E+03  0.10948811049E+02 -0.64891947985E+03  0.87321996943E+03  0.00000000000E+00 0.  1.
<mgrwt>
<rscale>  0 0.14350875E+04</rscale>
<asrwt>0</asrwt>
<pdfrwt beam="1">  1        2 0.55422496E+00 0.14350875E+04</pdfrwt>
<pdfrwt beam="2">  1       -2 0.21987910E-01 0.14350875E+04</pdfrwt>
<totfact> 0.12283683E+01</totfact>
</mgrwt>
</event>
<event>
 6    1  0.9988873E-007  0.1919534E+04  0.7818608E-02  0.8645194E-01
         -2   -1    0    0    0  501 -0.00000000000E+00  0.00000000000E+00  0.98581772839E+03  0.98581772839E+03  0.00000000000E+00 0.  1.
          2   -1    0    0  501    0  0.00000000000E+00 -0.00000000000E+00 -0.93440502315E+03  0.93440502315E+03  0.00000000000E+00 0. -1.
         23    2    1    2    0    0  0.67030917501E+02 -0.60194767354E+03  0.76779426215E+03  0.98212004893E+03  0.90651067019E+02 0.  0.
         11    1    3    3    0    0  0.86845421721E+02 -0.40659280503E+03  0.53555721228E+03  0.67799805604E+03  0.00000000000E+00 0.  1.
        -11    1    3    3    0    0 -0.19814504220E+02 -0.19535486850E+03  0.23223704987E+03  0.30412199289E+03  0.00000000000E+00 0. -1.
         22    1    1    2    0    0 -0.67030917501E+02  0.60194767354E+03 -0.71638155690E+03  0.93810270261E+03  0.00000000000E+00 0. -1.
<mgrwt>
<rscale>  0 0.19195344E+04</rscale>
<asrwt>0</asrwt>
<pdfrwt beam="1">  1        2 0.14375462E+00 0.19195344E+04</pdfrwt>
<pdfrwt beam="2">  1       -2 0.15166427E+00 0.19195344E+04</pdfrwt>
<totfact> 0.75630215E+00</totfact>
</mgrwt>
</event>
<event>
 6    1  0.9988873E-007  0.3767589E+04  0.7818608E-02  0.8053146E-01
          2   -1    0    0  501    0  0.00000000000E+00  0.00000000000E+00  0.43771229150E+04  0.43771229150E+04  0.00000000000E+00 0. -1.
         -2   -1    0    0    0  501 -0.00000000000E+00 -0.00000000000E+00 -0.81073379861E+03  0.81073379861E+03  0.00000000000E+00 0.  1.
         23    2    1    2    0    0  0.47794246813E+03 -0.56698485991E+03  0.41670889365E+04  0.42335291451E+04  0.90763334976E+02 0.  0.
         11    1    3    3    0    0  0.84772462754E+02 -0.11203754666E+03  0.60952456039E+03  0.62550697200E+03  0.00000000000E+00 0. -1.
        -11    1    3    3    0    0  0.39317000538E+03 -0.45494731325E+03  0.35575643761E+04  0.36080221731E+04  0.00000000000E+00 0.  1.
         22    1    1    2    0    0 -0.47794246813E+03  0.56698485991E+03 -0.60069982012E+03  0.95432756856E+03  0.00000000000E+00 0.  1.
<mgrwt>
<rscale>  0 0.37675889E+04</rscale>
<asrwt>0</asrwt>
<pdfrwt beam="1">  1        2 0.67340351E+00 0.37675889E+04</pdfrwt>
<pdfrwt beam="2">  1       -2 0.12472828E+00 0.37675889E+04</pdfrwt>
<totfact> 0.62152828E-02</totfact>
</mgrwt>
</event>
<event>
 6    1  0.9988873E-007  0.2416502E+04  0.7818608E-02  0.8433351E-01
         -2   -1    0    0    0  501 -0.00000000000E+00  0.00000000000E+00  0.15307030540E+04  0.15307030540E+04  0.00000000000E+00 0.  1.
          2   -1    0    0  501    0  0.00000000000E+00 -0.00000000000E+00 -0.95372562657E+03  0.95372562657E+03  0.00000000000E+00 0. -1.
         23    2    1    2    0    0 -0.68858593915E+03 -0.93524729988E+03  0.62596954539E+03  0.13220009043E+04  0.83728200725E+02 0.  0.
         13    1    3    3    0    0 -0.56578179282E+03 -0.81499537271E+03  0.52108067345E+03  0.11206478318E+04  0.00000000000E+00 0. -1.
        -13    1    3    3    0    0 -0.12280414633E+03 -0.12025192718E+03  0.10488887194E+03  0.20135307249E+03  0.00000000000E+00 0.  1.
         22    1    1    2    0    0  0.68858593915E+03  0.93524729988E+03 -0.48992117934E+02  0.11624277763E+04  0.00000000000E+00 0. -1.
<mgrwt>
<rscale>  0 0.24165022E+04</rscale>
<asrwt>0</asrwt>
<pdfrwt beam="1">  1        2 0.14672702E+00 0.24165022E+04</pdfrwt>
<pdfrwt beam="2">  1       -2 0.23549278E+00 0.24165022E+04</pdfrwt>
<totfact> 0.19150495E+00</totfact>
</mgrwt>
</event>
<event>
 6    1  0.9988873E-007  0.3828360E+04  0.7818608E-02  0.8040096E-01
          2   -1    0    0  501    0  0.00000000000E+00  0.00000000000E+00  0.23355317875E+04  0.23355317875E+04  0.00000000000E+00 0. -1.
         -2   -1    0    0    0  501 -0.00000000000E+00 -0.00000000000E+00 -0.15688437401E+04  0.15688437401E+04  0.00000000000E+00 0.  1.
         23    2    1    2    0    0  0.12968580787E+04  0.55397428759E+03  0.17020201358E+04  0.22121655811E+04  0.89864496722E+02 0.  0.
         11    1    3    3    0    0  0.55058957200E+03  0.25283980436E+03  0.66661416457E+03  0.90080591021E+03  0.00000000000E+00 0. -1.
        -11    1    3    3    0    0  0.74626850673E+03  0.30113448323E+03  0.10354059712E+04  0.13113596709E+04  0.00000000000E+00 0.  1.
         22    1    1    2    0    0 -0.12968580787E+04 -0.55397428759E+03 -0.93533208837E+03  0.16922099465E+04  0.00000000000E+00 0.  1.
<mgrwt>
<rscale>  0 0.38283597E+04</rscale>
<asrwt>0</asrwt>
<pdfrwt beam="1">  1        2 0.35931258E+00 0.38283597E+04</pdfrwt>
<pdfrwt beam="2">  1       -2 0.24136058E+00 0.38283597E+04</pdfrwt>
<totfact> 0.25151960E-01</totfact>
</mgrwt>
</event>
<event>
 6    1  0.9988873E-007  0.1789196E+04  0.7818608E-02  0.8712066E-01
          2   -1    0    0  501    0  0.00000000000E+00  0.00000000000E+00  0.10537065543E+04  0.10537065543E+04  0.00000000000E+00 0. -1.
         -2   -1    0    0    0  501 -0.00000000000E+00 -0.00000000000E+00 -0.75951500104E+03  0.75951500104E+03  0.00000000000E+00 0.  1.
         23    2    1    2    0    0  0.41205210174E+01 -0.82475271337E+03 -0.19775024397E+03  0.85288788999E+03  0.89880904470E+02 0.  0.
         11    1    3    3    0    0  0.36776863941E+02 -0.16341437039E+03 -0.39625479239E+02  0.17212487553E+03  0.00000000000E+00 0. -1.
        -11    1    3    3    0    0 -0.32656342923E+02 -0.66133834299E+03 -0.15812476473E+03  0.68076301446E+03  0.00000000000E+00 0.  1.
         22    1    1    2    0    0 -0.41205210174E+01  0.82475271337E+03  0.49194179720E+03  0.96033366531E+03  0.00000000000E+00 0. -1.
<mgrwt>
<rscale>  0 0.17891964E+04</rscale>
<asrwt>0</asrwt>
<pdfrwt beam="1">  1        2 0.16210870E+00 0.17891964E+04</pdfrwt>
<pdfrwt beam="2">  1       -2 0.11684846E+00 0.17891964E+04</pdfrwt>
<totfact> 0.12476896E+01</totfact>
</mgrwt>
</event>
<event>
 6    1  0.9988873E-007  0.3196228E+04  0.7818608E-02  0.8189814E-01
         -2   -1    0    0    0  501 -0.00000000000E+00  0.00000000000E+00  0.95137214633E+03  0.95137214633E+03  0.00000000000E+00 0.  1.
          2   -1    0    0  501    0  0.00000000000E+00 -0.00000000000E+00 -0.26845101501E+04  0.26845101501E+04  0.00000000000E+00 0. -1.
         23    2    1    2    0    0  0.12560654957E+04  0.76676799714E+02  0.25069034829E+03  0.12865941507E+04  0.94334494307E+02 0.  0.
         13    1    3    3    0    0  0.92528972846E+03  0.78208882429E+02  0.22071488528E+03  0.95445941321E+03  0.00000000000E+00 0. -1.
        -13    1    3    3    0    0  0.33077576725E+03 -0.15320827148E+01  0.29975463006E+02  0.33213473751E+03  0.00000000000E+00 0.  1.
         22    1    1    2    0    0 -0.12560654957E+04 -0.76676799714E+02 -0.19838283521E+04  0.23492881457E+04  0.00000000000E+00 0. -1.
<mgrwt>
<rscale>  0 0.31962279E+04</rscale>
<asrwt>0</asrwt>
<pdfrwt beam="1">  1        2 0.41300156E+00 0.31962279E+04</pdfrwt>
<pdfrwt beam="2">  1       -2 0.14636495E+00 0.31962279E+04</pdfrwt>
<totfact> 0.73018391E-01</totfact>
</mgrwt>
</event>
<event>
 6    1  0.9988873E-007  0.2438066E+04  0.7818608E-02  0.8425388E-01
          2   -1    0    0  501    0  0.00000000000E+00  0.00000000000E+00  0.22361209924E+04  0.22361209924E+04  0.00000000000E+00 0. -1.
         -2   -1    0    0    0  501 -0.00000000000E+00 -0.00000000000E+00 -0.66456202281E+03  0.66456202281E+03  0.00000000000E+00 0.  1.
         23    2    1    2    0    0  0.11101219700E+04  0.45893283829E+03  0.55218700545E+03  0.13252118668E+04  0.91026724583E+02 0.  0.
         13    1    3    3    0    0  0.93918326586E+03  0.39115713803E+03  0.43054574802E+03  0.11047346988E+04  0.00000000000E+00 0. -1.
        -13    1    3    3    0    0  0.17093870410E+03  0.67775700263E+02  0.12164125742E+03  0.22047716801E+03  0.00000000000E+00 0.  1.
         22    1    1    2    0    0 -0.11101219700E+04 -0.45893283829E+03  0.10193719641E+04  0.15754711484E+04  0.00000000000E+00 0. -1.
<mgrwt>
<rscale>  0 0.24380657E+04</rscale>
<asrwt>0</asrwt>
<pdfrwt beam="1">  1        2 0.34401861E+00 0.24380657E+04</pdfrwt>
<pdfrwt beam="2">  1       -2 0.10224031E+00 0.24380657E+04</pdfrwt>
<totfact> 0.34603304E+00</totfact>
</mgrwt>
</event>
<event>
 6    1  0.9988873E-007  0.1301470E+04  0.7818608E-02  0.9028401E-01
         -1   -1    0    0    0  501 -0.00000000000E+00  0.00000000000E+00  0.24303283896E+03  0.24303283896E+03  0.00000000000E+00 0.  1.
          1   -1    0    0  501    0  0.00000000000E+00 -0.00000000000E+00 -0.17423807428E+04  0.17423807428E+04  0.00000000000E+00 0. -1.
         23    2    1    2    0    0 -0.17193480356E+03 -0.40755122067E+02 -0.17038354172E+04  0.17151587025E+04  0.86554543843E+02 0.  0.
         11    1    3    3    0    0 -0.10806242871E+03 -0.12357871594E+02 -0.13568551458E+04  0.13612075860E+04  0.00000000000E+00 0.  1.
        -11    1    3    3    0    0 -0.63872374850E+02 -0.28397250473E+02 -0.34698027141E+03  0.35395111647E+03  0.00000000000E+00 0. -1.
         22    1    1    2    0    0  0.17193480356E+03  0.40755122067E+02  0.20448751337E+03  0.27025487928E+03  0.00000000000E+00 0.  1.
<mgrwt>
<rscale>  0 0.13014695E+04</rscale>
<asrwt>0</asrwt>
<pdfrwt beam="1">  1        1 0.26805858E+00 0.13014695E+04</pdfrwt>
<pdfrwt beam="2">  1       -1 0.37389667E-01 0.13014695E+04</pdfrwt>
<totfact> 0.30184234E+01</totfact>
</mgrwt>
</event>
<event>
 6    1  0.9988873E-007  0.2478383E+04  0.7818608E-02  0.8410727E-01
          2   -1    0    0  501    0  0.00000000000E+00  0.00000000000E+00  0.13651130069E+04  0.13651130069E+04  0.00000000000E+00 0. -1.
         -2   -1    0    0    0  501 -0.00000000000E+00 -0.00000000000E+00 -0.11248855426E+04  0.11248855426E+04  0.00000000000E+00 0.  1.
         23    2    1    2    0    0  0.59267788040E+03 -0.73276286477E+03 -0.68529361220E+03  0.11690906236E+04  0.94536053154E+02 0.  0.
         11    1    3    3    0    0  0.47249055596E+03 -0.58209374536E+03 -0.49597378148E+03  0.89892738626E+03  0.00000000000E+00 0. -1.
        -11    1    3    3    0    0  0.12018732445E+03 -0.15066911941E+03 -0.18931983072E+03  0.27016323733E+03  0.00000000000E+00 0.  1.
         22    1    1    2    0    0 -0.59267788040E+03  0.73276286477E+03  0.92552107648E+03  0.13209079260E+04  0.00000000000E+00 0. -1.
<mgrwt>
<rscale>  0 0.24783833E+04</rscale>
<asrwt>0</asrwt>
<pdfrwt beam="1">  1        2 0.21001739E+00 0.24783833E+04</pdfrwt>
<pdfrwt beam="2">  1       -2 0.17305931E+00 0.24783833E+04</pdfrwt>
<totfact> 0.27456627E+00</totfact>
</mgrwt>
</event>
<event>
 6    1  0.9988873E-007  0.3613985E+03  0.7818608E-02  0.1058031E+00
         -2   -1    0    0    0  501 -0.00000000000E+00  0.00000000000E+00  0.49528719845E+02  0.49528719845E+02  0.00000000000E+00 0.  1.
          2   -1    0    0  501    0  0.00000000000E+00 -0.00000000000E+00 -0.65925832685E+03  0.65925832685E+03  0.00000000000E+00 0. -1.
         23    2    1    2    0    0 -0.15989263049E+03 -0.46626558501E+02 -0.38167407718E+03  0.42638836765E+03  0.91609222426E+02 0.  0.
         11    1    3    3    0    0 -0.13820334124E+03 -0.42176439868E+02 -0.37702303655E+03  0.40376402229E+03  0.00000000000E+00 0. -1.
        -11    1    3    3    0    0 -0.21689289249E+02 -0.44501186337E+01 -0.46510406345E+01  0.22624345360E+02  0.00000000000E+00 0.  1.
         22    1    1    2    0    0  0.15989263049E+03  0.46626558501E+02 -0.22805552982E+03  0.28239867904E+03  0.00000000000E+00 0.  1.
<mgrwt>
<rscale>  0 0.36139851E+03</rscale>
<asrwt>0</asrwt>
<pdfrwt beam="1">  1        2 0.10142436E+00 0.36139851E+03</pdfrwt>
<pdfrwt beam="2">  1       -2 0.76198032E-02 0.36139851E+03</pdfrwt>
<totfact> 0.46255945E+03</totfact>
</mgrwt>
</event>
<event>
 6    1  0.9988873E-007  0.4422674E+04  0.7818608E-02  0.7924316E-01
          1   -1    0    0  501    0  0.00000000000E+00  0.00000000000E+00  0.18487124835E+04  0.18487124835E+04  0.00000000000E+00 0. -1.
         -1   -1    0    0    0  501 -0.00000000000E+00 -0.00000000000E+00 -0.26450907047E+04  0.26450907047E+04  0.00000000000E+00 0.  1.
         23    2    1    2    0    0 -0.14409844283E+03  0.14567419977E+04 -0.20811092195E+04  0.25461391138E+04  0.94589609520E+02 0.  0.
         11    1    3    3    0    0 -0.10031597838E+03  0.13082716814E+04 -0.18605246488E+04  0.22766620427E+04  0.00000000000E+00 0.  1.
        -11    1    3    3    0    0 -0.43782464455E+02  0.14847031621E+03 -0.22058457069E+03  0.26947707104E+03  0.00000000000E+00 0. -1.
         22    1    1    2    0    0  0.14409844283E+03 -0.14567419977E+04  0.12847309983E+04  0.19476640745E+04  0.00000000000E+00 0. -1.
<mgrwt>
<rscale>  0 0.44226744E+04</rscale>
<asrwt>0</asrwt>
<pdfrwt beam="1">  1        1 0.28441731E+00 0.44226744E+04</pdfrwt>
<pdfrwt beam="2">  1       -1 0.40693703E+00 0.44226744E+04</pdfrwt>
<totfact> 0.18300395E-02</totfact>
</mgrwt>
</event>
<event>
 6    1  0.9988873E-007  0.2748093E+04  0.7818608E-02  0.8319567E-01
         -2   -1    0    0    0  501 -0.00000000000E+00  0.00000000000E+00  0.19613197242E+04  0.19613197242E+04  0.00000000000E+00 0.  1.
          2   -1    0    0  501    0  0.00000000000E+00 -0.00000000000E+00 -0.96261917057E+03  0.96261917057E+03  0.00000000000E+00 0. -1.
         23    2    1    2    0    0  0.62871989412E+02 -0.54681186993E+03 -0.83836269370E+03  0.10061908710E+04  0.81313925379E+02 0.  0.
         11    1    3    3    0    0 -0.19653865748E+02 -0.12141350188E+03 -0.17901314436E+03  0.21719396569E+03  0.00000000000E+00 0. -1.
        -11    1    3    3    0    0  0.82525855161E+02 -0.42539836805E+03 -0.65934954933E+03  0.78899690526E+03  0.00000000000E+00 0.  1.
         22    1    1    2    0    0 -0.62871989412E+02  0.54681186993E+03  0.18370632473E+04  0.19177480238E+04  0.00000000000E+00 0.  1.
<mgrwt>
<rscale>  0 0.27480931E+04</rscale>
<asrwt>0</asrwt>
<pdfrwt beam="1">  1        2 0.14809526E+00 0.27480931E+04</pdfrwt>
<pdfrwt beam="2">  1       -2 0.30174150E+00 0.27480931E+04</pdfrwt>
<totfact> 0.72186703E-01</totfact>
</mgrwt>
</event>
<event>
 6    1  0.9988873E-007  0.2275628E+04  0.7818608E-02  0.8487593E-01
         -2   -1    0    0    0  501 -0.00000000000E+00  0.00000000000E+00  0.72843198192E+03  0.72843198192E+03  0.00000000000E+00 0.  1.
          2   -1    0    0  501    0  0.00000000000E+00 -0.00000000000E+00 -0.17772701273E+04  0.17772701273E+04  0.00000000000E+00 0. -1.
         23    2    1    2    0    0  0.92330127605E+03 -0.23797815877E+03 -0.12052166604E+04  0.15394862480E+04  0.91388505288E+02 0.  0.
         11    1    3    3    0    0  0.47261184161E+03 -0.12317468081E+03 -0.54382223439E+03  0.73094225315E+03  0.00000000000E+00 0. -1.
        -11    1    3    3    0    0  0.45068943444E+03 -0.11480347796E+03 -0.66139442601E+03  0.80854399486E+03  0.00000000000E+00 0.  1.
         22    1    1    2    0    0 -0.92330127605E+03  0.23797815877E+03  0.15637851507E+03  0.96621586117E+03  0.00000000000E+00 0.  1.
<mgrwt>
<rscale>  0 0.22756277E+04</rscale>
<asrwt>0</asrwt>
<pdfrwt beam="1">  1        2 0.27342617E+00 0.22756277E+04</pdfrwt>
<pdfrwt beam="2">  1       -2 0.11206646E+00 0.22756277E+04</pdfrwt>
<totfact> 0.50679854E+00</totfact>
</mgrwt>
</event>
<event>
 6    1  0.9988873E-007  0.1448065E+04  0.7818608E-02  0.8919743E-01
         -1   -1    0    0    0  501 -0.00000000000E+00  0.00000000000E+00  0.37614760048E+03  0.37614760048E+03  0.00000000000E+00 0.  1.
          1   -1    0    0  501    0  0.00000000000E+00 -0.00000000000E+00 -0.13936632344E+04  0.13936632344E+04  0.00000000000E+00 0. -1.
         23    2    1    2    0    0 -0.26758555783E+03  0.57140957965E+03 -0.85848482834E+02  0.64459324752E+03  0.10009772358E+03 0.  0.
         11    1    3    3    0    0 -0.87087760029E+02  0.11098177211E+03  0.76915832326E+01  0.14128125191E+03  0.00000000000E+00 0.  1.
        -11    1    3    3    0    0 -0.18049779780E+03  0.46042780754E+03 -0.93540066067E+02  0.50331199562E+03  0.00000000000E+00 0. -1.
         22    1    1    2    0    0  0.26758555783E+03 -0.57140957965E+03 -0.93166715104E+03  0.11252175873E+04  0.00000000000E+00 0. -1.
<mgrwt>
<rscale>  0 0.14480650E+04</rscale>
<asrwt>0</asrwt>
<pdfrwt beam="1">  1        1 0.21440973E+00 0.14480650E+04</pdfrwt>
<pdfrwt beam="2">  1       -1 0.57868862E-01 0.14480650E+04</pdfrwt>
<totfact> 0.22806915E+01</totfact>
</mgrwt>
</event>
<event>
 6    1  0.9988873E-007  0.4002682E+04  0.7818608E-02  0.8004006E-01
          2   -1    0    0  501    0  0.00000000000E+00  0.00000000000E+00  0.22953590096E+04  0.22953590096E+04  0.00000000000E+00 0. -1.
         -2   -1    0    0    0  501 -0.00000000000E+00 -0.00000000000E+00 -0.17449840963E+04  0.17449840963E+04  0.00000000000E+00 0.  1.
         23    2    1    2    0    0 -0.19597668243E+04  0.42586470306E+02  0.67741515333E+03  0.20760012732E+04  0.91599036216E+02 0.  0.
         13    1    3    3    0    0 -0.83116176888E+03  0.29445698633E+02  0.33385272397E+03  0.89618891787E+03  0.00000000000E+00 0. -1.
        -13    1    3    3    0    0 -0.11286050554E+04  0.13140771674E+02  0.34356242936E+03  0.11798123553E+04  0.00000000000E+00 0.  1.
         22    1    1    2    0    0  0.19597668243E+04 -0.42586470306E+02 -0.12704023997E+03  0.19643418327E+04  0.00000000000E+00 0. -1.
<mgrwt>
<rscale>  0 0.40026816E+04</rscale>
<asrwt>0</asrwt>
<pdfrwt beam="1">  1        2 0.35313216E+00 0.40026816E+04</pdfrwt>
<pdfrwt beam="2">  1       -2 0.26845909E+00 0.40026816E+04</pdfrwt>
<totfact> 0.17819067E-01</totfact>
</mgrwt>
</event>
<event>
 6    1  0.9988873E-007  0.1110484E+04  0.7818608E-02  0.9195033E-01
         -2   -1    0    0    0  501 -0.00000000000E+00  0.00000000000E+00  0.32999302583E+03  0.32999302583E+03  0.00000000000E+00 0.  1.
          2   -1    0    0  501    0  0.00000000000E+00 -0.00000000000E+00 -0.93424382668E+03  0.93424382668E+03  0.00000000000E+00 0. -1.
         23    2    1    2    0    0 -0.49573774066E+03  0.14546399427E+02 -0.29142309438E+02  0.50481780999E+03  0.89578132565E+02 0.  0.
         11    1    3    3    0    0 -0.24090823886E+03  0.20145509464E+02  0.28698211374E+02  0.24344652069E+03  0.00000000000E+00 0.  1.
        -11    1    3    3    0    0 -0.25482950181E+03 -0.55991100378E+01 -0.57840520812E+02  0.26137128930E+03  0.00000000000E+00 0. -1.
         22    1    1    2    0    0  0.49573774066E+03 -0.14546399427E+02 -0.57510849141E+03  0.75941904252E+03  0.00000000000E+00 0. -1.
<mgrwt>
<rscale>  0 0.11104845E+04</rscale>
<asrwt>0</asrwt>
<pdfrwt beam="1">  1        2 0.14372982E+00 0.11104845E+04</pdfrwt>
<pdfrwt beam="2">  1       -2 0.50768158E-01 0.11104845E+04</pdfrwt>
<totfact> 0.10120585E+02</totfact>
</mgrwt>
</event>
<event>
 6    1  0.9988873E-007  0.4155786E+04  0.7818608E-02  0.7973836E-01
         -1   -1    0    0    0  501 -0.00000000000E+00  0.00000000000E+00  0.13492750050E+04  0.13492750050E+04  0.00000000000E+00 0.  1.
          1   -1    0    0  501    0  0.00000000000E+00 -0.00000000000E+00 -0.31999695154E+04  0.31999695154E+04  0.00000000000E+00 0. -1.
         23    2    1    2    0    0  0.13029650063E+04 -0.13483191438E+04  0.51968752750E+02  0.18779508611E+04  0.91194101735E+02 0.  0.
         13    1    3    3    0    0  0.10209453237E+04 -0.10748126021E+04  0.75938534606E+02  0.14843578223E+04  0.00000000000E+00 0. -1.
        -13    1    3    3    0    0  0.28201968254E+03 -0.27350654169E+03 -0.23969781857E+02  0.39359303873E+03  0.00000000000E+00 0.  1.
         22    1    1    2    0    0 -0.13029650063E+04  0.13483191438E+04 -0.19026632632E+04  0.26712936593E+04  0.00000000000E+00 0. -1.
<mgrwt>
<rscale>  0 0.41557858E+04</rscale>
<asrwt>0</asrwt>
<pdfrwt beam="1">  1        1 0.49230300E+00 0.41557858E+04</pdfrwt>
<pdfrwt beam="2">  1       -1 0.20758077E+00 0.41557858E+04</pdfrwt>
<totfact> 0.43828159E-02</totfact>
</mgrwt>
</event>
<event>
 6    1  0.9988873E-007  0.2260312E+04  0.7818608E-02  0.8493736E-01
          2   -1    0    0  501    0  0.00000000000E+00  0.00000000000E+00  0.19953123538E+04  0.19953123538E+04  0.00000000000E+00 0. -1.
         -2   -1    0    0    0  501 -0.00000000000E+00 -0.00000000000E+00 -0.64012658024E+03  0.64012658024E+03  0.00000000000E+00 0.  1.
         23    2    1    2    0    0 -0.43889910018E+03  0.27087360559E+03 -0.49091420252E+03  0.71864733034E+03  0.97222943907E+02 0.  0.
         11    1    3    3    0    0 -0.13056687867E+03  0.12844841059E+03 -0.20280770913E+03  0.27327215532E+03  0.00000000000E+00 0. -1.
        -11    1    3    3    0    0 -0.30833222151E+03  0.14242519500E+03 -0.28810649339E+03  0.44537517502E+03  0.00000000000E+00 0.  1.
         22    1    1    2    0    0  0.43889910018E+03 -0.27087360559E+03  0.18460999760E+04  0.19167916037E+04  0.00000000000E+00 0. -1.
<mgrwt>
<rscale>  0 0.22603119E+04</rscale>
<asrwt>0</asrwt>
<pdfrwt beam="1">  1        2 0.30697113E+00 0.22603119E+04</pdfrwt>
<pdfrwt beam="2">  1       -2 0.98481013E-01 0.22603119E+04</pdfrwt>
<totfact> 0.52355807E+00</totfact>
</mgrwt>
</event>
<event>
 6    1  0.9988873E-007  0.1154736E+04  0.7818608E-02  0.9153426E-01
          2   -1    0    0  501    0  0.00000000000E+00  0.00000000000E+00  0.15803088577E+04  0.15803088577E+04  0.00000000000E+00 0. -1.
         -2   -1    0    0    0  501 -0.00000000000E+00 -0.00000000000E+00 -0.21094215734E+03  0.21094215734E+03  0.00000000000E+00 0.  1.
         23    2    1    2    0    0 -0.37825260600E+03 -0.13401546351E+03  0.13249299664E+04  0.13875062916E+04  0.93269045520E+02 0.  0.
         13    1    3    3    0    0 -0.22666507047E+03 -0.40335805560E+02  0.65507644454E+03  0.69435522579E+03  0.00000000000E+00 0. -1.
        -13    1    3    3    0    0 -0.15158753553E+03 -0.93679657946E+02  0.66985352187E+03  0.69315106578E+03  0.00000000000E+00 0.  1.
         22    1    1    2    0    0  0.37825260600E+03  0.13401546351E+03  0.44436733946E+02  0.40374472347E+03  0.00000000000E+00 0.  1.
<mgrwt>
<rscale>  0 0.11547359E+04</rscale>
<asrwt>0</asrwt>
<pdfrwt beam="1">  1        2 0.24312443E+00 0.11547359E+04</pdfrwt>
<pdfrwt beam="2">  1       -2 0.32452641E-01 0.11547359E+04</pdfrwt>
<totfact> 0.10008482E+02</totfact>
</mgrwt>
</event>
<event>
 6    1  0.9988873E-007  0.4336080E+04  0.7818608E-02  0.7939980E-01
         -2   -1    0    0    0  501 -0.00000000000E+00  0.00000000000E+00  0.17356422100E+04  0.17356422100E+04  0.00000000000E+00 0.  1.
          2   -1    0    0  501    0  0.00000000000E+00 -0.00000000000E+00 -0.27081598090E+04  0.27081598090E+04  0.00000000000E+00 0. -1.
         23    2    1    2    0    0 -0.71878040348E+03  0.66547356746E+03  0.14946200188E+04  0.17893212105E+04  0.91000310222E+02 0.  0.
         11    1    3    3    0    0 -0.18487033946E+03  0.19901230499E+03  0.35203341877E+03  0.44464645268E+03  0.00000000000E+00 0. -1.
        -11    1    3    3    0    0 -0.53391006401E+03  0.46646126247E+03  0.11425866000E+04  0.13446747579E+04  0.00000000000E+00 0.  1.
         22    1    1    2    0    0  0.71878040348E+03 -0.66547356746E+03 -0.24671376178E+04  0.26544808084E+04  0.00000000000E+00 0. -1.
<mgrwt>
<rscale>  0 0.43360796E+04</rscale>
<asrwt>0</asrwt>
<pdfrwt beam="1">  1        2 0.41663997E+00 0.43360796E+04</pdfrwt>
<pdfrwt beam="2">  1       -2 0.26702188E+00 0.43360796E+04</pdfrwt>
<totfact> 0.10188562E-01</totfact>
</mgrwt>
</event>
<event>
 6    1  0.9988873E-007  0.3728439E+04  0.7818608E-02  0.8061688E-01
          1   -1    0    0  501    0  0.00000000000E+00  0.00000000000E+00  0.22709151507E+04  0.22709151507E+04  0.00000000000E+00 0. -1.
         -1   -1    0    0    0  501 -0.00000000000E+00 -0.00000000000E+00 -0.15303587039E+04  0.15303587039E+04  0.00000000000E+00 0.  1.
         23    2    1    2    0    0 -0.45062761460E+03  0.16878282585E+04  0.10307178081E+04  0.20303918447E+04  0.91007503539E+02 0.  0.
         13    1    3    3    0    0 -0.74304254678E+02  0.25800590753E+03  0.19700239853E+03  0.33301368682E+03  0.00000000000E+00 0. -1.
        -13    1    3    3    0    0 -0.37632335992E+03  0.14298223510E+04  0.83371540955E+03  0.16973781579E+04  0.00000000000E+00 0.  1.
         22    1    1    2    0    0  0.45062761460E+03 -0.16878282585E+04 -0.29016136129E+03  0.17708820099E+04  0.00000000000E+00 0.  1.
<mgrwt>
<rscale>  0 0.37284392E+04</rscale>
<asrwt>0</asrwt>
<pdfrwt beam="1">  1        1 0.34937156E+00 0.37284392E+04</pdfrwt>
<pdfrwt beam="2">  1       -1 0.23543980E+00 0.37284392E+04</pdfrwt>
<totfact> 0.13551270E-01</totfact>
</mgrwt>
</event>
<event>
 6    1  0.9988873E-007  0.1824496E+04  0.7818608E-02  0.8693380E-01
         -1   -1    0    0    0  501 -0.00000000000E+00  0.00000000000E+00  0.92748272970E+03  0.92748272970E+03  0.00000000000E+00 0.  1.
          1   -1    0    0  501    0  0.00000000000E+00 -0.00000000000E+00 -0.89726314001E+03  0.89726314001E+03  0.00000000000E+00 0. -1.
         23    2    1    2    0    0  0.24960428885E+03 -0.60794625578E+02  0.88818787406E+03  0.92914112180E+03  0.91799984066E+02 0.  0.
         13    1    3    3    0    0  0.19132741716E+03 -0.82852052317E+02  0.72775474551E+03  0.75703210813E+03  0.00000000000E+00 0. -1.
        -13    1    3    3    0    0  0.58276871688E+02  0.22057426739E+02  0.16043312855E+03  0.17210901366E+03  0.00000000000E+00 0.  1.
         22    1    1    2    0    0 -0.24960428885E+03  0.60794625578E+02 -0.85796828437E+03  0.89560474791E+03  0.00000000000E+00 0. -1.
<mgrwt>
<rscale>  0 0.18244956E+04</rscale>
<asrwt>0</asrwt>
<pdfrwt beam="1">  1        1 0.13804048E+00 0.18244956E+04</pdfrwt>
<pdfrwt beam="2">  1       -1 0.14268965E+00 0.18244956E+04</pdfrwt>
<totfact> 0.68678106E+00</totfact>
</mgrwt>
</event>
<event>
 6    1  0.9988873E-007  0.1865335E+04  0.7818608E-02  0.8672306E-01
         -2   -1    0    0    0  501 -0.00000000000E+00  0.00000000000E+00  0.62639169991E+03  0.62639169991E+03  0.00000000000E+00 0.  1.
          2   -1    0    0  501    0  0.00000000000E+00 -0.00000000000E+00 -0.13886974026E+04  0.13886974026E+04  0.00000000000E+00 0. -1.
         23    2    1    2    0    0 -0.20459614431E+03 -0.74482464339E+03  0.17797467961E+03  0.79822817003E+03  0.94180110302E+02 0.  0.
         13    1    3    3    0    0 -0.67386370391E+02 -0.38460029370E+03  0.59538158670E+02  0.39497227899E+03  0.00000000000E+00 0. -1.
        -13    1    3    3    0    0 -0.13720977392E+03 -0.36022434969E+03  0.11843652094E+03  0.40325589104E+03  0.00000000000E+00 0.  1.
         22    1    1    2    0    0  0.20459614431E+03  0.74482464339E+03 -0.94028038230E+03  0.12168609325E+04  0.00000000000E+00 0. -1.
<mgrwt>
<rscale>  0 0.18653349E+04</rscale>
<asrwt>0</asrwt>
<pdfrwt beam="1">  1        2 0.21364575E+00 0.18653349E+04</pdfrwt>
<pdfrwt beam="2">  1       -2 0.96367954E-01 0.18653349E+04</pdfrwt>
<totfact> 0.12434660E+01</totfact>
</mgrwt>
</event>
<event>
 6    1  0.9988873E-007  0.1437667E+04  0.7818608E-02  0.8926995E-01
         -2   -1    0    0    0  501 -0.00000000000E+00  0.00000000000E+00  0.25918824279E+03  0.25918824279E+03  0.00000000000E+00 0.  1.
          2   -1    0    0  501    0  0.00000000000E+00 -0.00000000000E+00 -0.19936163746E+04  0.19936163746E+04  0.00000000000E+00 0. -1.
         23    2    1    2    0    0 -0.61964254377E+03  0.36013360544E+03 -0.88794081085E+03  0.11436635622E+04  0.76644399765E+02 0.  0.
         13    1    3    3    0    0 -0.52137563745E+03  0.30731461303E+03 -0.79024989977E+03  0.99537416623E+03  0.00000000000E+00 0. -1.
        -13    1    3    3    0    0 -0.98266906323E+02  0.52818992412E+02 -0.97690911076E+02  0.14828939593E+03  0.00000000000E+00 0.  1.
         22    1    1    2    0    0  0.61964254377E+03 -0.36013360544E+03 -0.84648732092E+03  0.11091410552E+04  0.00000000000E+00 0. -1.
<mgrwt>
<rscale>  0 0.14376675E+04</rscale>
<asrwt>0</asrwt>
<pdfrwt beam="1">  1        2 0.30671022E+00 0.14376675E+04</pdfrwt>
<pdfrwt beam="2">  1       -2 0.39875113E-01 0.14376675E+04</pdfrwt>
<totfact> 0.38927033E+01</totfact>
</mgrwt>
</event>
<event>
 6    1  0.9988873E-007  0.3967993E+04  0.7818608E-02  0.8011035E-01
         -2   -1    0    0    0  501 -0.00000000000E+00  0.00000000000E+00  0.14766531272E+04  0.14766531272E+04  0.00000000000E+00 0.  1.
          2   -1    0    0  501    0  0.00000000000E+00 -0.00000000000E+00 -0.26656512213E+04  0.26656512213E+04  0.00000000000E+00 0. -1.
         23    2    1    2    0    0  0.11050851890E+03 -0.75723209261E+03  0.13147096455E+04  0.15242583175E+04  0.96381489353E+02 0.  0.
         11    1    3    3    0    0  0.64495777668E+02 -0.18850762263E+03  0.30010624686E+03  0.36022019450E+03  0.00000000000E+00 0. -1.
        -11    1    3    3    0    0  0.46012741230E+02 -0.56872446998E+03  0.10146033987E+04  0.11640381230E+04  0.00000000000E+00 0.  1.
         22    1    1    2    0    0 -0.11050851890E+03  0.75723209261E+03 -0.25037077397E+04  0.26180460311E+04  0.00000000000E+00 0. -1.
<mgrwt>
<rscale>  0 0.39679931E+04</rscale>
<asrwt>0</asrwt>
<pdfrwt beam="1">  1        2 0.41010018E+00 0.39679931E+04</pdfrwt>
<pdfrwt beam="2">  1       -2 0.22717741E+00 0.39679931E+04</pdfrwt>
<totfact> 0.19602132E-01</totfact>
</mgrwt>
</event>
<event>
 6    1  0.9988873E-007  0.4440591E+04  0.7818608E-02  0.7921121E-01
         -1   -1    0    0    0  501 -0.00000000000E+00  0.00000000000E+00  0.39954031807E+04  0.39954031807E+04  0.00000000000E+00 0.  1.
          1   -1    0    0  501    0  0.00000000000E+00 -0.00000000000E+00 -0.12338461962E+04  0.12338461962E+04  0.00000000000E+00 0. -1.
         23    2    1    2    0    0  0.77957305072E+03  0.15101501820E+04 -0.29958482788E+03  0.17279814767E+04  0.88776128984E+02 0.  0.
         13    1    3    3    0    0  0.70700826551E+02  0.13948947251E+03 -0.17999769678E+01  0.15639424457E+03  0.00000000000E+00 0. -1.
        -13    1    3    3    0    0  0.70887222417E+03  0.13706607095E+04 -0.29778485091E+03  0.15715872321E+04  0.00000000000E+00 0.  1.
         22    1    1    2    0    0 -0.77957305072E+03 -0.15101501820E+04  0.30611418124E+04  0.35012679002E+04  0.00000000000E+00 0.  1.
<mgrwt>
<rscale>  0 0.44405914E+04</rscale>
<asrwt>0</asrwt>
<pdfrwt beam="1">  1        1 0.18982249E+00 0.44405914E+04</pdfrwt>
<pdfrwt beam="2">  1       -1 0.61467741E+00 0.44405914E+04</pdfrwt>
<totfact> 0.29677794E-03</totfact>
</mgrwt>
</event>
<event>
 6    1  0.9988873E-007  0.4119924E+04  0.7818608E-02  0.7980782E-01
          2   -1    0    0  501    0  0.00000000000E+00  0.00000000000E+00  0.18677001455E+04  0.18677001455E+04  0.00000000000E+00 0. -1.
         -2   -1    0    0    0  501 -0.00000000000E+00 -0.00000000000E+00 -0.22720152542E+04  0.22720152542E+04  0.00000000000E+00 0.  1.
         23    2    1    2    0    0 -0.84905751253E+03 -0.88263718886E+03 -0.18653206762E+04  0.22332830420E+04  0.90470182166E+02 0.  0.
         11    1    3    3    0    0 -0.34011698020E+03 -0.41352711454E+03 -0.84437051675E+03  0.99982288643E+03  0.00000000000E+00 0. -1.
        -11    1    3    3    0    0 -0.50894053233E+03 -0.46911007432E+03 -0.10209501594E+04  0.12334601555E+04  0.00000000000E+00 0.  1.
         22    1    1    2    0    0  0.84905751253E+03  0.88263718886E+03  0.14610055675E+04  0.19064323578E+04  0.00000000000E+00 0. -1.
<mgrwt>
<rscale>  0 0.41199239E+04</rscale>
<asrwt>0</asrwt>
<pdfrwt beam="1">  1        2 0.28733849E+00 0.41199239E+04</pdfrwt>
<pdfrwt beam="2">  1       -2 0.34954081E+00 0.41199239E+04</pdfrwt>
<totfact> 0.96817951E-02</totfact>
</mgrwt>
</event>
<event>
 6    1  0.9988873E-007  0.3388812E+04  0.7818608E-02  0.8140658E-01
          2   -1    0    0  501    0  0.00000000000E+00  0.00000000000E+00  0.15814474152E+04  0.15814474152E+04  0.00000000000E+00 0. -1.
         -2   -1    0    0    0  501 -0.00000000000E+00 -0.00000000000E+00 -0.18154329702E+04  0.18154329702E+04  0.00000000000E+00 0.  1.
         23    2    1    2    0    0  0.10142289476E+04 -0.11960927122E+04  0.52283475398E+03  0.16555949078E+04  0.91324611119E+02 0.  0.
         13    1    3    3    0    0  0.39213554243E+03 -0.53215915008E+03  0.21982296485E+03  0.69662456211E+03  0.00000000000E+00 0. -1.
        -13    1    3    3    0    0  0.62209340517E+03 -0.66393356211E+03  0.30301178913E+03  0.95897034574E+03  0.00000000000E+00 0.  1.
         22    1    1    2    0    0 -0.10142289476E+04  0.11960927122E+04 -0.75682030890E+03  0.17412854775E+04  0.00000000000E+00 0. -1.
<mgrwt>
<rscale>  0 0.33888121E+04</rscale>
<asrwt>0</asrwt>
<pdfrwt beam="1">  1        2 0.24329960E+00 0.33888121E+04</pdfrwt>
<pdfrwt beam="2">  1       -2 0.27929738E+00 0.33888121E+04</pdfrwt>
<totfact> 0.40279603E-01</totfact>
</mgrwt>
</event>
<event>
 6    1  0.9988873E-007  0.8651471E+03  0.7818608E-02  0.9470230E-01
          1   -1    0    0  501    0  0.00000000000E+00  0.00000000000E+00  0.16483843814E+04  0.16483843814E+04  0.00000000000E+00 0. -1.
         -1   -1    0    0    0  501 -0.00000000000E+00 -0.00000000000E+00 -0.11351713747E+03  0.11351713747E+03  0.00000000000E+00 0.  1.
         23    2    1    2    0    0  0.17001020205E+03  0.36458692984E+03  0.10723398190E+04  0.11489099063E+04  0.90852558189E+02 0.  0.
         13    1    3    3    0    0  0.72206831252E+02  0.87312214592E+02  0.22325036366E+03  0.25035569530E+03  0.00000000000E+00 0. -1.
        -13    1    3    3    0    0  0.97803370793E+02  0.27727471525E+03  0.84908945530E+03  0.89855421102E+03  0.00000000000E+00 0.  1.
         22    1    1    2    0    0 -0.17001020205E+03 -0.36458692984E+03  0.46252742500E+03  0.61299161257E+03  0.00000000000E+00 0.  1.
<mgrwt>
<rscale>  0 0.86514710E+03</rscale>
<asrwt>0</asrwt>
<pdfrwt beam="1">  1        1 0.25359758E+00 0.86514710E+03</pdfrwt>
<pdfrwt beam="2">  1       -1 0.17464176E-01 0.86514710E+03</pdfrwt>
<totfact> 0.13422036E+02</totfact>
</mgrwt>
</event>
<event>
 6    1  0.9988873E-007  0.4589370E+04  0.7818608E-02  0.7895175E-01
          2   -1    0    0  501    0  0.00000000000E+00  0.00000000000E+00  0.35312737637E+04  0.35312737637E+04  0.00000000000E+00 0. -1.
         -2   -1    0    0    0  501 -0.00000000000E+00 -0.00000000000E+00 -0.14911271746E+04  0.14911271746E+04  0.00000000000E+00 0.  1.
         23    2    1    2    0    0 -0.19878905454E+04  0.81949800568E+03  0.14599318505E+03  0.21568987274E+04  0.87248543530E+02 0.  0.
         11    1    3    3    0    0 -0.26589826067E+03  0.14116922017E+03  0.28422393031E+02  0.30238793986E+03  0.00000000000E+00 0.  1.
        -11    1    3    3    0    0 -0.17219922848E+04  0.67832878551E+03  0.11757079202E+03  0.18545107876E+04  0.00000000000E+00 0. -1.
         22    1    1    2    0    0  0.19878905454E+04 -0.81949800568E+03  0.18941534041E+04  0.28655022108E+04  0.00000000000E+00 0.  1.
<mgrwt>
<rscale>  0 0.45893696E+04</rscale>
<asrwt>0</asrwt>
<pdfrwt beam="1">  1        2 0.54327289E+00 0.45893696E+04</pdfrwt>
<pdfrwt beam="2">  1       -2 0.22940418E+00 0.45893696E+04</pdfrwt>
<totfact> 0.50032827E-02</totfact>
</mgrwt>
</event>
<event>
 6    1  0.9988873E-007  0.1143266E+04  0.7818608E-02  0.9164019E-01
          2   -1    0    0  501    0  0.00000000000E+00  0.00000000000E+00  0.18823586705E+04  0.18823586705E+04  0.00000000000E+00 0. -1.
         -2   -1    0    0    0  501 -0.00000000000E+00 -0.00000000000E+00 -0.17359295753E+03  0.17359295753E+03  0.00000000000E+00 0.  1.
         23    2    1    2    0    0 -0.29863998591E+03 -0.79298206746E+02  0.27445256655E+01  0.32217472823E+03  0.91186491913E+02 0.  0.
         11    1    3    3    0    0 -0.72973404444E+02 -0.61367921849E+02 -0.68544059319E+01  0.95593527338E+02  0.00000000000E+00 0.  1.
        -11    1    3    3    0    0 -0.22566658147E+03 -0.17930284897E+02  0.95989315974E+01  0.22658120089E+03  0.00000000000E+00 0. -1.
         22    1    1    2    0    0  0.29863998591E+03  0.79298206746E+02  0.17060211873E+04  0.17337768998E+04  0.00000000000E+00 0. -1.
<mgrwt>
<rscale>  0 0.11432659E+04</rscale>
<asrwt>0</asrwt>
<pdfrwt beam="1">  1        2 0.28959363E+00 0.11432659E+04</pdfrwt>
<pdfrwt beam="2">  1       -2 0.26706610E-01 0.11432659E+04</pdfrwt>
<totfact> 0.97899629E+01</totfact>
</mgrwt>
</event>
<event>
 6    1  0.9988873E-007  0.3001034E+04  0.7818608E-02  0.8243436E-01
          1   -1    0    0  501    0  0.00000000000E+00  0.00000000000E+00  0.11666743738E+04  0.11666743738E+04  0.00000000000E+00 0. -1.
         -1   -1    0    0    0  501 -0.00000000000E+00 -0.00000000000E+00 -0.19298888474E+04  0.19298888474E+04  0.00000000000E+00 0.  1.
         23    2    1    2    0    0  0.87676080269E+01  0.46934970434E+03  0.10871643294E+04  0.11875666967E+04  0.89567650353E+02 0.  0.
         13    1    3    3    0    0 -0.35912961398E+01  0.29239386404E+03  0.56656257751E+03  0.63757370034E+03  0.00000000000E+00 0.  1.
        -13    1    3    3    0    0  0.12358904167E+02  0.17695584030E+03  0.52060175191E+03  0.54999299633E+03  0.00000000000E+00 0. -1.
         22    1    1    2    0    0 -0.87676080269E+01 -0.46934970434E+03 -0.18503788031E+04  0.19089965245E+04  0.00000000000E+00 0.  1.
<mgrwt>
<rscale>  0 0.30010344E+04</rscale>
<asrwt>0</asrwt>
<pdfrwt beam="1">  1        1 0.17948837E+00 0.30010344E+04</pdfrwt>
<pdfrwt beam="2">  1       -1 0.29690597E+00 0.30010344E+04</pdfrwt>
<totfact> 0.33272833E-01</totfact>
</mgrwt>
</event>
<event>
 6    1  0.9988873E-007  0.3206243E+04  0.7818608E-02  0.8187170E-01
          2   -1    0    0  501    0  0.00000000000E+00  0.00000000000E+00  0.11325467458E+04  0.11325467458E+04  0.00000000000E+00 0. -1.
         -2   -1    0    0    0  501 -0.00000000000E+00 -0.00000000000E+00 -0.22692213610E+04  0.22692213610E+04  0.00000000000E+00 0.  1.
         23    2    1    2    0    0 -0.77178728512E+03  0.84008995796E+03 -0.17618636006E+04  0.21008960845E+04  0.90522151040E+02 0.  0.
         13    1    3    3    0    0 -0.27628730288E+03  0.24546351963E+03 -0.60620635032E+03  0.70998109297E+03  0.00000000000E+00 0.  1.
        -13    1    3    3    0    0 -0.49549998224E+03  0.59462643832E+03 -0.11556572503E+04  0.13909149915E+04  0.00000000000E+00 0. -1.
         22    1    1    2    0    0  0.77178728512E+03 -0.84008995796E+03  0.62518898543E+03  0.13008720223E+04  0.00000000000E+00 0. -1.
<mgrwt>
<rscale>  0 0.32062435E+04</rscale>
<asrwt>0</asrwt>
<pdfrwt beam="1">  1        2 0.17423796E+00 0.32062435E+04</pdfrwt>
<pdfrwt beam="2">  1       -2 0.34911098E+00 0.32062435E+04</pdfrwt>
<totfact> 0.27586404E-01</totfact>
</mgrwt>
</event>
<event>
 6    1  0.9988873E-007  0.1808527E+04  0.7818608E-02  0.8701778E-01
          2   -1    0    0  501    0  0.00000000000E+00  0.00000000000E+00  0.83662363289E+03  0.83662363289E+03  0.00000000000E+00 0. -1.
         -2   -1    0    0    0  501 -0.00000000000E+00 -0.00000000000E+00 -0.97737182569E+03  0.97737182569E+03  0.00000000000E+00 0.  1.
         23    2    1    2    0    0  0.46602582047E+03  0.60432982376E+03  0.41136024915E+03  0.87207277974E+03  0.94334921136E+02 0.  0.
         11    1    3    3    0    0  0.86760965701E+02  0.16575457381E+03  0.12826045149E+03  0.22683206855E+03  0.00000000000E+00 0. -1.
        -11    1    3    3    0    0  0.37926485477E+03  0.43857524995E+03  0.28309979766E+03  0.64524071119E+03  0.00000000000E+00 0.  1.
         22    1    1    2    0    0 -0.46602582047E+03 -0.60432982376E+03 -0.55210844195E+03  0.94192267884E+03  0.00000000000E+00 0.  1.
<mgrwt>
<rscale>  0 0.18085269E+04</rscale>
<asrwt>0</asrwt>
<pdfrwt beam="1">  1        2 0.12871133E+00 0.18085269E+04</pdfrwt>
<pdfrwt beam="2">  1       -2 0.15036490E+00 0.18085269E+04</pdfrwt>
<totfact> 0.91056542E+00</totfact>
</mgrwt>
</event>
<event>
 6    1  0.9988873E-007  0.3659780E+04  0.7818608E-02  0.8076934E-01
         -2   -1    0    0    0  501 -0.00000000000E+00  0.00000000000E+00  0.11091011868E+04  0.11091011868E+04  0.00000000000E+00 0.  1.
          2   -1    0    0  501    0  0.00000000000E+00 -0.00000000000E+00 -0.30191093997E+04  0.30191093997E+04  0.00000000000E+00 0. -1.
         23    2    1    2    0    0 -0.65804608814E+03  0.18349116433E+03  0.95791584915E+03  0.11800447012E+04  0.90603869472E+02 0.  0.
         13    1    3    3    0    0 -0.32561114494E+03  0.11423855953E+03  0.41550932629E+03  0.54011208691E+03  0.00000000000E+00 0. -1.
        -13    1    3    3    0    0 -0.33243494321E+03  0.69252604806E+02  0.54240652286E+03  0.63993261425E+03  0.00000000000E+00 0.  1.
         22    1    1    2    0    0  0.65804608814E+03 -0.18349116433E+03 -0.28679240620E+04  0.29481658853E+04  0.00000000000E+00 0. -1.
<mgrwt>
<rscale>  0 0.36597802E+04</rscale>
<asrwt>0</asrwt>
<pdfrwt beam="1">  1        2 0.46447837E+00 0.36597802E+04</pdfrwt>
<pdfrwt beam="2">  1       -2 0.17063095E+00 0.36597802E+04</pdfrwt>
<totfact> 0.28955763E-01</totfact>
</mgrwt>
</event>
<event>
 6    1  0.9988873E-007  0.1473796E+04  0.7818608E-02  0.8902068E-01
         -1   -1    0    0    0  501 -0.00000000000E+00  0.00000000000E+00  0.13637752111E+04  0.13637752111E+04  0.00000000000E+00 0.  1.
          1   -1    0    0  501    0  0.00000000000E+00 -0.00000000000E+00 -0.39817302961E+03  0.39817302961E+03  0.00000000000E+00 0. -1.
         23    2    1    2    0    0 -0.25734947051E+03  0.58721821356E+03  0.57240698074E+02  0.65011436604E+03  0.91204227500E+02 0.  0.
         11    1    3    3    0    0 -0.23379088468E+03  0.46572494610E+03  0.22603007752E+02  0.52160214641E+03  0.00000000000E+00 0. -1.
        -11    1    3    3    0    0 -0.23558585821E+02  0.12149326746E+03  0.34637690321E+02  0.12851221963E+03  0.00000000000E+00 0.  1.
         22    1    1    2    0    0  0.25734947051E+03 -0.58721821356E+03  0.90836148338E+03  0.11118338746E+04  0.00000000000E+00 0. -1.
<mgrwt>
<rscale>  0 0.14737958E+04</rscale>
<asrwt>0</asrwt>
<pdfrwt beam="1">  1        1 0.61257390E-01 0.14737958E+04</pdfrwt>
<pdfrwt beam="2">  1       -1 0.20981157E+00 0.14737958E+04</pdfrwt>
<totfact> 0.75445376E+00</totfact>
</mgrwt>
</event>
<event>
 6    1  0.9988873E-007  0.1535245E+04  0.7818608E-02  0.8861348E-01
         -2   -1    0    0    0  501 -0.00000000000E+00  0.00000000000E+00  0.27620029449E+03  0.27620029449E+03  0.00000000000E+00 0.  1.
          2   -1    0    0  501    0  0.00000000000E+00 -0.00000000000E+00 -0.21333948199E+04  0.21333948199E+04  0.00000000000E+00 0. -1.
         23    2    1    2    0    0  0.24595399654E+03 -0.72235469823E+03 -0.84474434605E+03  0.11417839912E+04  0.88249611136E+02 0.  0.
         11    1    3    3    0    0  0.50303562673E+02 -0.25286156339E+03 -0.24868294579E+03  0.35820751833E+03  0.00000000000E+00 0. -1.
        -11    1    3    3    0    0  0.19565043387E+03 -0.46949313483E+03 -0.59606140026E+03  0.78357647285E+03  0.00000000000E+00 0.  1.
         22    1    1    2    0    0 -0.24595399654E+03  0.72235469823E+03 -0.10124501794E+04  0.12678111232E+04  0.00000000000E+00 0. -1.
<mgrwt>
<rscale>  0 0.15352450E+04</rscale>
<asrwt>0</asrwt>
<pdfrwt beam="1">  1        2 0.32821460E+00 0.15352450E+04</pdfrwt>
<pdfrwt beam="2">  1       -2 0.42492352E-01 0.15352450E+04</pdfrwt>
<totfact> 0.28494112E+01</totfact>
</mgrwt>
</event>
<event>
 6    1  0.9988873E-007  0.5390453E+04  0.7818608E-02  0.7770945E-01
         -2   -1    0    0    0  501 -0.00000000000E+00  0.00000000000E+00  0.31368001642E+04  0.31368001642E+04  0.00000000000E+00 0.  1.
          2   -1    0    0  501    0  0.00000000000E+00 -0.00000000000E+00 -0.23158141955E+04  0.23158141955E+04  0.00000000000E+00 0. -1.
         23    2    1    2    0    0  0.13085023969E+04 -0.22580074636E+04 -0.26744706788E+03  0.26249894370E+04  0.90914147545E+02 0.  0.
         13    1    3    3    0    0  0.94164570206E+03 -0.16874697738E+04 -0.22268822434E+03  0.19452097344E+04  0.00000000000E+00 0.  1.
        -13    1    3    3    0    0  0.36685669481E+03 -0.57053768982E+03 -0.44758843542E+02  0.67977970263E+03  0.00000000000E+00 0. -1.
         22    1    1    2    0    0 -0.13085023969E+04  0.22580074636E+04  0.10884330366E+04  0.28276249227E+04  0.00000000000E+00 0.  1.
<mgrwt>
<rscale>  0 0.53904532E+04</rscale>
<asrwt>0</asrwt>
<pdfrwt beam="1">  1        2 0.35627911E+00 0.53904532E+04</pdfrwt>
<pdfrwt beam="2">  1       -2 0.48258464E+00 0.53904532E+04</pdfrwt>
<totfact> 0.67078342E-03</totfact>
</mgrwt>
</event>
<event>
 6    1  0.9988873E-007  0.1822922E+04  0.7818608E-02  0.8694204E-01
          1   -1    0    0  501    0  0.00000000000E+00  0.00000000000E+00  0.44831236849E+03  0.44831236849E+03  0.00000000000E+00 0. -1.
         -1   -1    0    0    0  501 -0.00000000000E+00 -0.00000000000E+00 -0.18530853097E+04  0.18530853097E+04  0.00000000000E+00 0.  1.
         23    2    1    2    0    0  0.31042965683E+03 -0.68396736756E+03 -0.13507801063E+04  0.15483417985E+04  0.92614780502E+02 0.  0.
         13    1    3    3    0    0  0.23439752152E+03 -0.42487873822E+03 -0.81967228915E+03  0.95253703439E+03  0.00000000000E+00 0.  1.
        -13    1    3    3    0    0  0.76032135309E+02 -0.25908862934E+03 -0.53110781717E+03  0.59580476409E+03  0.00000000000E+00 0. -1.
         22    1    1    2    0    0 -0.31042965683E+03  0.68396736756E+03 -0.53992834875E+02  0.75305587970E+03  0.00000000000E+00 0. -1.
<mgrwt>
<rscale>  0 0.18229219E+04</rscale>
<asrwt>0</asrwt>
<pdfrwt beam="1">  1        1 0.68971133E-01 0.18229219E+04</pdfrwt>
<pdfrwt beam="2">  1       -1 0.28509005E+00 0.18229219E+04</pdfrwt>
<totfact> 0.20009884E+00</totfact>
</mgrwt>
</event>
<event>
 6    1  0.9988873E-007  0.2303396E+04  0.7818608E-02  0.8476583E-01
         -1   -1    0    0    0  501 -0.00000000000E+00  0.00000000000E+00  0.10637891452E+04  0.10637891452E+04  0.00000000000E+00 0.  1.
          1   -1    0    0  501    0  0.00000000000E+00 -0.00000000000E+00 -0.12468709888E+04  0.12468709888E+04  0.00000000000E+00 0. -1.
         23    2    1    2    0    0  0.70242297041E+03 -0.27408418987E+03 -0.96136767350E+03  0.12270324278E+04  0.11340459770E+03 0.  0.
         11    1    3    3    0    0  0.33731371835E+03 -0.10963159230E+03 -0.36720840545E+03  0.51053074701E+03  0.00000000000E+00 0.  1.
        -11    1    3    3    0    0  0.36510925207E+03 -0.16445259757E+03 -0.59415926805E+03  0.71650168081E+03  0.00000000000E+00 0. -1.
         22    1    1    2    0    0 -0.70242297041E+03  0.27408418987E+03  0.77828582993E+03  0.10836277062E+04  0.00000000000E+00 0.  1.
<mgrwt>
<rscale>  0 0.23033956E+04</rscale>
<asrwt>0</asrwt>
<pdfrwt beam="1">  1        1 0.19182631E+00 0.23033956E+04</pdfrwt>
<pdfrwt beam="2">  1       -1 0.16365987E+00 0.23033956E+04</pdfrwt>
<totfact> 0.24481394E+00</totfact>
</mgrwt>
</event>
<event>
 6    1  0.9988873E-007  0.2896170E+04  0.7818608E-02  0.8274018E-01
         -1   -1    0    0    0  501 -0.00000000000E+00  0.00000000000E+00  0.59238382446E+03  0.59238382446E+03  0.00000000000E+00 0.  1.
          1   -1    0    0  501    0  0.00000000000E+00 -0.00000000000E+00 -0.35398498927E+04  0.35398498927E+04  0.00000000000E+00 0. -1.
         23    2    1    2    0    0  0.11115470340E+04  0.73453779397E+03 -0.22802302264E+04  0.26421712191E+04  0.80847301805E+02 0.  0.
         13    1    3    3    0    0  0.39518228741E+03  0.26694834551E+03 -0.74120947179E+03  0.88137502830E+03  0.00000000000E+00 0.  1.
        -13    1    3    3    0    0  0.71636474655E+03  0.46758944846E+03 -0.15390207546E+04  0.17607961908E+04  0.00000000000E+00 0. -1.
         22    1    1    2    0    0 -0.11115470340E+04 -0.73453779397E+03 -0.66723584183E+03  0.14900624981E+04  0.00000000000E+00 0.  1.
<mgrwt>
<rscale>  0 0.28961698E+04</rscale>
<asrwt>0</asrwt>
<pdfrwt beam="1">  1        1 0.54459229E+00 0.28961698E+04</pdfrwt>
<pdfrwt beam="2">  1       -1 0.91135972E-01 0.28961698E+04</pdfrwt>
<totfact> 0.23428176E-01</totfact>
</mgrwt>
</event>
<event>
 6    1  0.9988873E-007  0.8563772E+03  0.7818608E-02  0.9481817E-01
          2   -1    0    0  501    0  0.00000000000E+00  0.00000000000E+00  0.29830636374E+04  0.29830636374E+04  0.00000000000E+00 0. -1.
         -2   -1    0    0    0  501 -0.00000000000E+00 -0.00000000000E+00 -0.61462136932E+02  0.61462136932E+02  0.00000000000E+00 0.  1.
         23    2    1    2    0    0 -0.12926153560E+03 -0.15630695677E+03  0.27987052039E+04  0.28073677910E+04  0.86155014838E+02 0.  0.
         11    1    3    3    0    0 -0.93669060323E+01 -0.54906892818E+02  0.45277157464E+03  0.45618483601E+03  0.00000000000E+00 0. -1.
        -11    1    3    3    0    0 -0.11989462957E+03 -0.10140006395E+03  0.23459336293E+04  0.23511829550E+04  0.00000000000E+00 0.  1.
         22    1    1    2    0    0  0.12926153560E+03  0.15630695677E+03  0.12289629656E+03  0.23715798327E+03  0.00000000000E+00 0.  1.
<mgrwt>
<rscale>  0 0.85637717E+03</rscale>
<asrwt>0</asrwt>
<pdfrwt beam="1">  1        2 0.45893276E+00 0.85637717E+03</pdfrwt>
<pdfrwt beam="2">  1       -2 0.94557157E-02 0.85637717E+03</pdfrwt>
<totfact> 0.13975300E+02</totfact>
</mgrwt>
</event>
<event>
 6    1  0.9988873E-007  0.2346969E+04  0.7818608E-02  0.8459629E-01
         -1   -1    0    0    0  501 -0.00000000000E+00  0.00000000000E+00  0.64387432498E+03  0.64387432498E+03  0.00000000000E+00 0.  1.
          1   -1    0    0  501    0  0.00000000000E+00 -0.00000000000E+00 -0.21387189874E+04  0.21387189874E+04  0.00000000000E+00 0. -1.
         23    2    1    2    0    0  0.47059233881E+03 -0.72821162879E+03  0.18594411048E+03  0.89135027545E+03  0.90447640399E+02 0.  0.
         13    1    3    3    0    0  0.13633420472E+03 -0.23585540146E+03  0.99396579473E+02  0.28999045810E+03  0.00000000000E+00 0. -1.
        -13    1    3    3    0    0  0.33425813409E+03 -0.49235622733E+03  0.86547531006E+02  0.60135981735E+03  0.00000000000E+00 0.  1.
         22    1    1    2    0    0 -0.47059233881E+03  0.72821162879E+03 -0.16807887729E+04  0.18912430369E+04  0.00000000000E+00 0. -1.
<mgrwt>
<rscale>  0 0.23469693E+04</rscale>
<asrwt>0</asrwt>
<pdfrwt beam="1">  1        1 0.32903369E+00 0.23469693E+04</pdfrwt>
<pdfrwt beam="2">  1       -1 0.99057588E-01 0.23469693E+04</pdfrwt>
<totfact> 0.21025112E+00</totfact>
</mgrwt>
</event>
<event>
 6    1  0.9988873E-007  0.4072948E+04  0.7818608E-02  0.7989990E-01
         -2   -1    0    0    0  501 -0.00000000000E+00  0.00000000000E+00  0.25331527588E+04  0.25331527588E+04  0.00000000000E+00 0.  1.
          2   -1    0    0  501    0  0.00000000000E+00 -0.00000000000E+00 -0.16371794873E+04  0.16371794873E+04  0.00000000000E+00 0. -1.
         23    2    1    2    0    0  0.16115552114E+04 -0.20559764049E+03  0.17037224041E+04  0.23559895965E+04  0.92932014499E+02 0.  0.
         11    1    3    3    0    0  0.32720868325E+03 -0.79041284025E+02  0.34268985680E+03  0.48036380477E+03  0.00000000000E+00 0.  1.
        -11    1    3    3    0    0  0.12843465281E+04 -0.12655635646E+03  0.13610325473E+04  0.18756257917E+04  0.00000000000E+00 0. -1.
         22    1    1    2    0    0 -0.16115552114E+04  0.20559764049E+03 -0.80774913260E+03  0.18143426496E+04  0.00000000000E+00 0. -1.
<mgrwt>
<rscale>  0 0.40729477E+04</rscale>
<asrwt>0</asrwt>
<pdfrwt beam="1">  1        2 0.25187377E+00 0.40729477E+04</pdfrwt>
<pdfrwt beam="2">  1       -2 0.38971581E+00 0.40729477E+04</pdfrwt>
<totfact> 0.72185458E-02</totfact>
</mgrwt>
</event>
<event>
 6    1  0.9988873E-007  0.2569057E+04  0.7818608E-02  0.8378789E-01
          2   -1    0    0  501    0  0.00000000000E+00  0.00000000000E+00  0.94565490793E+03  0.94565490793E+03  0.00000000000E+00 0. -1.
         -2   -1    0    0    0  501 -0.00000000000E+00 -0.00000000000E+00 -0.17448361281E+04  0.17448361281E+04  0.00000000000E+00 0.  1.
         23    2    1    2    0    0  0.66584011124E+03  0.67699675079E+03 -0.13035398803E+04  0.16152955596E+04  0.91081672215E+02 0.  0.
         13    1    3    3    0    0  0.32191241388E+03  0.33452901602E+03 -0.71403905327E+03  0.85169773650E+03  0.00000000000E+00 0. -1.
        -13    1    3    3    0    0  0.34392769736E+03  0.34246773478E+03 -0.58950082705E+03  0.76359782311E+03  0.00000000000E+00 0.  1.
         22    1    1    2    0    0 -0.66584011124E+03 -0.67699675079E+03  0.50435866019E+03  0.10751954764E+04  0.00000000000E+00 0. -1.
<mgrwt>
<rscale>  0 0.25690565E+04</rscale>
<asrwt>0</asrwt>
<pdfrwt beam="1">  1        2 0.14548537E+00 0.25690565E+04</pdfrwt>
<pdfrwt beam="2">  1       -2 0.26843633E+00 0.25690565E+04</pdfrwt>
<totfact> 0.12007465E+00</totfact>
</mgrwt>
</event>
<event>
 6    1  0.9988873E-007  0.1059293E+04  0.7818608E-02  0.9245801E-01
         -2   -1    0    0    0  501 -0.00000000000E+00  0.00000000000E+00  0.24853628830E+03  0.24853628830E+03  0.00000000000E+00 0.  1.
          2   -1    0    0  501    0  0.00000000000E+00 -0.00000000000E+00 -0.11287108871E+04  0.11287108871E+04  0.00000000000E+00 0. -1.
         23    2    1    2    0    0  0.61801112743E+02 -0.45655210157E+03 -0.10802827327E+03  0.47809805150E+03  0.68179469301E+02 0.  0.
         11    1    3    3    0    0  0.42936311018E+02 -0.17134628924E+03 -0.68889576347E+02  0.18960182322E+03  0.00000000000E+00 0.  1.
        -11    1    3    3    0    0  0.18864801725E+02 -0.28520581234E+03 -0.39138696927E+02  0.28849622828E+03  0.00000000000E+00 0. -1.
         22    1    1    2    0    0 -0.61801112743E+02  0.45655210157E+03 -0.77214632551E+03  0.89914912389E+03  0.00000000000E+00 0. -1.
<mgrwt>
<rscale>  0 0.10592934E+04</rscale>
<asrwt>0</asrwt>
<pdfrwt beam="1">  1        2 0.17364783E+00 0.10592934E+04</pdfrwt>
<pdfrwt beam="2">  1       -2 0.38236352E-01 0.10592934E+04</pdfrwt>
<totfact> 0.13432634E+02</totfact>
</mgrwt>
</event>
<event>
 6    1  0.9988873E-007  0.8956010E+03  0.7818608E-02  0.9431097E-01
         -2   -1    0    0    0  501 -0.00000000000E+00  0.00000000000E+00  0.25229373475E+03  0.25229373475E+03  0.00000000000E+00 0.  1.
          2   -1    0    0  501    0  0.00000000000E+00 -0.00000000000E+00 -0.79480884863E+03  0.79480884863E+03  0.00000000000E+00 0. -1.
         23    2    1    2    0    0  0.17183522231E+03 -0.32982629736E+02 -0.75003499575E+03  0.77566253684E+03  0.92112315830E+02 0.  0.
         11    1    3    3    0    0  0.79646248737E+02 -0.13960405670E+02 -0.53292889314E+03  0.53902840649E+03  0.00000000000E+00 0.  1.
        -11    1    3    3    0    0  0.92188973577E+02 -0.19022224066E+02 -0.21710610261E+03  0.23663413035E+03  0.00000000000E+00 0. -1.
         22    1    1    2    0    0 -0.17183522231E+03  0.32982629736E+02  0.20751988187E+03  0.27144004654E+03  0.00000000000E+00 0.  1.
<mgrwt>
<rscale>  0 0.89560101E+03</rscale>
<asrwt>0</asrwt>
<pdfrwt beam="1">  1        2 0.12227828E+00 0.89560101E+03</pdfrwt>
<pdfrwt beam="2">  1       -2 0.38814421E-01 0.89560101E+03</pdfrwt>
<totfact> 0.21845146E+02</totfact>
</mgrwt>
</event>
<event>
 6    1  0.9988873E-007  0.2581145E+04  0.7818608E-02  0.8374634E-01
          2   -1    0    0  501    0  0.00000000000E+00  0.00000000000E+00  0.12222428076E+04  0.12222428076E+04  0.00000000000E+00 0. -1.
         -2   -1    0    0    0  501 -0.00000000000E+00 -0.00000000000E+00 -0.13627220241E+04  0.13627220241E+04  0.00000000000E+00 0.  1.
         23    2    1    2    0    0  0.67641572912E+03  0.13724251120E+03  0.10199466968E+04  0.12347937144E+04  0.89724619372E+02 0.  0.
         13    1    3    3    0    0  0.65646548905E+02  0.26481910934E+02  0.15252576471E+03  0.16815133033E+03  0.00000000000E+00 0.  1.
        -13    1    3    3    0    0  0.61076918022E+03  0.11076060027E+03  0.86742093213E+03  0.10666423841E+04  0.00000000000E+00 0. -1.
         22    1    1    2    0    0 -0.67641572912E+03 -0.13724251120E+03 -0.11604259133E+04  0.13501711172E+04  0.00000000000E+00 0.  1.
<mgrwt>
<rscale>  0 0.25811449E+04</rscale>
<asrwt>0</asrwt>
<pdfrwt beam="1">  1        2 0.18803736E+00 0.25811449E+04</pdfrwt>
<pdfrwt beam="2">  1       -2 0.20964954E+00 0.25811449E+04</pdfrwt>
<totfact> 0.18733524E+00</totfact>
</mgrwt>
</event>
<event>
 6    1  0.9988873E-007  0.1369371E+04  0.7818608E-02  0.8976292E-01
          2   -1    0    0  501    0  0.00000000000E+00  0.00000000000E+00  0.93414409393E+03  0.93414409393E+03  0.00000000000E+00 0. -1.
         -2   -1    0    0    0  501 -0.00000000000E+00 -0.00000000000E+00 -0.50184382500E+03  0.50184382500E+03  0.00000000000E+00 0.  1.
         23    2    1    2    0    0  0.28015119402E+03  0.62066851133E+03  0.18669974017E+03  0.71208619066E+03  0.92172975854E+02 0.  0.
         11    1    3    3    0    0  0.12551490000E+03  0.20519026214E+03  0.99326102748E+02  0.26023587087E+03  0.00000000000E+00 0.  1.
        -11    1    3    3    0    0  0.15463629402E+03  0.41547824919E+03  0.87373637421E+02  0.45185031979E+03  0.00000000000E+00 0. -1.
         22    1    1    2    0    0 -0.28015119402E+03 -0.62066851133E+03  0.24560052876E+03  0.72390172827E+03  0.00000000000E+00 0. -1.
<mgrwt>
<rscale>  0 0.13693713E+04</rscale>
<asrwt>0</asrwt>
<pdfrwt beam="1">  1        2 0.14371448E+00 0.13693713E+04</pdfrwt>
<pdfrwt beam="2">  1       -2 0.77206742E-01 0.13693713E+04</pdfrwt>
<totfact> 0.40627048E+01</totfact>
</mgrwt>
</event>
<event>
 6    1  0.9988873E-007  0.2151437E+04  0.7818608E-02  0.8538918E-01
         -2   -1    0    0    0  501 -0.00000000000E+00  0.00000000000E+00  0.80755995114E+03  0.80755995114E+03  0.00000000000E+00 0.  1.
          2   -1    0    0  501    0  0.00000000000E+00 -0.00000000000E+00 -0.14329213014E+04  0.14329213014E+04  0.00000000000E+00 0. -1.
         23    2    1    2    0    0 -0.10920228064E+03  0.10677625829E+04 -0.33998686606E+03  0.11298595043E+04  0.94601050847E+02 0.  0.
         13    1    3    3    0    0 -0.59598956389E+02  0.88445541970E+03 -0.26002145740E+03  0.92380981990E+03  0.00000000000E+00 0.  1.
        -13    1    3    3    0    0 -0.49603324246E+02  0.18330716317E+03 -0.79965408658E+02  0.20604968436E+03  0.00000000000E+00 0. -1.
         22    1    1    2    0    0  0.10920228064E+03 -0.10677625829E+04 -0.28537448419E+03  0.11106217483E+04  0.00000000000E+00 0.  1.
<mgrwt>
<rscale>  0 0.21514366E+04</rscale>
<asrwt>0</asrwt>
<pdfrwt beam="1">  1        2 0.22044943E+00 0.21514366E+04</pdfrwt>
<pdfrwt beam="2">  1       -2 0.12423999E+00 0.21514366E+04</pdfrwt>
<totfact> 0.61924428E+00</totfact>
</mgrwt>
</event>
<event>
 6    1  0.9988873E-007  0.6795672E+03  0.7818608E-02  0.9752827E-01
         -2   -1    0    0    0  501 -0.00000000000E+00  0.00000000000E+00  0.16671509852E+03  0.16671509852E+03  0.00000000000E+00 0.  1.
          2   -1    0    0  501    0  0.00000000000E+00 -0.00000000000E+00 -0.69251615391E+03  0.69251615391E+03  0.00000000000E+00 0. -1.
         23    2    1    2    0    0 -0.29992217134E+03 -0.88938175328E+02 -0.41458423719E+03  0.52721846873E+03  0.90641691047E+02 0.  0.
         13    1    3    3    0    0 -0.23935265460E+03 -0.77254734227E+02 -0.26469426954E+03  0.36513154280E+03  0.00000000000E+00 0.  1.
        -13    1    3    3    0    0 -0.60569516736E+02 -0.11683441102E+02 -0.14988996766E+03  0.16208692593E+03  0.00000000000E+00 0. -1.
         22    1    1    2    0    0  0.29992217134E+03  0.88938175328E+02 -0.11121681820E+03  0.33201278370E+03  0.00000000000E+00 0. -1.
<mgrwt>
<rscale>  0 0.67956721E+03</rscale>
<asrwt>0</asrwt>
<pdfrwt beam="1">  1        2 0.10654095E+00 0.67956721E+03</pdfrwt>
<pdfrwt beam="2">  1       -2 0.25648477E-01 0.67956721E+03</pdfrwt>
<totfact> 0.57164853E+02</totfact>
</mgrwt>
</event>
<event>
 6    1  0.9988873E-007  0.3020335E+04  0.7818608E-02  0.8237948E-01
          1   -1    0    0  501    0  0.00000000000E+00  0.00000000000E+00  0.16641154000E+04  0.16641154000E+04  0.00000000000E+00 0. -1.
         -1   -1    0    0    0  501 -0.00000000000E+00 -0.00000000000E+00 -0.13704614470E+04  0.13704614470E+04  0.00000000000E+00 0.  1.
         23    2    1    2    0    0 -0.32216835768E+03 -0.82838937247E+03 -0.10779878199E+04  0.14001281459E+04  0.90992757153E+02 0.  0.
         13    1    3    3    0    0 -0.98297659132E+02 -0.27085800915E+03 -0.28535025957E+03  0.40552590737E+03  0.00000000000E+00 0.  1.
        -13    1    3    3    0    0 -0.22387069855E+03 -0.55753136332E+03 -0.79263756036E+03  0.99460223851E+03  0.00000000000E+00 0. -1.
         22    1    1    2    0    0  0.32216835768E+03  0.82838937247E+03  0.13716417730E+04  0.16344487011E+04  0.00000000000E+00 0. -1.
<mgrwt>
<rscale>  0 0.30203351E+04</rscale>
<asrwt>0</asrwt>
<pdfrwt beam="1">  1        1 0.25601775E+00 0.30203351E+04</pdfrwt>
<pdfrwt beam="2">  1       -1 0.21084022E+00 0.30203351E+04</pdfrwt>
<totfact> 0.54363659E-01</totfact>
</mgrwt>
</event>
<event>
 6    1  0.9988873E-007  0.2090849E+04  0.7818608E-02  0.8565285E-01
         -2   -1    0    0    0  501 -0.00000000000E+00  0.00000000000E+00  0.74976891319E+03  0.74976891319E+03  0.00000000000E+00 0.  1.
          2   -1    0    0  501    0  0.00000000000E+00 -0.00000000000E+00 -0.14576660820E+04  0.14576660820E+04  0.00000000000E+00 0. -1.
         23    2    1    2    0    0  0.10521879001E+03 -0.68706466868E+03  0.46702566736E+03  0.84230770309E+03  0.90776869202E+02 0.  0.
         11    1    3    3    0    0  0.87828163514E+02 -0.42242463132E+03  0.24326283025E+03  0.49531117495E+03  0.00000000000E+00 0.  1.
        -11    1    3    3    0    0  0.17390626492E+02 -0.26464003737E+03  0.22376283711E+03  0.34699652813E+03  0.00000000000E+00 0. -1.
         22    1    1    2    0    0 -0.10521879001E+03  0.68706466868E+03 -0.11749228362E+04  0.13651272922E+04  0.00000000000E+00 0. -1.
<mgrwt>
<rscale>  0 0.20908493E+04</rscale>
<asrwt>0</asrwt>
<pdfrwt beam="1">  1        2 0.22425632E+00 0.20908493E+04</pdfrwt>
<pdfrwt beam="2">  1       -2 0.11534906E+00 0.20908493E+04</pdfrwt>
<totfact> 0.72422588E+00</totfact>
</mgrwt>
</event>
<event>
 6    1  0.9988873E-007  0.3817401E+04  0.7818608E-02  0.8042431E-01
         -1   -1    0    0    0  501 -0.00000000000E+00  0.00000000000E+00  0.99545073145E+03  0.99545073145E+03  0.00000000000E+00 0.  1.
          1   -1    0    0  501    0  0.00000000000E+00 -0.00000000000E+00 -0.36597870273E+04  0.36597870273E+04  0.00000000000E+00 0. -1.
         23    2    1    2    0    0 -0.14104752452E+04 -0.56295371872E+03  0.75228423690E+02  0.15228948402E+04  0.84806084678E+02 0.  0.
         11    1    3    3    0    0 -0.18714465386E+03 -0.62980381929E+02  0.36289626190E+02  0.20076500429E+03  0.00000000000E+00 0. -1.
        -11    1    3    3    0    0 -0.12233305913E+04 -0.49997333679E+03  0.38938797500E+02  0.13221298359E+04  0.00000000000E+00 0.  1.
         22    1    1    2    0    0  0.14104752452E+04  0.56295371872E+03 -0.27395647195E+04  0.31323429185E+04  0.00000000000E+00 0. -1.
<mgrwt>
<rscale>  0 0.38174010E+04</rscale>
<asrwt>0</asrwt>
<pdfrwt beam="1">  1        1 0.56304416E+00 0.38174010E+04</pdfrwt>
<pdfrwt beam="2">  1       -1 0.15314627E+00 0.38174010E+04</pdfrwt>
<totfact> 0.48663842E-02</totfact>
</mgrwt>
</event>
<event>
 6    1  0.9988873E-007  0.1190703E+04  0.7818608E-02  0.9121033E-01
          2   -1    0    0  501    0  0.00000000000E+00  0.00000000000E+00  0.76512158864E+03  0.76512158864E+03  0.00000000000E+00 0. -1.
         -2   -1    0    0    0  501 -0.00000000000E+00 -0.00000000000E+00 -0.46325108427E+03  0.46325108427E+03  0.00000000000E+00 0.  1.
         23    2    1    2    0    0 -0.20188088501E+03 -0.53462243041E+03  0.31106910238E+03  0.65682945578E+03  0.89910581668E+02 0.  0.
         11    1    3    3    0    0 -0.90725734468E+02 -0.35662308393E+03  0.21309745929E+03  0.42523136061E+03  0.00000000000E+00 0. -1.
        -11    1    3    3    0    0 -0.11115515054E+03 -0.17799934648E+03  0.97971643096E+02  0.23159809518E+03  0.00000000000E+00 0.  1.
         22    1    1    2    0    0  0.20188088501E+03  0.53462243041E+03 -0.91985980128E+01  0.57154321712E+03  0.00000000000E+00 0.  1.
<mgrwt>
<rscale>  0 0.11907030E+04</rscale>
<asrwt>0</asrwt>
<pdfrwt beam="1">  1        2 0.11771101E+00 0.11907030E+04</pdfrwt>
<pdfrwt beam="2">  1       -2 0.71269398E-01 0.11907030E+04</pdfrwt>
<totfact> 0.64499486E+01</totfact>
</mgrwt>
</event>
<event>
 6    1  0.9988873E-007  0.3801443E+04  0.7818608E-02  0.8045845E-01
         -1   -1    0    0    0  501 -0.00000000000E+00  0.00000000000E+00  0.11889979470E+04  0.11889979470E+04  0.00000000000E+00 0.  1.
          1   -1    0    0  501    0  0.00000000000E+00 -0.00000000000E+00 -0.30384762985E+04  0.30384762985E+04  0.00000000000E+00 0. -1.
         23    2    1    2    0    0 -0.15953225060E+04 -0.92934417679E+03 -0.42812523436E+03  0.18974572539E+04  0.91204808482E+02 0.  0.
         13    1    3    3    0    0 -0.69368969620E+03 -0.45070560677E+03 -0.21307049999E+03  0.85424819376E+03  0.00000000000E+00 0.  1.
        -13    1    3    3    0    0 -0.90163280983E+03 -0.47863857002E+03 -0.21505473438E+03  0.10432090602E+04  0.00000000000E+00 0. -1.
         22    1    1    2    0    0  0.15953225060E+04  0.92934417679E+03 -0.14213531172E+04  0.23300169915E+04  0.00000000000E+00 0. -1.
<mgrwt>
<rscale>  0 0.38014429E+04</rscale>
<asrwt>0</asrwt>
<pdfrwt beam="1">  1        1 0.46745790E+00 0.38014429E+04</pdfrwt>
<pdfrwt beam="2">  1       -1 0.18292276E+00 0.38014429E+04</pdfrwt>
<totfact> 0.88324361E-02</totfact>
</mgrwt>
</event>
<event>
 6    1  0.9988873E-007  0.3605383E+03  0.7818608E-02  0.1058371E+00
         -1   -1    0    0    0  501 -0.00000000000E+00  0.00000000000E+00  0.76045468406E+02  0.76045468406E+02  0.00000000000E+00 0.  1.
          1   -1    0    0  501    0  0.00000000000E+00 -0.00000000000E+00 -0.42733605511E+03  0.42733605511E+03  0.00000000000E+00 0. -1.
         23    2    1    2    0    0  0.38031045103E+02 -0.16345595395E+03 -0.21167757188E+03  0.28507897387E+03  0.91095651012E+02 0.  0.
         11    1    3    3    0    0  0.62759124716E+02 -0.13968799392E+03 -0.14918809514E+03  0.21379553576E+03  0.00000000000E+00 0.  1.
        -11    1    3    3    0    0 -0.24728079613E+02 -0.23767960027E+02 -0.62489476736E+02  0.71283438104E+02  0.00000000000E+00 0. -1.
         22    1    1    2    0    0 -0.38031045103E+02  0.16345595395E+03 -0.13961301482E+03  0.21830254964E+03  0.00000000000E+00 0. -1.
<mgrwt>
<rscale>  0 0.36053832E+03</rscale>
<asrwt>0</asrwt>
<pdfrwt beam="1">  1        1 0.65744007E-01 0.36053832E+03</pdfrwt>
<pdfrwt beam="2">  1       -1 0.11699303E-01 0.36053832E+03</pdfrwt>
<totfact> 0.26595593E+03</totfact>
</mgrwt>
</event>
<event>
 6    1  0.9988873E-007  0.2695949E+04  0.7818608E-02  0.8336321E-01
         -1   -1    0    0    0  501 -0.00000000000E+00  0.00000000000E+00  0.83555957590E+03  0.83555957590E+03  0.00000000000E+00 0.  1.
          1   -1    0    0  501    0  0.00000000000E+00 -0.00000000000E+00 -0.21746321815E+04  0.21746321815E+04  0.00000000000E+00 0. -1.
         23    2    1    2    0    0  0.30080962309E+03  0.10470105672E+04 -0.15537866367E+04  0.18998676280E+04  0.92339235529E+02 0.  0.
         13    1    3    3    0    0  0.14432072268E+03  0.57843203894E+03 -0.77822931670E+03  0.98033308831E+03  0.00000000000E+00 0.  1.
        -13    1    3    3    0    0  0.15648890042E+03  0.46857852824E+03 -0.77555732004E+03  0.91953453973E+03  0.00000000000E+00 0. -1.
         22    1    1    2    0    0 -0.30080962309E+03 -0.10470105672E+04  0.21471403112E+03  0.11103241294E+04  0.00000000000E+00 0.  1.
<mgrwt>
<rscale>  0 0.26959486E+04</rscale>
<asrwt>0</asrwt>
<pdfrwt beam="1">  1        1 0.33455880E+00 0.26959486E+04</pdfrwt>
<pdfrwt beam="2">  1       -1 0.12854763E+00 0.26959486E+04</pdfrwt>
<totfact> 0.10328720E+00</totfact>
</mgrwt>
</event>
<event>
 6    1  0.9988873E-007  0.2702766E+04  0.7818608E-02  0.8334108E-01
          2   -1    0    0  501    0  0.00000000000E+00  0.00000000000E+00  0.12719703422E+04  0.12719703422E+04  0.00000000000E+00 0. -1.
         -2   -1    0    0    0  501 -0.00000000000E+00 -0.00000000000E+00 -0.14357531956E+04  0.14357531956E+04  0.00000000000E+00 0.  1.
         23    2    1    2    0    0 -0.13088576972E+04  0.18762595748E+03 -0.35411231249E+03  0.13718577982E+04  0.91029210596E+02 0.  0.
         11    1    3    3    0    0 -0.28739468916E+03  0.38964727560E+02 -0.39174699135E+02  0.29265784528E+03  0.00000000000E+00 0. -1.
        -11    1    3    3    0    0 -0.10214630080E+04  0.14866122992E+03 -0.31493761336E+03  0.10791999529E+04  0.00000000000E+00 0.  1.
         22    1    1    2    0    0  0.13088576972E+04 -0.18762595748E+03  0.19032945907E+03  0.13358657397E+04  0.00000000000E+00 0.  1.
<mgrwt>
<rscale>  0 0.27027656E+04</rscale>
<asrwt>0</asrwt>
<pdfrwt beam="1">  1        2 0.19568774E+00 0.27027656E+04</pdfrwt>
<pdfrwt beam="2">  1       -2 0.22088511E+00 0.27027656E+04</pdfrwt>
<totfact> 0.14692161E+00</totfact>
</mgrwt>
</event>
<event>
 6    1  0.9988873E-007  0.2305781E+04  0.7818608E-02  0.8475645E-01
          2   -1    0    0  501    0  0.00000000000E+00  0.00000000000E+00  0.17167085527E+04  0.17167085527E+04  0.00000000000E+00 0. -1.
         -2   -1    0    0    0  501 -0.00000000000E+00 -0.00000000000E+00 -0.77424677302E+03  0.77424677302E+03  0.00000000000E+00 0.  1.
         23    2    1    2    0    0  0.10993121025E+04 -0.20373654351E+03  0.17627807450E+03  0.11355833665E+04  0.92086616424E+02 0.  0.
         11    1    3    3    0    0  0.37900364107E+03 -0.75714465700E+02  0.10512694681E+03  0.40053478651E+03  0.00000000000E+00 0. -1.
        -11    1    3    3    0    0  0.72030846139E+03 -0.12802207781E+03  0.71151127688E+02  0.73504857997E+03  0.00000000000E+00 0.  1.
         22    1    1    2    0    0 -0.10993121025E+04  0.20373654351E+03  0.76618370517E+03  0.13553719592E+04  0.00000000000E+00 0. -1.
<mgrwt>
<rscale>  0 0.23057806E+04</rscale>
<asrwt>0</asrwt>
<pdfrwt beam="1">  1        2 0.26410901E+00 0.23057806E+04</pdfrwt>
<pdfrwt beam="2">  1       -2 0.11911489E+00 0.23057806E+04</pdfrwt>
<totfact> 0.47052770E+00</totfact>
</mgrwt>
</event>
<event>
 6    1  0.9988873E-007  0.3544750E+04  0.7818608E-02  0.8103266E-01
         -2   -1    0    0    0  501 -0.00000000000E+00  0.00000000000E+00  0.17560412054E+04  0.17560412054E+04  0.00000000000E+00 0.  1.
          2   -1    0    0  501    0  0.00000000000E+00 -0.00000000000E+00 -0.17888604994E+04  0.17888604994E+04  0.00000000000E+00 0. -1.
         23    2    1    2    0    0 -0.10372755570E+03 -0.14569338454E+04  0.98550244169E+03  0.17643414579E+04  0.90939991359E+02 0.  0.
         13    1    3    3    0    0  0.29035155220E+01 -0.55093075633E+03  0.38707586207E+03  0.67332076433E+03  0.00000000000E+00 0. -1.
        -13    1    3    3    0    0 -0.10663107122E+03 -0.90600308903E+03  0.59842657963E+03  0.10910206936E+04  0.00000000000E+00 0.  1.
         22    1    1    2    0    0  0.10372755570E+03  0.14569338454E+04 -0.10183217356E+04  0.17805602469E+04  0.00000000000E+00 0. -1.
<mgrwt>
<rscale>  0 0.35447498E+04</rscale>
<asrwt>0</asrwt>
<pdfrwt beam="1">  1        2 0.27520931E+00 0.35447498E+04</pdfrwt>
<pdfrwt beam="2">  1       -2 0.27016019E+00 0.35447498E+04</pdfrwt>
<totfact> 0.34653485E-01</totfact>
</mgrwt>
</event>
<event>
 6    1  0.9988873E-007  0.1900328E+04  0.7818608E-02  0.8654693E-01
          2   -1    0    0  501    0  0.00000000000E+00  0.00000000000E+00  0.11698638512E+04  0.11698638512E+04  0.00000000000E+00 0. -1.
         -2   -1    0    0    0  501 -0.00000000000E+00 -0.00000000000E+00 -0.77172342559E+03  0.77172342559E+03  0.00000000000E+00 0.  1.
         23    2    1    2    0    0 -0.69320843271E+03 -0.89485126476E+02 -0.45462374409E+03  0.83897571865E+03  0.93016067145E+02 0.  0.
         11    1    3    3    0    0 -0.37664341637E+03 -0.63523389489E+01 -0.26685644195E+03  0.46164160982E+03  0.00000000000E+00 0.  1.
        -11    1    3    3    0    0 -0.31656501634E+03 -0.83132787527E+02 -0.18776730214E+03  0.37733410882E+03  0.00000000000E+00 0. -1.
         22    1    1    2    0    0  0.69320843271E+03  0.89485126476E+02  0.85276416970E+03  0.11026115581E+04  0.00000000000E+00 0. -1.
<mgrwt>
<rscale>  0 0.19003277E+04</rscale>
<asrwt>0</asrwt>
<pdfrwt beam="1">  1        2 0.17997905E+00 0.19003277E+04</pdfrwt>
<pdfrwt beam="2">  1       -2 0.11872668E+00 0.19003277E+04</pdfrwt>
<totfact> 0.10085928E+01</totfact>
</mgrwt>
</event>
<event>
 6    1  0.9988873E-007  0.2347154E+04  0.7818608E-02  0.8459558E-01
         -2   -1    0    0    0  501 -0.00000000000E+00  0.00000000000E+00  0.96375568823E+03  0.96375568823E+03  0.00000000000E+00 0.  1.
          2   -1    0    0  501    0  0.00000000000E+00 -0.00000000000E+00 -0.14290787771E+04  0.14290787771E+04  0.00000000000E+00 0. -1.
         23    2    1    2    0    0  0.39018556465E+03 -0.11017135497E+04 -0.32221920987E+03  0.12153387156E+04  0.84884945531E+02 0.  0.
         11    1    3    3    0    0  0.19120563572E+03 -0.41657987400E+03 -0.13081089258E+03  0.47666537128E+03  0.00000000000E+00 0. -1.
        -11    1    3    3    0    0  0.19897992893E+03 -0.68513367567E+03 -0.19140831728E+03  0.73867334430E+03  0.00000000000E+00 0.  1.
         22    1    1    2    0    0 -0.39018556465E+03  0.11017135497E+04 -0.14310387896E+03  0.11774957497E+04  0.00000000000E+00 0. -1.
<mgrwt>
<rscale>  0 0.23471539E+04</rscale>
<asrwt>0</asrwt>
<pdfrwt beam="1">  1        2 0.21985827E+00 0.23471539E+04</pdfrwt>
<pdfrwt beam="2">  1       -2 0.14827011E+00 0.23471539E+04</pdfrwt>
<totfact> 0.38868404E+00</totfact>
</mgrwt>
</event>
<event>
 6    1  0.9988873E-007  0.2259943E+04  0.7818608E-02  0.8493885E-01
         -2   -1    0    0    0  501 -0.00000000000E+00  0.00000000000E+00  0.11487408621E+04  0.11487408621E+04  0.00000000000E+00 0.  1.
          2   -1    0    0  501    0  0.00000000000E+00 -0.00000000000E+00 -0.11115087175E+04  0.11115087175E+04  0.00000000000E+00 0. -1.
         23    2    1    2    0    0  0.98270123082E+03  0.87685855471E+02  0.56577100696E+03  0.11409891776E+04  0.91481980960E+02 0.  0.
         13    1    3    3    0    0  0.54903264085E+03  0.45544984152E+02  0.26347176307E+03  0.61067876681E+03  0.00000000000E+00 0.  1.
        -13    1    3    3    0    0  0.43366858997E+03  0.42140871320E+02  0.30229924389E+03  0.53031041081E+03  0.00000000000E+00 0. -1.
         22    1    1    2    0    0 -0.98270123082E+03 -0.87685855471E+02 -0.52853886239E+03  0.11192604019E+04  0.00000000000E+00 0. -1.
<mgrwt>
<rscale>  0 0.22599429E+04</rscale>
<asrwt>0</asrwt>
<pdfrwt beam="1">  1        2 0.17100134E+00 0.22599429E+04</pdfrwt>
<pdfrwt beam="2">  1       -2 0.17672936E+00 0.22599429E+04</pdfrwt>
<totfact> 0.37247038E+00</totfact>
</mgrwt>
</event>
<event>
 6    1  0.9988873E-007  0.4434608E+04  0.7818608E-02  0.7922186E-01
         -2   -1    0    0    0  501 -0.00000000000E+00  0.00000000000E+00  0.12927182745E+04  0.12927182745E+04  0.00000000000E+00 0.  1.
          2   -1    0    0  501    0  0.00000000000E+00 -0.00000000000E+00 -0.38031778081E+04  0.38031778081E+04  0.00000000000E+00 0. -1.
         23    2    1    2    0    0  0.13846916574E+04  0.12725745362E+04 -0.26034814964E+04  0.32129542295E+04  0.90233269497E+02 0.  0.
         11    1    3    3    0    0  0.63177822751E+03  0.55603912219E+03 -0.10950903633E+04  0.13811394346E+04  0.00000000000E+00 0. -1.
        -11    1    3    3    0    0  0.75291342988E+03  0.71653541401E+03 -0.15083911331E+04  0.18318147949E+04  0.00000000000E+00 0.  1.
         22    1    1    2    0    0 -0.13846916574E+04 -0.12725745362E+04  0.93021962746E+02  0.18829418530E+04  0.00000000000E+00 0.  1.
<mgrwt>
<rscale>  0 0.44346082E+04</rscale>
<asrwt>0</asrwt>
<pdfrwt beam="1">  1        2 0.58510428E+00 0.44346082E+04</pdfrwt>
<pdfrwt beam="2">  1       -2 0.19887973E+00 0.44346082E+04</pdfrwt>
<totfact> 0.50167884E-02</totfact>
</mgrwt>
</event>
<event>
 6    1  0.9988873E-007  0.2171297E+04  0.7818608E-02  0.8530471E-01
         -1   -1    0    0    0  501 -0.00000000000E+00  0.00000000000E+00  0.46435228706E+03  0.46435228706E+03  0.00000000000E+00 0.  1.
          1   -1    0    0  501    0  0.00000000000E+00 -0.00000000000E+00 -0.25382285046E+04  0.25382285046E+04  0.00000000000E+00 0. -1.
         23    2    1    2    0    0 -0.74853205929E+03 -0.51716914796E+03 -0.18535357802E+04  0.20664643033E+04  0.83160428419E+02 0.  0.
         13    1    3    3    0    0 -0.16817103947E+03 -0.11465970812E+03 -0.34042208975E+03  0.39663023885E+03  0.00000000000E+00 0.  1.
        -13    1    3    3    0    0 -0.58036101982E+03 -0.40250943984E+03 -0.15131136905E+04  0.16698340645E+04  0.00000000000E+00 0. -1.
         22    1    1    2    0    0  0.74853205929E+03  0.51716914796E+03 -0.22034043726E+03  0.93611648831E+03  0.00000000000E+00 0.  1.
<mgrwt>
<rscale>  0 0.21712966E+04</rscale>
<asrwt>0</asrwt>
<pdfrwt beam="1">  1        1 0.39049669E+00 0.21712966E+04</pdfrwt>
<pdfrwt beam="2">  1       -1 0.71438814E-01 0.21712966E+04</pdfrwt>
<totfact> 0.23046271E+00</totfact>
</mgrwt>
</event>
<event>
 6    1  0.9988873E-007  0.3556098E+04  0.7818608E-02  0.8100623E-01
          2   -1    0    0  501    0  0.00000000000E+00  0.00000000000E+00  0.19876161948E+04  0.19876161948E+04  0.00000000000E+00 0. -1.
         -2   -1    0    0    0  501 -0.00000000000E+00 -0.00000000000E+00 -0.15905776232E+04  0.15905776232E+04  0.00000000000E+00 0.  1.
         23    2    1    2    0    0  0.85971308333E+03 -0.37025948768E+03  0.17183407743E+04  0.19589229375E+04  0.92116146057E+02 0.  0.
         11    1    3    3    0    0  0.67865099825E+03 -0.32357912623E+03  0.13264478124E+04  0.15247079810E+04  0.00000000000E+00 0.  1.
        -11    1    3    3    0    0  0.18106208507E+03 -0.46680361441E+02  0.39189296190E+03  0.43421495643E+03  0.00000000000E+00 0. -1.
         22    1    1    2    0    0 -0.85971308333E+03  0.37025948768E+03 -0.13213022026E+04  0.16192708805E+04  0.00000000000E+00 0.  1.
<mgrwt>
<rscale>  0 0.35560978E+04</rscale>
<asrwt>0</asrwt>
<pdfrwt beam="1">  1        2 0.30578711E+00 0.35560978E+04</pdfrwt>
<pdfrwt beam="2">  1       -2 0.24470425E+00 0.35560978E+04</pdfrwt>
<totfact> 0.38467863E-01</totfact>
</mgrwt>
</event>
<event>
 6    1  0.9988873E-007  0.9110473E+03  0.7818608E-02  0.9411876E-01
         -1   -1    0    0    0  501 -0.00000000000E+00  0.00000000000E+00  0.26223133240E+03  0.26223133240E+03  0.00000000000E+00 0.  1.
          1   -1    0    0  501    0  0.00000000000E+00 -0.00000000000E+00 -0.79129293573E+03  0.79129293573E+03  0.00000000000E+00 0. -1.
         23    2    1    2    0    0  0.37307222929E+03  0.62308430925E+02 -0.55152086405E+03  0.67461841278E+03  0.88710261818E+02 0.  0.
         11    1    3    3    0    0  0.70464655330E+02  0.31953924327E+02 -0.65932075347E+02  0.10165313320E+03  0.00000000000E+00 0.  1.
        -11    1    3    3    0    0  0.30260757396E+03  0.30354506597E+02 -0.48558878870E+03  0.57296527957E+03  0.00000000000E+00 0. -1.
         22    1    1    2    0    0 -0.37307222929E+03 -0.62308430925E+02  0.22459260722E+02  0.37890585535E+03  0.00000000000E+00 0.  1.
<mgrwt>
<rscale>  0 0.91104731E+03</rscale>
<asrwt>0</asrwt>
<pdfrwt beam="1">  1        1 0.12173737E+00 0.91104731E+03</pdfrwt>
<pdfrwt beam="2">  1       -1 0.40343282E-01 0.91104731E+03</pdfrwt>
<totfact> 0.13576635E+02</totfact>
</mgrwt>
</event>
<event>
 6    1  0.1648805E-006  0.3390498E+04  0.7818608E-02  0.8140242E-01
          2   -1    0    0  501    0  0.00000000000E+00  0.00000000000E+00  0.15697076322E+04  0.15697076322E+04  0.00000000000E+00 0. -1.
         -2   -1    0    0    0  501 -0.00000000000E+00 -0.00000000000E+00 -0.18308313353E+04  0.18308313353E+04  0.00000000000E+00 0.  1.
         23    2    1    2    0    0 -0.71573013110E+03  0.54390499943E+03  0.13094032864E+04  0.15909375490E+04  0.91886067732E+02 0.  0.
         11    1    3    3    0    0 -0.45211263476E+03  0.35173524727E+03  0.75548826463E+03  0.94809600604E+03  0.00000000000E+00 0. -1.
        -11    1    3    3    0    0 -0.26361749634E+03  0.19216975216E+03  0.55391502174E+03  0.64284154294E+03  0.00000000000E+00 0.  1.
         22    1    1    2    0    0  0.71573013110E+03 -0.54390499943E+03 -0.15705269895E+04  0.18096014185E+04  0.00000000000E+00 0.  1.
<mgrwt>
<rscale>  0 0.33904984E+04</rscale>
<asrwt>0</asrwt>
<pdfrwt beam="1">  1        2 0.24149348E+00 0.33904984E+04</pdfrwt>
<pdfrwt beam="2">  1       -2 0.28166636E+00 0.33904984E+04</pdfrwt>
<totfact> 0.39551064E-01</totfact>
</mgrwt>
</event>
<event>
 6    1  0.9988873E-007  0.2979790E+04  0.7818608E-02  0.8249526E-01
          2   -1    0    0  501    0  0.00000000000E+00  0.00000000000E+00  0.35114117816E+04  0.35114117816E+04  0.00000000000E+00 0. -1.
         -2   -1    0    0    0  501 -0.00000000000E+00 -0.00000000000E+00 -0.63216365390E+03  0.63216365390E+03  0.00000000000E+00 0.  1.
         23    2    1    2    0    0 -0.63994967085E+03  0.12025265496E+04  0.60687556248E+03  0.14941825317E+04  0.93154742298E+02 0.  0.
         11    1    3    3    0    0 -0.19633168529E+03  0.29034164813E+03  0.13727788423E+03  0.37641681789E+03  0.00000000000E+00 0. -1.
        -11    1    3    3    0    0 -0.44361798556E+03  0.91218490143E+03  0.46959767825E+03  0.11177657138E+04  0.00000000000E+00 0.  1.
         22    1    1    2    0    0  0.63994967085E+03 -0.12025265496E+04  0.22723725652E+04  0.26493929038E+04  0.00000000000E+00 0. -1.
<mgrwt>
<rscale>  0 0.29797899E+04</rscale>
<asrwt>0</asrwt>
<pdfrwt beam="1">  1        2 0.54021718E+00 0.29797899E+04</pdfrwt>
<pdfrwt beam="2">  1       -2 0.97255949E-01 0.29797899E+04</pdfrwt>
<totfact> 0.60320393E-01</totfact>
</mgrwt>
</event>
<event>
 6    1  0.9988873E-007  0.5524597E+04  0.7818608E-02  0.7752314E-01
         -2   -1    0    0    0  501 -0.00000000000E+00  0.00000000000E+00  0.23033881690E+04  0.23033881690E+04  0.00000000000E+00 0.  1.
          2   -1    0    0  501    0  0.00000000000E+00 -0.00000000000E+00 -0.33126384108E+04  0.33126384108E+04  0.00000000000E+00 0. -1.
         23    2    1    2    0    0 -0.13830665453E+04 -0.22310487409E+04  0.36721348795E+03  0.26520589767E+04  0.90108365158E+02 0.  0.
         11    1    3    3    0    0 -0.63887029100E+03 -0.11085803686E+04  0.16030773008E+03  0.12894976738E+04  0.00000000000E+00 0.  1.
        -11    1    3    3    0    0 -0.74419625425E+03 -0.11224683723E+04  0.20690575786E+03  0.13625613029E+04  0.00000000000E+00 0. -1.
         22    1    1    2    0    0  0.13830665453E+04  0.22310487409E+04 -0.13764637297E+04  0.29639676031E+04  0.00000000000E+00 0. -1.
<mgrwt>
<rscale>  0 0.55245967E+04</rscale>
<asrwt>0</asrwt>
<pdfrwt beam="1">  1        2 0.50963668E+00 0.55245967E+04</pdfrwt>
<pdfrwt beam="2">  1       -2 0.35436741E+00 0.55245967E+04</pdfrwt>
<totfact> 0.11127042E-02</totfact>
</mgrwt>
</event>
<event>
 6    1  0.9988873E-007  0.1502310E+04  0.7818608E-02  0.8882918E-01
         -2   -1    0    0    0  501 -0.00000000000E+00  0.00000000000E+00  0.61933195584E+03  0.61933195584E+03  0.00000000000E+00 0.  1.
          2   -1    0    0  501    0  0.00000000000E+00 -0.00000000000E+00 -0.91103666976E+03  0.91103666976E+03  0.00000000000E+00 0. -1.
         23    2    1    2    0    0  0.49253891759E+02  0.64660021662E+03  0.23422682703E+03  0.69543044121E+03  0.90793755715E+02 0.  0.
         11    1    3    3    0    0  0.71409046518E+02  0.52640148188E+03  0.17267135357E+03  0.55858138923E+03  0.00000000000E+00 0. -1.
        -11    1    3    3    0    0 -0.22155154760E+02  0.12019873474E+03  0.61555473458E+02  0.13684905198E+03  0.00000000000E+00 0.  1.
         22    1    1    2    0    0 -0.49253891759E+02 -0.64660021662E+03 -0.52593154094E+03  0.83493818439E+03  0.00000000000E+00 0. -1.
<mgrwt>
<rscale>  0 0.15023104E+04</rscale>
<asrwt>0</asrwt>
<pdfrwt beam="1">  1        2 0.14015949E+00 0.15023104E+04</pdfrwt>
<pdfrwt beam="2">  1       -2 0.95281840E-01 0.15023104E+04</pdfrwt>
<totfact> 0.25777116E+01</totfact>
</mgrwt>
</event>
<event>
 6    1  0.9988873E-007  0.3335546E+04  0.7818608E-02  0.8153909E-01
          1   -1    0    0  501    0  0.00000000000E+00  0.00000000000E+00  0.23738516910E+04  0.23738516910E+04  0.00000000000E+00 0. -1.
         -1   -1    0    0    0  501 -0.00000000000E+00 -0.00000000000E+00 -0.11717101205E+04  0.11717101205E+04  0.00000000000E+00 0.  1.
         23    2    1    2    0    0 -0.14298837741E+04  0.16392603020E+03 -0.29127475207E+03  0.14715001772E+04  0.95039146908E+02 0.  0.
         11    1    3    3    0    0 -0.93691762913E+03  0.15251968880E+03 -0.19657525362E+03  0.96939090649E+03  0.00000000000E+00 0.  1.
        -11    1    3    3    0    0 -0.49296614496E+03  0.11406341395E+02 -0.94699498450E+02  0.50210927068E+03  0.00000000000E+00 0. -1.
         22    1    1    2    0    0  0.14298837741E+04 -0.16392603020E+03  0.14934163225E+04  0.20740616344E+04  0.00000000000E+00 0. -1.
<mgrwt>
<rscale>  0 0.33355456E+04</rscale>
<asrwt>0</asrwt>
<pdfrwt beam="1">  1        1 0.36520795E+00 0.33355456E+04</pdfrwt>
<pdfrwt beam="2">  1       -1 0.18026310E+00 0.33355456E+04</pdfrwt>
<totfact> 0.28378063E-01</totfact>
</mgrwt>
</event>
<event>
 6    1  0.9988873E-007  0.2536999E+04  0.7818608E-02  0.8389922E-01
          1   -1    0    0  501    0  0.00000000000E+00  0.00000000000E+00  0.77355916036E+03  0.77355916036E+03  0.00000000000E+00 0. -1.
         -1   -1    0    0    0  501 -0.00000000000E+00 -0.00000000000E+00 -0.20801137426E+04  0.20801137426E+04  0.00000000000E+00 0.  1.
         23    2    1    2    0    0  0.41796541064E+03 -0.27782800270E+03  0.65410621811E+03  0.82979685499E+03  0.93938237209E+02 0.  0.
         13    1    3    3    0    0  0.14930702065E+03 -0.14118018432E+03  0.21710662755E+03  0.29893095956E+03  0.00000000000E+00 0.  1.
        -13    1    3    3    0    0  0.26865838999E+03 -0.13664781838E+03  0.43699959055E+03  0.53086589543E+03  0.00000000000E+00 0. -1.
         22    1    1    2    0    0 -0.41796541064E+03  0.27782800270E+03 -0.19606608004E+04  0.20238760480E+04  0.00000000000E+00 0.  1.
<mgrwt>
<rscale>  0 0.25369990E+04</rscale>
<asrwt>0</asrwt>
<pdfrwt beam="1">  1        1 0.11900910E+00 0.25369990E+04</pdfrwt>
<pdfrwt beam="2">  1       -1 0.32001750E+00 0.25369990E+04</pdfrwt>
<totfact> 0.50558127E-01</totfact>
</mgrwt>
</event>
<event>
 6    1  0.9988873E-007  0.1437391E+04  0.7818608E-02  0.8927189E-01
         -2   -1    0    0    0  501 -0.00000000000E+00  0.00000000000E+00  0.10142888190E+04  0.10142888190E+04  0.00000000000E+00 0.  1.
          2   -1    0    0  501    0  0.00000000000E+00 -0.00000000000E+00 -0.50924677088E+03  0.50924677088E+03  0.00000000000E+00 0. -1.
         23    2    1    2    0    0 -0.63919263004E+03 -0.10775063970E+03 -0.66218949822E+02  0.65952369967E+03  0.10202520504E+03 0.  0.
         11    1    3    3    0    0 -0.10914336346E+03  0.19486520670E+02 -0.17531225897E+02  0.11224679130E+03  0.00000000000E+00 0. -1.
        -11    1    3    3    0    0 -0.53004926657E+03 -0.12723716037E+03 -0.48687723925E+02  0.54727690837E+03  0.00000000000E+00 0.  1.
         22    1    1    2    0    0  0.63919263004E+03  0.10775063970E+03  0.57126099796E+03  0.86401189022E+03  0.00000000000E+00 0.  1.
<mgrwt>
<rscale>  0 0.14373911E+04</rscale>
<asrwt>0</asrwt>
<pdfrwt beam="1">  1        2 0.78345657E-01 0.14373911E+04</pdfrwt>
<pdfrwt beam="2">  1       -2 0.15604443E+00 0.14373911E+04</pdfrwt>
<totfact> 0.15758861E+01</totfact>
</mgrwt>
</event>
<event>
 6    1  0.9988873E-007  0.5207310E+03  0.7818608E-02  0.1008505E+00
         -2   -1    0    0    0  501 -0.00000000000E+00  0.00000000000E+00  0.79842455093E+02  0.79842455093E+02  0.00000000000E+00 0.  1.
          2   -1    0    0  501    0  0.00000000000E+00 -0.00000000000E+00 -0.84904944050E+03  0.84904944050E+03  0.00000000000E+00 0. -1.
         23    2    1    2    0    0 -0.18346995004E+03  0.17122023374E+03 -0.44557424657E+03  0.51936077265E+03  0.90673104886E+02 0.  0.
         11    1    3    3    0    0 -0.77258138690E+02  0.34451705679E+02 -0.21468462090E+03  0.23074927187E+03  0.00000000000E+00 0. -1.
        -11    1    3    3    0    0 -0.10621181135E+03  0.13676852807E+03 -0.23088962566E+03  0.28861150077E+03  0.00000000000E+00 0.  1.
         22    1    1    2    0    0  0.18346995004E+03 -0.17122023374E+03 -0.32363273884E+03  0.40953112295E+03  0.00000000000E+00 0.  1.
<mgrwt>
<rscale>  0 0.52073099E+03</rscale>
<asrwt>0</asrwt>
<pdfrwt beam="1">  1        2 0.13062300E+00 0.52073099E+03</pdfrwt>
<pdfrwt beam="2">  1       -2 0.12283454E-01 0.52073099E+03</pdfrwt>
<totfact> 0.15628487E+03</totfact>
</mgrwt>
</event>
<event>
 6    1  0.9988873E-007  0.1608715E+04  0.7818608E-02  0.8815212E-01
          1   -1    0    0  501    0  0.00000000000E+00  0.00000000000E+00  0.13530687694E+04  0.13530687694E+04  0.00000000000E+00 0. -1.
         -1   -1    0    0    0  501 -0.00000000000E+00 -0.00000000000E+00 -0.47816559746E+03  0.47816559746E+03  0.00000000000E+00 0.  1.
         23    2    1    2    0    0 -0.57942853105E+03  0.20004870563E+03  0.10272285259E+04  0.11996016250E+04  0.89937238888E+02 0.  0.
         13    1    3    3    0    0 -0.51411515768E+03  0.20609661701E+03  0.92405224240E+03  0.10773405950E+04  0.00000000000E+00 0. -1.
        -13    1    3    3    0    0 -0.65313373366E+02 -0.60479113834E+01  0.10317628351E+03  0.12226102998E+03  0.00000000000E+00 0.  1.
         22    1    1    2    0    0  0.57942853105E+03 -0.20004870563E+03 -0.15232535394E+03  0.63163274192E+03  0.00000000000E+00 0.  1.
<mgrwt>
<rscale>  0 0.16087149E+04</rscale>
<asrwt>0</asrwt>
<pdfrwt beam="1">  1        1 0.20816442E+00 0.16087149E+04</pdfrwt>
<pdfrwt beam="2">  1       -1 0.73563939E-01 0.16087149E+04</pdfrwt>
<totfact> 0.14800864E+01</totfact>
</mgrwt>
</event>
<event>
 6    1  0.9988873E-007  0.9321013E+03  0.7818608E-02  0.9386320E-01
         -1   -1    0    0    0  501 -0.00000000000E+00  0.00000000000E+00  0.28305644722E+03  0.28305644722E+03  0.00000000000E+00 0.  1.
          1   -1    0    0  501    0  0.00000000000E+00 -0.00000000000E+00 -0.76734947645E+03  0.76734947645E+03  0.00000000000E+00 0. -1.
         23    2    1    2    0    0  0.20407550240E+03  0.22791595329E+03  0.14565185988E+03  0.35010380618E+03  0.88123313448E+02 0.  0.
         13    1    3    3    0    0  0.16284333379E+03  0.15538326721E+03  0.65524847961E+02  0.23442571700E+03  0.00000000000E+00 0.  1.
        -13    1    3    3    0    0  0.41232168601E+02  0.72532686077E+02  0.80127011918E+02  0.11567808918E+03  0.00000000000E+00 0. -1.
         22    1    1    2    0    0 -0.20407550240E+03 -0.22791595329E+03 -0.62994488911E+03  0.70030211749E+03  0.00000000000E+00 0. -1.
<mgrwt>
<rscale>  0 0.93210132E+03</rscale>
<asrwt>0</asrwt>
<pdfrwt beam="1">  1        1 0.11805377E+00 0.93210132E+03</pdfrwt>
<pdfrwt beam="2">  1       -1 0.43547145E-01 0.93210132E+03</pdfrwt>
<totfact> 0.12369700E+02</totfact>
</mgrwt>
</event>
<event>
 6    1  0.9988873E-007  0.3636487E+04  0.7818608E-02  0.8082185E-01
          1   -1    0    0  501    0  0.00000000000E+00  0.00000000000E+00  0.16673346068E+04  0.16673346068E+04  0.00000000000E+00 0. -1.
         -1   -1    0    0    0  501 -0.00000000000E+00 -0.00000000000E+00 -0.19828106986E+04  0.19828106986E+04  0.00000000000E+00 0.  1.
         23    2    1    2    0    0  0.15946998196E+03  0.11386197767E+04  0.12546064843E+04  0.17041121693E+04  0.89862026807E+02 0.  0.
         13    1    3    3    0    0  0.12268877752E+03  0.85346412157E+03  0.88160152748E+03  0.12331564362E+04  0.00000000000E+00 0. -1.
        -13    1    3    3    0    0  0.36781204440E+02  0.28515565517E+03  0.37300495682E+03  0.47095573304E+03  0.00000000000E+00 0.  1.
         22    1    1    2    0    0 -0.15946998196E+03 -0.11386197767E+04 -0.15700825761E+04  0.19460331361E+04  0.00000000000E+00 0.  1.
<mgrwt>
<rscale>  0 0.36364867E+04</rscale>
<asrwt>0</asrwt>
<pdfrwt beam="1">  1        1 0.25651302E+00 0.36364867E+04</pdfrwt>
<pdfrwt beam="2">  1       -1 0.30504780E+00 0.36364867E+04</pdfrwt>
<totfact> 0.12392230E-01</totfact>
</mgrwt>
</event>
<event>
 6    1  0.9988873E-007  0.2102814E+04  0.7818608E-02  0.8560005E-01
         -1   -1    0    0    0  501 -0.00000000000E+00  0.00000000000E+00  0.90105731891E+03  0.90105731891E+03  0.00000000000E+00 0.  1.
          1   -1    0    0  501    0  0.00000000000E+00 -0.00000000000E+00 -0.12268439579E+04  0.12268439579E+04  0.00000000000E+00 0. -1.
         23    2    1    2    0    0 -0.99470740319E+03 -0.20958563047E+03  0.10384403945E+03  0.10242928887E+04  0.70875826944E+02 0.  0.
         11    1    3    3    0    0 -0.46201043510E+03 -0.61455804656E+02  0.43827332886E+02  0.46813597723E+03  0.00000000000E+00 0.  1.
        -11    1    3    3    0    0 -0.53269696809E+03 -0.14812982581E+03  0.60016706566E+02  0.55615691147E+03  0.00000000000E+00 0. -1.
         22    1    1    2    0    0  0.99470740319E+03  0.20958563047E+03 -0.42963067845E+03  0.11036083881E+04  0.00000000000E+00 0. -1.
<mgrwt>
<rscale>  0 0.21028140E+04</rscale>
<asrwt>0</asrwt>
<pdfrwt beam="1">  1        1 0.18874522E+00 0.21028140E+04</pdfrwt>
<pdfrwt beam="2">  1       -1 0.13862420E+00 0.21028140E+04</pdfrwt>
<totfact> 0.40398706E+00</totfact>
</mgrwt>
</event>
<event>
 6    1  0.9988873E-007  0.2238085E+04  0.7818608E-02  0.8502742E-01
         -1   -1    0    0    0  501 -0.00000000000E+00  0.00000000000E+00  0.39750979342E+03  0.39750979342E+03  0.00000000000E+00 0.  1.
          1   -1    0    0  501    0  0.00000000000E+00 -0.00000000000E+00 -0.31502509442E+04  0.31502509442E+04  0.00000000000E+00 0. -1.
         23    2    1    2    0    0  0.26462954651E+03  0.92251249636E+03 -0.22851981341E+04  0.24802146846E+04  0.90973989741E+02 0.  0.
         13    1    3    3    0    0  0.19457344946E+03  0.59866547244E+03 -0.13989415429E+04  0.15340458323E+04  0.00000000000E+00 0. -1.
        -13    1    3    3    0    0  0.70056097050E+02  0.32384702392E+03 -0.88625659125E+03  0.94616885236E+03  0.00000000000E+00 0.  1.
         22    1    1    2    0    0 -0.26462954651E+03 -0.92251249636E+03 -0.46754301665E+03  0.10675460530E+04  0.00000000000E+00 0.  1.
<mgrwt>
<rscale>  0 0.22380845E+04</rscale>
<asrwt>0</asrwt>
<pdfrwt beam="1">  1        1 0.48465398E+00 0.22380845E+04</pdfrwt>
<pdfrwt beam="2">  1       -1 0.61155355E-01 0.22380845E+04</pdfrwt>
<totfact> 0.11425393E+00</totfact>
</mgrwt>
</event>
<event>
 6    1  0.9988873E-007  0.2962536E+04  0.7818608E-02  0.8254511E-01
         -2   -1    0    0    0  501 -0.00000000000E+00  0.00000000000E+00  0.13617874066E+04  0.13617874066E+04  0.00000000000E+00 0.  1.
          2   -1    0    0  501    0  0.00000000000E+00 -0.00000000000E+00 -0.16112313415E+04  0.16112313415E+04  0.00000000000E+00 0. -1.
         23    2    1    2    0    0  0.14413496125E+04 -0.16437161383E+03 -0.41839248096E+03  0.15125221394E+04  0.90356078473E+02 0.  0.
         13    1    3    3    0    0  0.81792361303E+03 -0.52511332197E+02 -0.25592491647E+03  0.85863498626E+03  0.00000000000E+00 0. -1.
        -13    1    3    3    0    0  0.62342599951E+03 -0.11186028163E+03 -0.16246756449E+03  0.65388715310E+03  0.00000000000E+00 0.  1.
         22    1    1    2    0    0 -0.14413496125E+04  0.16437161383E+03  0.16894854601E+03  0.14604966088E+04  0.00000000000E+00 0.  1.
<mgrwt>
<rscale>  0 0.29625358E+04</rscale>
<asrwt>0</asrwt>
<pdfrwt beam="1">  1        2 0.24788174E+00 0.29625358E+04</pdfrwt>
<pdfrwt beam="2">  1       -2 0.20950576E+00 0.29625358E+04</pdfrwt>
<totfact> 0.10887950E+00</totfact>
</mgrwt>
</event>
<event>
 6    1  0.9988873E-007  0.3375053E+04  0.7818608E-02  0.8144057E-01
          1   -1    0    0  501    0  0.00000000000E+00  0.00000000000E+00  0.19908294450E+04  0.19908294450E+04  0.00000000000E+00 0. -1.
         -1   -1    0    0    0  501 -0.00000000000E+00 -0.00000000000E+00 -0.14304314161E+04  0.14304314161E+04  0.00000000000E+00 0.  1.
         23    2    1    2    0    0  0.15419537658E+04 -0.51090171471E+03 -0.17844476382E+03  0.16367355320E+04  0.91753419495E+02 0.  0.
         11    1    3    3    0    0  0.92525830480E+03 -0.31683144837E+03 -0.15148157538E+03  0.98966245001E+03  0.00000000000E+00 0.  1.
        -11    1    3    3    0    0  0.61669546098E+03 -0.19407026634E+03 -0.26963188436E+02  0.64707308196E+03  0.00000000000E+00 0. -1.
         22    1    1    2    0    0 -0.15419537658E+04  0.51090171471E+03  0.73884279272E+03  0.17845253291E+04  0.00000000000E+00 0. -1.
<mgrwt>
<rscale>  0 0.33750526E+04</rscale>
<asrwt>0</asrwt>
<pdfrwt beam="1">  1        1 0.30628146E+00 0.33750526E+04</pdfrwt>
<pdfrwt beam="2">  1       -1 0.22006637E+00 0.33750526E+04</pdfrwt>
<totfact> 0.27400986E-01</totfact>
</mgrwt>
</event>
<event>
 6    1  0.9988873E-007  0.3715839E+04  0.7818608E-02  0.8064461E-01
         -2   -1    0    0    0  501 -0.00000000000E+00  0.00000000000E+00  0.18383421057E+04  0.18383421057E+04  0.00000000000E+00 0.  1.
          2   -1    0    0  501    0  0.00000000000E+00 -0.00000000000E+00 -0.18777052329E+04  0.18777052329E+04  0.00000000000E+00 0. -1.
         23    2    1    2    0    0  0.17277298428E+04  0.41279819047E+03  0.52113934075E+03  0.18533568726E+04  0.88841032694E+02 0.  0.
         13    1    3    3    0    0  0.15622590657E+04  0.34720999355E+03  0.47741101636E+03  0.16700686952E+04  0.00000000000E+00 0.  1.
        -13    1    3    3    0    0  0.16547077705E+03  0.65588196913E+02  0.43728324396E+02  0.18328817743E+03  0.00000000000E+00 0. -1.
         22    1    1    2    0    0 -0.17277298428E+04 -0.41279819047E+03 -0.56050246791E+03  0.18626904660E+04  0.00000000000E+00 0. -1.
<mgrwt>
<rscale>  0 0.37158389E+04</rscale>
<asrwt>0</asrwt>
<pdfrwt beam="1">  1        2 0.28887773E+00 0.37158389E+04</pdfrwt>
<pdfrwt beam="2">  1       -2 0.28282186E+00 0.37158389E+04</pdfrwt>
<totfact> 0.25532194E-01</totfact>
</mgrwt>
</event>
<event>
 6    1  0.9988873E-007  0.1294400E+04  0.7818608E-02  0.9034018E-01
         -1   -1    0    0    0  501 -0.00000000000E+00  0.00000000000E+00  0.17487840330E+03  0.17487840330E+03  0.00000000000E+00 0.  1.
          1   -1    0    0  501    0  0.00000000000E+00 -0.00000000000E+00 -0.23951932733E+04  0.23951932733E+04  0.00000000000E+00 0. -1.
         23    2    1    2    0    0 -0.63635742677E+03  0.41304363381E+02 -0.12936082460E+04  0.14451530164E+04  0.91586689890E+02 0.  0.
         11    1    3    3    0    0 -0.41275660897E+03  0.69031319152E+02 -0.81522896982E+03  0.91636871100E+03  0.00000000000E+00 0.  1.
        -11    1    3    3    0    0 -0.22360081779E+03 -0.27726955771E+02 -0.47837927613E+03  0.52878430539E+03  0.00000000000E+00 0. -1.
         22    1    1    2    0    0  0.63635742677E+03 -0.41304363381E+02 -0.92670662406E+03  0.11249186602E+04  0.00000000000E+00 0.  1.
<mgrwt>
<rscale>  0 0.12943996E+04</rscale>
<asrwt>0</asrwt>
<pdfrwt beam="1">  1        1 0.36849126E+00 0.12943996E+04</pdfrwt>
<pdfrwt beam="2">  1       -1 0.26904371E-01 0.12943996E+04</pdfrwt>
<totfact> 0.19493366E+01</totfact>
</mgrwt>
</event>
<event>
 6    1  0.9988873E-007  0.1066496E+04  0.7818608E-02  0.9238477E-01
          1   -1    0    0  501    0  0.00000000000E+00  0.00000000000E+00  0.28067116923E+03  0.28067116923E+03  0.00000000000E+00 0. -1.
         -1   -1    0    0    0  501 -0.00000000000E+00 -0.00000000000E+00 -0.10131198219E+04  0.10131198219E+04  0.00000000000E+00 0.  1.
         23    2    1    2    0    0  0.14015392737E+03  0.18873981568E+03  0.20634914392E+03  0.32600633312E+03  0.91838546703E+02 0.  0.
         11    1    3    3    0    0  0.98108466896E+00  0.51953639786E+02  0.73200690962E+02  0.89769061327E+02  0.00000000000E+00 0. -1.
        -11    1    3    3    0    0  0.13917284270E+03  0.13678617589E+03  0.13314845296E+03  0.23623727180E+03  0.00000000000E+00 0.  1.
         22    1    1    2    0    0 -0.14015392737E+03 -0.18873981568E+03 -0.93879779656E+03  0.96778465797E+03  0.00000000000E+00 0.  1.
<mgrwt>
<rscale>  0 0.10664962E+04</rscale>
<asrwt>0</asrwt>
<pdfrwt beam="1">  1        1 0.43180180E-01 0.10664962E+04</pdfrwt>
<pdfrwt beam="2">  1       -1 0.15586459E+00 0.10664962E+04</pdfrwt>
<totfact> 0.30020381E+01</totfact>
</mgrwt>
</event>
<event>
 6    1  0.9988873E-007  0.2085314E+04  0.7818608E-02  0.8567740E-01
         -2   -1    0    0    0  501 -0.00000000000E+00  0.00000000000E+00  0.44752009892E+03  0.44752009892E+03  0.00000000000E+00 0.  1.
          2   -1    0    0  501    0  0.00000000000E+00 -0.00000000000E+00 -0.24292404917E+04  0.24292404917E+04  0.00000000000E+00 0. -1.
         23    2    1    2    0    0  0.75351040827E+03 -0.21385969154E+03 -0.44348882605E+02  0.78704236285E+03  0.62888428887E+02 0.  0.
         13    1    3    3    0    0  0.28782791032E+03 -0.56439632740E+02 -0.34930731229E+02  0.29538194611E+03  0.00000000000E+00 0.  1.
        -13    1    3    3    0    0  0.46568249795E+03 -0.15742005880E+03 -0.94181513763E+01  0.49166041674E+03  0.00000000000E+00 0. -1.
         22    1    1    2    0    0 -0.75351040827E+03  0.21385969154E+03 -0.19373715102E+04  0.20897182278E+04  0.00000000000E+00 0. -1.
<mgrwt>
<rscale>  0 0.20853143E+04</rscale>
<asrwt>0</asrwt>
<pdfrwt beam="1">  1        2 0.37372931E+00 0.20853143E+04</pdfrwt>
<pdfrwt beam="2">  1       -2 0.68849246E-01 0.20853143E+04</pdfrwt>
<totfact> 0.68029888E+00</totfact>
</mgrwt>
</event>
<event>
 6    1  0.9988873E-007  0.2211606E+04  0.7818608E-02  0.8513613E-01
         -2   -1    0    0    0  501 -0.00000000000E+00  0.00000000000E+00  0.58764741526E+03  0.58764741526E+03  0.00000000000E+00 0.  1.
          2   -1    0    0  501    0  0.00000000000E+00 -0.00000000000E+00 -0.20808396218E+04  0.20808396218E+04  0.00000000000E+00 0. -1.
         23    2    1    2    0    0 -0.16393087526E+03  0.82687019949E+03  0.11191491511E+03  0.85549047593E+03  0.93548637233E+02 0.  0.
         13    1    3    3    0    0 -0.40311990627E+02  0.30220071693E+03 -0.39979446696E+00  0.30487782756E+03  0.00000000000E+00 0. -1.
        -13    1    3    3    0    0 -0.12361888463E+03  0.52466948255E+03  0.11231470958E+03  0.55061264837E+03  0.00000000000E+00 0.  1.
         22    1    1    2    0    0  0.16393087526E+03 -0.82687019949E+03 -0.16051071216E+04  0.18129965611E+04  0.00000000000E+00 0. -1.
<mgrwt>
<rscale>  0 0.22116058E+04</rscale>
<asrwt>0</asrwt>
<pdfrwt beam="1">  1        2 0.32012917E+00 0.22116058E+04</pdfrwt>
<pdfrwt beam="2">  1       -2 0.90407294E-01 0.22116058E+04</pdfrwt>
<totfact> 0.57510788E+00</totfact>
</mgrwt>
</event>
<event>
 6    1  0.9988873E-007  0.9976749E+03  0.7818608E-02  0.9311099E-01
          2   -1    0    0  501    0  0.00000000000E+00  0.00000000000E+00  0.10777926702E+04  0.10777926702E+04  0.00000000000E+00 0. -1.
         -2   -1    0    0    0  501 -0.00000000000E+00 -0.00000000000E+00 -0.23087815485E+03  0.23087815485E+03  0.00000000000E+00 0.  1.
         23    2    1    2    0    0  0.24155306617E+03 -0.33548550912E+03  0.71187250182E+02  0.42966502272E+03  0.92983851062E+02 0.  0.
         13    1    3    3    0    0  0.87854735318E+02 -0.54926071801E+02  0.11561121522E+02  0.10425443593E+03  0.00000000000E+00 0.  1.
        -13    1    3    3    0    0  0.15369833085E+03 -0.28055943732E+03  0.59626128659E+02  0.32541058679E+03  0.00000000000E+00 0. -1.
         22    1    1    2    0    0 -0.24155306617E+03  0.33548550912E+03  0.77572726518E+03  0.87900580234E+03  0.00000000000E+00 0. -1.
<mgrwt>
<rscale>  0 0.99767486E+03</rscale>
<asrwt>0</asrwt>
<pdfrwt beam="1">  1        2 0.16581425E+00 0.99767486E+03</pdfrwt>
<pdfrwt beam="2">  1       -2 0.35519717E-01 0.99767486E+03</pdfrwt>
<totfact> 0.16701902E+02</totfact>
</mgrwt>
</event>
<event>
 6    1  0.9988873E-007  0.1597448E+04  0.7818608E-02  0.8822117E-01
         -1   -1    0    0    0  501 -0.00000000000E+00  0.00000000000E+00  0.95237914123E+03  0.95237914123E+03  0.00000000000E+00 0.  1.
          1   -1    0    0  501    0  0.00000000000E+00 -0.00000000000E+00 -0.66985913278E+03  0.66985913278E+03  0.00000000000E+00 0. -1.
         23    2    1    2    0    0 -0.33008591014E+03  0.57913216927E+01  0.87750934535E+03  0.94179536053E+03  0.89250223793E+02 0.  0.
         11    1    3    3    0    0 -0.16493502667E+03  0.22804405288E+02  0.54933847162E+03  0.57401773520E+03  0.00000000000E+00 0. -1.
        -11    1    3    3    0    0 -0.16515088346E+03 -0.17013083596E+02  0.32817087374E+03  0.36777762533E+03  0.00000000000E+00 0.  1.
         22    1    1    2    0    0  0.33008591014E+03 -0.57913216927E+01 -0.59498933690E+03  0.68044291348E+03  0.00000000000E+00 0. -1.
<mgrwt>
<rscale>  0 0.15974478E+04</rscale>
<asrwt>0</asrwt>
<pdfrwt beam="1">  1        1 0.10305525E+00 0.15974478E+04</pdfrwt>
<pdfrwt beam="2">  1       -1 0.14651987E+00 0.15974478E+04</pdfrwt>
<totfact> 0.10385967E+01</totfact>
</mgrwt>
</event>
<event>
 6    1  0.9988873E-007  0.3257275E+04  0.7818608E-02  0.8173853E-01
          2   -1    0    0  501    0  0.00000000000E+00  0.00000000000E+00  0.30403096582E+04  0.30403096582E+04  0.00000000000E+00 0. -1.
         -2   -1    0    0    0  501 -0.00000000000E+00 -0.00000000000E+00 -0.87243105906E+03  0.87243105906E+03  0.00000000000E+00 0.  1.
         23    2    1    2    0    0 -0.10034823821E+04 -0.11540225860E+04  0.17531484842E+04  0.23282073195E+04  0.90965350478E+02 0.  0.
         11    1    3    3    0    0 -0.87484425923E+03 -0.10421626064E+04  0.15815567000E+04  0.20863309831E+04  0.00000000000E+00 0. -1.
        -11    1    3    3    0    0 -0.12863812286E+03 -0.11185997966E+03  0.17159178420E+03  0.24187633640E+03  0.00000000000E+00 0.  1.
         22    1    1    2    0    0  0.10034823821E+04  0.11540225860E+04  0.41473011496E+03  0.15845333977E+04  0.00000000000E+00 0.  1.
<mgrwt>
<rscale>  0 0.32572753E+04</rscale>
<asrwt>0</asrwt>
<pdfrwt beam="1">  1        2 0.46773994E+00 0.32572753E+04</pdfrwt>
<pdfrwt beam="2">  1       -2 0.13422016E+00 0.32572753E+04</pdfrwt>
<totfact> 0.55069382E-01</totfact>
</mgrwt>
</event>
<event>
 6    1  0.9988873E-007  0.7007559E+03  0.7818608E-02  0.9715940E-01
          1   -1    0    0  501    0  0.00000000000E+00  0.00000000000E+00  0.73007828061E+03  0.73007828061E+03  0.00000000000E+00 0. -1.
         -1   -1    0    0    0  501 -0.00000000000E+00 -0.00000000000E+00 -0.16815279295E+03  0.16815279295E+03  0.00000000000E+00 0.  1.
         23    2    1    2    0    0  0.21844591463E+02  0.32798895476E+03  0.41717673322E+03  0.53905682263E+03  0.92151455042E+02 0.  0.
         11    1    3    3    0    0  0.47868528205E+02  0.24984296646E+03  0.35050179058E+03  0.43308706871E+03  0.00000000000E+00 0. -1.
        -11    1    3    3    0    0 -0.26023936743E+02  0.78145988299E+02  0.66674942640E+02  0.10596975392E+03  0.00000000000E+00 0.  1.
         22    1    1    2    0    0 -0.21844591463E+02 -0.32798895476E+03  0.14474875444E+03  0.35917425093E+03  0.00000000000E+00 0. -1.
<mgrwt>
<rscale>  0 0.70075588E+03</rscale>
<asrwt>0</asrwt>
<pdfrwt beam="1">  1        1 0.11231973E+00 0.70075588E+03</pdfrwt>
<pdfrwt beam="2">  1       -1 0.25869661E-01 0.70075588E+03</pdfrwt>
<totfact> 0.34102298E+02</totfact>
</mgrwt>
</event>
<event>
 6    1  0.9988873E-007  0.5426274E+04  0.7818608E-02  0.7765916E-01
          2   -1    0    0  501    0  0.00000000000E+00  0.00000000000E+00  0.22598820756E+04  0.22598820756E+04  0.00000000000E+00 0. -1.
         -2   -1    0    0    0  501 -0.00000000000E+00 -0.00000000000E+00 -0.32572998789E+04  0.32572998789E+04  0.00000000000E+00 0.  1.
         23    2    1    2    0    0 -0.19516867741E+04 -0.59967045229E+03  0.13166444704E+04  0.24311537431E+04  0.90939240335E+02 0.  0.
         11    1    3    3    0    0 -0.15836111627E+04 -0.52277195739E+03  0.10821657368E+04  0.19880134597E+04  0.00000000000E+00 0. -1.
        -11    1    3    3    0    0 -0.36807561139E+03 -0.76898494893E+02  0.23447873359E+03  0.44314028334E+03  0.00000000000E+00 0.  1.
         22    1    1    2    0    0  0.19516867741E+04  0.59967045229E+03 -0.23140622736E+04  0.30860282114E+04  0.00000000000E+00 0.  1.
<mgrwt>
<rscale>  0 0.54262745E+04</rscale>
<asrwt>0</asrwt>
<pdfrwt beam="1">  1        2 0.34767416E+00 0.54262745E+04</pdfrwt>
<pdfrwt beam="2">  1       -2 0.50112306E+00 0.54262745E+04</pdfrwt>
<totfact> 0.55088000E-03</totfact>
</mgrwt>
</event>
<event>
 6    1  0.9988873E-007  0.3079028E+04  0.7818608E-02  0.8221517E-01
          2   -1    0    0  501    0  0.00000000000E+00  0.00000000000E+00  0.34400072246E+04  0.34400072246E+04  0.00000000000E+00 0. -1.
         -2   -1    0    0    0  501 -0.00000000000E+00 -0.00000000000E+00 -0.68898213425E+03  0.68898213425E+03  0.00000000000E+00 0.  1.
         23    2    1    2    0    0 -0.47944749325E+03  0.10170980578E+04  0.27842011194E+04  0.30040631360E+04  0.90890559891E+02 0.  0.
         13    1    3    3    0    0 -0.31065389758E+03  0.59508157578E+03  0.17530333638E+04  0.18771664552E+04  0.00000000000E+00 0. -1.
        -13    1    3    3    0    0 -0.16879359567E+03  0.42201648201E+03  0.10311677556E+04  0.11268966808E+04  0.00000000000E+00 0.  1.
         22    1    1    2    0    0  0.47944749325E+03 -0.10170980578E+04 -0.33176029050E+02  0.11249262228E+04  0.00000000000E+00 0.  1.
<mgrwt>
<rscale>  0 0.30790281E+04</rscale>
<asrwt>0</asrwt>
<pdfrwt beam="1">  1        2 0.52923187E+00 0.30790281E+04</pdfrwt>
<pdfrwt beam="2">  1       -2 0.10599725E+00 0.30790281E+04</pdfrwt>
<totfact> 0.54638579E-01</totfact>
</mgrwt>
</event>
<event>
 6    1  0.9988873E-007  0.1200652E+04  0.7818608E-02  0.9112286E-01
         -2   -1    0    0    0  501 -0.00000000000E+00  0.00000000000E+00  0.21216169139E+03  0.21216169139E+03  0.00000000000E+00 0.  1.
          2   -1    0    0  501    0  0.00000000000E+00 -0.00000000000E+00 -0.16986624941E+04  0.16986624941E+04  0.00000000000E+00 0. -1.
         23    2    1    2    0    0  0.18625463674E+03 -0.47410303309E+03 -0.25370714965E+03  0.57694088224E+03  0.95020987813E+02 0.  0.
         13    1    3    3    0    0  0.73825059035E+02 -0.12316147503E+03 -0.32806372569E+02  0.14729272336E+03  0.00000000000E+00 0.  1.
        -13    1    3    3    0    0  0.11242957771E+03 -0.35094155805E+03 -0.22090077708E+03  0.42964815888E+03  0.00000000000E+00 0. -1.
         22    1    1    2    0    0 -0.18625463674E+03  0.47410303309E+03 -0.12327936531E+04  0.13338833033E+04  0.00000000000E+00 0.  1.
<mgrwt>
<rscale>  0 0.12006517E+04</rscale>
<asrwt>0</asrwt>
<pdfrwt beam="1">  1        2 0.26133268E+00 0.12006517E+04</pdfrwt>
<pdfrwt beam="2">  1       -2 0.32640261E-01 0.12006517E+04</pdfrwt>
<totfact> 0.84802259E+01</totfact>
</mgrwt>
</event>
<event>
 6    1  0.9988873E-007  0.1115676E+04  0.7818608E-02  0.9190046E-01
         -2   -1    0    0    0  501 -0.00000000000E+00  0.00000000000E+00  0.43178770424E+03  0.43178770424E+03  0.00000000000E+00 0.  1.
          2   -1    0    0  501    0  0.00000000000E+00 -0.00000000000E+00 -0.72068548763E+03  0.72068548763E+03  0.00000000000E+00 0. -1.
         23    2    1    2    0    0  0.37971953986E+03  0.20836096420E+03 -0.50339703306E+03  0.66913981989E+03  0.82087181204E+02 0.  0.
         11    1    3    3    0    0  0.12413672354E+03  0.11115943000E+03 -0.20993385151E+03  0.26802717589E+03  0.00000000000E+00 0.  1.
        -11    1    3    3    0    0  0.25558281632E+03  0.97201534206E+02 -0.29346318155E+03  0.40111264400E+03  0.00000000000E+00 0. -1.
         22    1    1    2    0    0 -0.37971953986E+03 -0.20836096420E+03  0.21449924967E+03  0.48333337197E+03  0.00000000000E+00 0.  1.
<mgrwt>
<rscale>  0 0.11156758E+04</rscale>
<asrwt>0</asrwt>
<pdfrwt beam="1">  1        2 0.11087469E+00 0.11156758E+04</pdfrwt>
<pdfrwt beam="2">  1       -2 0.66428878E-01 0.11156758E+04</pdfrwt>
<totfact> 0.81620511E+01</totfact>
</mgrwt>
</event>
<event>
 6    1  0.9988873E-007  0.8183464E+03  0.7818608E-02  0.9533835E-01
         -1   -1    0    0    0  501 -0.00000000000E+00  0.00000000000E+00  0.39456252909E+03  0.39456252909E+03  0.00000000000E+00 0.  1.
          1   -1    0    0  501    0  0.00000000000E+00 -0.00000000000E+00 -0.42432495487E+03  0.42432495487E+03  0.00000000000E+00 0. -1.
         23    2    1    2    0    0 -0.21928233757E+02  0.27720925465E+03  0.27817993960E+03  0.40397265089E+03  0.92108661765E+02 0.  0.
         13    1    3    3    0    0  0.13775526036E+01  0.20699309320E+02  0.69345540483E+02  0.72382062988E+02  0.00000000000E+00 0. -1.
        -13    1    3    3    0    0 -0.23305786360E+02  0.25650994533E+03  0.20883439912E+03  0.33159058790E+03  0.00000000000E+00 0.  1.
         22    1    1    2    0    0  0.21928233757E+02 -0.27720925465E+03 -0.30794236538E+03  0.41491483307E+03  0.00000000000E+00 0. -1.
<mgrwt>
<rscale>  0 0.81834645E+03</rscale>
<asrwt>0</asrwt>
<pdfrwt beam="1">  1        1 0.65280762E-01 0.81834645E+03</pdfrwt>
<pdfrwt beam="2">  1       -1 0.60701928E-01 0.81834645E+03</pdfrwt>
<totfact> 0.15432244E+02</totfact>
</mgrwt>
</event>
<event>
 6    1  0.9988873E-007  0.1233810E+04  0.7818608E-02  0.9083766E-01
          2   -1    0    0  501    0  0.00000000000E+00  0.00000000000E+00  0.23099720936E+03  0.23099720936E+03  0.00000000000E+00 0. -1.
         -2   -1    0    0    0  501 -0.00000000000E+00 -0.00000000000E+00 -0.16475179645E+04  0.16475179645E+04  0.00000000000E+00 0.  1.
         23    2    1    2    0    0 -0.46435661786E+03  0.22488603673E+03 -0.20649095969E+03  0.56307878090E+03  0.90655385896E+02 0.  0.
         11    1    3    3    0    0 -0.30996178743E+03  0.11422557869E+03 -0.99179779117E+02  0.34490639466E+03  0.00000000000E+00 0. -1.
        -11    1    3    3    0    0 -0.15439483043E+03  0.11066045804E+03 -0.10731118058E+03  0.21817238623E+03  0.00000000000E+00 0.  1.
         22    1    1    2    0    0  0.46435661786E+03 -0.22488603673E+03 -0.12100297954E+04  0.13154363929E+04  0.00000000000E+00 0.  1.
<mgrwt>
<rscale>  0 0.12338104E+04</rscale>
<asrwt>0</asrwt>
<pdfrwt beam="1">  1        2 0.35538032E-01 0.12338104E+04</pdfrwt>
<pdfrwt beam="2">  1       -2 0.25346430E+00 0.12338104E+04</pdfrwt>
<totfact> 0.88844703E+00</totfact>
</mgrwt>
</event>
<event>
 6    1  0.9988873E-007  0.1612859E+04  0.7818608E-02  0.8812687E-01
         -1   -1    0    0    0  501 -0.00000000000E+00  0.00000000000E+00  0.31571722933E+03  0.31571722933E+03  0.00000000000E+00 0.  1.
          1   -1    0    0  501    0  0.00000000000E+00 -0.00000000000E+00 -0.20598439015E+04  0.20598439015E+04  0.00000000000E+00 0. -1.
         23    2    1    2    0    0  0.34369265771E+02  0.35264093694E+03  0.18766419578E+03  0.41154666186E+03  0.92822021478E+02 0.  0.
         11    1    3    3    0    0  0.18129670464E+02  0.10390317131E+03  0.10526204468E+03  0.14901225457E+03  0.00000000000E+00 0.  1.
        -11    1    3    3    0    0  0.16239595308E+02  0.24873776563E+03  0.82402151094E+02  0.26253440729E+03  0.00000000000E+00 0. -1.
         22    1    1    2    0    0 -0.34369265771E+02 -0.35264093694E+03 -0.19317908680E+04  0.19640144690E+04  0.00000000000E+00 0. -1.
<mgrwt>
<rscale>  0 0.16128586E+04</rscale>
<asrwt>0</asrwt>
<pdfrwt beam="1">  1        1 0.31689907E+00 0.16128586E+04</pdfrwt>
<pdfrwt beam="2">  1       -1 0.48571880E-01 0.16128586E+04</pdfrwt>
<totfact> 0.11038299E+01</totfact>
</mgrwt>
</event>
<event>
 6    1  0.9988873E-007  0.1970698E+04  0.7818608E-02  0.8620444E-01
         -2   -1    0    0    0  501 -0.00000000000E+00  0.00000000000E+00  0.20159767237E+04  0.20159767237E+04  0.00000000000E+00 0.  1.
          2   -1    0    0  501    0  0.00000000000E+00 -0.00000000000E+00 -0.48160915413E+03  0.48160915413E+03  0.00000000000E+00 0. -1.
         23    2    1    2    0    0  0.91470439240E+02  0.63627853513E+03 -0.17390298965E+03  0.67237204954E+03  0.92869304241E+02 0.  0.
         11    1    3    3    0    0 -0.35012628783E+01  0.29541889445E+03 -0.70603762671E+02  0.30375890661E+03  0.00000000000E+00 0.  1.
        -11    1    3    3    0    0  0.94971702118E+02  0.34085964068E+03 -0.10329922698E+03  0.36861314293E+03  0.00000000000E+00 0. -1.
         22    1    1    2    0    0 -0.91470439240E+02 -0.63627853513E+03  0.17082705592E+04  0.18252138283E+04  0.00000000000E+00 0.  1.
<mgrwt>
<rscale>  0 0.19706982E+04</rscale>
<asrwt>0</asrwt>
<pdfrwt beam="1">  1        2 0.74093717E-01 0.19706982E+04</pdfrwt>
<pdfrwt beam="2">  1       -2 0.31015026E+00 0.19706982E+04</pdfrwt>
<totfact> 0.16517223E+00</totfact>
</mgrwt>
</event>
<event>
 6    1  0.9988873E-007  0.1425995E+04  0.7818608E-02  0.8935214E-01
          2   -1    0    0  501    0  0.00000000000E+00  0.00000000000E+00  0.96418573258E+03  0.96418573258E+03  0.00000000000E+00 0. -1.
         -2   -1    0    0    0  501 -0.00000000000E+00 -0.00000000000E+00 -0.52724869025E+03  0.52724869025E+03  0.00000000000E+00 0.  1.
         23    2    1    2    0    0  0.62836963136E+03 -0.16860048752E+03  0.51703483149E+03  0.83592685320E+03  0.90411110618E+02 0.  0.
         11    1    3    3    0    0  0.47586963254E+03 -0.12418630043E+03  0.33892525098E+03  0.59728089719E+03  0.00000000000E+00 0.  1.
        -11    1    3    3    0    0  0.15249999882E+03 -0.44414187087E+02  0.17810958051E+03  0.23864595602E+03  0.00000000000E+00 0. -1.
         22    1    1    2    0    0 -0.62836963136E+03  0.16860048752E+03 -0.80097789150E+02  0.65550756963E+03  0.00000000000E+00 0.  1.
<mgrwt>
<rscale>  0 0.14259953E+04</rscale>
<asrwt>0</asrwt>
<pdfrwt beam="1">  1        2 0.14833627E+00 0.14259953E+04</pdfrwt>
<pdfrwt beam="2">  1       -2 0.81115183E-01 0.14259953E+04</pdfrwt>
<totfact> 0.34597884E+01</totfact>
</mgrwt>
</event>
<event>
 6    1  0.9988873E-007  0.1614376E+04  0.7818608E-02  0.8811765E-01
          1   -1    0    0  501    0  0.00000000000E+00  0.00000000000E+00  0.45331124191E+03  0.45331124191E+03  0.00000000000E+00 0. -1.
         -1   -1    0    0    0  501 -0.00000000000E+00 -0.00000000000E+00 -0.14373182707E+04  0.14373182707E+04  0.00000000000E+00 0.  1.
         23    2    1    2    0    0 -0.69811619026E+03  0.31239747795E+03 -0.19980679279E+03  0.79521707455E+03  0.86539250522E+02 0.  0.
         11    1    3    3    0    0 -0.51882703920E+03  0.27146241602E+03 -0.16065035374E+03  0.60719179513E+03  0.00000000000E+00 0. -1.
        -11    1    3    3    0    0 -0.17928915105E+03  0.40935061932E+02 -0.39156439054E+02  0.18802527942E+03  0.00000000000E+00 0.  1.
         22    1    1    2    0    0  0.69811619026E+03 -0.31239747795E+03 -0.78420023604E+03  0.10954124381E+04  0.00000000000E+00 0. -1.
<mgrwt>
<rscale>  0 0.16143761E+04</rscale>
<asrwt>0</asrwt>
<pdfrwt beam="1">  1        1 0.69740193E-01 0.16143761E+04</pdfrwt>
<pdfrwt beam="2">  1       -1 0.22112588E+00 0.16143761E+04</pdfrwt>
<totfact> 0.52546104E+00</totfact>
</mgrwt>
</event>
<event>
 6    1  0.9988873E-007  0.1962092E+04  0.7818608E-02  0.8624552E-01
         -1   -1    0    0    0  501 -0.00000000000E+00  0.00000000000E+00  0.28940774668E+03  0.28940774668E+03  0.00000000000E+00 0.  1.
          1   -1    0    0  501    0  0.00000000000E+00 -0.00000000000E+00 -0.33255887191E+04  0.33255887191E+04  0.00000000000E+00 0. -1.
         23    2    1    2    0    0 -0.82986289469E+03 -0.15413220047E+03 -0.24343410176E+04  0.25783477835E+04  0.97118194354E+02 0.  0.
         11    1    3    3    0    0 -0.55322526497E+03 -0.13796570546E+03 -0.17256986227E+04  0.18174510905E+04  0.00000000000E+00 0.  1.
        -11    1    3    3    0    0 -0.27663762972E+03 -0.16166495011E+02 -0.70864239485E+03  0.76089669306E+03  0.00000000000E+00 0. -1.
         22    1    1    2    0    0  0.82986289469E+03  0.15413220047E+03 -0.60183995481E+03  0.10366486822E+04  0.00000000000E+00 0.  1.
<mgrwt>
<rscale>  0 0.19620919E+04</rscale>
<asrwt>0</asrwt>
<pdfrwt beam="1">  1        1 0.51162902E+00 0.19620919E+04</pdfrwt>
<pdfrwt beam="2">  1       -1 0.44524270E-01 0.19620919E+04</pdfrwt>
<totfact> 0.15932010E+00</totfact>
</mgrwt>
</event>
<event>
 6    1  0.9988873E-007  0.1820737E+04  0.7818608E-02  0.8695349E-01
          1   -1    0    0  501    0  0.00000000000E+00  0.00000000000E+00  0.79126579412E+03  0.79126579412E+03  0.00000000000E+00 0. -1.
         -1   -1    0    0    0  501 -0.00000000000E+00 -0.00000000000E+00 -0.10473988830E+04  0.10473988830E+04  0.00000000000E+00 0.  1.
         23    2    1    2    0    0  0.67604670785E+03  0.38659516862E+03 -0.60034221042E+03  0.98721010113E+03  0.87624417656E+02 0.  0.
         13    1    3    3    0    0  0.13688882093E+03  0.87024436340E+02 -0.83176525740E+02  0.18229134990E+03  0.00000000000E+00 0. -1.
        -13    1    3    3    0    0  0.53915788692E+03  0.29957073228E+03 -0.51716568468E+03  0.80491875123E+03  0.00000000000E+00 0.  1.
         22    1    1    2    0    0 -0.67604670785E+03 -0.38659516862E+03  0.34420912155E+03  0.85145457598E+03  0.00000000000E+00 0. -1.
<mgrwt>
<rscale>  0 0.18207371E+04</rscale>
<asrwt>0</asrwt>
<pdfrwt beam="1">  1        1 0.12173320E+00 0.18207371E+04</pdfrwt>
<pdfrwt beam="2">  1       -1 0.16113829E+00 0.18207371E+04</pdfrwt>
<totfact> 0.60727504E+00</totfact>
</mgrwt>
</event>
<event>
 6    1  0.9988873E-007  0.4250426E+04  0.7818608E-02  0.7955849E-01
         -1   -1    0    0    0  501 -0.00000000000E+00  0.00000000000E+00  0.19915834176E+04  0.19915834176E+04  0.00000000000E+00 0.  1.
          1   -1    0    0  501    0  0.00000000000E+00 -0.00000000000E+00 -0.22678091166E+04  0.22678091166E+04  0.00000000000E+00 0. -1.
         23    2    1    2    0    0 -0.19968020161E+04  0.66610079921E+03  0.14739280872E+03  0.21122173653E+04  0.93962715377E+02 0.  0.
         11    1    3    3    0    0 -0.16635931139E+04  0.56953558414E+03  0.90928465510E+02  0.17607330337E+04  0.00000000000E+00 0. -1.
        -11    1    3    3    0    0 -0.33320890220E+03  0.96565215062E+02  0.56464343207E+02  0.35148433154E+03  0.00000000000E+00 0.  1.
         22    1    1    2    0    0  0.19968020161E+04 -0.66610079921E+03 -0.42361850771E+03  0.21471751690E+04  0.00000000000E+00 0. -1.
<mgrwt>
<rscale>  0 0.42504263E+04</rscale>
<asrwt>0</asrwt>
<pdfrwt beam="1">  1        1 0.34889371E+00 0.42504263E+04</pdfrwt>
<pdfrwt beam="2">  1       -1 0.30639745E+00 0.42504263E+04</pdfrwt>
<totfact> 0.45065589E-02</totfact>
</mgrwt>
</event>
<event>
 6    1  0.9988873E-007  0.2627348E+04  0.7818608E-02  0.8358971E-01
         -2   -1    0    0    0  501 -0.00000000000E+00  0.00000000000E+00  0.10930934959E+04  0.10930934959E+04  0.00000000000E+00 0.  1.
          2   -1    0    0  501    0  0.00000000000E+00 -0.00000000000E+00 -0.15787664912E+04  0.15787664912E+04  0.00000000000E+00 0. -1.
         23    2    1    2    0    0  0.11447817910E+04  0.62419984906E+03 -0.92935555445E+02  0.13100988123E+04  0.87011952857E+02 0.  0.
         13    1    3    3    0    0  0.54967221848E+03  0.30701575047E+03 -0.87993364745E+02  0.63572089084E+03  0.00000000000E+00 0. -1.
        -13    1    3    3    0    0  0.59510957256E+03  0.31718409859E+03 -0.49421907003E+01  0.67437792150E+03  0.00000000000E+00 0.  1.
         22    1    1    2    0    0 -0.11447817910E+04 -0.62419984906E+03 -0.39273743985E+03  0.13617611748E+04  0.00000000000E+00 0. -1.
<mgrwt>
<rscale>  0 0.26273480E+04</rscale>
<asrwt>0</asrwt>
<pdfrwt beam="1">  1        2 0.24288715E+00 0.26273480E+04</pdfrwt>
<pdfrwt beam="2">  1       -2 0.16816823E+00 0.26273480E+04</pdfrwt>
<totfact> 0.22223158E+00</totfact>
</mgrwt>
</event>
<event>
 6    1  0.9988873E-007  0.5479383E+03  0.7818608E-02  0.1001972E+00
          2   -1    0    0  501    0  0.00000000000E+00  0.00000000000E+00  0.64798180239E+03  0.64798180239E+03  0.00000000000E+00 0. -1.
         -2   -1    0    0    0  501 -0.00000000000E+00 -0.00000000000E+00 -0.11583519115E+03  0.11583519115E+03  0.00000000000E+00 0.  1.
         23    2    1    2    0    0  0.57492465595E+02 -0.24278032240E+03  0.14475079142E+03  0.30303158821E+03  0.92885323359E+02 0.  0.
         13    1    3    3    0    0  0.29510856161E+02 -0.15682099842E+02  0.37800783648E+02  0.50455110060E+02  0.00000000000E+00 0. -1.
        -13    1    3    3    0    0  0.27981609434E+02 -0.22709822255E+03  0.10695000777E+03  0.25257647815E+03  0.00000000000E+00 0.  1.
         22    1    1    2    0    0 -0.57492465595E+02  0.24278032240E+03  0.38739581982E+03  0.46078540532E+03  0.00000000000E+00 0.  1.
<mgrwt>
<rscale>  0 0.54793830E+03</rscale>
<asrwt>0</asrwt>
<pdfrwt beam="1">  1        2 0.99689506E-01 0.54793830E+03</pdfrwt>
<pdfrwt beam="2">  1       -2 0.17820799E-01 0.54793830E+03</pdfrwt>
<totfact> 0.11808919E+03</totfact>
</mgrwt>
</event>
<event>
 6    1  0.9988873E-007  0.1605946E+04  0.7818608E-02  0.8816903E-01
          2   -1    0    0  501    0  0.00000000000E+00  0.00000000000E+00  0.27259970186E+04  0.27259970186E+04  0.00000000000E+00 0. -1.
         -2   -1    0    0    0  501 -0.00000000000E+00 -0.00000000000E+00 -0.23652469441E+03  0.23652469441E+03  0.00000000000E+00 0.  1.
         23    2    1    2    0    0 -0.48170870070E+03 -0.47025241414E+03  0.20474018309E+04  0.21571603492E+04  0.91136762233E+02 0.  0.
         13    1    3    3    0    0 -0.12175107202E+03 -0.17202806846E+03  0.69502103007E+03  0.72627213365E+03  0.00000000000E+00 0. -1.
        -13    1    3    3    0    0 -0.35995762868E+03 -0.29822434568E+03  0.13523808009E+04  0.14308882155E+04  0.00000000000E+00 0.  1.
         22    1    1    2    0    0  0.48170870070E+03  0.47025241414E+03  0.44207049323E+03  0.80536136381E+03  0.00000000000E+00 0.  1.
<mgrwt>
<rscale>  0 0.16059460E+04</rscale>
<asrwt>0</asrwt>
<pdfrwt beam="1">  1        2 0.41938414E+00 0.16059460E+04</pdfrwt>
<pdfrwt beam="2">  1       -2 0.36388416E-01 0.16059460E+04</pdfrwt>
<totfact> 0.17521454E+01</totfact>
</mgrwt>
</event>
<event>
 6    1  0.9988873E-007  0.2921434E+04  0.7818608E-02  0.8266529E-01
         -2   -1    0    0    0  501 -0.00000000000E+00  0.00000000000E+00  0.16739456651E+04  0.16739456651E+04  0.00000000000E+00 0.  1.
          2   -1    0    0  501    0  0.00000000000E+00 -0.00000000000E+00 -0.12746497495E+04  0.12746497495E+04  0.00000000000E+00 0. -1.
         23    2    1    2    0    0  0.16299042095E+02 -0.49031079226E+03 -0.11871996350E+04  0.12879815329E+04  0.93718322235E+02 0.  0.
         13    1    3    3    0    0 -0.24859957916E+00 -0.21315423844E+02 -0.12398732156E+03  0.12580645851E+03  0.00000000000E+00 0.  1.
        -13    1    3    3    0    0  0.16547641674E+02 -0.46899536842E+03 -0.10632123135E+04  0.11621750744E+04  0.00000000000E+00 0. -1.
         22    1    1    2    0    0 -0.16299042095E+02  0.49031079226E+03  0.15864955506E+04  0.16606138816E+04  0.00000000000E+00 0.  1.
<mgrwt>
<rscale>  0 0.29214342E+04</rscale>
<asrwt>0</asrwt>
<pdfrwt beam="1">  1        2 0.19609996E+00 0.29214342E+04</pdfrwt>
<pdfrwt beam="2">  1       -2 0.25753010E+00 0.29214342E+04</pdfrwt>
<totfact> 0.85140651E-01</totfact>
</mgrwt>
</event>
<event>
 6    1  0.9988873E-007  0.2247463E+04  0.7818608E-02  0.8498928E-01
          1   -1    0    0  501    0  0.00000000000E+00  0.00000000000E+00  0.22491006118E+04  0.22491006118E+04  0.00000000000E+00 0. -1.
         -1   -1    0    0    0  501 -0.00000000000E+00 -0.00000000000E+00 -0.56145682891E+03  0.56145682891E+03  0.00000000000E+00 0.  1.
         23    2    1    2    0    0  0.27739643493E+03  0.80773761081E+03 -0.64575056355E+02  0.86128586121E+03  0.90854646551E+02 0.  0.
         11    1    3    3    0    0  0.18102811931E+03  0.60153191502E+03 -0.79458960441E+02  0.63318682169E+03  0.00000000000E+00 0.  1.
        -11    1    3    3    0    0  0.96368315625E+02  0.20620569579E+03  0.14883904085E+02  0.22809903953E+03  0.00000000000E+00 0. -1.
         22    1    1    2    0    0 -0.27739643493E+03 -0.80773761081E+03  0.17522188393E+04  0.19492715795E+04  0.00000000000E+00 0.  1.
<mgrwt>
<rscale>  0 0.22474634E+04</rscale>
<asrwt>0</asrwt>
<pdfrwt beam="1">  1        1 0.34601547E+00 0.22474634E+04</pdfrwt>
<pdfrwt beam="2">  1       -1 0.86377975E-01 0.22474634E+04</pdfrwt>
<totfact> 0.24202326E+00</totfact>
</mgrwt>
</event>
<event>
 6    1  0.9988873E-007  0.1719221E+04  0.7818608E-02  0.8750477E-01
         -1   -1    0    0    0  501 -0.00000000000E+00  0.00000000000E+00  0.59457795099E+03  0.59457795099E+03  0.00000000000E+00 0.  1.
          1   -1    0    0  501    0  0.00000000000E+00 -0.00000000000E+00 -0.12427809913E+04  0.12427809913E+04  0.00000000000E+00 0. -1.
         23    2    1    2    0    0  0.22435164058E+03 -0.29240509417E+03  0.50200383157E+03  0.62954676904E+03  0.92124316984E+02 0.  0.
         13    1    3    3    0    0  0.29209233008E+02 -0.13482059010E+01  0.33008953236E+02  0.44097482307E+02  0.00000000000E+00 0. -1.
        -13    1    3    3    0    0  0.19514240757E+03 -0.29105688826E+03  0.46899487833E+03  0.58544928674E+03  0.00000000000E+00 0.  1.
         22    1    1    2    0    0 -0.22435164058E+03  0.29240509417E+03 -0.11502068719E+04  0.12078121733E+04  0.00000000000E+00 0. -1.
<mgrwt>
<rscale>  0 0.17192210E+04</rscale>
<asrwt>0</asrwt>
<pdfrwt beam="1">  1        1 0.19119707E+00 0.17192210E+04</pdfrwt>
<pdfrwt beam="2">  1       -1 0.91473532E-01 0.17192210E+04</pdfrwt>
<totfact> 0.11011646E+01</totfact>
</mgrwt>
</event>
<event>
 6    1  0.9988873E-007  0.1584306E+04  0.7818608E-02  0.8830248E-01
          2   -1    0    0  501    0  0.00000000000E+00  0.00000000000E+00  0.74782835513E+03  0.74782835513E+03  0.00000000000E+00 0. -1.
         -2   -1    0    0    0  501 -0.00000000000E+00 -0.00000000000E+00 -0.83910471125E+03  0.83910471125E+03  0.00000000000E+00 0.  1.
         23    2    1    2    0    0  0.23985564988E+03  0.28334559929E+02  0.70714916483E+03  0.75277667063E+03  0.90990078906E+02 0.  0.
         13    1    3    3    0    0  0.64977435706E+02  0.49851211729E+02  0.22453451876E+03  0.23900410159E+03  0.00000000000E+00 0.  1.
        -13    1    3    3    0    0  0.17487821417E+03 -0.21516651800E+02  0.48261464606E+03  0.51377256903E+03  0.00000000000E+00 0. -1.
         22    1    1    2    0    0 -0.23985564988E+03 -0.28334559929E+02 -0.79842552095E+03  0.83415639575E+03  0.00000000000E+00 0.  1.
<mgrwt>
<rscale>  0 0.15843059E+04</rscale>
<asrwt>0</asrwt>
<pdfrwt beam="1">  1        2 0.11505052E+00 0.15843059E+04</pdfrwt>
<pdfrwt beam="2">  1       -2 0.12909303E+00 0.15843059E+04</pdfrwt>
<totfact> 0.15972260E+01</totfact>
</mgrwt>
</event>
<event>
 6    1  0.9988873E-007  0.1386808E+04  0.7818608E-02  0.8963423E-01
         -2   -1    0    0    0  501 -0.00000000000E+00  0.00000000000E+00  0.46578269468E+03  0.46578269468E+03  0.00000000000E+00 0.  1.
          2   -1    0    0  501    0  0.00000000000E+00 -0.00000000000E+00 -0.10322608945E+04  0.10322608945E+04  0.00000000000E+00 0. -1.
         23    2    1    2    0    0  0.29290060795E+03  0.28060552274E+03 -0.88765184219E+03  0.98066294192E+03  0.96144616000E+02 0.  0.
         11    1    3    3    0    0  0.15137421839E+03  0.81764456311E+02 -0.39628865874E+03  0.43202347316E+03  0.00000000000E+00 0. -1.
        -11    1    3    3    0    0  0.14152638956E+03  0.19884106643E+03 -0.49136318344E+03  0.54863946876E+03  0.00000000000E+00 0.  1.
         22    1    1    2    0    0 -0.29290060795E+03 -0.28060552274E+03  0.32117364240E+03  0.51738064721E+03  0.00000000000E+00 0.  1.
<mgrwt>
<rscale>  0 0.13868082E+04</rscale>
<asrwt>0</asrwt>
<pdfrwt beam="1">  1        2 0.15880937E+00 0.13868082E+04</pdfrwt>
<pdfrwt beam="2">  1       -2 0.71658877E-01 0.13868082E+04</pdfrwt>
<totfact> 0.41333719E+01</totfact>
</mgrwt>
</event>
<event>
 6    1  0.9988873E-007  0.2682409E+04  0.7818608E-02  0.8340735E-01
          2   -1    0    0  501    0  0.00000000000E+00  0.00000000000E+00  0.21425842103E+04  0.21425842103E+04  0.00000000000E+00 0. -1.
         -2   -1    0    0    0  501 -0.00000000000E+00 -0.00000000000E+00 -0.83956076491E+03  0.83956076491E+03  0.00000000000E+00 0.  1.
         23    2    1    2    0    0 -0.11433876732E+04 -0.37678162236E+03 -0.12668520832E+01  0.12071878089E+04  0.89448525685E+02 0.  0.
         13    1    3    3    0    0 -0.51474973232E+03 -0.12291357578E+03 -0.17458191432E+01  0.52922403755E+03  0.00000000000E+00 0.  1.
        -13    1    3    3    0    0 -0.62863794091E+03 -0.25386804658E+03  0.47896706002E+00  0.67796377133E+03  0.00000000000E+00 0. -1.
         22    1    1    2    0    0  0.11433876732E+04  0.37678162236E+03  0.13042902974E+04  0.17749571663E+04  0.00000000000E+00 0. -1.
<mgrwt>
<rscale>  0 0.26824091E+04</rscale>
<asrwt>0</asrwt>
<pdfrwt beam="1">  1        2 0.32962834E+00 0.26824091E+04</pdfrwt>
<pdfrwt beam="2">  1       -2 0.12916320E+00 0.26824091E+04</pdfrwt>
<totfact> 0.21571191E+00</totfact>
</mgrwt>
</event>
<event>
 6    1  0.9988873E-007  0.1041376E+04  0.7818608E-02  0.9264293E-01
         -1   -1    0    0    0  501 -0.00000000000E+00  0.00000000000E+00  0.14365544427E+03  0.14365544427E+03  0.00000000000E+00 0.  1.
          1   -1    0    0  501    0  0.00000000000E+00 -0.00000000000E+00 -0.18872659457E+04  0.18872659457E+04  0.00000000000E+00 0. -1.
         23    2    1    2    0    0  0.29347886034E+03  0.24694491507E+03 -0.20375739174E+03  0.44401898844E+03  0.92326349777E+02 0.  0.
         11    1    3    3    0    0  0.60907070128E+02  0.42782845597E+02 -0.83879038199E+02  0.11214158960E+03  0.00000000000E+00 0. -1.
        -11    1    3    3    0    0  0.23257179021E+03  0.20416206948E+03 -0.11987835354E+03  0.33187739884E+03  0.00000000000E+00 0.  1.
         22    1    1    2    0    0 -0.29347886034E+03 -0.24694491507E+03 -0.15398531097E+04  0.15869024016E+04  0.00000000000E+00 0. -1.
<mgrwt>
<rscale>  0 0.10413761E+04</rscale>
<asrwt>0</asrwt>
<pdfrwt beam="1">  1        1 0.29034860E+00 0.10413761E+04</pdfrwt>
<pdfrwt beam="2">  1       -1 0.22100838E-01 0.10413761E+04</pdfrwt>
<totfact> 0.61609564E+01</totfact>
</mgrwt>
</event>
<event>
 6    1  0.9988873E-007  0.2257619E+04  0.7818608E-02  0.8494821E-01
         -2   -1    0    0    0  501 -0.00000000000E+00  0.00000000000E+00  0.46092050406E+03  0.46092050406E+03  0.00000000000E+00 0.  1.
          2   -1    0    0  501    0  0.00000000000E+00 -0.00000000000E+00 -0.27644924477E+04  0.27644924477E+04  0.00000000000E+00 0. -1.
         23    2    1    2    0    0 -0.76205795053E+03 -0.60954856195E+03 -0.19598175971E+04  0.21907879858E+04  0.79907545020E+02 0.  0.
         11    1    3    3    0    0 -0.64001285712E+02 -0.81216966240E+02 -0.22292909370E+03  0.24574324202E+03  0.00000000000E+00 0. -1.
        -11    1    3    3    0    0 -0.69805666482E+03 -0.52833159571E+03 -0.17368885034E+04  0.19450447438E+04  0.00000000000E+00 0.  1.
         22    1    1    2    0    0  0.76205795053E+03  0.60954856195E+03 -0.34375434657E+03  0.10346249659E+04  0.00000000000E+00 0.  1.
<mgrwt>
<rscale>  0 0.22576193E+04</rscale>
<asrwt>0</asrwt>
<pdfrwt beam="1">  1        2 0.42530654E+00 0.22576193E+04</pdfrwt>
<pdfrwt beam="2">  1       -2 0.70910845E-01 0.22576193E+04</pdfrwt>
<totfact> 0.39955031E+00</totfact>
</mgrwt>
</event>
<event>
 6    1  0.9988873E-007  0.3041028E+04  0.7818608E-02  0.8232111E-01
          1   -1    0    0  501    0  0.00000000000E+00  0.00000000000E+00  0.17307146452E+04  0.17307146452E+04  0.00000000000E+00 0. -1.
         -1   -1    0    0    0  501 -0.00000000000E+00 -0.00000000000E+00 -0.13358427995E+04  0.13358427995E+04  0.00000000000E+00 0.  1.
         23    2    1    2    0    0 -0.12834200966E+04  0.79827756949E+03  0.43752562417E+02  0.15148812628E+04  0.92394433120E+02 0.  0.
         11    1    3    3    0    0 -0.29495165902E+02  0.33772078223E+02  0.97369575364E+01  0.45883836165E+02  0.00000000000E+00 0.  1.
        -11    1    3    3    0    0 -0.12539249307E+04  0.76450549126E+03  0.34015604881E+02  0.14689974266E+04  0.00000000000E+00 0. -1.
         22    1    1    2    0    0  0.12834200966E+04 -0.79827756949E+03  0.35111928332E+03  0.15516761819E+04  0.00000000000E+00 0.  1.
<mgrwt>
<rscale>  0 0.30410279E+04</rscale>
<asrwt>0</asrwt>
<pdfrwt beam="1">  1        1 0.26626379E+00 0.30410279E+04</pdfrwt>
<pdfrwt beam="2">  1       -1 0.20551428E+00 0.30410279E+04</pdfrwt>
<totfact> 0.53127991E-01</totfact>
</mgrwt>
</event>
<event>
 6    1  0.9988873E-007  0.2130898E+04  0.7818608E-02  0.8547754E-01
         -2   -1    0    0    0  501 -0.00000000000E+00  0.00000000000E+00  0.11995723743E+04  0.11995723743E+04  0.00000000000E+00 0.  1.
          2   -1    0    0  501    0  0.00000000000E+00 -0.00000000000E+00 -0.94632157727E+03  0.94632157727E+03  0.00000000000E+00 0. -1.
         23    2    1    2    0    0 -0.64839152780E+03  0.72975472111E+03  0.55395363066E+03  0.11244363066E+04  0.67371034967E+02 0.  0.
         11    1    3    3    0    0 -0.42902398555E+03  0.46588670826E+03  0.32432415733E+03  0.71154631905E+03  0.00000000000E+00 0.  1.
        -11    1    3    3    0    0 -0.21936754224E+03  0.26386801285E+03  0.22962947332E+03  0.41288998754E+03  0.00000000000E+00 0. -1.
         22    1    1    2    0    0  0.64839152780E+03 -0.72975472111E+03 -0.30070283364E+03  0.10214576450E+04  0.00000000000E+00 0. -1.
<mgrwt>
<rscale>  0 0.21308977E+04</rscale>
<asrwt>0</asrwt>
<pdfrwt beam="1">  1        2 0.14558793E+00 0.21308977E+04</pdfrwt>
<pdfrwt beam="2">  1       -2 0.18454960E+00 0.21308977E+04</pdfrwt>
<totfact> 0.42336390E+00</totfact>
</mgrwt>
</event>
<event>
 6    1  0.9988873E-007  0.1396744E+04  0.7818608E-02  0.8956179E-01
          1   -1    0    0  501    0  0.00000000000E+00  0.00000000000E+00  0.23384182672E+04  0.23384182672E+04  0.00000000000E+00 0. -1.
         -1   -1    0    0    0  501 -0.00000000000E+00 -0.00000000000E+00 -0.20856972842E+03  0.20856972842E+03  0.00000000000E+00 0.  1.
         23    2    1    2    0    0 -0.17085827589E+03 -0.33134364782E+03  0.21403444569E+04  0.21740384981E+04  0.79923925388E+02 0.  0.
         13    1    3    3    0    0 -0.14444647984E+03 -0.29974755379E+03  0.20096599899E+04  0.20370190614E+04  0.00000000000E+00 0.  1.
        -13    1    3    3    0    0 -0.26411796053E+02 -0.31596094025E+02  0.13068446699E+03  0.13701943673E+03  0.00000000000E+00 0. -1.
         22    1    1    2    0    0  0.17085827589E+03  0.33134364782E+03 -0.10495918094E+02  0.37294949750E+03  0.00000000000E+00 0.  1.
<mgrwt>
<rscale>  0 0.13967437E+04</rscale>
<asrwt>0</asrwt>
<pdfrwt beam="1">  1        1 0.35975664E+00 0.13967437E+04</pdfrwt>
<pdfrwt beam="2">  1       -1 0.32087652E-01 0.13967437E+04</pdfrwt>
<totfact> 0.15517844E+01</totfact>
</mgrwt>
</event>
<event>
 6    1  0.9988873E-007  0.5952463E+03  0.7818608E-02  0.9915318E-01
          2   -1    0    0  501    0  0.00000000000E+00  0.00000000000E+00  0.58419474203E+03  0.58419474203E+03  0.00000000000E+00 0. -1.
         -2   -1    0    0    0  501 -0.00000000000E+00 -0.00000000000E+00 -0.15162674204E+03  0.15162674204E+03  0.00000000000E+00 0.  1.
         23    2    1    2    0    0  0.20270781255E+03  0.48209969389E+02 -0.27586170773E+02  0.23069128374E+03  0.95093707245E+02 0.  0.
         13    1    3    3    0    0  0.93023118188E+02  0.70852206865E+02 -0.10588981404E+02  0.11741150822E+03  0.00000000000E+00 0.  1.
        -13    1    3    3    0    0  0.10968469437E+03 -0.22642237476E+02 -0.16997189369E+02  0.11327977552E+03  0.00000000000E+00 0. -1.
         22    1    1    2    0    0 -0.20270781255E+03 -0.48209969389E+02  0.46015417076E+03  0.50513020033E+03  0.00000000000E+00 0. -1.
<mgrwt>
<rscale>  0 0.59524632E+03</rscale>
<asrwt>0</asrwt>
<pdfrwt beam="1">  1        2 0.89876113E-01 0.59524632E+03</pdfrwt>
<pdfrwt beam="2">  1       -2 0.23327191E-01 0.59524632E+03</pdfrwt>
<totfact> 0.83564052E+02</totfact>
</mgrwt>
</event>
<event>
 6    1  0.9988873E-007  0.3738809E+04  0.7818608E-02  0.8059415E-01
         -1   -1    0    0    0  501 -0.00000000000E+00  0.00000000000E+00  0.19452366123E+04  0.19452366123E+04  0.00000000000E+00 0.  1.
          1   -1    0    0  501    0  0.00000000000E+00 -0.00000000000E+00 -0.17965288345E+04  0.17965288345E+04  0.00000000000E+00 0. -1.
         23    2    1    2    0    0  0.10087074350E+04  0.51751826629E+02  0.16473749092E+04  0.19345100384E+04  0.91192413253E+02 0.  0.
         11    1    3    3    0    0  0.30672517174E+03 -0.14554681595E+02  0.55638758090E+03  0.63549926036E+03  0.00000000000E+00 0.  1.
        -11    1    3    3    0    0  0.70198226326E+03  0.66306508225E+02  0.10909873282E+04  0.12990107780E+04  0.00000000000E+00 0. -1.
         22    1    1    2    0    0 -0.10087074350E+04 -0.51751826629E+02 -0.14986671314E+04  0.18072554085E+04  0.00000000000E+00 0. -1.
<mgrwt>
<rscale>  0 0.37388093E+04</rscale>
<asrwt>0</asrwt>
<pdfrwt beam="1">  1        1 0.27638905E+00 0.37388093E+04</pdfrwt>
<pdfrwt beam="2">  1       -1 0.29926717E+00 0.37388093E+04</pdfrwt>
<totfact> 0.10936902E-01</totfact>
</mgrwt>
</event>
<event>
 6    1  0.9988873E-007  0.2657929E+04  0.7818608E-02  0.8348786E-01
          1   -1    0    0  501    0  0.00000000000E+00  0.00000000000E+00  0.17218742365E+04  0.17218742365E+04  0.00000000000E+00 0. -1.
         -1   -1    0    0    0  501 -0.00000000000E+00 -0.00000000000E+00 -0.10257121158E+04  0.10257121158E+04  0.00000000000E+00 0.  1.
         23    2    1    2    0    0 -0.41036086265E+03  0.12582372170E+04  0.45419814242E+03  0.14021854832E+04  0.90946383820E+02 0.  0.
         13    1    3    3    0    0 -0.14385555307E+03  0.49373195363E+03  0.22020349541E+03  0.55942402664E+03  0.00000000000E+00 0.  1.
        -13    1    3    3    0    0 -0.26650530958E+03  0.76450526339E+03  0.23399464702E+03  0.84276145653E+03  0.00000000000E+00 0. -1.
         22    1    1    2    0    0  0.41036086265E+03 -0.12582372170E+04  0.24196397820E+03  0.13454008691E+04  0.00000000000E+00 0.  1.
<mgrwt>
<rscale>  0 0.26579295E+04</rscale>
<asrwt>0</asrwt>
<pdfrwt beam="1">  1        1 0.26490373E+00 0.26579295E+04</pdfrwt>
<pdfrwt beam="2">  1       -1 0.15780186E+00 0.26579295E+04</pdfrwt>
<totfact> 0.12256399E+00</totfact>
</mgrwt>
</event>
<event>
 6    1  0.9988873E-007  0.2043240E+04  0.7818608E-02  0.8586667E-01
          2   -1    0    0  501    0  0.00000000000E+00  0.00000000000E+00  0.63932532672E+03  0.63932532672E+03  0.00000000000E+00 0. -1.
         -2   -1    0    0    0  501 -0.00000000000E+00 -0.00000000000E+00 -0.16325143623E+04  0.16325143623E+04  0.00000000000E+00 0.  1.
         23    2    1    2    0    0 -0.89429354351E+03 -0.14574299117E+02  0.46911267805E+02  0.90005909678E+03  0.89063788906E+02 0.  0.
         13    1    3    3    0    0 -0.31438829505E+03  0.34702732988E+02  0.31465891649E+02  0.31785906008E+03  0.00000000000E+00 0.  1.
        -13    1    3    3    0    0 -0.57990524847E+03 -0.49277032104E+02  0.15445376156E+02  0.58220003670E+03  0.00000000000E+00 0. -1.
         22    1    1    2    0    0  0.89429354351E+03  0.14574299117E+02 -0.10401003034E+04  0.13717805923E+04  0.00000000000E+00 0.  1.
<mgrwt>
<rscale>  0 0.20432403E+04</rscale>
<asrwt>0</asrwt>
<pdfrwt beam="1">  1        2 0.98357743E-01 0.20432403E+04</pdfrwt>
<pdfrwt beam="2">  1       -2 0.25115605E+00 0.20432403E+04</pdfrwt>
<totfact> 0.26855104E+00</totfact>
</mgrwt>
</event>
<event>
 6    1  0.9988873E-007  0.1781184E+04  0.7818608E-02  0.8716370E-01
          1   -1    0    0  501    0  0.00000000000E+00  0.00000000000E+00  0.37444211214E+03  0.37444211214E+03  0.00000000000E+00 0. -1.
         -1   -1    0    0    0  501 -0.00000000000E+00 -0.00000000000E+00 -0.21182295994E+04  0.21182295994E+04  0.00000000000E+00 0.  1.
         23    2    1    2    0    0 -0.37865418173E+03 -0.63410324896E+02  0.24863563915E+03  0.46359562294E+03  0.75507363285E+02 0.  0.
         11    1    3    3    0    0 -0.37318879711E+02 -0.57659602411E+01  0.64950625678E+00  0.37767273383E+02  0.00000000000E+00 0.  1.
        -11    1    3    3    0    0 -0.34133530202E+03 -0.57644364655E+02  0.24798613289E+03  0.42582834956E+03  0.00000000000E+00 0. -1.
         22    1    1    2    0    0  0.37865418173E+03  0.63410324896E+02 -0.19924231264E+04  0.20290760886E+04  0.00000000000E+00 0.  1.
<mgrwt>
<rscale>  0 0.17811843E+04</rscale>
<asrwt>0</asrwt>
<pdfrwt beam="1">  1        1 0.57606479E-01 0.17811843E+04</pdfrwt>
<pdfrwt beam="2">  1       -1 0.32588148E+00 0.17811843E+04</pdfrwt>
<totfact> 0.13895580E+00</totfact>
</mgrwt>
</event>
<event>
 6    1  0.9988873E-007  0.2792366E+04  0.7818608E-02  0.8305642E-01
          1   -1    0    0  501    0  0.00000000000E+00  0.00000000000E+00  0.24296674088E+04  0.24296674088E+04  0.00000000000E+00 0. -1.
         -1   -1    0    0    0  501 -0.00000000000E+00 -0.00000000000E+00 -0.80230204499E+03  0.80230204499E+03  0.00000000000E+00 0.  1.
         23    2    1    2    0    0  0.66087940559E+03  0.80750935116E+03  0.18849882005E+04  0.21571659988E+04  0.10654430691E+03 0.  0.
         13    1    3    3    0    0  0.50285260190E+03  0.65524104526E+03  0.15574096027E+04  0.17628744247E+04  0.00000000000E+00 0. -1.
        -13    1    3    3    0    0  0.15802680370E+03  0.15226830590E+03  0.32757859781E+03  0.39429157410E+03  0.00000000000E+00 0.  1.
         22    1    1    2    0    0 -0.66087940559E+03 -0.80750935116E+03 -0.25762283667E+03  0.10748034550E+04  0.00000000000E+00 0.  1.
<mgrwt>
<rscale>  0 0.27923661E+04</rscale>
<asrwt>0</asrwt>
<pdfrwt beam="1">  1        1 0.37379498E+00 0.27923661E+04</pdfrwt>
<pdfrwt beam="2">  1       -1 0.12343108E+00 0.27923661E+04</pdfrwt>
<totfact> 0.75787705E-01</totfact>
</mgrwt>
</event>
<event>
 6    1  0.9988873E-007  0.3258828E+04  0.7818608E-02  0.8173451E-01
          2   -1    0    0  501    0  0.00000000000E+00  0.00000000000E+00  0.12840570548E+04  0.12840570548E+04  0.00000000000E+00 0. -1.
         -2   -1    0    0    0  501 -0.00000000000E+00 -0.00000000000E+00 -0.20676567306E+04  0.20676567306E+04  0.00000000000E+00 0.  1.
         23    2    1    2    0    0 -0.10402238636E+04 -0.24263932125E+02  0.89582981655E+03  0.13760777246E+04  0.91784634494E+02 0.  0.
         11    1    3    3    0    0 -0.81527084172E+03 -0.52912664106E+02  0.67872541776E+03  0.10621367558E+04  0.00000000000E+00 0. -1.
        -11    1    3    3    0    0 -0.22495302183E+03  0.28648731980E+02  0.21710439880E+03  0.31394096874E+03  0.00000000000E+00 0.  1.
         22    1    1    2    0    0  0.10402238636E+04  0.24263932125E+02 -0.16794294924E+04  0.19756360608E+04  0.00000000000E+00 0.  1.
<mgrwt>
<rscale>  0 0.32588275E+04</rscale>
<asrwt>0</asrwt>
<pdfrwt beam="1">  1        2 0.19754724E+00 0.32588275E+04</pdfrwt>
<pdfrwt beam="2">  1       -2 0.31810104E+00 0.32588275E+04</pdfrwt>
<totfact> 0.34811604E-01</totfact>
</mgrwt>
</event>
<event>
 6    1  0.9988873E-007  0.9416340E+03  0.7818608E-02  0.9374983E-01
         -2   -1    0    0    0  501 -0.00000000000E+00  0.00000000000E+00  0.13150863027E+03  0.13150863027E+03  0.00000000000E+00 0.  1.
          2   -1    0    0  501    0  0.00000000000E+00 -0.00000000000E+00 -0.16855824393E+04  0.16855824393E+04  0.00000000000E+00 0. -1.
         23    2    1    2    0    0 -0.31885848426E+03 -0.15028469404E+03 -0.13740757923E+04  0.14212937625E+04  0.87951430243E+02 0.  0.
         11    1    3    3    0    0 -0.20261913023E+03 -0.48693140299E+02 -0.82736301261E+03  0.85320284134E+03  0.00000000000E+00 0. -1.
        -11    1    3    3    0    0 -0.11623935402E+03 -0.10159155374E+03 -0.54671277970E+03  0.56809092116E+03  0.00000000000E+00 0.  1.
         22    1    1    2    0    0  0.31885848426E+03  0.15028469404E+03 -0.17999801672E+03  0.39579730705E+03  0.00000000000E+00 0.  1.
<mgrwt>
<rscale>  0 0.94163398E+03</rscale>
<asrwt>0</asrwt>
<pdfrwt beam="1">  1        2 0.25932035E+00 0.94163398E+03</pdfrwt>
<pdfrwt beam="2">  1       -2 0.20232099E-01 0.94163398E+03</pdfrwt>
<totfact> 0.20968747E+02</totfact>
</mgrwt>
</event>
<event>
 6    1  0.9988873E-007  0.1104817E+04  0.7818608E-02  0.9200510E-01
          2   -1    0    0  501    0  0.00000000000E+00  0.00000000000E+00  0.18283854182E+04  0.18283854182E+04  0.00000000000E+00 0. -1.
         -2   -1    0    0    0  501 -0.00000000000E+00 -0.00000000000E+00 -0.16689857432E+03  0.16689857432E+03  0.00000000000E+00 0.  1.
         23    2    1    2    0    0  0.23292728968E+03 -0.15974509664E+03 -0.13246007659E+02  0.29690130826E+03  0.90561095102E+02 0.  0.
         11    1    3    3    0    0  0.13987158880E+03 -0.63895087424E+02 -0.43739234824E+02  0.15987421372E+03  0.00000000000E+00 0. -1.
        -11    1    3    3    0    0  0.93055700884E+02 -0.95850009220E+02  0.30493227165E+02  0.13702709454E+03  0.00000000000E+00 0.  1.
         22    1    1    2    0    0 -0.23292728968E+03  0.15974509664E+03  0.16747328516E+04  0.16983826843E+04  0.00000000000E+00 0. -1.
<mgrwt>
<rscale>  0 0.11048166E+04</rscale>
<asrwt>0</asrwt>
<pdfrwt beam="1">  1        2 0.28129005E+00 0.11048166E+04</pdfrwt>
<pdfrwt beam="2">  1       -2 0.25676705E-01 0.11048166E+04</pdfrwt>
<totfact> 0.11295498E+02</totfact>
</mgrwt>
</event>
<event>
 6    1  0.1012977E-006  0.2610905E+04  0.7818608E-02  0.8364506E-01
          1   -1    0    0  501    0  0.00000000000E+00  0.00000000000E+00  0.10319195675E+04  0.10319195675E+04  0.00000000000E+00 0. -1.
         -1   -1    0    0    0  501 -0.00000000000E+00 -0.00000000000E+00 -0.16514914449E+04  0.16514914449E+04  0.00000000000E+00 0.  1.
         23    2    1    2    0    0  0.93626138081E+03  0.69332985492E+03 -0.91183117066E+03  0.14822835606E+04  0.91852105755E+02 0.  0.
         13    1    3    3    0    0  0.59538020332E+03  0.45965629869E+03 -0.64012763191E+03  0.98768663277E+03  0.00000000000E+00 0.  1.
        -13    1    3    3    0    0  0.34088117749E+03  0.23367355623E+03 -0.27170353876E+03  0.49459692784E+03  0.00000000000E+00 0. -1.
         22    1    1    2    0    0 -0.93626138081E+03 -0.69332985492E+03  0.29225929326E+03  0.12011274518E+04  0.00000000000E+00 0. -1.
<mgrwt>
<rscale>  0 0.26109051E+04</rscale>
<asrwt>0</asrwt>
<pdfrwt beam="1">  1        1 0.15875686E+00 0.26109051E+04</pdfrwt>
<pdfrwt beam="2">  1       -1 0.25407561E+00 0.26109051E+04</pdfrwt>
<totfact> 0.82450697E-01</totfact>
</mgrwt>
</event>
<event>
 6    1  0.9988873E-007  0.3092739E+04  0.7818608E-02  0.8217733E-01
          2   -1    0    0  501    0  0.00000000000E+00  0.00000000000E+00  0.80592113148E+03  0.80592113148E+03  0.00000000000E+00 0. -1.
         -2   -1    0    0    0  501 -0.00000000000E+00 -0.00000000000E+00 -0.29671128087E+04  0.29671128087E+04  0.00000000000E+00 0.  1.
         23    2    1    2    0    0  0.79641634846E+03 -0.47541091253E+03 -0.25890479789E+04  0.27515861683E+04  0.88104873200E+02 0.  0.
         13    1    3    3    0    0  0.23450709728E+03 -0.16101100563E+03 -0.68940614912E+03  0.74578747713E+03  0.00000000000E+00 0.  1.
        -13    1    3    3    0    0  0.56190925118E+03 -0.31439990689E+03 -0.18996418297E+04  0.20057986911E+04  0.00000000000E+00 0. -1.
         22    1    1    2    0    0 -0.79641634846E+03  0.47541091253E+03  0.42785630166E+03  0.10214477719E+04  0.00000000000E+00 0. -1.
<mgrwt>
<rscale>  0 0.30927392E+04</rscale>
<asrwt>0</asrwt>
<pdfrwt beam="1">  1        2 0.12398787E+00 0.30927392E+04</pdfrwt>
<pdfrwt beam="2">  1       -2 0.45647889E+00 0.30927392E+04</pdfrwt>
<totfact> 0.90987995E-02</totfact>
</mgrwt>
</event>
<event>
 6    1  0.9988873E-007  0.2020468E+04  0.7818608E-02  0.8597111E-01
         -2   -1    0    0    0  501 -0.00000000000E+00  0.00000000000E+00  0.12837538843E+04  0.12837538843E+04  0.00000000000E+00 0.  1.
          2   -1    0    0  501    0  0.00000000000E+00 -0.00000000000E+00 -0.79499098247E+03  0.79499098247E+03  0.00000000000E+00 0. -1.
         23    2    1    2    0    0  0.33624151052E+02 -0.25227342932E+03  0.12484692332E+04  0.12775419109E+04  0.93088351108E+02 0.  0.
         11    1    3    3    0    0  0.36034908949E+02 -0.20014244856E+03  0.77618380224E+03  0.80238195969E+03  0.00000000000E+00 0. -1.
        -11    1    3    3    0    0 -0.24107578975E+01 -0.52130980761E+02  0.47228543095E+03  0.47515995117E+03  0.00000000000E+00 0.  1.
         22    1    1    2    0    0 -0.33624151052E+02  0.25227342932E+03 -0.75970633135E+03  0.80120295591E+03  0.00000000000E+00 0. -1.
<mgrwt>
<rscale>  0 0.20204680E+04</rscale>
<asrwt>0</asrwt>
<pdfrwt beam="1">  1        2 0.12230630E+00 0.20204680E+04</pdfrwt>
<pdfrwt beam="2">  1       -2 0.19750060E+00 0.20204680E+04</pdfrwt>
<totfact> 0.44483329E+00</totfact>
</mgrwt>
</event>
<event>
 6    1  0.9988873E-007  0.2995064E+04  0.7818608E-02  0.8245142E-01
          1   -1    0    0  501    0  0.00000000000E+00  0.00000000000E+00  0.30578545065E+04  0.30578545065E+04  0.00000000000E+00 0. -1.
         -1   -1    0    0    0  501 -0.00000000000E+00 -0.00000000000E+00 -0.73339076077E+03  0.73339076077E+03  0.00000000000E+00 0.  1.
         23    2    1    2    0    0  0.14149354815E+04 -0.43178716914E+03  0.14459804122E+04  0.20707175740E+04  0.92354439019E+02 0.  0.
         13    1    3    3    0    0  0.78441589305E+03 -0.25259273612E+03  0.86668823418E+03  0.11959347302E+04  0.00000000000E+00 0. -1.
        -13    1    3    3    0    0  0.63051958842E+03 -0.17919443302E+03  0.57929217804E+03  0.87478284377E+03  0.00000000000E+00 0.  1.
         22    1    1    2    0    0 -0.14149354815E+04  0.43178716914E+03  0.87848333345E+03  0.17205276933E+04  0.00000000000E+00 0.  1.
<mgrwt>
<rscale>  0 0.29950641E+04</rscale>
<asrwt>0</asrwt>
<pdfrwt beam="1">  1        1 0.47043915E+00 0.29950641E+04</pdfrwt>
<pdfrwt beam="2">  1       -1 0.11282935E+00 0.29950641E+04</pdfrwt>
<totfact> 0.33136349E-01</totfact>
</mgrwt>
</event>
<event>
 6    1  0.9988873E-007  0.1661044E+04  0.7818608E-02  0.8783899E-01
         -1   -1    0    0    0  501 -0.00000000000E+00  0.00000000000E+00  0.40512004755E+03  0.40512004755E+03  0.00000000000E+00 0.  1.
          1   -1    0    0  501    0  0.00000000000E+00 -0.00000000000E+00 -0.17026239362E+04  0.17026239362E+04  0.00000000000E+00 0. -1.
         23    2    1    2    0    0 -0.68533389086E+03 -0.20721221542E+03 -0.11788413778E+04  0.13820028208E+04  0.87437740201E+02 0.  0.
         13    1    3    3    0    0 -0.39634681567E+03 -0.14554510162E+03 -0.62482379942E+03  0.75410805275E+03  0.00000000000E+00 0. -1.
        -13    1    3    3    0    0 -0.28898707519E+03 -0.61667113807E+02 -0.55401757838E+03  0.62789476802E+03  0.00000000000E+00 0.  1.
         22    1    1    2    0    0  0.68533389086E+03  0.20721221542E+03 -0.11866251086E+03  0.72574116299E+03  0.00000000000E+00 0.  1.
<mgrwt>
<rscale>  0 0.16610444E+04</rscale>
<asrwt>0</asrwt>
<pdfrwt beam="1">  1        1 0.26194214E+00 0.16610444E+04</pdfrwt>
<pdfrwt beam="2">  1       -1 0.62326162E-01 0.16610444E+04</pdfrwt>
<totfact> 0.11831822E+01</totfact>
</mgrwt>
</event>
<event>
 6    1  0.9988873E-007  0.2302648E+04  0.7818608E-02  0.8476878E-01
          1   -1    0    0  501    0  0.00000000000E+00  0.00000000000E+00  0.18975841294E+04  0.18975841294E+04  0.00000000000E+00 0. -1.
         -1   -1    0    0    0  501 -0.00000000000E+00 -0.00000000000E+00 -0.69854450726E+03  0.69854450726E+03  0.00000000000E+00 0.  1.
         23    2    1    2    0    0  0.20021215494E+03  0.79199919602E+03 -0.30971413530E+03  0.88041142975E+03  0.10887518792E+03 0.  0.
         11    1    3    3    0    0  0.88624231927E+02  0.49227697652E+03 -0.23150271735E+03  0.55116638526E+03  0.00000000000E+00 0. -1.
        -11    1    3    3    0    0  0.11158792301E+03  0.29972221950E+03 -0.78211417950E+02  0.32924504449E+03  0.00000000000E+00 0.  1.
         22    1    1    2    0    0 -0.20021215494E+03 -0.79199919602E+03  0.15087537574E+04  0.17157172069E+04  0.00000000000E+00 0. -1.
<mgrwt>
<rscale>  0 0.23026480E+04</rscale>
<asrwt>0</asrwt>
<pdfrwt beam="1">  1        1 0.29193602E+00 0.23026480E+04</pdfrwt>
<pdfrwt beam="2">  1       -1 0.10746839E+00 0.23026480E+04</pdfrwt>
<totfact> 0.25477646E+00</totfact>
</mgrwt>
</event>
<event>
 6    1  0.9988873E-007  0.1600897E+04  0.7818608E-02  0.8819997E-01
         -1   -1    0    0    0  501 -0.00000000000E+00  0.00000000000E+00  0.24223717789E+03  0.24223717789E+03  0.00000000000E+00 0.  1.
          1   -1    0    0  501    0  0.00000000000E+00 -0.00000000000E+00 -0.26450021247E+04  0.26450021247E+04  0.00000000000E+00 0. -1.
         23    2    1    2    0    0  0.76727548320E+03 -0.21321214978E+03 -0.11957188384E+04  0.14411648246E+04  0.11419905134E+03 0.  0.
         13    1    3    3    0    0  0.49225107142E+03 -0.13285176681E+03 -0.86019225385E+03  0.99994570994E+03  0.00000000000E+00 0. -1.
        -13    1    3    3    0    0  0.27502441179E+03 -0.80360382973E+02 -0.33552658456E+03  0.44121911470E+03  0.00000000000E+00 0.  1.
         22    1    1    2    0    0 -0.76727548320E+03  0.21321214978E+03 -0.12070461084E+04  0.14460744780E+04  0.00000000000E+00 0.  1.
<mgrwt>
<rscale>  0 0.16008971E+04</rscale>
<asrwt>0</asrwt>
<pdfrwt beam="1">  1        1 0.40692341E+00 0.16008971E+04</pdfrwt>
<pdfrwt beam="2">  1       -1 0.37267258E-01 0.16008971E+04</pdfrwt>
<totfact> 0.71529249E+00</totfact>
</mgrwt>
</event>
<event>
 6    1  0.9988873E-007  0.5959667E+03  0.7818608E-02  0.9913809E-01
         -1   -1    0    0    0  501 -0.00000000000E+00  0.00000000000E+00  0.37416345088E+03  0.37416345088E+03  0.00000000000E+00 0.  1.
          1   -1    0    0  501    0  0.00000000000E+00 -0.00000000000E+00 -0.23731360930E+03  0.23731360930E+03  0.00000000000E+00 0. -1.
         23    2    1    2    0    0  0.19956444895E+03  0.10575991977E+03 -0.11796855456E+03  0.27097222185E+03  0.92185873301E+02 0.  0.
         13    1    3    3    0    0  0.89249216961E+02  0.91756203812E+02 -0.36445546025E+02  0.13308982490E+03  0.00000000000E+00 0.  1.
        -13    1    3    3    0    0  0.11031523199E+03  0.14003715954E+02 -0.81523008530E+02  0.13788239695E+03  0.00000000000E+00 0. -1.
         22    1    1    2    0    0 -0.19956444895E+03 -0.10575991977E+03  0.25481839614E+03  0.34050483833E+03  0.00000000000E+00 0. -1.
<mgrwt>
<rscale>  0 0.59596671E+03</rscale>
<asrwt>0</asrwt>
<pdfrwt beam="1">  1        1 0.36509786E-01 0.59596671E+03</pdfrwt>
<pdfrwt beam="2">  1       -1 0.57563608E-01 0.59596671E+03</pdfrwt>
<totfact> 0.36873856E+02</totfact>
</mgrwt>
</event>
<event>
 6    1  0.9988873E-007  0.2109139E+04  0.7818608E-02  0.8557228E-01
          2   -1    0    0  501    0  0.00000000000E+00  0.00000000000E+00  0.55351949824E+03  0.55351949824E+03  0.00000000000E+00 0. -1.
         -2   -1    0    0    0  501 -0.00000000000E+00 -0.00000000000E+00 -0.20091735728E+04  0.20091735728E+04  0.00000000000E+00 0.  1.
         23    2    1    2    0    0 -0.13578546665E+02 -0.33722742827E+03  0.48208125882E+03  0.59578561578E+03  0.93013141851E+02 0.  0.
         11    1    3    3    0    0 -0.36602254826E+02 -0.20288271725E+03  0.22751173739E+03  0.30702233252E+03  0.00000000000E+00 0. -1.
        -11    1    3    3    0    0  0.23023708161E+02 -0.13434471102E+03  0.25456952143E+03  0.28876328326E+03  0.00000000000E+00 0.  1.
         22    1    1    2    0    0  0.13578546665E+02  0.33722742827E+03 -0.19377353334E+04  0.19669074553E+04  0.00000000000E+00 0.  1.
<mgrwt>
<rscale>  0 0.21091389E+04</rscale>
<asrwt>0</asrwt>
<pdfrwt beam="1">  1        2 0.85156847E-01 0.21091389E+04</pdfrwt>
<pdfrwt beam="2">  1       -2 0.30910362E+00 0.21091389E+04</pdfrwt>
<totfact> 0.14074694E+00</totfact>
</mgrwt>
</event>
<event>
 6    1  0.9988873E-007  0.2824617E+04  0.7818608E-02  0.8295666E-01
          1   -1    0    0  501    0  0.00000000000E+00  0.00000000000E+00  0.76138117448E+03  0.76138117448E+03  0.00000000000E+00 0. -1.
         -1   -1    0    0    0  501 -0.00000000000E+00 -0.00000000000E+00 -0.26197331296E+04  0.26197331296E+04  0.00000000000E+00 0.  1.
         23    2    1    2    0    0  0.25945455646E+01  0.10160964152E+04  0.23984939230E+03  0.10498254865E+04  0.11021417537E+03 0.  0.
         13    1    3    3    0    0  0.12343612948E+02  0.57578887081E+03  0.19071671723E+03  0.60667788386E+03  0.00000000000E+00 0. -1.
        -13    1    3    3    0    0 -0.97490673832E+01  0.44030754439E+03  0.49132675066E+02  0.44314760264E+03  0.00000000000E+00 0.  1.
         22    1    1    2    0    0 -0.25945455646E+01 -0.10160964152E+04 -0.20982013474E+04  0.23312888176E+04  0.00000000000E+00 0.  1.
<mgrwt>
<rscale>  0 0.28246171E+04</rscale>
<asrwt>0</asrwt>
<pdfrwt beam="1">  1        1 0.11713556E+00 0.28246171E+04</pdfrwt>
<pdfrwt beam="2">  1       -1 0.40303587E+00 0.28246171E+04</pdfrwt>
<totfact> 0.14085104E-01</totfact>
</mgrwt>
</event>
<event>
 6    1  0.9988873E-007  0.1177157E+04  0.7818608E-02  0.9133089E-01
          2   -1    0    0  501    0  0.00000000000E+00  0.00000000000E+00  0.14640204197E+04  0.14640204197E+04  0.00000000000E+00 0. -1.
         -2   -1    0    0    0  501 -0.00000000000E+00 -0.00000000000E+00 -0.23662549204E+03  0.23662549204E+03  0.00000000000E+00 0.  1.
         23    2    1    2    0    0  0.24474707058E+03 -0.43938393376E+03  0.10492772423E+04  0.11670868432E+04  0.90275126337E+02 0.  0.
         11    1    3    3    0    0  0.24040500151E+03 -0.43367686700E+03  0.98856446848E+03  0.11059520324E+04  0.00000000000E+00 0.  1.
        -11    1    3    3    0    0  0.43420690675E+01 -0.57070667616E+01  0.60712773841E+02  0.61134810724E+02  0.00000000000E+00 0. -1.
         22    1    1    2    0    0 -0.24474707058E+03  0.43938393376E+03  0.17811768530E+03  0.53355906854E+03  0.00000000000E+00 0. -1.
<mgrwt>
<rscale>  0 0.11771568E+04</rscale>
<asrwt>0</asrwt>
<pdfrwt beam="1">  1        2 0.22523390E+00 0.11771568E+04</pdfrwt>
<pdfrwt beam="2">  1       -2 0.36403923E-01 0.11771568E+04</pdfrwt>
<totfact> 0.93320501E+01</totfact>
</mgrwt>
</event>
<event>
 6    1  0.9988873E-007  0.2695844E+04  0.7818608E-02  0.8336355E-01
         -2   -1    0    0    0  501 -0.00000000000E+00  0.00000000000E+00  0.84960615018E+03  0.84960615018E+03  0.00000000000E+00 0.  1.
          2   -1    0    0  501    0  0.00000000000E+00 -0.00000000000E+00 -0.21385133673E+04  0.21385133673E+04  0.00000000000E+00 0. -1.
         23    2    1    2    0    0 -0.91904099751E+03  0.26439247097E+03 -0.16956850760E+04  0.19488852030E+04  0.90917125666E+02 0.  0.
         13    1    3    3    0    0 -0.85231404623E+03  0.23571915524E+03 -0.15158258573E+04  0.17549161755E+04  0.00000000000E+00 0. -1.
        -13    1    3    3    0    0 -0.66726951278E+02  0.28673315727E+02 -0.17985921874E+03  0.19396902749E+03  0.00000000000E+00 0.  1.
         22    1    1    2    0    0  0.91904099751E+03 -0.26439247097E+03  0.40677785891E+03  0.10392343144E+04  0.00000000000E+00 0.  1.
<mgrwt>
<rscale>  0 0.26958443E+04</rscale>
<asrwt>0</asrwt>
<pdfrwt beam="1">  1        2 0.32900205E+00 0.26958443E+04</pdfrwt>
<pdfrwt beam="2">  1       -2 0.13070864E+00 0.26958443E+04</pdfrwt>
<totfact> 0.21018022E+00</totfact>
</mgrwt>
</event>
<event>
 6    1  0.9988873E-007  0.1594700E+04  0.7818608E-02  0.8823811E-01
         -2   -1    0    0    0  501 -0.00000000000E+00  0.00000000000E+00  0.87285139364E+03  0.87285139364E+03  0.00000000000E+00 0.  1.
          2   -1    0    0  501    0  0.00000000000E+00 -0.00000000000E+00 -0.72837921364E+03  0.72837921364E+03  0.00000000000E+00 0. -1.
         23    2    1    2    0    0  0.49389702633E+03 -0.37032552971E+02 -0.55170238903E+03  0.74685088305E+03  0.90027955986E+02 0.  0.
         13    1    3    3    0    0  0.28813727005E+03 -0.64816651503E+02 -0.30859959918E+03  0.42715102402E+03  0.00000000000E+00 0. -1.
        -13    1    3    3    0    0  0.20575975628E+03  0.27784098533E+02 -0.24310278985E+03  0.31969985904E+03  0.00000000000E+00 0.  1.
         22    1    1    2    0    0 -0.49389702633E+03  0.37032552971E+02  0.69617456903E+03  0.85437972422E+03  0.00000000000E+00 0.  1.
<mgrwt>
<rscale>  0 0.15946997E+04</rscale>
<asrwt>0</asrwt>
<pdfrwt beam="1">  1        2 0.11205834E+00 0.15946997E+04</pdfrwt>
<pdfrwt beam="2">  1       -2 0.13428483E+00 0.15946997E+04</pdfrwt>
<totfact> 0.14935985E+01</totfact>
</mgrwt>
</event>
<event>
 6    1  0.9988873E-007  0.1416373E+04  0.7818608E-02  0.8942051E-01
         -2   -1    0    0    0  501 -0.00000000000E+00  0.00000000000E+00  0.72887270811E+03  0.72887270811E+03  0.00000000000E+00 0.  1.
          2   -1    0    0  501    0  0.00000000000E+00 -0.00000000000E+00 -0.68808775289E+03  0.68808775289E+03  0.00000000000E+00 0. -1.
         23    2    1    2    0    0  0.47931718402E+02 -0.61951544541E+03 -0.31322162241E+03  0.70182586266E+03  0.91405251563E+02 0.  0.
         13    1    3    3    0    0  0.74700008506E+02 -0.49161545767E+03 -0.25367682356E+03  0.55822735539E+03  0.00000000000E+00 0.  1.
        -13    1    3    3    0    0 -0.26768290104E+02 -0.12789998774E+03 -0.59544798846E+02  0.14359850727E+03  0.00000000000E+00 0. -1.
         22    1    1    2    0    0 -0.47931718402E+02  0.61951544541E+03  0.35400657764E+03  0.71513459834E+03  0.00000000000E+00 0.  1.
<mgrwt>
<rscale>  0 0.14163734E+04</rscale>
<asrwt>0</asrwt>
<pdfrwt beam="1">  1        2 0.10585965E+00 0.14163734E+04</pdfrwt>
<pdfrwt beam="2">  1       -2 0.11213426E+00 0.14163734E+04</pdfrwt>
<totfact> 0.25526167E+01</totfact>
</mgrwt>
</event>
<event>
 6    1  0.9988873E-007  0.1597257E+04  0.7818608E-02  0.8822235E-01
          2   -1    0    0  501    0  0.00000000000E+00  0.00000000000E+00  0.11330256201E+04  0.11330256201E+04  0.00000000000E+00 0. -1.
         -2   -1    0    0    0  501 -0.00000000000E+00 -0.00000000000E+00 -0.56292395639E+03  0.56292395639E+03  0.00000000000E+00 0.  1.
         23    2    1    2    0    0 -0.62571495722E+03 -0.20902996541E+03 -0.18603494655E+03  0.69247794886E+03  0.98508751859E+02 0.  0.
         11    1    3    3    0    0 -0.61920933988E+02 -0.80677108442E+01 -0.46589422261E+02  0.77909333784E+02  0.00000000000E+00 0. -1.
        -11    1    3    3    0    0 -0.56379402323E+03 -0.20096225457E+03 -0.13944552429E+03  0.61456861507E+03  0.00000000000E+00 0.  1.
         22    1    1    2    0    0  0.62571495722E+03  0.20902996541E+03  0.75613661030E+03  0.10034716277E+04  0.00000000000E+00 0. -1.
<mgrwt>
<rscale>  0 0.15972567E+04</rscale>
<asrwt>0</asrwt>
<pdfrwt beam="1">  1        2 0.17431163E+00 0.15972567E+04</pdfrwt>
<pdfrwt beam="2">  1       -2 0.86603686E-01 0.15972567E+04</pdfrwt>
<totfact> 0.23028042E+01</totfact>
</mgrwt>
</event>
<event>
 6    1  0.9988873E-007  0.2964081E+04  0.7818608E-02  0.8254063E-01
          2   -1    0    0  501    0  0.00000000000E+00  0.00000000000E+00  0.27519604365E+04  0.27519604365E+04  0.00000000000E+00 0. -1.
         -2   -1    0    0    0  501 -0.00000000000E+00 -0.00000000000E+00 -0.79813777979E+03  0.79813777979E+03  0.00000000000E+00 0.  1.
         23    2    1    2    0    0  0.75868019467E+03 -0.50303939633E+03  0.23765330845E+04  0.25464407160E+04  0.88354663441E+02 0.  0.
         11    1    3    3    0    0  0.22769821059E+03 -0.12372018853E+03  0.58751244789E+03  0.64212462699E+03  0.00000000000E+00 0. -1.
        -11    1    3    3    0    0  0.53098198408E+03 -0.37931920781E+03  0.17890206366E+04  0.19043160890E+04  0.00000000000E+00 0.  1.
         22    1    1    2    0    0 -0.75868019467E+03  0.50303939633E+03 -0.42271042779E+03  0.10036575003E+04  0.00000000000E+00 0.  1.
<mgrwt>
<rscale>  0 0.29640807E+04</rscale>
<asrwt>0</asrwt>
<pdfrwt beam="1">  1        2 0.42337852E+00 0.29640807E+04</pdfrwt>
<pdfrwt beam="2">  1       -2 0.12279043E+00 0.29640807E+04</pdfrwt>
<totfact> 0.10637084E+00</totfact>
</mgrwt>
</event>
<event>
 6    1  0.9988873E-007  0.1822593E+04  0.7818608E-02  0.8694376E-01
         -2   -1    0    0    0  501 -0.00000000000E+00  0.00000000000E+00  0.12826210120E+04  0.12826210120E+04  0.00000000000E+00 0.  1.
          2   -1    0    0  501    0  0.00000000000E+00 -0.00000000000E+00 -0.64747228826E+03  0.64747228826E+03  0.00000000000E+00 0. -1.
         23    2    1    2    0    0 -0.80627088309E+03 -0.19027600508E+02 -0.12550657353E+03  0.82147647386E+03  0.92934980516E+02 0.  0.
         11    1    3    3    0    0 -0.55533985355E+03  0.44260948763E+01 -0.46235076607E+02  0.55727876827E+03  0.00000000000E+00 0. -1.
        -11    1    3    3    0    0 -0.25093102954E+03 -0.23453695385E+02 -0.79271496923E+02  0.26419770559E+03  0.00000000000E+00 0.  1.
         22    1    1    2    0    0  0.80627088309E+03  0.19027600508E+02  0.76065529728E+03  0.11086168264E+04  0.00000000000E+00 0.  1.
<mgrwt>
<rscale>  0 0.18225933E+04</rscale>
<asrwt>0</asrwt>
<pdfrwt beam="1">  1        2 0.99611121E-01 0.18225933E+04</pdfrwt>
<pdfrwt beam="2">  1       -2 0.19732631E+00 0.18225933E+04</pdfrwt>
<totfact> 0.58925548E+00</totfact>
</mgrwt>
</event>
<event>
 6    1  0.9988873E-007  0.1065322E+04  0.7818608E-02  0.9239666E-01
         -2   -1    0    0    0  501 -0.00000000000E+00  0.00000000000E+00  0.39565661849E+03  0.39565661849E+03  0.00000000000E+00 0.  1.
          2   -1    0    0  501    0  0.00000000000E+00 -0.00000000000E+00 -0.71710642255E+03  0.71710642255E+03  0.00000000000E+00 0. -1.
         23    2    1    2    0    0 -0.31095856553E+02 -0.25306521250E+03 -0.64596514575E+03  0.70006562032E+03  0.88385231588E+02 0.  0.
         11    1    3    3    0    0  0.23084567741E+02 -0.12255908409E+03 -0.36208490612E+03  0.38296097138E+03  0.00000000000E+00 0.  1.
        -11    1    3    3    0    0 -0.54180424294E+02 -0.13050612841E+03 -0.28388023963E+03  0.31710464894E+03  0.00000000000E+00 0. -1.
         22    1    1    2    0    0  0.31095856553E+02  0.25306521250E+03  0.32451534169E+03  0.41269742072E+03  0.00000000000E+00 0.  1.
<mgrwt>
<rscale>  0 0.10653223E+04</rscale>
<asrwt>0</asrwt>
<pdfrwt beam="1">  1        2 0.11032406E+00 0.10653223E+04</pdfrwt>
<pdfrwt beam="2">  1       -2 0.60870249E-01 0.10653223E+04</pdfrwt>
<totfact> 0.99343438E+01</totfact>
</mgrwt>
</event>
<event>
 6    1  0.9988873E-007  0.1579654E+04  0.7818608E-02  0.8833146E-01
          2   -1    0    0  501    0  0.00000000000E+00  0.00000000000E+00  0.97430542962E+03  0.97430542962E+03  0.00000000000E+00 0. -1.
         -2   -1    0    0    0  501 -0.00000000000E+00 -0.00000000000E+00 -0.64027838075E+03  0.64027838075E+03  0.00000000000E+00 0.  1.
         23    2    1    2    0    0 -0.35925503134E+02  0.46359048835E+03 -0.48159308043E+03  0.67573186357E+03  0.92059076993E+02 0.  0.
         11    1    3    3    0    0 -0.17765085983E+02  0.25480108219E+02 -0.12144402715E+02  0.33351472413E+02  0.00000000000E+00 0. -1.
        -11    1    3    3    0    0 -0.18160417152E+02  0.43811038013E+03 -0.46944867772E+03  0.64238039116E+03  0.00000000000E+00 0.  1.
         22    1    1    2    0    0  0.35925503134E+02 -0.46359048835E+03  0.81562012930E+03  0.93885194679E+03  0.00000000000E+00 0. -1.
<mgrwt>
<rscale>  0 0.15796540E+04</rscale>
<asrwt>0</asrwt>
<pdfrwt beam="1">  1        2 0.14989314E+00 0.15796540E+04</pdfrwt>
<pdfrwt beam="2">  1       -2 0.98504366E-01 0.15796540E+04</pdfrwt>
<totfact> 0.21520269E+01</totfact>
</mgrwt>
</event>
<event>
 6    1  0.9988873E-007  0.1366319E+04  0.7818608E-02  0.8978566E-01
         -2   -1    0    0    0  501 -0.00000000000E+00  0.00000000000E+00  0.48754661523E+03  0.48754661523E+03  0.00000000000E+00 0.  1.
          2   -1    0    0  501    0  0.00000000000E+00 -0.00000000000E+00 -0.95725653901E+03  0.95725653901E+03  0.00000000000E+00 0. -1.
         23    2    1    2    0    0  0.24419588671E+03 -0.50316530526E+03  0.17359899351E+03  0.59236352672E+03  0.89168277668E+02 0.  0.
         13    1    3    3    0    0  0.18513294029E+03 -0.31260509055E+03  0.14339297651E+03  0.39058634631E+03  0.00000000000E+00 0.  1.
        -13    1    3    3    0    0  0.59062946424E+02 -0.19056021471E+03  0.30206017004E+02  0.20177718041E+03  0.00000000000E+00 0. -1.
         22    1    1    2    0    0 -0.24419588671E+03  0.50316530526E+03 -0.64330891729E+03  0.85243962752E+03  0.00000000000E+00 0. -1.
<mgrwt>
<rscale>  0 0.13663194E+04</rscale>
<asrwt>0</asrwt>
<pdfrwt beam="1">  1        2 0.14727023E+00 0.13663194E+04</pdfrwt>
<pdfrwt beam="2">  1       -2 0.75007173E-01 0.13663194E+04</pdfrwt>
<totfact> 0.41838258E+01</totfact>
</mgrwt>
</event>
<event>
 6    1  0.9988873E-007  0.9485606E+03  0.7818608E-02  0.9366835E-01
          1   -1    0    0  501    0  0.00000000000E+00  0.00000000000E+00  0.30722245549E+03  0.30722245549E+03  0.00000000000E+00 0. -1.
         -1   -1    0    0    0  501 -0.00000000000E+00 -0.00000000000E+00 -0.73217894212E+03  0.73217894212E+03  0.00000000000E+00 0.  1.
         23    2    1    2    0    0 -0.40423318451E+03  0.13371308453E+03 -0.43212142211E+03  0.61356693126E+03  0.91933667710E+02 0.  0.
         13    1    3    3    0    0 -0.91171725828E+02  0.53734051173E+02 -0.63669736864E+02  0.12350492799E+03  0.00000000000E+00 0. -1.
        -13    1    3    3    0    0 -0.31306145868E+03  0.79979033361E+02 -0.36845168525E+03  0.49006200327E+03  0.00000000000E+00 0.  1.
         22    1    1    2    0    0  0.40423318451E+03 -0.13371308453E+03  0.71649354858E+01  0.42583446635E+03  0.00000000000E+00 0.  1.
<mgrwt>
<rscale>  0 0.94856062E+03</rscale>
<asrwt>0</asrwt>
<pdfrwt beam="1">  1        1 0.47264994E-01 0.94856062E+03</pdfrwt>
<pdfrwt beam="2">  1       -1 0.11264291E+00 0.94856062E+03</pdfrwt>
<totfact> 0.61668429E+01</totfact>
</mgrwt>
</event>
<event>
 6    1  0.9988873E-007  0.4740474E+04  0.7818608E-02  0.7869838E-01
         -1   -1    0    0    0  501 -0.00000000000E+00  0.00000000000E+00  0.19871656220E+04  0.19871656220E+04  0.00000000000E+00 0.  1.
          1   -1    0    0  501    0  0.00000000000E+00 -0.00000000000E+00 -0.28271542511E+04  0.28271542511E+04  0.00000000000E+00 0. -1.
         23    2    1    2    0    0  0.17611333969E+04  0.12764000704E+04  0.53433075082E+03  0.22414728625E+04  0.88900284824E+02 0.  0.
         11    1    3    3    0    0  0.26543582258E+03  0.15586319965E+03  0.66149467557E+02  0.31484165063E+03  0.00000000000E+00 0. -1.
        -11    1    3    3    0    0  0.14956975743E+04  0.11205368708E+04  0.46818128326E+03  0.19266312119E+04  0.00000000000E+00 0.  1.
         22    1    1    2    0    0 -0.17611333969E+04 -0.12764000704E+04 -0.13743193800E+04  0.25728470105E+04  0.00000000000E+00 0.  1.
<mgrwt>
<rscale>  0 0.47404741E+04</rscale>
<asrwt>0</asrwt>
<pdfrwt beam="1">  1        1 0.43494680E+00 0.47404741E+04</pdfrwt>
<pdfrwt beam="2">  1       -1 0.30571779E+00 0.47404741E+04</pdfrwt>
<totfact> 0.17807770E-02</totfact>
</mgrwt>
</event>
<event>
 6    1  0.9988873E-007  0.4279949E+04  0.7818608E-02  0.7950336E-01
          2   -1    0    0  501    0  0.00000000000E+00  0.00000000000E+00  0.30910555534E+04  0.30910555534E+04  0.00000000000E+00 0. -1.
         -2   -1    0    0    0  501 -0.00000000000E+00 -0.00000000000E+00 -0.14815299824E+04  0.14815299824E+04  0.00000000000E+00 0.  1.
         23    2    1    2    0    0  0.15826826320E+04 -0.10996632308E+04 -0.18634671311E+03  0.19383302719E+04  0.90860389171E+02 0.  0.
         13    1    3    3    0    0  0.65361207403E+03 -0.42678080560E+03 -0.36775931601E+02  0.78147493145E+03  0.00000000000E+00 0. -1.
        -13    1    3    3    0    0  0.92907055802E+03 -0.67288242522E+03 -0.14957078151E+03  0.11568553404E+04  0.00000000000E+00 0.  1.
         22    1    1    2    0    0 -0.15826826320E+04  0.10996632308E+04  0.17958722841E+04  0.26342552640E+04  0.00000000000E+00 0. -1.
<mgrwt>
<rscale>  0 0.42799493E+04</rscale>
<asrwt>0</asrwt>
<pdfrwt beam="1">  1        2 0.47554701E+00 0.42799493E+04</pdfrwt>
<pdfrwt beam="2">  1       -2 0.22792769E+00 0.42799493E+04</pdfrwt>
<totfact> 0.10352594E-01</totfact>
</mgrwt>
</event>
<event>
 6    1  0.9988873E-007  0.1864595E+04  0.7818608E-02  0.8672683E-01
         -2   -1    0    0    0  501 -0.00000000000E+00  0.00000000000E+00  0.45211030203E+03  0.45211030203E+03  0.00000000000E+00 0.  1.
          2   -1    0    0  501    0  0.00000000000E+00 -0.00000000000E+00 -0.19224921143E+04  0.19224921143E+04  0.00000000000E+00 0. -1.
         23    2    1    2    0    0  0.81074401942E+03  0.35366543526E+03 -0.11028891492E+04  0.14167736411E+04  0.92184432942E+02 0.  0.
         11    1    3    3    0    0  0.23908711074E+03  0.67989655489E+02 -0.34893793594E+03  0.42841909728E+03  0.00000000000E+00 0.  1.
        -11    1    3    3    0    0  0.57165690868E+03  0.28567577977E+03 -0.75395121326E+03  0.98835454386E+03  0.00000000000E+00 0. -1.
         22    1    1    2    0    0 -0.81074401942E+03 -0.35366543526E+03 -0.36749266302E+03  0.95782877515E+03  0.00000000000E+00 0.  1.
<mgrwt>
<rscale>  0 0.18645949E+04</rscale>
<asrwt>0</asrwt>
<pdfrwt beam="1">  1        2 0.29576802E+00 0.18645949E+04</pdfrwt>
<pdfrwt beam="2">  1       -2 0.69555431E-01 0.18645949E+04</pdfrwt>
<totfact> 0.13061157E+01</totfact>
</mgrwt>
</event>
<event>
 6    1  0.9988873E-007  0.7644773E+03  0.7818608E-02  0.9612908E-01
         -1   -1    0    0    0  501 -0.00000000000E+00  0.00000000000E+00  0.27744828359E+03  0.27744828359E+03  0.00000000000E+00 0.  1.
          1   -1    0    0  501    0  0.00000000000E+00 -0.00000000000E+00 -0.52660758769E+03  0.52660758769E+03  0.00000000000E+00 0. -1.
         23    2    1    2    0    0 -0.25742654993E+03  0.12745231758E+03  0.13045263382E+03  0.32801202321E+03  0.89785721779E+02 0.  0.
         13    1    3    3    0    0 -0.12343407220E+03  0.64693258670E+02  0.14662822955E+02  0.14012917710E+03  0.00000000000E+00 0.  1.
        -13    1    3    3    0    0 -0.13399247773E+03  0.62759058915E+02  0.11578981087E+03  0.18788284612E+03  0.00000000000E+00 0. -1.
         22    1    1    2    0    0  0.25742654993E+03 -0.12745231758E+03 -0.37961193792E+03  0.47604384806E+03  0.00000000000E+00 0. -1.
<mgrwt>
<rscale>  0 0.76447726E+03</rscale>
<asrwt>0</asrwt>
<pdfrwt beam="1">  1        1 0.81016551E-01 0.76447726E+03</pdfrwt>
<pdfrwt beam="2">  1       -1 0.42684352E-01 0.76447726E+03</pdfrwt>
<totfact> 0.22547559E+02</totfact>
</mgrwt>
</event>
<event>
 6    1  0.9988873E-007  0.2387890E+04  0.7818608E-02  0.8444051E-01
          2   -1    0    0  501    0  0.00000000000E+00  0.00000000000E+00  0.18024877478E+04  0.18024877478E+04  0.00000000000E+00 0. -1.
         -2   -1    0    0    0  501 -0.00000000000E+00 -0.00000000000E+00 -0.79085407701E+03  0.79085407701E+03  0.00000000000E+00 0.  1.
         23    2    1    2    0    0 -0.11198271583E+04  0.65379952015E+02  0.68402170785E+02  0.11277453370E+04  0.94038745151E+02 0.  0.
         13    1    3    3    0    0 -0.77983511447E+03  0.14290806495E+02  0.77571550625E+02  0.78381399475E+03  0.00000000000E+00 0. -1.
        -13    1    3    3    0    0 -0.33999204381E+03  0.51089145520E+02 -0.91693798399E+01  0.34393134224E+03  0.00000000000E+00 0.  1.
         22    1    1    2    0    0  0.11198271583E+04 -0.65379952015E+02  0.94323150003E+03  0.14655964878E+04  0.00000000000E+00 0. -1.
<mgrwt>
<rscale>  0 0.23878901E+04</rscale>
<asrwt>0</asrwt>
<pdfrwt beam="1">  1        2 0.27730581E+00 0.23878901E+04</pdfrwt>
<pdfrwt beam="2">  1       -2 0.12166986E+00 0.23878901E+04</pdfrwt>
<totfact> 0.39723427E+00</totfact>
</mgrwt>
</event>
<event>
 6    1  0.9988873E-007  0.2230980E+04  0.7818608E-02  0.8505643E-01
          2   -1    0    0  501    0  0.00000000000E+00  0.00000000000E+00  0.17079263998E+04  0.17079263998E+04  0.00000000000E+00 0. -1.
         -2   -1    0    0    0  501 -0.00000000000E+00 -0.00000000000E+00 -0.72855483892E+03  0.72855483892E+03  0.00000000000E+00 0.  1.
         23    2    1    2    0    0  0.15381365728E+03  0.10823269261E+04  0.25838086169E+03  0.11269325362E+04  0.90144635513E+02 0.  0.
         13    1    3    3    0    0  0.68732105304E+02  0.77448724860E+03  0.18284516726E+03  0.79874085643E+03  0.00000000000E+00 0. -1.
        -13    1    3    3    0    0  0.85081551973E+02  0.30783967747E+03  0.75535694427E+02  0.32819167973E+03  0.00000000000E+00 0.  1.
         22    1    1    2    0    0 -0.15381365728E+03 -0.10823269261E+04  0.72099069921E+03  0.13095487026E+04  0.00000000000E+00 0. -1.
<mgrwt>
<rscale>  0 0.22309801E+04</rscale>
<asrwt>0</asrwt>
<pdfrwt beam="1">  1        2 0.26275791E+00 0.22309801E+04</pdfrwt>
<pdfrwt beam="2">  1       -2 0.11208536E+00 0.22309801E+04</pdfrwt>
<totfact> 0.55564096E+00</totfact>
</mgrwt>
</event>
<event>
 6    1  0.9988873E-007  0.1967458E+04  0.7818608E-02  0.8621988E-01
         -2   -1    0    0    0  501 -0.00000000000E+00  0.00000000000E+00  0.34864530961E+03  0.34864530961E+03  0.00000000000E+00 0.  1.
          2   -1    0    0  501    0  0.00000000000E+00 -0.00000000000E+00 -0.27756653817E+04  0.27756653817E+04  0.00000000000E+00 0. -1.
         23    2    1    2    0    0 -0.38097708324E+03 -0.11585305568E+03 -0.26408892246E+04  0.26723090509E+04  0.91511193747E+02 0.  0.
         13    1    3    3    0    0 -0.23445571840E+03 -0.47536508965E+02 -0.18197249866E+04  0.18353823118E+04  0.00000000000E+00 0. -1.
        -13    1    3    3    0    0 -0.14652136483E+03 -0.68316546718E+02 -0.82116423805E+03  0.83692673918E+03  0.00000000000E+00 0.  1.
         22    1    1    2    0    0  0.38097708324E+03  0.11585305568E+03  0.21386915255E+03  0.45200164035E+03  0.00000000000E+00 0.  1.
<mgrwt>
<rscale>  0 0.19674580E+04</rscale>
<asrwt>0</asrwt>
<pdfrwt beam="1">  1        2 0.42702546E+00 0.19674580E+04</pdfrwt>
<pdfrwt beam="2">  1       -2 0.53637738E-01 0.19674580E+04</pdfrwt>
<totfact> 0.73092303E+00</totfact>
</mgrwt>
</event>
<event>
 6    1  0.9988873E-007  0.1646986E+04  0.7818608E-02  0.8792191E-01
          2   -1    0    0  501    0  0.00000000000E+00  0.00000000000E+00  0.95417413979E+03  0.95417413979E+03  0.00000000000E+00 0. -1.
         -2   -1    0    0    0  501 -0.00000000000E+00 -0.00000000000E+00 -0.71070964273E+03  0.71070964273E+03  0.00000000000E+00 0.  1.
         23    2    1    2    0    0 -0.38242064162E+03  0.70383245775E+03  0.30396227687E+03  0.86158703966E+03  0.91178316647E+02 0.  0.
         11    1    3    3    0    0 -0.14268353942E+03  0.27980977993E+03  0.72797612455E+02  0.32241525669E+03  0.00000000000E+00 0. -1.
        -11    1    3    3    0    0 -0.23973710220E+03  0.42402267782E+03  0.23116466441E+03  0.53917178297E+03  0.00000000000E+00 0.  1.
         22    1    1    2    0    0  0.38242064162E+03 -0.70383245775E+03 -0.60497779809E+02  0.80329674286E+03  0.00000000000E+00 0.  1.
<mgrwt>
<rscale>  0 0.16469860E+04</rscale>
<asrwt>0</asrwt>
<pdfrwt beam="1">  1        2 0.14679602E+00 0.16469860E+04</pdfrwt>
<pdfrwt beam="2">  1       -2 0.10933995E+00 0.16469860E+04</pdfrwt>
<totfact> 0.17187209E+01</totfact>
</mgrwt>
</event>
<event>
 6    1  0.9988873E-007  0.2800324E+04  0.7818608E-02  0.8303168E-01
          1   -1    0    0  501    0  0.00000000000E+00  0.00000000000E+00  0.14075390408E+04  0.14075390408E+04  0.00000000000E+00 0. -1.
         -1   -1    0    0    0  501 -0.00000000000E+00 -0.00000000000E+00 -0.13928232556E+04  0.13928232556E+04  0.00000000000E+00 0.  1.
         23    2    1    2    0    0  0.10150974048E+04  0.52385250089E+03 -0.79982325174E+03  0.13973947177E+04  0.90280558147E+02 0.  0.
         11    1    3    3    0    0  0.71548883471E+03  0.40368658954E+03 -0.60629499752E+03  0.10210194705E+04  0.00000000000E+00 0. -1.
        -11    1    3    3    0    0  0.29960857013E+03  0.12016591135E+03 -0.19352825422E+03  0.37637524723E+03  0.00000000000E+00 0.  1.
         22    1    1    2    0    0 -0.10150974048E+04 -0.52385250089E+03  0.81453903692E+03  0.14029675786E+04  0.00000000000E+00 0. -1.
<mgrwt>
<rscale>  0 0.28003236E+04</rscale>
<asrwt>0</asrwt>
<pdfrwt beam="1">  1        1 0.21654447E+00 0.28003236E+04</pdfrwt>
<pdfrwt beam="2">  1       -1 0.21428050E+00 0.28003236E+04</pdfrwt>
<totfact> 0.79012828E-01</totfact>
</mgrwt>
</event>
<event>
 6    1  0.9988873E-007  0.1097420E+04  0.7818608E-02  0.9207710E-01
          1   -1    0    0  501    0  0.00000000000E+00  0.00000000000E+00  0.69520905960E+03  0.69520905960E+03  0.00000000000E+00 0. -1.
         -1   -1    0    0    0  501 -0.00000000000E+00 -0.00000000000E+00 -0.43308244252E+03  0.43308244252E+03  0.00000000000E+00 0.  1.
         23    2    1    2    0    0 -0.37891503812E+03  0.14941556423E+03 -0.24039525821E+03  0.48142996200E+03  0.89907236646E+02 0.  0.
         11    1    3    3    0    0 -0.20618009782E+03  0.56706034814E+02 -0.16984171339E+03  0.27307877019E+03  0.00000000000E+00 0.  1.
        -11    1    3    3    0    0 -0.17273494030E+03  0.92709529415E+02 -0.70553544817E+02  0.20835119181E+03  0.00000000000E+00 0. -1.
         22    1    1    2    0    0  0.37891503812E+03 -0.14941556423E+03  0.50252187528E+03  0.64686154012E+03  0.00000000000E+00 0. -1.
<mgrwt>
<rscale>  0 0.10974203E+04</rscale>
<asrwt>0</asrwt>
<pdfrwt beam="1">  1        1 0.10695524E+00 0.10974203E+04</pdfrwt>
<pdfrwt beam="2">  1       -1 0.66628068E-01 0.10974203E+04</pdfrwt>
<totfact> 0.62643295E+01</totfact>
</mgrwt>
</event>
<event>
 6    1  0.9988873E-007  0.6282558E+03  0.7818608E-02  0.9848458E-01
          2   -1    0    0  501    0  0.00000000000E+00  0.00000000000E+00  0.69560328816E+03  0.69560328816E+03  0.00000000000E+00 0. -1.
         -2   -1    0    0    0  501 -0.00000000000E+00 -0.00000000000E+00 -0.14185719550E+03  0.14185719550E+03  0.00000000000E+00 0.  1.
         23    2    1    2    0    0 -0.15910922720E+03  0.20313676844E+03  0.50519855795E+03  0.57490162169E+03  0.93305941857E+02 0.  0.
         11    1    3    3    0    0 -0.81535241217E+02  0.16416848936E+03  0.29275291683E+03  0.34540347244E+03  0.00000000000E+00 0.  1.
        -11    1    3    3    0    0 -0.77573985987E+02  0.38968279080E+02  0.21244564113E+03  0.22949814925E+03  0.00000000000E+00 0. -1.
         22    1    1    2    0    0  0.15910922720E+03 -0.20313676844E+03  0.48547534705E+02  0.26255886197E+03  0.00000000000E+00 0.  1.
<mgrwt>
<rscale>  0 0.62825578E+03</rscale>
<asrwt>0</asrwt>
<pdfrwt beam="1">  1        2 0.10701589E+00 0.62825578E+03</pdfrwt>
<pdfrwt beam="2">  1       -2 0.21824184E-01 0.62825578E+03</pdfrwt>
<totfact> 0.75946477E+02</totfact>
</mgrwt>
</event>
<event>
 6    1  0.9988873E-007  0.3373293E+04  0.7818608E-02  0.8144492E-01
          1   -1    0    0  501    0  0.00000000000E+00  0.00000000000E+00  0.25434306359E+04  0.25434306359E+04  0.00000000000E+00 0. -1.
         -1   -1    0    0    0  501 -0.00000000000E+00 -0.00000000000E+00 -0.11184800981E+04  0.11184800981E+04  0.00000000000E+00 0.  1.
         23    2    1    2    0    0 -0.91842658462E+03  0.14396167474E+03  0.22391431716E+04  0.24261348643E+04  0.90199123835E+02 0.  0.
         13    1    3    3    0    0 -0.52496323777E+03  0.64250305043E+02  0.13781332589E+04  0.14761320340E+04  0.00000000000E+00 0.  1.
        -13    1    3    3    0    0 -0.39346334685E+03  0.79711369694E+02  0.86100991269E+03  0.95000283027E+03  0.00000000000E+00 0. -1.
         22    1    1    2    0    0  0.91842658462E+03 -0.14396167474E+03 -0.81419263375E+03  0.12357758696E+04  0.00000000000E+00 0.  1.
<mgrwt>
<rscale>  0 0.33732931E+04</rscale>
<asrwt>0</asrwt>
<pdfrwt beam="1">  1        1 0.39129702E+00 0.33732931E+04</pdfrwt>
<pdfrwt beam="2">  1       -1 0.17207386E+00 0.33732931E+04</pdfrwt>
<totfact> 0.24749760E-01</totfact>
</mgrwt>
</event>
<event>
 6    1  0.9988873E-007  0.4935222E+04  0.7818608E-02  0.7838578E-01
         -2   -1    0    0    0  501 -0.00000000000E+00  0.00000000000E+00  0.25330593752E+04  0.25330593752E+04  0.00000000000E+00 0.  1.
          2   -1    0    0  501    0  0.00000000000E+00 -0.00000000000E+00 -0.24038536971E+04  0.24038536971E+04  0.00000000000E+00 0. -1.
         23    2    1    2    0    0 -0.27758702868E+03  0.11709153555E+04  0.22187020424E+04  0.25256701594E+04  0.90959730900E+02 0.  0.
         11    1    3    3    0    0 -0.12596611925E+03  0.35531743880E+03  0.71699109214E+03  0.81005812861E+03  0.00000000000E+00 0. -1.
        -11    1    3    3    0    0 -0.15162090944E+03  0.81559791669E+03  0.15017109503E+04  0.17156120308E+04  0.00000000000E+00 0.  1.
         22    1    1    2    0    0  0.27758702868E+03 -0.11709153555E+04 -0.20894963644E+04  0.24112429129E+04  0.00000000000E+00 0. -1.
<mgrwt>
<rscale>  0 0.49352220E+04</rscale>
<asrwt>0</asrwt>
<pdfrwt beam="1">  1        2 0.36982364E+00 0.49352220E+04</pdfrwt>
<pdfrwt beam="2">  1       -2 0.38970144E+00 0.49352220E+04</pdfrwt>
<totfact> 0.25087384E-02</totfact>
</mgrwt>
</event>
<event>
 6    1  0.9988873E-007  0.1919912E+04  0.7818608E-02  0.8645008E-01
         -2   -1    0    0    0  501 -0.00000000000E+00  0.00000000000E+00  0.91933443779E+03  0.91933443779E+03  0.00000000000E+00 0.  1.
          2   -1    0    0  501    0  0.00000000000E+00 -0.00000000000E+00 -0.10023725508E+04  0.10023725508E+04  0.00000000000E+00 0. -1.
         23    2    1    2    0    0  0.89546596284E+03 -0.32340613211E+02 -0.37958960817E+03  0.97785954582E+03  0.95999035728E+02 0.  0.
         13    1    3    3    0    0  0.66803473817E+03 -0.19854881684E+02 -0.23685864924E+03  0.70906039760E+03  0.00000000000E+00 0.  1.
        -13    1    3    3    0    0  0.22743122467E+03 -0.12485731527E+02 -0.14273095894E+03  0.26879914822E+03  0.00000000000E+00 0. -1.
         22    1    1    2    0    0 -0.89546596284E+03  0.32340613211E+02  0.29655149519E+03  0.94384744274E+03  0.00000000000E+00 0.  1.
<mgrwt>
<rscale>  0 0.19199121E+04</rscale>
<asrwt>0</asrwt>
<pdfrwt beam="1">  1        2 0.15421116E+00 0.19199121E+04</pdfrwt>
<pdfrwt beam="2">  1       -2 0.14143607E+00 0.19199121E+04</pdfrwt>
<totfact> 0.82079988E+00</totfact>
</mgrwt>
</event>
<event>
 6    1  0.9988873E-007  0.1815466E+04  0.7818608E-02  0.8698118E-01
         -1   -1    0    0    0  501 -0.00000000000E+00  0.00000000000E+00  0.27849638375E+03  0.27849638375E+03  0.00000000000E+00 0.  1.
          1   -1    0    0  501    0  0.00000000000E+00 -0.00000000000E+00 -0.29586715324E+04  0.29586715324E+04  0.00000000000E+00 0. -1.
         23    2    1    2    0    0 -0.11226842221E+03 -0.78144648721E+03 -0.21341272685E+04  0.22772558898E+04  0.90179699832E+02 0.  0.
         11    1    3    3    0    0 -0.11622235827E+03 -0.64902659804E+03 -0.17009604490E+04  0.18242833143E+04  0.00000000000E+00 0.  1.
        -11    1    3    3    0    0  0.39539360675E+01 -0.13241988917E+03 -0.43316681949E+03  0.45297257551E+03  0.00000000000E+00 0. -1.
         22    1    1    2    0    0  0.11226842221E+03  0.78144648721E+03 -0.54604788012E+03  0.95991202638E+03  0.00000000000E+00 0.  1.
<mgrwt>
<rscale>  0 0.18154661E+04</rscale>
<asrwt>0</asrwt>
<pdfrwt beam="1">  1        1 0.45518023E+00 0.18154661E+04</pdfrwt>
<pdfrwt beam="2">  1       -1 0.42845598E-01 0.18154661E+04</pdfrwt>
<totfact> 0.32487204E+00</totfact>
</mgrwt>
</event>
<event>
 6    1  0.9988873E-007  0.1161623E+04  0.7818608E-02  0.9147127E-01
         -1   -1    0    0    0  501 -0.00000000000E+00  0.00000000000E+00  0.41157859736E+03  0.41157859736E+03  0.00000000000E+00 0.  1.
          1   -1    0    0  501    0  0.00000000000E+00 -0.00000000000E+00 -0.81963011030E+03  0.81963011030E+03  0.00000000000E+00 0. -1.
         23    2    1    2    0    0 -0.27893788223E+03  0.34389826375E+03 -0.59789305168E+03  0.74942850073E+03  0.89970097859E+02 0.  0.
         11    1    3    3    0    0 -0.12593256316E+03  0.12333799756E+03 -0.17396534188E+03  0.24765946839E+03  0.00000000000E+00 0. -1.
        -11    1    3    3    0    0 -0.15300531907E+03  0.22056026619E+03 -0.42392770980E+03  0.50176903234E+03  0.00000000000E+00 0.  1.
         22    1    1    2    0    0  0.27893788223E+03 -0.34389826375E+03  0.18984153875E+03  0.48178020693E+03  0.00000000000E+00 0.  1.
<mgrwt>
<rscale>  0 0.11616234E+04</rscale>
<asrwt>0</asrwt>
<pdfrwt beam="1">  1        1 0.12609694E+00 0.11616234E+04</pdfrwt>
<pdfrwt beam="2">  1       -1 0.63319784E-01 0.11616234E+04</pdfrwt>
<totfact> 0.53376883E+01</totfact>
</mgrwt>
</event>
<event>
 6    1  0.9988873E-007  0.1520724E+04  0.7818608E-02  0.8870788E-01
          2   -1    0    0  501    0  0.00000000000E+00  0.00000000000E+00  0.10255442112E+04  0.10255442112E+04  0.00000000000E+00 0. -1.
         -2   -1    0    0    0  501 -0.00000000000E+00 -0.00000000000E+00 -0.56374946705E+03  0.56374946705E+03  0.00000000000E+00 0.  1.
         23    2    1    2    0    0 -0.13907554185E+03  0.73682794357E+03  0.34543522910E+03  0.83048081497E+03  0.90085857716E+02 0.  0.
         13    1    3    3    0    0 -0.14704157951E+02  0.27345890045E+03  0.99681193799E+02  0.29143150635E+03  0.00000000000E+00 0.  1.
        -13    1    3    3    0    0 -0.12437138390E+03  0.46336904313E+03  0.24575403530E+03  0.53904930862E+03  0.00000000000E+00 0. -1.
         22    1    1    2    0    0  0.13907554185E+03 -0.73682794357E+03  0.11635951508E+03  0.75881286331E+03  0.00000000000E+00 0. -1.
<mgrwt>
<rscale>  0 0.15207235E+04</rscale>
<asrwt>0</asrwt>
<pdfrwt beam="1">  1        2 0.15777603E+00 0.15207235E+04</pdfrwt>
<pdfrwt beam="2">  1       -2 0.86730687E-01 0.15207235E+04</pdfrwt>
<totfact> 0.26933835E+01</totfact>
</mgrwt>
</event>
<event>
 6    1  0.9988873E-007  0.3250312E+04  0.7818608E-02  0.8175655E-01
          2   -1    0    0  501    0  0.00000000000E+00  0.00000000000E+00  0.15969152045E+04  0.15969152045E+04  0.00000000000E+00 0. -1.
         -2   -1    0    0    0  501 -0.00000000000E+00 -0.00000000000E+00 -0.16538965279E+04  0.16538965279E+04  0.00000000000E+00 0.  1.
         23    2    1    2    0    0  0.19101074592E+03 -0.15924214349E+04  0.22602283456E+03  0.16221980628E+04  0.90272375798E+02 0.  0.
         11    1    3    3    0    0 -0.22525084718E+01 -0.22066307291E+03  0.43480303920E+02  0.22491732341E+03  0.00000000000E+00 0. -1.
        -11    1    3    3    0    0  0.19326325440E+03 -0.13717583620E+04  0.18254253064E+03  0.13972807394E+04  0.00000000000E+00 0.  1.
         22    1    1    2    0    0 -0.19101074592E+03  0.15924214349E+04 -0.28300415794E+03  0.16286136696E+04  0.00000000000E+00 0.  1.
<mgrwt>
<rscale>  0 0.32503123E+04</rscale>
<asrwt>0</asrwt>
<pdfrwt beam="1">  1        2 0.24567926E+00 0.32503123E+04</pdfrwt>
<pdfrwt beam="2">  1       -2 0.25444562E+00 0.32503123E+04</pdfrwt>
<totfact> 0.56658131E-01</totfact>
</mgrwt>
</event>
<event>
 6    1  0.9988873E-007  0.1590760E+04  0.7818608E-02  0.8826245E-01
         -1   -1    0    0    0  501 -0.00000000000E+00  0.00000000000E+00  0.70325869960E+03  0.70325869960E+03  0.00000000000E+00 0.  1.
          1   -1    0    0  501    0  0.00000000000E+00 -0.00000000000E+00 -0.89956862079E+03  0.89956862079E+03  0.00000000000E+00 0. -1.
         23    2    1    2    0    0  0.42860583486E+03  0.19579815895E+03  0.54382691512E+03  0.72542067739E+03  0.91910635100E+02 0.  0.
         13    1    3    3    0    0  0.68717956283E+02  0.26469635836E+00  0.10165735079E+03  0.12270470467E+03  0.00000000000E+00 0. -1.
        -13    1    3    3    0    0  0.35988787858E+03  0.19553346259E+03  0.44216956433E+03  0.60271597271E+03  0.00000000000E+00 0.  1.
         22    1    1    2    0    0 -0.42860583486E+03 -0.19579815895E+03 -0.74013683631E+03  0.87740664300E+03  0.00000000000E+00 0. -1.
<mgrwt>
<rscale>  0 0.15907601E+04</rscale>
<asrwt>0</asrwt>
<pdfrwt beam="1">  1        1 0.13839517E+00 0.15907601E+04</pdfrwt>
<pdfrwt beam="2">  1       -1 0.10819365E+00 0.15907601E+04</pdfrwt>
<totfact> 0.13882408E+01</totfact>
</mgrwt>
</event>
<event>
 6    1  0.9988873E-007  0.4974439E+04  0.7818608E-02  0.7832462E-01
         -2   -1    0    0    0  501 -0.00000000000E+00  0.00000000000E+00  0.27165402004E+04  0.27165402004E+04  0.00000000000E+00 0.  1.
          2   -1    0    0  501    0  0.00000000000E+00 -0.00000000000E+00 -0.22772573559E+04  0.22772573559E+04  0.00000000000E+00 0. -1.
         23    2    1    2    0    0  0.16145533284E+02 -0.19181866650E+04 -0.13679600289E+04  0.23583037576E+04  0.10286501974E+03 0.  0.
         11    1    3    3    0    0 -0.27103340676E+02 -0.13492207922E+04 -0.92799141372E+03  0.16377726952E+04  0.00000000000E+00 0.  1.
        -11    1    3    3    0    0  0.43248873960E+02 -0.56896587276E+03 -0.43996861519E+03  0.72053106235E+03  0.00000000000E+00 0. -1.
         22    1    1    2    0    0 -0.16145533284E+02  0.19181866650E+04  0.18072428734E+04  0.26354937988E+04  0.00000000000E+00 0.  1.
<mgrwt>
<rscale>  0 0.49744391E+04</rscale>
<asrwt>0</asrwt>
<pdfrwt beam="1">  1        2 0.35034729E+00 0.49744391E+04</pdfrwt>
<pdfrwt beam="2">  1       -2 0.41792926E+00 0.49744391E+04</pdfrwt>
<totfact> 0.19300707E-02</totfact>
</mgrwt>
</event>
<event>
 6    1  0.9988873E-007  0.5010498E+04  0.7818608E-02  0.7826890E-01
         -2   -1    0    0    0  501 -0.00000000000E+00  0.00000000000E+00  0.13853669356E+04  0.13853669356E+04  0.00000000000E+00 0.  1.
          2   -1    0    0  501    0  0.00000000000E+00 -0.00000000000E+00 -0.45304046777E+04  0.45304046777E+04  0.00000000000E+00 0. -1.
         23    2    1    2    0    0  0.21289142543E+04  0.10427908652E+04 -0.61925224259E+03  0.24517737668E+04  0.89624621525E+02 0.  0.
         13    1    3    3    0    0  0.24872948738E+03  0.99797903868E+02 -0.49140249705E+02  0.27247154649E+03  0.00000000000E+00 0. -1.
        -13    1    3    3    0    0  0.18801847670E+04  0.94299296137E+03 -0.57011199289E+03  0.21793022203E+04  0.00000000000E+00 0.  1.
         22    1    1    2    0    0 -0.21289142543E+04 -0.10427908652E+04 -0.25257854995E+04  0.34639978465E+04  0.00000000000E+00 0. -1.
<mgrwt>
<rscale>  0 0.50104981E+04</rscale>
<asrwt>0</asrwt>
<pdfrwt beam="1">  1        2 0.69698533E+00 0.50104981E+04</pdfrwt>
<pdfrwt beam="2">  1       -2 0.21313337E+00 0.50104981E+04</pdfrwt>
<totfact> 0.90417004E-03</totfact>
</mgrwt>
</event>
<event>
 6    1  0.9988873E-007  0.2739656E+04  0.7818608E-02  0.8322251E-01
         -2   -1    0    0    0  501 -0.00000000000E+00  0.00000000000E+00  0.12923028872E+04  0.12923028872E+04  0.00000000000E+00 0.  1.
          2   -1    0    0  501    0  0.00000000000E+00 -0.00000000000E+00 -0.14520040893E+04  0.14520040893E+04  0.00000000000E+00 0. -1.
         23    2    1    2    0    0 -0.52788714042E+03  0.12245321678E+04  0.22735755788E+03  0.13557975791E+04  0.91387927734E+02 0.  0.
         13    1    3    3    0    0 -0.17059170844E+03  0.46389778114E+03  0.11970455935E+03  0.50855861399E+03  0.00000000000E+00 0. -1.
        -13    1    3    3    0    0 -0.35729543198E+03  0.76063438665E+03  0.10765299853E+03  0.84723896508E+03  0.00000000000E+00 0.  1.
         22    1    1    2    0    0  0.52788714042E+03 -0.12245321678E+04 -0.38705876004E+03  0.13885093974E+04  0.00000000000E+00 0.  1.
<mgrwt>
<rscale>  0 0.27396562E+04</rscale>
<asrwt>0</asrwt>
<pdfrwt beam="1">  1        2 0.22338524E+00 0.27396562E+04</pdfrwt>
<pdfrwt beam="2">  1       -2 0.19881583E+00 0.27396562E+04</pdfrwt>
<totfact> 0.16004078E+00</totfact>
</mgrwt>
</event>
<event>
 6    1  0.9988873E-007  0.1942556E+04  0.7818608E-02  0.8633959E-01
          2   -1    0    0  501    0  0.00000000000E+00  0.00000000000E+00  0.10137561352E+04  0.10137561352E+04  0.00000000000E+00 0. -1.
         -2   -1    0    0    0  501 -0.00000000000E+00 -0.00000000000E+00 -0.93058005579E+03  0.93058005579E+03  0.00000000000E+00 0.  1.
         23    2    1    2    0    0  0.59089628511E+03 -0.30045014745E+03  0.74949523752E+03  0.10044372968E+04  0.87877535991E+02 0.  0.
         11    1    3    3    0    0  0.30880180013E+03 -0.15191447588E+03  0.32322631824E+03  0.47213537524E+03  0.00000000000E+00 0.  1.
        -11    1    3    3    0    0  0.28209448497E+03 -0.14853567157E+03  0.42626891928E+03  0.53230192159E+03  0.00000000000E+00 0. -1.
         22    1    1    2    0    0 -0.59089628511E+03  0.30045014745E+03 -0.66631915809E+03  0.93989889418E+03  0.00000000000E+00 0.  1.
<mgrwt>
<rscale>  0 0.19425563E+04</rscale>
<asrwt>0</asrwt>
<pdfrwt beam="1">  1        2 0.15596248E+00 0.19425563E+04</pdfrwt>
<pdfrwt beam="2">  1       -2 0.14316616E+00 0.19425563E+04</pdfrwt>
<totfact> 0.78045819E+00</totfact>
</mgrwt>
</event>
<event>
 6    1  0.9988873E-007  0.2670354E+04  0.7818608E-02  0.8344689E-01
         -2   -1    0    0    0  501 -0.00000000000E+00  0.00000000000E+00  0.13016232485E+04  0.13016232485E+04  0.00000000000E+00 0.  1.
          2   -1    0    0  501    0  0.00000000000E+00 -0.00000000000E+00 -0.13695955949E+04  0.13695955949E+04  0.00000000000E+00 0. -1.
         23    2    1    2    0    0  0.11695156845E+04  0.34524202815E+03 -0.57223737763E+03  0.13516574708E+04  0.11208616205E+03 0.  0.
         11    1    3    3    0    0  0.87289080987E+03  0.28828348046E+03 -0.47239827783E+03  0.10335404511E+04  0.00000000000E+00 0.  1.
        -11    1    3    3    0    0  0.29662487468E+03  0.56958547694E+02 -0.99839099799E+02  0.31811701979E+03  0.00000000000E+00 0. -1.
         22    1    1    2    0    0 -0.11695156845E+04 -0.34524202815E+03  0.50426503124E+03  0.13195613726E+04  0.00000000000E+00 0.  1.
<mgrwt>
<rscale>  0 0.26703539E+04</rscale>
<asrwt>0</asrwt>
<pdfrwt beam="1">  1        2 0.21070702E+00 0.26703539E+04</pdfrwt>
<pdfrwt beam="2">  1       -2 0.20024973E+00 0.26703539E+04</pdfrwt>
<totfact> 0.17555024E+00</totfact>
</mgrwt>
</event>
<event>
 6    1  0.9988873E-007  0.1888155E+04  0.7818608E-02  0.8660775E-01
         -2   -1    0    0    0  501 -0.00000000000E+00  0.00000000000E+00  0.66348409502E+03  0.66348409502E+03  0.00000000000E+00 0.  1.
          2   -1    0    0  501    0  0.00000000000E+00 -0.00000000000E+00 -0.13433363105E+04  0.13433363105E+04  0.00000000000E+00 0. -1.
         23    2    1    2    0    0 -0.37475110721E+03  0.28428041889E+03 -0.12079418584E+04  0.12996199955E+04  0.92923897381E+02 0.  0.
         11    1    3    3    0    0 -0.23134624891E+03  0.15967065454E+03 -0.83555898545E+03  0.88157508073E+03  0.00000000000E+00 0.  1.
        -11    1    3    3    0    0 -0.14340485830E+03  0.12460976436E+03 -0.37238287291E+03  0.41804491481E+03  0.00000000000E+00 0. -1.
         22    1    1    2    0    0  0.37475110721E+03 -0.28428041889E+03  0.52808964290E+03  0.70720040997E+03  0.00000000000E+00 0.  1.
<mgrwt>
<rscale>  0 0.18881549E+04</rscale>
<asrwt>0</asrwt>
<pdfrwt beam="1">  1        2 0.20666712E+00 0.18881549E+04</pdfrwt>
<pdfrwt beam="2">  1       -2 0.10207448E+00 0.18881549E+04</pdfrwt>
<totfact> 0.11504609E+01</totfact>
</mgrwt>
</event>
<event>
 6    1  0.9988873E-007  0.1992404E+04  0.7818608E-02  0.8610180E-01
         -2   -1    0    0    0  501 -0.00000000000E+00  0.00000000000E+00  0.34055803618E+03  0.34055803618E+03  0.00000000000E+00 0.  1.
          2   -1    0    0  501    0  0.00000000000E+00 -0.00000000000E+00 -0.29140946895E+04  0.29140946895E+04  0.00000000000E+00 0. -1.
         23    2    1    2    0    0 -0.89944524270E+03 -0.41510828278E+03 -0.14237585039E+04  0.17369879326E+04  0.93392557393E+02 0.  0.
         11    1    3    3    0    0 -0.30130159474E+03 -0.17501539643E+03 -0.44751190247E+03  0.56716835493E+03  0.00000000000E+00 0. -1.
        -11    1    3    3    0    0 -0.59814364796E+03 -0.24009288635E+03 -0.97624660140E+03  0.11698195777E+04  0.00000000000E+00 0.  1.
         22    1    1    2    0    0  0.89944524270E+03  0.41510828278E+03 -0.11497781494E+04  0.15176647930E+04  0.00000000000E+00 0.  1.
<mgrwt>
<rscale>  0 0.19924039E+04</rscale>
<asrwt>0</asrwt>
<pdfrwt beam="1">  1        2 0.44832227E+00 0.19924039E+04</pdfrwt>
<pdfrwt beam="2">  1       -2 0.52393543E-01 0.19924039E+04</pdfrwt>
<totfact> 0.63065548E+00</totfact>
</mgrwt>
</event>
<event>
 6    1  0.9988873E-007  0.2986683E+04  0.7818608E-02  0.8247544E-01
          2   -1    0    0  501    0  0.00000000000E+00  0.00000000000E+00  0.16268597940E+04  0.16268597940E+04  0.00000000000E+00 0. -1.
         -2   -1    0    0    0  501 -0.00000000000E+00 -0.00000000000E+00 -0.13707816625E+04  0.13707816625E+04  0.00000000000E+00 0.  1.
         23    2    1    2    0    0 -0.93602289006E+03 -0.23365912523E+03 -0.10142167172E+04  0.14025287832E+04  0.87840769477E+02 0.  0.
         11    1    3    3    0    0 -0.35623442379E+03 -0.12228131054E+03 -0.35478712822E+03  0.51742592702E+03  0.00000000000E+00 0. -1.
        -11    1    3    3    0    0 -0.57978846627E+03 -0.11137781468E+03 -0.65942958902E+03  0.88510285623E+03  0.00000000000E+00 0.  1.
         22    1    1    2    0    0  0.93602289006E+03  0.23365912523E+03  0.12702948488E+04  0.15951126733E+04  0.00000000000E+00 0. -1.
<mgrwt>
<rscale>  0 0.29866835E+04</rscale>
<asrwt>0</asrwt>
<pdfrwt beam="1">  1        2 0.25028612E+00 0.29866835E+04</pdfrwt>
<pdfrwt beam="2">  1       -2 0.21088949E+00 0.29866835E+04</pdfrwt>
<totfact> 0.10433632E+00</totfact>
</mgrwt>
</event>
<event>
 6    1  0.9988873E-007  0.1638292E+04  0.7818608E-02  0.8797363E-01
         -1   -1    0    0    0  501 -0.00000000000E+00  0.00000000000E+00  0.43451743221E+03  0.43451743221E+03  0.00000000000E+00 0.  1.
          1   -1    0    0  501    0  0.00000000000E+00 -0.00000000000E+00 -0.15442429713E+04  0.15442429713E+04  0.00000000000E+00 0. -1.
         23    2    1    2    0    0  0.50027569701E+03 -0.63987030936E+03 -0.65815708055E+03  0.10494467543E+04  0.91967177199E+02 0.  0.
         13    1    3    3    0    0  0.13046430947E+03 -0.23582482678E+03 -0.22724809551E+03  0.35252798738E+03  0.00000000000E+00 0.  1.
        -13    1    3    3    0    0  0.36981138753E+03 -0.40404548258E+03 -0.43090898504E+03  0.69691876696E+03  0.00000000000E+00 0. -1.
         22    1    1    2    0    0 -0.50027569701E+03  0.63987030936E+03 -0.45156845855E+03  0.92931364919E+03  0.00000000000E+00 0. -1.
<mgrwt>
<rscale>  0 0.16382924E+04</rscale>
<asrwt>0</asrwt>
<pdfrwt beam="1">  1        1 0.23757584E+00 0.16382924E+04</pdfrwt>
<pdfrwt beam="2">  1       -1 0.66848836E-01 0.16382924E+04</pdfrwt>
<totfact> 0.13218920E+01</totfact>
</mgrwt>
</event>
<event>
 6    1  0.9988873E-007  0.3052739E+04  0.7818608E-02  0.8228829E-01
          2   -1    0    0  501    0  0.00000000000E+00  0.00000000000E+00  0.31956535006E+04  0.31956535006E+04  0.00000000000E+00 0. -1.
         -2   -1    0    0    0  501 -0.00000000000E+00 -0.00000000000E+00 -0.72905379115E+03  0.72905379115E+03  0.00000000000E+00 0.  1.
         23    2    1    2    0    0  0.49789237420E+03 -0.63902472283E+03 -0.42672094923E+03  0.92011849348E+03  0.90982750321E+02 0.  0.
         13    1    3    3    0    0  0.17738996955E+03 -0.29126885070E+03 -0.15398450655E+03  0.37418708281E+03  0.00000000000E+00 0. -1.
        -13    1    3    3    0    0  0.32050240466E+03 -0.34775587213E+03 -0.27273644268E+03  0.54593141067E+03  0.00000000000E+00 0.  1.
         22    1    1    2    0    0 -0.49789237420E+03  0.63902472283E+03  0.28933206587E+04  0.30045887983E+04  0.00000000000E+00 0. -1.
<mgrwt>
<rscale>  0 0.30527386E+04</rscale>
<asrwt>0</asrwt>
<pdfrwt beam="1">  1        2 0.49163899E+00 0.30527386E+04</pdfrwt>
<pdfrwt beam="2">  1       -2 0.11216212E+00 0.30527386E+04</pdfrwt>
<totfact> 0.69664194E-01</totfact>
</mgrwt>
</event>
<event>
 6    1  0.9988873E-007  0.2468043E+04  0.7818608E-02  0.8414460E-01
         -2   -1    0    0    0  501 -0.00000000000E+00  0.00000000000E+00  0.51055890861E+03  0.51055890861E+03  0.00000000000E+00 0.  1.
          2   -1    0    0  501    0  0.00000000000E+00 -0.00000000000E+00 -0.29826319034E+04  0.29826319034E+04  0.00000000000E+00 0. -1.
         23    2    1    2    0    0  0.56095137161E+03 -0.42665001589E+03  0.19302914837E+03  0.73647789426E+03  0.91884488579E+02 0.  0.
         11    1    3    3    0    0  0.97249608668E+02 -0.52256794833E+02  0.60695053045E+02  0.12598471517E+03  0.00000000000E+00 0.  1.
        -11    1    3    3    0    0  0.46370176294E+03 -0.37439322105E+03  0.13233409533E+03  0.61049317909E+03  0.00000000000E+00 0. -1.
         22    1    1    2    0    0 -0.56095137161E+03  0.42665001589E+03 -0.26651021431E+04  0.27567129177E+04  0.00000000000E+00 0. -1.
<mgrwt>
<rscale>  0 0.24680432E+04</rscale>
<asrwt>0</asrwt>
<pdfrwt beam="1">  1        2 0.45886646E+00 0.24680432E+04</pdfrwt>
<pdfrwt beam="2">  1       -2 0.78547523E-01 0.24680432E+04</pdfrwt>
<totfact> 0.23000653E+00</totfact>
</mgrwt>
</event>
<event>
 6    1  0.9988873E-007  0.2914792E+04  0.7818608E-02  0.8268490E-01
         -2   -1    0    0    0  501 -0.00000000000E+00  0.00000000000E+00  0.67845436594E+03  0.67845436594E+03  0.00000000000E+00 0.  1.
          2   -1    0    0  501    0  0.00000000000E+00 -0.00000000000E+00 -0.31306498746E+04  0.31306498746E+04  0.00000000000E+00 0. -1.
         23    2    1    2    0    0 -0.94919422982E+03 -0.10092867413E+03  0.20954907003E+03  0.98137715234E+03  0.89632690387E+02 0.  0.
         13    1    3    3    0    0 -0.59906170531E+03 -0.76679334749E+02  0.90081986139E+02  0.61063033938E+03  0.00000000000E+00 0. -1.
        -13    1    3    3    0    0 -0.35013252452E+03 -0.24249339377E+02  0.11946708389E+03  0.37074681296E+03  0.00000000000E+00 0.  1.
         22    1    1    2    0    0  0.94919422982E+03  0.10092867413E+03 -0.26617445787E+04  0.28277270882E+04  0.00000000000E+00 0. -1.
<mgrwt>
<rscale>  0 0.29147920E+04</rscale>
<asrwt>0</asrwt>
<pdfrwt beam="1">  1        2 0.48163844E+00 0.29147920E+04</pdfrwt>
<pdfrwt beam="2">  1       -2 0.10437760E+00 0.29147920E+04</pdfrwt>
<totfact> 0.92390664E-01</totfact>
</mgrwt>
</event>
<event>
 6    1  0.9988873E-007  0.1204803E+04  0.7818608E-02  0.9108663E-01
         -2   -1    0    0    0  501 -0.00000000000E+00  0.00000000000E+00  0.84870260880E+02  0.84870260880E+02  0.00000000000E+00 0.  1.
          2   -1    0    0  501    0  0.00000000000E+00 -0.00000000000E+00 -0.42757924428E+04  0.42757924428E+04  0.00000000000E+00 0. -1.
         23    2    1    2    0    0 -0.51679756675E+03 -0.23031272733E+02 -0.32014174265E+04  0.32440921391E+04  0.86313986466E+02 0.  0.
         13    1    3    3    0    0 -0.38454912852E+03 -0.25150199946E+02 -0.25916140064E+04  0.26201094868E+04  0.00000000000E+00 0. -1.
        -13    1    3    3    0    0 -0.13224843823E+03  0.21189272130E+01 -0.60980342006E+03  0.62398265231E+03  0.00000000000E+00 0.  1.
         22    1    1    2    0    0  0.51679756675E+03  0.23031272733E+02 -0.98950475545E+03  0.11165705645E+04  0.00000000000E+00 0. -1.
<mgrwt>
<rscale>  0 0.12048031E+04</rscale>
<asrwt>0</asrwt>
<pdfrwt beam="1">  1        2 0.65781424E+00 0.12048031E+04</pdfrwt>
<pdfrwt beam="2">  1       -2 0.13056963E-01 0.12048031E+04</pdfrwt>
<totfact> 0.91596897E+00</totfact>
</mgrwt>
</event>
<event>
 6    1  0.9988873E-007  0.2703045E+04  0.7818608E-02  0.8334018E-01
          2   -1    0    0  501    0  0.00000000000E+00  0.00000000000E+00  0.25541615562E+04  0.25541615562E+04  0.00000000000E+00 0. -1.
         -2   -1    0    0    0  501 -0.00000000000E+00 -0.00000000000E+00 -0.71515197581E+03  0.71515197581E+03  0.00000000000E+00 0.  1.
         23    2    1    2    0    0  0.71075160463E+03 -0.13277932842E+03  0.22990601363E+04  0.24123160364E+04  0.10388915159E+03 0.  0.
         13    1    3    3    0    0  0.27914609841E+03 -0.67647609905E+02  0.10770056982E+04  0.11146479343E+04  0.00000000000E+00 0. -1.
        -13    1    3    3    0    0  0.43160550621E+03 -0.65131718514E+02  0.12220544380E+04  0.12976681021E+04  0.00000000000E+00 0.  1.
         22    1    1    2    0    0 -0.71075160463E+03  0.13277932842E+03 -0.46005055586E+03  0.85699749561E+03  0.00000000000E+00 0.  1.
<mgrwt>
<rscale>  0 0.27030455E+04</rscale>
<asrwt>0</asrwt>
<pdfrwt beam="1">  1        2 0.39294793E+00 0.27030455E+04</pdfrwt>
<pdfrwt beam="2">  1       -2 0.11002338E+00 0.27030455E+04</pdfrwt>
<totfact> 0.18640972E+00</totfact>
</mgrwt>
</event>
<event>
 6    1  0.9988873E-007  0.4181434E+04  0.7818608E-02  0.7968913E-01
          2   -1    0    0  501    0  0.00000000000E+00  0.00000000000E+00  0.14263251710E+04  0.14263251710E+04  0.00000000000E+00 0. -1.
         -2   -1    0    0    0  501 -0.00000000000E+00 -0.00000000000E+00 -0.30645862904E+04  0.30645862904E+04  0.00000000000E+00 0.  1.
         23    2    1    2    0    0 -0.12233056758E+04  0.70483898176E+02 -0.26376435513E+04  0.29097062245E+04  0.88215942184E+02 0.  0.
         11    1    3    3    0    0 -0.45693791945E+03  0.22459604219E+02 -0.10871405361E+04  0.11794792247E+04  0.00000000000E+00 0.  1.
        -11    1    3    3    0    0 -0.76636775630E+03  0.48024293957E+02 -0.15505030152E+04  0.17302269998E+04  0.00000000000E+00 0. -1.
         22    1    1    2    0    0  0.12233056758E+04 -0.70483898176E+02  0.99938243189E+03  0.15812052370E+04  0.00000000000E+00 0. -1.
<mgrwt>
<rscale>  0 0.41814335E+04</rscale>
<asrwt>0</asrwt>
<pdfrwt beam="1">  1        2 0.21943464E+00 0.41814335E+04</pdfrwt>
<pdfrwt beam="2">  1       -2 0.47147481E+00 0.41814335E+04</pdfrwt>
<totfact> 0.27282588E-02</totfact>
</mgrwt>
</event>
<event>
 6    1  0.9988873E-007  0.9477910E+03  0.7818608E-02  0.9367736E-01
         -2   -1    0    0    0  501 -0.00000000000E+00  0.00000000000E+00  0.13188246037E+03  0.13188246037E+03  0.00000000000E+00 0.  1.
          2   -1    0    0  501    0  0.00000000000E+00 -0.00000000000E+00 -0.17028569105E+04  0.17028569105E+04  0.00000000000E+00 0. -1.
         23    2    1    2    0    0 -0.39263613881E+03 -0.16492907808E+03 -0.40977167321E+03  0.59790606463E+03  0.90631670285E+02 0.  0.
         13    1    3    3    0    0 -0.11133906298E+03 -0.90602380697E+01 -0.13232101021E+03  0.17316848617E+03  0.00000000000E+00 0. -1.
        -13    1    3    3    0    0 -0.28129707583E+03 -0.15586884001E+03 -0.27745066299E+03  0.42473757845E+03  0.00000000000E+00 0.  1.
         22    1    1    2    0    0  0.39263613881E+03  0.16492907808E+03 -0.11612027770E+04  0.12368333063E+04  0.00000000000E+00 0. -1.
<mgrwt>
<rscale>  0 0.94779103E+03</rscale>
<asrwt>0</asrwt>
<pdfrwt beam="1">  1        2 0.26197798E+00 0.94779103E+03</pdfrwt>
<pdfrwt beam="2">  1       -2 0.20289610E-01 0.94779103E+03</pdfrwt>
<totfact> 0.20403355E+02</totfact>
</mgrwt>
</event>
<event>
 6    1  0.9988873E-007  0.1805639E+04  0.7818608E-02  0.8703307E-01
          1   -1    0    0  501    0  0.00000000000E+00  0.00000000000E+00  0.18223563449E+04  0.18223563449E+04  0.00000000000E+00 0. -1.
         -1   -1    0    0    0  501 -0.00000000000E+00 -0.00000000000E+00 -0.44726860977E+03  0.44726860977E+03  0.00000000000E+00 0.  1.
         23    2    1    2    0    0 -0.45726963634E+03  0.68176040322E+03  0.22391263288E+03  0.85573072816E+03  0.90804428542E+02 0.  0.
         13    1    3    3    0    0 -0.37220374564E+03  0.56314769286E+03  0.21905387249E+03  0.70968693893E+03  0.00000000000E+00 0. -1.
        -13    1    3    3    0    0 -0.85065890695E+02  0.11861271036E+03  0.48587603865E+01  0.14604378923E+03  0.00000000000E+00 0.  1.
         22    1    1    2    0    0  0.45726963634E+03 -0.68176040322E+03  0.11511751023E+04  0.14138942265E+04  0.00000000000E+00 0. -1.
<mgrwt>
<rscale>  0 0.18056387E+04</rscale>
<asrwt>0</asrwt>
<pdfrwt beam="1">  1        1 0.28036251E+00 0.18056387E+04</pdfrwt>
<pdfrwt beam="2">  1       -1 0.68810556E-01 0.18056387E+04</pdfrwt>
<totfact> 0.79290647E+00</totfact>
</mgrwt>
</event>
<event>
 6    1  0.9988873E-007  0.2446623E+04  0.7818608E-02  0.8422252E-01
         -3   -1    0    0    0  501 -0.00000000000E+00  0.00000000000E+00  0.65602303699E+03  0.65602303699E+03  0.00000000000E+00 0.  1.
          3   -1    0    0  501    0  0.00000000000E+00 -0.00000000000E+00 -0.22811560649E+04  0.22811560649E+04  0.00000000000E+00 0. -1.
         23    2    1    2    0    0 -0.52970508655E+03  0.91965638757E+03 -0.87737402339E+02  0.10690408149E+04  0.93781992836E+02 0.  0.
         11    1    3    3    0    0 -0.32034716369E+03  0.46529499432E+03 -0.58105840689E+02  0.56788909634E+03  0.00000000000E+00 0. -1.
        -11    1    3    3    0    0 -0.20935792287E+03  0.45436139325E+03 -0.29631561650E+02  0.50115171853E+03  0.00000000000E+00 0.  1.
         22    1    1    2    0    0  0.52970508655E+03 -0.91965638757E+03 -0.15373956256E+04  0.18681382871E+04  0.00000000000E+00 0. -1.
<mgrwt>
<rscale>  0 0.24466229E+04</rscale>
<asrwt>0</asrwt>
<pdfrwt beam="1">  1        3 0.35094709E+00 0.24466229E+04</pdfrwt>
<pdfrwt beam="2">  1       -3 0.10092662E+00 0.24466229E+04</pdfrwt>
<totfact> 0.40714454E-02</totfact>
</mgrwt>
</event>
<event>
 6    1  0.9988873E-007  0.4779072E+04  0.7818608E-02  0.7863521E-01
          2   -1    0    0  501    0  0.00000000000E+00  0.00000000000E+00  0.31104366639E+04  0.31104366639E+04  0.00000000000E+00 0. -1.
         -2   -1    0    0    0  501 -0.00000000000E+00 -0.00000000000E+00 -0.18357175597E+04  0.18357175597E+04  0.00000000000E+00 0.  1.
         23    2    1    2    0    0 -0.60746683162E+03  0.49716262183E+03 -0.16972556775E+04  0.18722608085E+04  0.92179586836E+02 0.  0.
         11    1    3    3    0    0 -0.21073383801E+03  0.17792807137E+03 -0.49586922281E+03  0.56740940703E+03  0.00000000000E+00 0. -1.
        -11    1    3    3    0    0 -0.39673299361E+03  0.31923455046E+03 -0.12013864547E+04  0.13048514014E+04  0.00000000000E+00 0.  1.
         22    1    1    2    0    0  0.60746683162E+03 -0.49716262183E+03  0.29719747817E+04  0.30738934150E+04  0.00000000000E+00 0. -1.
<mgrwt>
<rscale>  0 0.47790724E+04</rscale>
<asrwt>0</asrwt>
<pdfrwt beam="1">  1        2 0.47852872E+00 0.47790724E+04</pdfrwt>
<pdfrwt beam="2">  1       -2 0.28241809E+00 0.47790724E+04</pdfrwt>
<totfact> 0.44658450E-02</totfact>
</mgrwt>
</event>
<event>
 6    1  0.9988873E-007  0.2272702E+04  0.7818608E-02  0.8488763E-01
         -1   -1    0    0    0  501 -0.00000000000E+00  0.00000000000E+00  0.84845001211E+03  0.84845001211E+03  0.00000000000E+00 0.  1.
          1   -1    0    0  501    0  0.00000000000E+00 -0.00000000000E+00 -0.15219436500E+04  0.15219436500E+04  0.00000000000E+00 0. -1.
         23    2    1    2    0    0 -0.88999165164E+03 -0.43910680839E+03  0.23615210058E+03  0.10241562021E+04  0.90709330188E+02 0.  0.
         11    1    3    3    0    0 -0.71771556104E+03 -0.31985862067E+03  0.20737270893E+03  0.81266758529E+03  0.00000000000E+00 0.  1.
        -11    1    3    3    0    0 -0.17227609060E+03 -0.11924818772E+03  0.28779391653E+02  0.21148861684E+03  0.00000000000E+00 0. -1.
         22    1    1    2    0    0  0.88999165164E+03  0.43910680839E+03 -0.90964573849E+03  0.13462374600E+04  0.00000000000E+00 0. -1.
<mgrwt>
<rscale>  0 0.22727016E+04</rscale>
<asrwt>0</asrwt>
<pdfrwt beam="1">  1        1 0.23414517E+00 0.22727016E+04</pdfrwt>
<pdfrwt beam="2">  1       -1 0.13053077E+00 0.22727016E+04</pdfrwt>
<totfact> 0.28725512E+00</totfact>
</mgrwt>
</event>
<event>
 6    1  0.9988873E-007  0.2300761E+04  0.7818608E-02  0.8477621E-01
          1   -1    0    0  501    0  0.00000000000E+00  0.00000000000E+00  0.11529043512E+04  0.11529043512E+04  0.00000000000E+00 0. -1.
         -1   -1    0    0    0  501 -0.00000000000E+00 -0.00000000000E+00 -0.11478620911E+04  0.11478620911E+04  0.00000000000E+00 0.  1.
         23    2    1    2    0    0  0.53419741337E+03  0.41550970309E+03  0.93052133705E+03  0.11542383302E+04  0.91547662083E+02 0.  0.
         11    1    3    3    0    0  0.36835968441E+03  0.23812146941E+03  0.63465928127E+03  0.77148110450E+03  0.00000000000E+00 0.  1.
        -11    1    3    3    0    0  0.16583772896E+03  0.17738823367E+03  0.29586205578E+03  0.38275722573E+03  0.00000000000E+00 0. -1.
         22    1    1    2    0    0 -0.53419741337E+03 -0.41550970309E+03 -0.92547907702E+03  0.11465281121E+04  0.00000000000E+00 0.  1.
<mgrwt>
<rscale>  0 0.23007609E+04</rscale>
<asrwt>0</asrwt>
<pdfrwt beam="1">  1        1 0.17736990E+00 0.23007609E+04</pdfrwt>
<pdfrwt beam="2">  1       -1 0.17659417E+00 0.23007609E+04</pdfrwt>
<totfact> 0.23041148E+00</totfact>
</mgrwt>
</event>
<event>
 6    1  0.9988873E-007  0.1915479E+04  0.7818608E-02  0.8647190E-01
         -2   -1    0    0    0  501 -0.00000000000E+00  0.00000000000E+00  0.73532702932E+03  0.73532702932E+03  0.00000000000E+00 0.  1.
          2   -1    0    0  501    0  0.00000000000E+00 -0.00000000000E+00 -0.12474246698E+04  0.12474246698E+04  0.00000000000E+00 0. -1.
         23    2    1    2    0    0  0.77857808333E+03  0.37622210174E+03  0.16452202251E+03  0.88478035614E+03  0.89676535573E+02 0.  0.
         11    1    3    3    0    0  0.37978990340E+03  0.18125873383E+03  0.12566076968E+03  0.43918757764E+03  0.00000000000E+00 0. -1.
        -11    1    3    3    0    0  0.39878817994E+03  0.19496336790E+03  0.38861252834E+02  0.44559277850E+03  0.00000000000E+00 0.  1.
         22    1    1    2    0    0 -0.77857808333E+03 -0.37622210174E+03 -0.67661966303E+03  0.10979713430E+04  0.00000000000E+00 0. -1.
<mgrwt>
<rscale>  0 0.19154791E+04</rscale>
<asrwt>0</asrwt>
<pdfrwt beam="1">  1        2 0.19191149E+00 0.19154791E+04</pdfrwt>
<pdfrwt beam="2">  1       -2 0.11312724E+00 0.19154791E+04</pdfrwt>
<totfact> 0.10192055E+01</totfact>
</mgrwt>
</event>
<event>
 6    1  0.9988873E-007  0.1001435E+04  0.7818608E-02  0.9306972E-01
          2   -1    0    0  501    0  0.00000000000E+00  0.00000000000E+00  0.12798157358E+04  0.12798157358E+04  0.00000000000E+00 0. -1.
         -2   -1    0    0    0  501 -0.00000000000E+00 -0.00000000000E+00 -0.19590175031E+03  0.19590175031E+03  0.00000000000E+00 0.  1.
         23    2    1    2    0    0  0.33418749830E+03 -0.10299490718E+03  0.10661152315E+04  0.11255660467E+04  0.89487449446E+02 0.  0.
         13    1    3    3    0    0  0.10397055089E+03 -0.73620594581E+02  0.42793919263E+03  0.44649951846E+03  0.00000000000E+00 0.  1.
        -13    1    3    3    0    0  0.23021694741E+03 -0.29374312595E+02  0.63817603888E+03  0.67906652819E+03  0.00000000000E+00 0. -1.
         22    1    1    2    0    0 -0.33418749830E+03  0.10299490718E+03  0.17798753996E+02  0.35015143948E+03  0.00000000000E+00 0.  1.
<mgrwt>
<rscale>  0 0.10014353E+04</rscale>
<asrwt>0</asrwt>
<pdfrwt beam="1">  1        2 0.19689472E+00 0.10014353E+04</pdfrwt>
<pdfrwt beam="2">  1       -2 0.30138732E-01 0.10014353E+04</pdfrwt>
<totfact> 0.17216562E+02</totfact>
</mgrwt>
</event>
<event>
 6    1  0.9988873E-007  0.3603962E+04  0.7818608E-02  0.8089585E-01
         -2   -1    0    0    0  501 -0.00000000000E+00  0.00000000000E+00  0.19929056063E+04  0.19929056063E+04  0.00000000000E+00 0.  1.
          2   -1    0    0  501    0  0.00000000000E+00 -0.00000000000E+00 -0.16293473275E+04  0.16293473275E+04  0.00000000000E+00 0. -1.
         23    2    1    2    0    0 -0.13387207968E+04  0.71768251334E+03  0.11541397301E+04  0.19098684581E+04  0.91200048020E+02 0.  0.
         11    1    3    3    0    0 -0.85060869105E+03  0.42442847333E+03  0.67846492810E+03  0.11678995389E+04  0.00000000000E+00 0.  1.
        -11    1    3    3    0    0 -0.48811210571E+03  0.29325404001E+03  0.47567480203E+03  0.74196891917E+03  0.00000000000E+00 0. -1.
         22    1    1    2    0    0  0.13387207968E+04 -0.71768251334E+03 -0.79058145136E+03  0.17123844758E+04  0.00000000000E+00 0. -1.
<mgrwt>
<rscale>  0 0.36039619E+04</rscale>
<asrwt>0</asrwt>
<pdfrwt beam="1">  1        2 0.25066882E+00 0.36039619E+04</pdfrwt>
<pdfrwt beam="2">  1       -2 0.30660086E+00 0.36039619E+04</pdfrwt>
<totfact> 0.25330502E-01</totfact>
</mgrwt>
</event>
<event>
 6    1  0.9988873E-007  0.1167957E+04  0.7818608E-02  0.9141375E-01
          2   -1    0    0  501    0  0.00000000000E+00  0.00000000000E+00  0.58035369760E+03  0.58035369760E+03  0.00000000000E+00 0. -1.
         -2   -1    0    0    0  501 -0.00000000000E+00 -0.00000000000E+00 -0.58762635520E+03  0.58762635520E+03  0.00000000000E+00 0.  1.
         23    2    1    2    0    0 -0.30608086380E+03  0.53845720963E+02  0.48666074502E+03  0.58440909476E+03  0.90058050392E+02 0.  0.
         13    1    3    3    0    0 -0.97108958247E+02  0.14333898827E+02  0.84695589164E+02  0.12964934728E+03  0.00000000000E+00 0. -1.
        -13    1    3    3    0    0 -0.20897190556E+03  0.39511822136E+02  0.40196515586E+03  0.45475974748E+03  0.00000000000E+00 0.  1.
         22    1    1    2    0    0  0.30608086380E+03 -0.53845720963E+02 -0.49393340262E+03  0.58357095804E+03  0.00000000000E+00 0.  1.
<mgrwt>
<rscale>  0 0.11679574E+04</rscale>
<asrwt>0</asrwt>
<pdfrwt beam="1">  1        2 0.89285184E-01 0.11679574E+04</pdfrwt>
<pdfrwt beam="2">  1       -2 0.90404055E-01 0.11679574E+04</pdfrwt>
<totfact> 0.53417898E+01</totfact>
</mgrwt>
</event>
<event>
 6    1  0.9988873E-007  0.1049831E+04  0.7818608E-02  0.9255519E-01
         -1   -1    0    0    0  501 -0.00000000000E+00  0.00000000000E+00  0.16228934774E+03  0.16228934774E+03  0.00000000000E+00 0.  1.
          1   -1    0    0  501    0  0.00000000000E+00 -0.00000000000E+00 -0.16978075669E+04  0.16978075669E+04  0.00000000000E+00 0. -1.
         23    2    1    2    0    0 -0.28432326337E+03  0.33710041251E+03 -0.12648565969E+04  0.13426666102E+04  0.91733359058E+02 0.  0.
         13    1    3    3    0    0 -0.89451806462E+02  0.94223269772E+02 -0.25976594627E+03  0.29044448194E+03  0.00000000000E+00 0.  1.
        -13    1    3    3    0    0 -0.19487145691E+03  0.24287714273E+03 -0.10050906506E+04  0.10522221282E+04  0.00000000000E+00 0. -1.
         22    1    1    2    0    0  0.28432326337E+03 -0.33710041251E+03 -0.27066162225E+03  0.51743030445E+03  0.00000000000E+00 0.  1.
<mgrwt>
<rscale>  0 0.10498306E+04</rscale>
<asrwt>0</asrwt>
<pdfrwt beam="1">  1        1 0.26120114E+00 0.10498306E+04</pdfrwt>
<pdfrwt beam="2">  1       -1 0.24967594E-01 0.10498306E+04</pdfrwt>
<totfact> 0.67178399E+01</totfact>
</mgrwt>
</event>
<event>
 6    1  0.9988873E-007  0.8582655E+03  0.7818608E-02  0.9479310E-01
          1   -1    0    0  501    0  0.00000000000E+00  0.00000000000E+00  0.57928556392E+03  0.57928556392E+03  0.00000000000E+00 0. -1.
         -1   -1    0    0    0  501 -0.00000000000E+00 -0.00000000000E+00 -0.31790008180E+03  0.31790008180E+03  0.00000000000E+00 0.  1.
         23    2    1    2    0    0 -0.11566505571E+03  0.39100974273E+03  0.90465438361E+01  0.41766300413E+03  0.89963998580E+02 0.  0.
         13    1    3    3    0    0 -0.75656498793E+02  0.11754112705E+03  0.19196856915E+02  0.14109692298E+03  0.00000000000E+00 0. -1.
        -13    1    3    3    0    0 -0.40008556912E+02  0.27346861568E+03 -0.10150313079E+02  0.27656608115E+03  0.00000000000E+00 0.  1.
         22    1    1    2    0    0  0.11566505571E+03 -0.39100974273E+03  0.25233893829E+03  0.47952264159E+03  0.00000000000E+00 0. -1.
<mgrwt>
<rscale>  0 0.85826553E+03</rscale>
<asrwt>0</asrwt>
<pdfrwt beam="1">  1        1 0.89120856E-01 0.85826553E+03</pdfrwt>
<pdfrwt beam="2">  1       -1 0.48907705E-01 0.85826553E+03</pdfrwt>
<totfact> 0.15222012E+02</totfact>
</mgrwt>
</event>
<event>
 6    1  0.9988873E-007  0.4513474E+04  0.7818608E-02  0.7908282E-01
         -2   -1    0    0    0  501 -0.00000000000E+00  0.00000000000E+00  0.95217488966E+03  0.95217488966E+03  0.00000000000E+00 0.  1.
          2   -1    0    0  501    0  0.00000000000E+00 -0.00000000000E+00 -0.53486632829E+04  0.53486632829E+04  0.00000000000E+00 0. -1.
         23    2    1    2    0    0 -0.13575463898E+04  0.17981791948E+04 -0.20437076724E+04  0.30432381760E+04  0.90426373851E+02 0.  0.
         11    1    3    3    0    0 -0.26766642254E+03  0.37465023769E+03 -0.46491438034E+03  0.65433439112E+03  0.00000000000E+00 0. -1.
        -11    1    3    3    0    0 -0.10898799672E+04  0.14235289571E+04 -0.15787932920E+04  0.23889037849E+04  0.00000000000E+00 0.  1.
         22    1    1    2    0    0  0.13575463898E+04 -0.17981791948E+04 -0.23527807209E+04  0.32575999966E+04  0.00000000000E+00 0.  1.
<mgrwt>
<rscale>  0 0.45134744E+04</rscale>
<asrwt>0</asrwt>
<pdfrwt beam="1">  1        2 0.82287125E+00 0.45134744E+04</pdfrwt>
<pdfrwt beam="2">  1       -2 0.14648845E+00 0.45134744E+04</pdfrwt>
<totfact> 0.25809210E-03</totfact>
</mgrwt>
</event>
<event>
 6    1  0.9988873E-007  0.1452301E+04  0.7818608E-02  0.8916807E-01
          2   -1    0    0  501    0  0.00000000000E+00  0.00000000000E+00  0.26916217158E+04  0.26916217158E+04  0.00000000000E+00 0. -1.
         -2   -1    0    0    0  501 -0.00000000000E+00 -0.00000000000E+00 -0.19590226271E+03  0.19590226271E+03  0.00000000000E+00 0.  1.
         23    2    1    2    0    0 -0.44033320955E+03  0.57202779151E+03  0.11659005956E+04  0.13744055682E+04  0.92505878299E+02 0.  0.
         13    1    3    3    0    0 -0.96814218738E+02  0.71392040157E+02  0.20859529299E+03  0.24079412909E+03  0.00000000000E+00 0. -1.
        -13    1    3    3    0    0 -0.34351899081E+03  0.50063575135E+03  0.95730530260E+03  0.11336114392E+04  0.00000000000E+00 0.  1.
         22    1    1    2    0    0  0.44033320955E+03 -0.57202779151E+03  0.13298188575E+04  0.15131184102E+04  0.00000000000E+00 0.  1.
<mgrwt>
<rscale>  0 0.14523013E+04</rscale>
<asrwt>0</asrwt>
<pdfrwt beam="1">  1        2 0.41409562E+00 0.14523013E+04</pdfrwt>
<pdfrwt beam="2">  1       -2 0.30138812E-01 0.14523013E+04</pdfrwt>
<totfact> 0.26607333E+01</totfact>
</mgrwt>
</event>
<event>
 6    1  0.9988873E-007  0.3858280E+04  0.7818608E-02  0.8033762E-01
          2   -1    0    0  501    0  0.00000000000E+00  0.00000000000E+00  0.21968201612E+04  0.21968201612E+04  0.00000000000E+00 0. -1.
         -2   -1    0    0    0  501 -0.00000000000E+00 -0.00000000000E+00 -0.16940767832E+04  0.16940767832E+04  0.00000000000E+00 0.  1.
         23    2    1    2    0    0  0.15897799473E+04 -0.79887756965E+03 -0.49766494261E+03  0.18497153111E+04  0.90391841273E+02 0.  0.
         13    1    3    3    0    0  0.86262788256E+03 -0.46697719880E+03 -0.30901108525E+03  0.10284368813E+04  0.00000000000E+00 0. -1.
        -13    1    3    3    0    0  0.72715206477E+03 -0.33190037086E+03 -0.18865385736E+03  0.82127842987E+03  0.00000000000E+00 0.  1.
         22    1    1    2    0    0 -0.15897799473E+04  0.79887756965E+03  0.10004083205E+04  0.20411816333E+04  0.00000000000E+00 0. -1.
<mgrwt>
<rscale>  0 0.38582805E+04</rscale>
<asrwt>0</asrwt>
<pdfrwt beam="1">  1        2 0.33797234E+00 0.38582805E+04</pdfrwt>
<pdfrwt beam="2">  1       -2 0.26062720E+00 0.38582805E+04</pdfrwt>
<totfact> 0.22884090E-01</totfact>
</mgrwt>
</event>
<event>
 6    1  0.9988873E-007  0.1452853E+04  0.7818608E-02  0.8916425E-01
         -2   -1    0    0    0  501 -0.00000000000E+00  0.00000000000E+00  0.19654877819E+03  0.19654877819E+03  0.00000000000E+00 0.  1.
          2   -1    0    0  501    0  0.00000000000E+00 -0.00000000000E+00 -0.26848084318E+04  0.26848084318E+04  0.00000000000E+00 0. -1.
         23    2    1    2    0    0  0.21543537014E+03 -0.43845962882E+03 -0.19058674809E+03  0.53232336060E+03  0.91572959355E+02 0.  0.
         11    1    3    3    0    0  0.13179313625E+03 -0.34256464983E+03 -0.11653820713E+03  0.38509884939E+03  0.00000000000E+00 0.  1.
        -11    1    3    3    0    0  0.83642233893E+02 -0.95894978985E+02 -0.74048540954E+02  0.14722451121E+03  0.00000000000E+00 0. -1.
         22    1    1    2    0    0 -0.21543537014E+03  0.43845962882E+03 -0.22976729055E+04  0.23490338494E+04  0.00000000000E+00 0. -1.
<mgrwt>
<rscale>  0 0.14528535E+04</rscale>
<asrwt>0</asrwt>
<pdfrwt beam="1">  1        2 0.41304745E+00 0.14528535E+04</pdfrwt>
<pdfrwt beam="2">  1       -2 0.30238274E-01 0.14528535E+04</pdfrwt>
<totfact> 0.26688985E+01</totfact>
</mgrwt>
</event>
<event>
 6    1  0.9988873E-007  0.6072231E+03  0.7818608E-02  0.9890533E-01
          1   -1    0    0  501    0  0.00000000000E+00  0.00000000000E+00  0.54351491597E+03  0.54351491597E+03  0.00000000000E+00 0. -1.
         -1   -1    0    0    0  501 -0.00000000000E+00 -0.00000000000E+00 -0.16959972389E+03  0.16959972389E+03  0.00000000000E+00 0.  1.
         23    2    1    2    0    0 -0.12296158600E+03  0.11230236948E+03  0.47975534356E+03  0.51579887393E+03  0.90287955197E+02 0.  0.
         13    1    3    3    0    0 -0.22204051882E+02  0.46816050246E+01  0.18340664635E+03  0.18480512783E+03  0.00000000000E+00 0. -1.
        -13    1    3    3    0    0 -0.10075753411E+03  0.10762076445E+03  0.29634869720E+03  0.33099374610E+03  0.00000000000E+00 0.  1.
         22    1    1    2    0    0  0.12296158600E+03 -0.11230236948E+03 -0.10584015148E+03  0.19731576594E+03  0.00000000000E+00 0.  1.
<mgrwt>
<rscale>  0 0.60722312E+03</rscale>
<asrwt>0</asrwt>
<pdfrwt beam="1">  1        1 0.83617679E-01 0.60722312E+03</pdfrwt>
<pdfrwt beam="2">  1       -1 0.26092265E-01 0.60722312E+03</pdfrwt>
<totfact> 0.51846069E+02</totfact>
</mgrwt>
</event>
<event>
 6    1  0.9988873E-007  0.3152107E+04  0.7818608E-02  0.8201581E-01
          1   -1    0    0  501    0  0.00000000000E+00  0.00000000000E+00  0.24648468604E+04  0.24648468604E+04  0.00000000000E+00 0. -1.
         -1   -1    0    0    0  501 -0.00000000000E+00 -0.00000000000E+00 -0.10077481576E+04  0.10077481576E+04  0.00000000000E+00 0.  1.
         23    2    1    2    0    0  0.10087074535E+03  0.24532859986E+03  0.24391998212E+04  0.24553027119E+04  0.91948954658E+02 0.  0.
         11    1    3    3    0    0 -0.19997327584E+01 -0.75123252920E+01  0.66777108145E+02  0.67228090369E+02  0.00000000000E+00 0. -1.
        -11    1    3    3    0    0  0.10287047811E+03  0.25284092515E+03  0.23724227130E+04  0.23880746215E+04  0.00000000000E+00 0.  1.
         22    1    1    2    0    0 -0.10087074535E+03 -0.24532859986E+03 -0.98210111843E+03  0.10172923061E+04  0.00000000000E+00 0.  1.
<mgrwt>
<rscale>  0 0.31521072E+04</rscale>
<asrwt>0</asrwt>
<pdfrwt beam="1">  1        1 0.37920721E+00 0.31521072E+04</pdfrwt>
<pdfrwt beam="2">  1       -1 0.15503818E+00 0.31521072E+04</pdfrwt>
<totfact> 0.38378496E-01</totfact>
</mgrwt>
</event>
<event>
 6    1  0.9988873E-007  0.2698278E+04  0.7818608E-02  0.8335564E-01
         -2   -1    0    0    0  501 -0.00000000000E+00  0.00000000000E+00  0.71322276899E+03  0.71322276899E+03  0.00000000000E+00 0.  1.
          2   -1    0    0  501    0  0.00000000000E+00 -0.00000000000E+00 -0.25520443132E+04  0.25520443132E+04  0.00000000000E+00 0. -1.
         23    2    1    2    0    0 -0.59983671535E+03  0.89019746563E+03 -0.19064409101E+04  0.21897076968E+04  0.89706414012E+02 0.  0.
         13    1    3    3    0    0 -0.12864301578E+03  0.20873285372E+03 -0.51262289308E+03  0.56824348675E+03  0.00000000000E+00 0. -1.
        -13    1    3    3    0    0 -0.47119369958E+03  0.68146461192E+03 -0.13938180170E+04  0.16214642100E+04  0.00000000000E+00 0.  1.
         22    1    1    2    0    0  0.59983671535E+03 -0.89019746563E+03  0.67619365898E+02  0.10755593854E+04  0.00000000000E+00 0.  1.
<mgrwt>
<rscale>  0 0.26982781E+04</rscale>
<asrwt>0</asrwt>
<pdfrwt beam="1">  1        2 0.39262220E+00 0.26982781E+04</pdfrwt>
<pdfrwt beam="2">  1       -2 0.10972658E+00 0.26982781E+04</pdfrwt>
<totfact> 0.18824246E+00</totfact>
</mgrwt>
</event>
<event>
 6    1  0.9988873E-007  0.1215787E+04  0.7818608E-02  0.9099149E-01
          1   -1    0    0  501    0  0.00000000000E+00  0.00000000000E+00  0.36324795284E+03  0.36324795284E+03  0.00000000000E+00 0. -1.
         -1   -1    0    0    0  501 -0.00000000000E+00 -0.00000000000E+00 -0.10173069415E+04  0.10173069415E+04  0.00000000000E+00 0.  1.
         23    2    1    2    0    0  0.37581683380E+03  0.40965450732E+03 -0.67163329922E+02  0.57216042246E+03  0.11747990554E+03 0.  0.
         11    1    3    3    0    0  0.18457786164E+03  0.17775797444E+03 -0.87782888668E+02  0.27087399290E+03  0.00000000000E+00 0. -1.
        -11    1    3    3    0    0  0.19123897215E+03  0.23189653289E+03  0.20619558746E+02  0.30128642956E+03  0.00000000000E+00 0.  1.
         22    1    1    2    0    0 -0.37581683380E+03 -0.40965450732E+03 -0.58689565874E+03  0.80839447189E+03  0.00000000000E+00 0.  1.
<mgrwt>
<rscale>  0 0.12157873E+04</rscale>
<asrwt>0</asrwt>
<pdfrwt beam="1">  1        1 0.55884301E-01 0.12157873E+04</pdfrwt>
<pdfrwt beam="2">  1       -1 0.15650876E+00 0.12157873E+04</pdfrwt>
<totfact> 0.20947001E+01</totfact>
</mgrwt>
</event>
<event>
 6    1  0.9988873E-007  0.1901324E+04  0.7818608E-02  0.8654198E-01
         -2   -1    0    0    0  501 -0.00000000000E+00  0.00000000000E+00  0.58134831284E+03  0.58134831284E+03  0.00000000000E+00 0.  1.
          2   -1    0    0  501    0  0.00000000000E+00 -0.00000000000E+00 -0.15545896232E+04  0.15545896232E+04  0.00000000000E+00 0. -1.
         23    2    1    2    0    0 -0.50651695163E+03  0.80178689863E+03 -0.50332706028E+03  0.10775235297E+04  0.91088826990E+02 0.  0.
         11    1    3    3    0    0 -0.33352225377E+03  0.50398108140E+03 -0.27264605198E+03  0.66300067408E+03  0.00000000000E+00 0.  1.
        -11    1    3    3    0    0 -0.17299469786E+03  0.29780581722E+03 -0.23068100831E+03  0.41452285565E+03  0.00000000000E+00 0. -1.
         22    1    1    2    0    0  0.50651695163E+03 -0.80178689863E+03 -0.46991425011E+03  0.10584144063E+04  0.00000000000E+00 0. -1.
<mgrwt>
<rscale>  0 0.19013238E+04</rscale>
<asrwt>0</asrwt>
<pdfrwt beam="1">  1        2 0.23916763E+00 0.19013238E+04</pdfrwt>
<pdfrwt beam="2">  1       -2 0.89438203E-01 0.19013238E+04</pdfrwt>
<totfact> 0.11874145E+01</totfact>
</mgrwt>
</event>
<event>
 6    1  0.9988873E-007  0.4096828E+04  0.7818608E-02  0.7985293E-01
         -2   -1    0    0    0  501 -0.00000000000E+00  0.00000000000E+00  0.18754975554E+04  0.18754975554E+04  0.00000000000E+00 0.  1.
          2   -1    0    0  501    0  0.00000000000E+00 -0.00000000000E+00 -0.22372726091E+04  0.22372726091E+04  0.00000000000E+00 0. -1.
         23    2    1    2    0    0  0.88743892610E+03  0.70340946696E+03 -0.18934659182E+04  0.22079316857E+04  0.86118634788E+02 0.  0.
         13    1    3    3    0    0  0.64379653835E+03  0.55601201784E+03 -0.14385375683E+04  0.16712311875E+04  0.00000000000E+00 0. -1.
        -13    1    3    3    0    0  0.24364238774E+03  0.14739744912E+03 -0.45492834997E+03  0.53670049816E+03  0.00000000000E+00 0.  1.
         22    1    1    2    0    0 -0.88743892610E+03 -0.70340946696E+03  0.15316908646E+04  0.19048384788E+04  0.00000000000E+00 0.  1.
<mgrwt>
<rscale>  0 0.40968277E+04</rscale>
<asrwt>0</asrwt>
<pdfrwt beam="1">  1        2 0.34419578E+00 0.40968277E+04</pdfrwt>
<pdfrwt beam="2">  1       -2 0.28853809E+00 0.40968277E+04</pdfrwt>
<totfact> 0.14384488E-01</totfact>
</mgrwt>
</event>
<event>
 6    1  0.9988873E-007  0.1031492E+04  0.7818608E-02  0.9274664E-01
         -2   -1    0    0    0  501 -0.00000000000E+00  0.00000000000E+00  0.17956328234E+03  0.17956328234E+03  0.00000000000E+00 0.  1.
          2   -1    0    0  501    0  0.00000000000E+00 -0.00000000000E+00 -0.14813373337E+04  0.14813373337E+04  0.00000000000E+00 0. -1.
         23    2    1    2    0    0  0.50184296176E+03  0.68256688438E+02 -0.77160913699E+03  0.92770202750E+03  0.93515013507E+02 0.  0.
         13    1    3    3    0    0  0.38024517600E+02 -0.14779760655E+02 -0.37674699514E+02  0.55530966561E+02  0.00000000000E+00 0. -1.
        -13    1    3    3    0    0  0.46381844416E+03  0.83036449093E+02 -0.73393443747E+03  0.87217106094E+03  0.00000000000E+00 0.  1.
         22    1    1    2    0    0 -0.50184296176E+03 -0.68256688438E+02 -0.53016491432E+03  0.73319858849E+03  0.00000000000E+00 0.  1.
<mgrwt>
<rscale>  0 0.10314917E+04</rscale>
<asrwt>0</asrwt>
<pdfrwt beam="1">  1        2 0.22789805E+00 0.10314917E+04</pdfrwt>
<pdfrwt beam="2">  1       -2 0.27625121E-01 0.10314917E+04</pdfrwt>
<totfact> 0.15478359E+02</totfact>
</mgrwt>
</event>
<event>
 6    1  0.9988873E-007  0.2336880E+04  0.7818608E-02  0.8463520E-01
          1   -1    0    0  501    0  0.00000000000E+00  0.00000000000E+00  0.16844365375E+04  0.16844365375E+04  0.00000000000E+00 0. -1.
         -1   -1    0    0    0  501 -0.00000000000E+00 -0.00000000000E+00 -0.81050933191E+03  0.81050933191E+03  0.00000000000E+00 0.  1.
         23    2    1    2    0    0 -0.50177997125E+03 -0.10301580652E+04  0.67156490018E+03  0.13313483095E+04  0.92087606241E+02 0.  0.
         13    1    3    3    0    0 -0.16333895637E+03 -0.27758743233E+03  0.15118123280E+03  0.35579511296E+03  0.00000000000E+00 0. -1.
        -13    1    3    3    0    0 -0.33844101488E+03 -0.75257063285E+03  0.52038366738E+03  0.97555319653E+03  0.00000000000E+00 0.  1.
         22    1    1    2    0    0  0.50177997125E+03  0.10301580652E+04  0.20236230543E+03  0.11635975599E+04  0.00000000000E+00 0. -1.
<mgrwt>
<rscale>  0 0.23368796E+04</rscale>
<asrwt>0</asrwt>
<pdfrwt beam="1">  1        1 0.25914408E+00 0.23368796E+04</pdfrwt>
<pdfrwt beam="2">  1       -1 0.12469374E+00 0.23368796E+04</pdfrwt>
<totfact> 0.24776941E+00</totfact>
</mgrwt>
</event>
<event>
 6    1  0.9988873E-007  0.1076887E+04  0.7818608E-02  0.9228016E-01
          2   -1    0    0  501    0  0.00000000000E+00  0.00000000000E+00  0.14416358968E+04  0.14416358968E+04  0.00000000000E+00 0. -1.
         -2   -1    0    0    0  501 -0.00000000000E+00 -0.00000000000E+00 -0.20110601021E+03  0.20110601021E+03  0.00000000000E+00 0.  1.
         23    2    1    2    0    0 -0.37623646894E+03 -0.15400757305E+03  0.96961462267E+02  0.42906116059E+03  0.97055351448E+02 0.  0.
         13    1    3    3    0    0 -0.20531779099E+03 -0.10041062599E+03  0.71158672180E+01  0.22866640478E+03  0.00000000000E+00 0. -1.
        -13    1    3    3    0    0 -0.17091867795E+03 -0.53596947058E+02  0.89845595049E+02  0.20039475581E+03  0.00000000000E+00 0.  1.
         22    1    1    2    0    0  0.37623646894E+03  0.15400757305E+03  0.11435684243E+04  0.12136807464E+04  0.00000000000E+00 0. -1.
<mgrwt>
<rscale>  0 0.10768874E+04</rscale>
<asrwt>0</asrwt>
<pdfrwt beam="1">  1        2 0.22179013E+00 0.10768874E+04</pdfrwt>
<pdfrwt beam="2">  1       -2 0.30939387E-01 0.10768874E+04</pdfrwt>
<totfact> 0.13170616E+02</totfact>
</mgrwt>
</event>
<event>
 6    1  0.9988873E-007  0.2950317E+04  0.7818608E-02  0.8258062E-01
          2   -1    0    0  501    0  0.00000000000E+00  0.00000000000E+00  0.22539711770E+04  0.22539711770E+04  0.00000000000E+00 0. -1.
         -2   -1    0    0    0  501 -0.00000000000E+00 -0.00000000000E+00 -0.96544798257E+03  0.96544798257E+03  0.00000000000E+00 0.  1.
         23    2    1    2    0    0 -0.98397904330E+03  0.83489390619E+02  0.18388359375E+04  0.20889195572E+04  0.84155068031E+02 0.  0.
         11    1    3    3    0    0 -0.39604395335E+03  0.42351881502E+02  0.65771656425E+03  0.76891844414E+03  0.00000000000E+00 0.  1.
        -11    1    3    3    0    0 -0.58793508995E+03  0.41137509116E+02  0.11811193732E+04  0.13200011130E+04  0.00000000000E+00 0. -1.
         22    1    1    2    0    0  0.98397904330E+03 -0.83489390619E+02 -0.55031274299E+03  0.11304996024E+04  0.00000000000E+00 0.  1.
<mgrwt>
<rscale>  0 0.29503165E+04</rscale>
<asrwt>0</asrwt>
<pdfrwt beam="1">  1        2 0.34676479E+00 0.29503165E+04</pdfrwt>
<pdfrwt beam="2">  1       -2 0.14853046E+00 0.29503165E+04</pdfrwt>
<totfact> 0.12724702E+00</totfact>
</mgrwt>
</event>
<event>
 6    1  0.9988873E-007  0.1349269E+04  0.7818608E-02  0.8991381E-01
         -3   -1    0    0    0  501 -0.00000000000E+00  0.00000000000E+00  0.39271363009E+03  0.39271363009E+03  0.00000000000E+00 0.  1.
          3   -1    0    0  501    0  0.00000000000E+00 -0.00000000000E+00 -0.11589409721E+04  0.11589409721E+04  0.00000000000E+00 0. -1.
         23    2    1    2    0    0  0.58313259022E+03  0.33366100139E+03 -0.36927937020E+03  0.77130790106E+03  0.84707398517E+02 0.  0.
         13    1    3    3    0    0  0.26074712776E+03  0.18626696806E+03 -0.14411330619E+03  0.35135892339E+03  0.00000000000E+00 0. -1.
        -13    1    3    3    0    0  0.32238546246E+03  0.14739403333E+03 -0.22516606401E+03  0.41994897767E+03  0.00000000000E+00 0.  1.
         22    1    1    2    0    0 -0.58313259022E+03 -0.33366100139E+03 -0.39694797180E+03  0.78034670111E+03  0.00000000000E+00 0.  1.
<mgrwt>
<rscale>  0 0.13492693E+04</rscale>
<asrwt>0</asrwt>
<pdfrwt beam="1">  1        3 0.17829861E+00 0.13492693E+04</pdfrwt>
<pdfrwt beam="2">  1       -3 0.60417482E-01 0.13492693E+04</pdfrwt>
<totfact> 0.13968850E+00</totfact>
</mgrwt>
</event>
<event>
 6    1  0.9988873E-007  0.2447169E+04  0.7818608E-02  0.8422052E-01
         -2   -1    0    0    0  501 -0.00000000000E+00  0.00000000000E+00  0.19814706306E+04  0.19814706306E+04  0.00000000000E+00 0.  1.
          2   -1    0    0  501    0  0.00000000000E+00 -0.00000000000E+00 -0.75557984508E+03  0.75557984508E+03  0.00000000000E+00 0. -1.
         23    2    1    2    0    0  0.10738168963E+04  0.53408505644E+03  0.35241985929E+03  0.12533790048E+04  0.91812843203E+02 0.  0.
         11    1    3    3    0    0  0.82871703391E+03  0.43187116844E+03  0.23873990217E+03  0.96451094825E+03  0.00000000000E+00 0. -1.
        -11    1    3    3    0    0  0.24509986243E+03  0.10221388801E+03  0.11367995712E+03  0.28886805659E+03  0.00000000000E+00 0.  1.
         22    1    1    2    0    0 -0.10738168963E+04 -0.53408505644E+03  0.87347092623E+03  0.14836714708E+04  0.00000000000E+00 0. -1.
<mgrwt>
<rscale>  0 0.24471692E+04</rscale>
<asrwt>0</asrwt>
<pdfrwt beam="1">  1        2 0.11624305E+00 0.24471692E+04</pdfrwt>
<pdfrwt beam="2">  1       -2 0.30484163E+00 0.24471692E+04</pdfrwt>
<totfact> 0.98781460E-01</totfact>
</mgrwt>
</event>
<event>
 6    1  0.9988873E-007  0.1133777E+04  0.7818608E-02  0.9172881E-01
         -2   -1    0    0    0  501 -0.00000000000E+00  0.00000000000E+00  0.67907578806E+03  0.67907578806E+03  0.00000000000E+00 0.  1.
          2   -1    0    0  501    0  0.00000000000E+00 -0.00000000000E+00 -0.47323547156E+03  0.47323547156E+03  0.00000000000E+00 0. -1.
         23    2    1    2    0    0  0.52407961424E+03  0.19323797880E+03  0.17703043657E+03  0.59299885345E+03  0.91145522099E+02 0.  0.
         13    1    3    3    0    0  0.10158058881E+03  0.75153369029E+02  0.25746665329E+02  0.12895555698E+03  0.00000000000E+00 0.  1.
        -13    1    3    3    0    0  0.42249902543E+03  0.11808460977E+03  0.15128377125E+03  0.46404329647E+03  0.00000000000E+00 0. -1.
         22    1    1    2    0    0 -0.52407961424E+03 -0.19323797880E+03  0.28809879917E+02  0.55931240617E+03  0.00000000000E+00 0. -1.
<mgrwt>
<rscale>  0 0.11337773E+04</rscale>
<asrwt>0</asrwt>
<pdfrwt beam="1">  1        2 0.72805457E-01 0.11337773E+04</pdfrwt>
<pdfrwt beam="2">  1       -2 0.10447320E+00 0.11337773E+04</pdfrwt>
<totfact> 0.48393816E+01</totfact>
</mgrwt>
</event>
<event>
 6    1  0.9988873E-007  0.1887572E+04  0.7818608E-02  0.8661068E-01
         -1   -1    0    0    0  501 -0.00000000000E+00  0.00000000000E+00  0.40661496985E+03  0.40661496985E+03  0.00000000000E+00 0.  1.
          1   -1    0    0  501    0  0.00000000000E+00 -0.00000000000E+00 -0.21906025271E+04  0.21906025271E+04  0.00000000000E+00 0. -1.
         23    2    1    2    0    0  0.48110628356E+03 -0.16500883199E+03  0.19635543601E+03  0.55260273087E+03  0.90128520471E+02 0.  0.
         13    1    3    3    0    0  0.33998102915E+03 -0.10982113092E+03  0.93016738087E+02  0.36918815602E+03  0.00000000000E+00 0.  1.
        -13    1    3    3    0    0  0.14112525441E+03 -0.55187701073E+02  0.10333869792E+03  0.18341457486E+03  0.00000000000E+00 0. -1.
         22    1    1    2    0    0 -0.48110628356E+03  0.16500883199E+03 -0.19803429933E+04  0.20446147661E+04  0.00000000000E+00 0. -1.
<mgrwt>
<rscale>  0 0.18875718E+04</rscale>
<asrwt>0</asrwt>
<pdfrwt beam="1">  1        1 0.33701577E+00 0.18875718E+04</pdfrwt>
<pdfrwt beam="2">  1       -1 0.62556149E-01 0.18875718E+04</pdfrwt>
<totfact> 0.53684095E+00</totfact>
</mgrwt>
</event>
<event>
 6    1  0.9988873E-007  0.2783675E+04  0.7818608E-02  0.8308355E-01
         -1   -1    0    0    0  501 -0.00000000000E+00  0.00000000000E+00  0.95155893126E+03  0.95155893126E+03  0.00000000000E+00 0.  1.
          1   -1    0    0  501    0  0.00000000000E+00 -0.00000000000E+00 -0.20358297973E+04  0.20358297973E+04  0.00000000000E+00 0. -1.
         23    2    1    2    0    0  0.25850947216E+03  0.13361743039E+04 -0.23740032818E+03  0.13844605874E+04  0.90461508846E+02 0.  0.
         13    1    3    3    0    0  0.22880783135E+02  0.25022354004E+03 -0.19027394878E+02  0.25198688851E+03  0.00000000000E+00 0.  1.
        -13    1    3    3    0    0  0.23562868902E+03  0.10859507639E+04 -0.21837293330E+03  0.11324736989E+04  0.00000000000E+00 0. -1.
         22    1    1    2    0    0 -0.25850947216E+03 -0.13361743039E+04 -0.84687053784E+03  0.16029281411E+04  0.00000000000E+00 0.  1.
<mgrwt>
<rscale>  0 0.27836753E+04</rscale>
<asrwt>0</asrwt>
<pdfrwt beam="1">  1        1 0.31320458E+00 0.27836753E+04</pdfrwt>
<pdfrwt beam="2">  1       -1 0.14639368E+00 0.27836753E+04</pdfrwt>
<totfact> 0.90970645E-01</totfact>
</mgrwt>
</event>
<event>
 6    1  0.9988873E-007  0.2575783E+04  0.7818608E-02  0.8376474E-01
         -2   -1    0    0    0  501 -0.00000000000E+00  0.00000000000E+00  0.14650029672E+04  0.14650029672E+04  0.00000000000E+00 0.  1.
          2   -1    0    0  501    0  0.00000000000E+00 -0.00000000000E+00 -0.11321916559E+04  0.11321916559E+04  0.00000000000E+00 0. -1.
         23    2    1    2    0    0  0.94721549728E+03 -0.86958153074E+03  0.13266153525E+03  0.12958686956E+04  0.91034918702E+02 0.  0.
         11    1    3    3    0    0  0.65504411248E+03 -0.56772233606E+03  0.12423005051E+03  0.87568518636E+03  0.00000000000E+00 0.  1.
        -11    1    3    3    0    0  0.29217138480E+03 -0.30185919468E+03  0.84314847399E+01  0.42018350924E+03  0.00000000000E+00 0. -1.
         22    1    1    2    0    0 -0.94721549728E+03  0.86958153074E+03  0.20014977605E+03  0.13013259276E+04  0.00000000000E+00 0.  1.
<mgrwt>
<rscale>  0 0.25757827E+04</rscale>
<asrwt>0</asrwt>
<pdfrwt beam="1">  1        2 0.17418333E+00 0.25757827E+04</pdfrwt>
<pdfrwt beam="2">  1       -2 0.22538507E+00 0.25757827E+04</pdfrwt>
<totfact> 0.16860580E+00</totfact>
</mgrwt>
</event>
<event>
 6    1  0.9988873E-007  0.2118512E+04  0.7818608E-02  0.8553132E-01
          2   -1    0    0  501    0  0.00000000000E+00  0.00000000000E+00  0.21965505520E+04  0.21965505520E+04  0.00000000000E+00 0. -1.
         -2   -1    0    0    0  501 -0.00000000000E+00 -0.00000000000E+00 -0.51081129605E+03  0.51081129605E+03  0.00000000000E+00 0.  1.
         23    2    1    2    0    0 -0.25363311573E+03  0.34259739779E+03 -0.39206905165E+03  0.58627955415E+03  0.91119920892E+02 0.  0.
         11    1    3    3    0    0 -0.11605035065E+03  0.12053505098E+03 -0.20684468003E+03  0.26604718390E+03  0.00000000000E+00 0.  1.
        -11    1    3    3    0    0 -0.13758276507E+03  0.22206234681E+03 -0.18522437162E+03  0.32023237025E+03  0.00000000000E+00 0. -1.
         22    1    1    2    0    0  0.25363311573E+03 -0.34259739779E+03  0.20778083076E+04  0.21210822939E+04  0.00000000000E+00 0. -1.
<mgrwt>
<rscale>  0 0.21185116E+04</rscale>
<asrwt>0</asrwt>
<pdfrwt beam="1">  1        2 0.33793085E+00 0.21185116E+04</pdfrwt>
<pdfrwt beam="2">  1       -2 0.78586355E-01 0.21185116E+04</pdfrwt>
<totfact> 0.68666024E+00</totfact>
</mgrwt>
</event>
<event>
 6    1  0.9988873E-007  0.2095135E+04  0.7818608E-02  0.8563389E-01
         -1   -1    0    0    0  501 -0.00000000000E+00  0.00000000000E+00  0.48908028867E+03  0.48908028867E+03  0.00000000000E+00 0.  1.
          1   -1    0    0  501    0  0.00000000000E+00 -0.00000000000E+00 -0.22437990794E+04  0.22437990794E+04  0.00000000000E+00 0. -1.
         23    2    1    2    0    0  0.88821935979E+03  0.12567892809E+03 -0.17864272511E+03  0.91938975171E+03  0.92927220084E+02 0.  0.
         13    1    3    3    0    0  0.78528747982E+03  0.13842401800E+03 -0.16998332234E+03  0.81531096190E+03  0.00000000000E+00 0. -1.
        -13    1    3    3    0    0  0.10293187997E+03 -0.12745089908E+02 -0.86594027764E+01  0.10407878980E+03  0.00000000000E+00 0.  1.
         22    1    1    2    0    0 -0.88821935979E+03 -0.12567892809E+03 -0.15760760656E+04  0.18134896164E+04  0.00000000000E+00 0. -1.
<mgrwt>
<rscale>  0 0.20951352E+04</rscale>
<asrwt>0</asrwt>
<pdfrwt beam="1">  1        1 0.34519986E+00 0.20951352E+04</pdfrwt>
<pdfrwt beam="2">  1       -1 0.75243122E-01 0.20951352E+04</pdfrwt>
<totfact> 0.33224724E+00</totfact>
</mgrwt>
</event>
<event>
 6    1  0.9988873E-007  0.5033677E+04  0.7818608E-02  0.7823333E-01
          2   -1    0    0  501    0  0.00000000000E+00  0.00000000000E+00  0.20404293464E+04  0.20404293464E+04  0.00000000000E+00 0. -1.
         -2   -1    0    0    0  501 -0.00000000000E+00 -0.00000000000E+00 -0.31044822691E+04  0.31044822691E+04  0.00000000000E+00 0.  1.
         23    2    1    2    0    0  0.19795025385E+04  0.11799119636E+04 -0.15643103970E+04  0.27867597794E+04  0.91326382757E+02 0.  0.
         11    1    3    3    0    0  0.11749356034E+04  0.70329159721E+03 -0.87519061499E+03  0.16251311810E+04  0.00000000000E+00 0. -1.
        -11    1    3    3    0    0  0.80456693507E+03  0.47662036635E+03 -0.68911978200E+03  0.11616285984E+04  0.00000000000E+00 0.  1.
         22    1    1    2    0    0 -0.19795025385E+04 -0.11799119636E+04  0.50025747433E+03  0.23581518361E+04  0.00000000000E+00 0. -1.
<mgrwt>
<rscale>  0 0.50336773E+04</rscale>
<asrwt>0</asrwt>
<pdfrwt beam="1">  1        2 0.31391221E+00 0.50336773E+04</pdfrwt>
<pdfrwt beam="2">  1       -2 0.47761265E+00 0.50336773E+04</pdfrwt>
<totfact> 0.10590388E-02</totfact>
</mgrwt>
</event>
<event>
 6    1  0.9988873E-007  0.2417819E+04  0.7818608E-02  0.8432862E-01
         -1   -1    0    0    0  501 -0.00000000000E+00  0.00000000000E+00  0.18762146438E+04  0.18762146438E+04  0.00000000000E+00 0.  1.
          1   -1    0    0  501    0  0.00000000000E+00 -0.00000000000E+00 -0.77894175434E+03  0.77894175434E+03  0.00000000000E+00 0. -1.
         23    2    1    2    0    0 -0.48645060406E+02  0.18694563789E+03  0.18579835625E+04  0.18703024363E+04  0.92807710770E+02 0.  0.
         13    1    3    3    0    0 -0.39629298157E+02  0.19053823338E+02  0.50531934247E+03  0.50722891019E+03  0.00000000000E+00 0. -1.
        -13    1    3    3    0    0 -0.90157622492E+01  0.16789181456E+03  0.13526642201E+04  0.13630735261E+04  0.00000000000E+00 0.  1.
         22    1    1    2    0    0  0.48645060406E+02 -0.18694563789E+03 -0.76071067303E+03  0.78485396189E+03  0.00000000000E+00 0. -1.
<mgrwt>
<rscale>  0 0.24178188E+04</rscale>
<asrwt>0</asrwt>
<pdfrwt beam="1">  1        1 0.11983719E+00 0.24178188E+04</pdfrwt>
<pdfrwt beam="2">  1       -1 0.28864840E+00 0.24178188E+04</pdfrwt>
<totfact> 0.80772256E-01</totfact>
</mgrwt>
</event>
<event>
 6    1  0.9988873E-007  0.1224152E+04  0.7818608E-02  0.9091976E-01
          1   -1    0    0  501    0  0.00000000000E+00  0.00000000000E+00  0.96955543799E+03  0.96955543799E+03  0.00000000000E+00 0. -1.
         -1   -1    0    0    0  501 -0.00000000000E+00 -0.00000000000E+00 -0.38640053834E+03  0.38640053834E+03  0.00000000000E+00 0.  1.
         23    2    1    2    0    0  0.55279063168E+03 -0.25556308505E+02  0.57366519549E+03  0.80249354593E+03  0.93131774230E+02 0.  0.
         11    1    3    3    0    0  0.21691236885E+03 -0.16679285957E+02  0.29150674422E+03  0.36373803247E+03  0.00000000000E+00 0. -1.
        -11    1    3    3    0    0  0.33587826283E+03 -0.88770225475E+01  0.28215845128E+03  0.43875551347E+03  0.00000000000E+00 0.  1.
         22    1    1    2    0    0 -0.55279063168E+03  0.25556308505E+02  0.94897041519E+01  0.55346243039E+03  0.00000000000E+00 0.  1.
<mgrwt>
<rscale>  0 0.12241515E+04</rscale>
<asrwt>0</asrwt>
<pdfrwt beam="1">  1        1 0.14916237E+00 0.12241515E+04</pdfrwt>
<pdfrwt beam="2">  1       -1 0.59446237E-01 0.12241515E+04</pdfrwt>
<totfact> 0.45322384E+01</totfact>
</mgrwt>
</event>
<event>
 6    1  0.9988873E-007  0.3049628E+04  0.7818608E-02  0.8229700E-01
         -2   -1    0    0    0  501 -0.00000000000E+00  0.00000000000E+00  0.23814958086E+04  0.23814958086E+04  0.00000000000E+00 0.  1.
          2   -1    0    0  501    0  0.00000000000E+00 -0.00000000000E+00 -0.97630162210E+03  0.97630162210E+03  0.00000000000E+00 0. -1.
         23    2    1    2    0    0 -0.23619365186E+03 -0.98894189955E+03  0.19524182799E+04  0.22031339602E+04  0.89825302999E+02 0.  0.
         11    1    3    3    0    0 -0.17336272585E+03 -0.84758718853E+03  0.16881380397E+04  0.18969103083E+04  0.00000000000E+00 0.  1.
        -11    1    3    3    0    0 -0.62830926011E+02 -0.14135471102E+03  0.26428024023E+03  0.30622365188E+03  0.00000000000E+00 0. -1.
         22    1    1    2    0    0  0.23619365186E+03  0.98894189955E+03 -0.54722409335E+03  0.11546634705E+04  0.00000000000E+00 0. -1.
<mgrwt>
<rscale>  0 0.30496283E+04</rscale>
<asrwt>0</asrwt>
<pdfrwt beam="1">  1        2 0.15020025E+00 0.30496283E+04</pdfrwt>
<pdfrwt beam="2">  1       -2 0.36638397E+00 0.30496283E+04</pdfrwt>
<totfact> 0.27228706E-01</totfact>
</mgrwt>
</event>
<event>
 6    1  0.9988873E-007  0.1362070E+04  0.7818608E-02  0.8981742E-01
          2   -1    0    0  501    0  0.00000000000E+00  0.00000000000E+00  0.18345179536E+04  0.18345179536E+04  0.00000000000E+00 0. -1.
         -2   -1    0    0    0  501 -0.00000000000E+00 -0.00000000000E+00 -0.25282300946E+03  0.25282300946E+03  0.00000000000E+00 0.  1.
         23    2    1    2    0    0 -0.62069619095E+03 -0.21059934859E+03  0.52855559715E+03  0.84689010500E+03  0.90752320012E+02 0.  0.
         13    1    3    3    0    0 -0.55523813452E+03 -0.20128465803E+03  0.50381507560E+03  0.77629538835E+03  0.00000000000E+00 0. -1.
        -13    1    3    3    0    0 -0.65458056431E+02 -0.93146905600E+01  0.24740521554E+02  0.70594716649E+02  0.00000000000E+00 0.  1.
         22    1    1    2    0    0  0.62069619095E+03  0.21059934859E+03  0.10531393470E+04  0.12404508580E+04  0.00000000000E+00 0. -1.
<mgrwt>
<rscale>  0 0.13620695E+04</rscale>
<asrwt>0</asrwt>
<pdfrwt beam="1">  1        2 0.28223352E+00 0.13620695E+04</pdfrwt>
<pdfrwt beam="2">  1       -2 0.38895849E-01 0.13620695E+04</pdfrwt>
<totfact> 0.50344246E+01</totfact>
</mgrwt>
</event>
<event>
 6    1  0.9988873E-007  0.3419753E+04  0.7818608E-02  0.8133075E-01
         -2   -1    0    0    0  501 -0.00000000000E+00  0.00000000000E+00  0.42464760831E+04  0.42464760831E+04  0.00000000000E+00 0.  1.
          2   -1    0    0  501    0  0.00000000000E+00 -0.00000000000E+00 -0.68849496905E+03  0.68849496905E+03  0.00000000000E+00 0. -1.
         23    2    1    2    0    0 -0.31089498434E+03  0.92486408618E+03 -0.24373361237E+03  0.10100425012E+04  0.93544167051E+02 0.  0.
         13    1    3    3    0    0 -0.14115135794E+03  0.55268310881E+03 -0.16085693329E+03  0.59266961926E+03  0.00000000000E+00 0. -1.
        -13    1    3    3    0    0 -0.16974362640E+03  0.37218097738E+03 -0.82876679077E+02  0.41737288192E+03  0.00000000000E+00 0.  1.
         22    1    1    2    0    0  0.31089498434E+03 -0.92486408618E+03  0.38017147264E+04  0.39249285510E+04  0.00000000000E+00 0.  1.
<mgrwt>
<rscale>  0 0.34197529E+04</rscale>
<asrwt>0</asrwt>
<pdfrwt beam="1">  1        2 0.10592231E+00 0.34197529E+04</pdfrwt>
<pdfrwt beam="2">  1       -2 0.65330399E+00 0.34197529E+04</pdfrwt>
<totfact> 0.11249077E-02</totfact>
</mgrwt>
</event>
<event>
 6    1  0.9988873E-007  0.2170796E+04  0.7818608E-02  0.8530683E-01
         -1   -1    0    0    0  501 -0.00000000000E+00  0.00000000000E+00  0.35878427047E+03  0.35878427047E+03  0.00000000000E+00 0.  1.
          1   -1    0    0  501    0  0.00000000000E+00 -0.00000000000E+00 -0.32835582560E+04  0.32835582560E+04  0.00000000000E+00 0. -1.
         23    2    1    2    0    0  0.45843969634E+02  0.82049216099E+03 -0.28024691372E+03  0.87307683151E+03  0.91737480188E+02 0.  0.
         13    1    3    3    0    0  0.41703644150E+02  0.13347792190E+03 -0.48896644968E+02  0.14814328017E+03  0.00000000000E+00 0. -1.
        -13    1    3    3    0    0  0.41403254841E+01  0.68701423909E+03 -0.23135026875E+03  0.72493355134E+03  0.00000000000E+00 0.  1.
         22    1    1    2    0    0 -0.45843969634E+02 -0.82049216099E+03 -0.26445270718E+04  0.27692656950E+04  0.00000000000E+00 0. -1.
<mgrwt>
<rscale>  0 0.21707962E+04</rscale>
<asrwt>0</asrwt>
<pdfrwt beam="1">  1        1 0.50516282E+00 0.21707962E+04</pdfrwt>
<pdfrwt beam="2">  1       -1 0.55197579E-01 0.21707962E+04</pdfrwt>
<totfact> 0.11169524E+00</totfact>
</mgrwt>
</event>
<event>
 6    1  0.9988873E-007  0.1612213E+04  0.7818608E-02  0.8813080E-01
          2   -1    0    0  501    0  0.00000000000E+00  0.00000000000E+00  0.22843240564E+04  0.22843240564E+04  0.00000000000E+00 0. -1.
         -2   -1    0    0    0  501 -0.00000000000E+00 -0.00000000000E+00 -0.28446374805E+03  0.28446374805E+03  0.00000000000E+00 0.  1.
         23    2    1    2    0    0  0.27342790037E+02 -0.25196568638E+03  0.22182613376E+04  0.22342233938E+04  0.82682984520E+02 0.  0.
         11    1    3    3    0    0 -0.64910977961E+01 -0.19682140471E+03  0.18353818439E+04  0.18459163883E+04  0.00000000000E+00 0. -1.
        -11    1    3    3    0    0  0.33833887833E+02 -0.55144281667E+02  0.38287949377E+03  0.38830700549E+03  0.00000000000E+00 0.  1.
         22    1    1    2    0    0 -0.27342790037E+02  0.25196568638E+03 -0.21840102930E+03  0.33456441066E+03  0.00000000000E+00 0.  1.
<mgrwt>
<rscale>  0 0.16122126E+04</rscale>
<asrwt>0</asrwt>
<pdfrwt beam="1">  1        2 0.35143446E+00 0.16122126E+04</pdfrwt>
<pdfrwt beam="2">  1       -2 0.43763655E-01 0.16122126E+04</pdfrwt>
<totfact> 0.21972862E+01</totfact>
</mgrwt>
</event>
<event>
 6    1  0.9988873E-007  0.1429763E+04  0.7818608E-02  0.8932552E-01
          2   -1    0    0  501    0  0.00000000000E+00  0.00000000000E+00  0.15261160197E+03  0.15261160197E+03  0.00000000000E+00 0. -1.
         -2   -1    0    0    0  501 -0.00000000000E+00 -0.00000000000E+00 -0.33487348143E+04  0.33487348143E+04  0.00000000000E+00 0.  1.
         23    2    1    2    0    0  0.15312917352E+03 -0.45119076979E+03 -0.29000150586E+04  0.29403636240E+04  0.92893738601E+02 0.  0.
         13    1    3    3    0    0  0.52869363991E+02 -0.82094292274E+02 -0.43275356002E+03  0.44363305353E+03  0.00000000000E+00 0. -1.
        -13    1    3    3    0    0  0.10025980953E+03 -0.36909647752E+03 -0.24672614986E+04  0.24967305705E+04  0.00000000000E+00 0.  1.
         22    1    1    2    0    0 -0.15312917352E+03  0.45119076979E+03 -0.29610815373E+03  0.56098279228E+03  0.00000000000E+00 0. -1.
<mgrwt>
<rscale>  0 0.14297633E+04</rscale>
<asrwt>0</asrwt>
<pdfrwt beam="1">  1        2 0.23478706E-01 0.14297633E+04</pdfrwt>
<pdfrwt beam="2">  1       -2 0.51519000E+00 0.14297633E+04</pdfrwt>
<totfact> 0.30593571E-01</totfact>
</mgrwt>
</event>
<event>
 6    1  0.9988873E-007  0.3219861E+04  0.7818608E-02  0.8183592E-01
          2   -1    0    0  501    0  0.00000000000E+00  0.00000000000E+00  0.80280684219E+03  0.80280684219E+03  0.00000000000E+00 0. -1.
         -2   -1    0    0    0  501 -0.00000000000E+00 -0.00000000000E+00 -0.32285179993E+04  0.32285179993E+04  0.00000000000E+00 0.  1.
         23    2    1    2    0    0 -0.13351834892E+04 -0.77958511845E+03 -0.17693248662E+04  0.23516490187E+04  0.96305338869E+02 0.  0.
         11    1    3    3    0    0 -0.10151365114E+04 -0.54418514384E+03 -0.13203450937E+04  0.17521274994E+04  0.00000000000E+00 0. -1.
        -11    1    3    3    0    0 -0.32004697775E+03 -0.23539997461E+03 -0.44897977247E+03  0.59952151930E+03  0.00000000000E+00 0.  1.
         22    1    1    2    0    0  0.13351834892E+04  0.77958511845E+03 -0.65638629090E+03  0.16796758228E+04  0.00000000000E+00 0.  1.
<mgrwt>
<rscale>  0 0.32198611E+04</rscale>
<asrwt>0</asrwt>
<pdfrwt beam="1">  1        2 0.12350874E+00 0.32198611E+04</pdfrwt>
<pdfrwt beam="2">  1       -2 0.49669508E+00 0.32198611E+04</pdfrwt>
<totfact> 0.49733071E-02</totfact>
</mgrwt>
</event>
<event>
 6    1  0.9988873E-007  0.3662574E+04  0.7818608E-02  0.8076307E-01
          2   -1    0    0  501    0  0.00000000000E+00  0.00000000000E+00  0.11692554947E+04  0.11692554947E+04  0.00000000000E+00 0. -1.
         -2   -1    0    0    0  501 -0.00000000000E+00 -0.00000000000E+00 -0.28681606923E+04  0.28681606923E+04  0.00000000000E+00 0.  1.
         23    2    1    2    0    0 -0.44034829478E+03 -0.53979824408E+03 -0.27155504644E+04  0.28049972796E+04  0.92231494415E+02 0.  0.
         13    1    3    3    0    0 -0.38602438851E+03 -0.51303360652E+03 -0.24947135936E+04  0.25760074193E+04  0.00000000000E+00 0. -1.
        -13    1    3    3    0    0 -0.54323906263E+02 -0.26764637564E+02 -0.22083687076E+03  0.22898986026E+03  0.00000000000E+00 0.  1.
         22    1    1    2    0    0  0.44034829478E+03  0.53979824408E+03  0.10166452667E+04  0.12324189074E+04  0.00000000000E+00 0. -1.
<mgrwt>
<rscale>  0 0.36625743E+04</rscale>
<asrwt>0</asrwt>
<pdfrwt beam="1">  1        2 0.17988546E+00 0.36625743E+04</pdfrwt>
<pdfrwt beam="2">  1       -2 0.44125549E+00 0.36625743E+04</pdfrwt>
<totfact> 0.63502463E-02</totfact>
</mgrwt>
</event>
<event>
 6    1  0.9988873E-007  0.9147285E+03  0.7818608E-02  0.9407355E-01
          4   -1    0    0  501    0  0.00000000000E+00  0.00000000000E+00  0.16978097655E+03  0.16978097655E+03  0.00000000000E+00 0. -1.
         -4   -1    0    0    0  501 -0.00000000000E+00 -0.00000000000E+00 -0.12320700854E+04  0.12320700854E+04  0.00000000000E+00 0.  1.
         23    2    1    2    0    0  0.38735709678E+03 -0.18483571991E+03 -0.31449182540E+03  0.53963847741E+03  0.89971185849E+02 0.  0.
         11    1    3    3    0    0  0.18533933470E+03 -0.39079593775E+02 -0.13547427537E+03  0.23287585303E+03  0.00000000000E+00 0. -1.
        -11    1    3    3    0    0  0.20201776207E+03 -0.14575612613E+03 -0.17901755004E+03  0.30676262439E+03  0.00000000000E+00 0.  1.
         22    1    1    2    0    0 -0.38735709678E+03  0.18483571991E+03 -0.74779728341E+03  0.86221258449E+03  0.00000000000E+00 0.  1.
<mgrwt>
<rscale>  0 0.91472851E+03</rscale>
<asrwt>0</asrwt>
<pdfrwt beam="1">  1        4 0.26120150E-01 0.91472851E+03</pdfrwt>
<pdfrwt beam="2">  1       -4 0.18954924E+00 0.91472851E+03</pdfrwt>
<totfact> 0.43338175E+00</totfact>
</mgrwt>
</event>
<event>
 6    1  0.9988873E-007  0.3109336E+04  0.7818608E-02  0.8213181E-01
          1   -1    0    0  501    0  0.00000000000E+00  0.00000000000E+00  0.79952632134E+03  0.79952632134E+03  0.00000000000E+00 0. -1.
         -1   -1    0    0    0  501 -0.00000000000E+00 -0.00000000000E+00 -0.30230297190E+04  0.30230297190E+04  0.00000000000E+00 0.  1.
         23    2    1    2    0    0 -0.12603376886E+04 -0.55329816015E+03 -0.19977834882E+04  0.24277300939E+04  0.90247436706E+02 0.  0.
         13    1    3    3    0    0 -0.71717988467E+03 -0.33252362789E+03 -0.12196870654E+04  0.14534632736E+04  0.00000000000E+00 0. -1.
        -13    1    3    3    0    0 -0.54315780396E+03 -0.22077453225E+03 -0.77809642278E+03  0.97426682035E+03  0.00000000000E+00 0.  1.
         22    1    1    2    0    0  0.12603376886E+04  0.55329816015E+03 -0.22571990952E+03  0.13948259465E+04  0.00000000000E+00 0. -1.
<mgrwt>
<rscale>  0 0.31093355E+04</rscale>
<asrwt>0</asrwt>
<pdfrwt beam="1">  1        1 0.12300405E+00 0.31093355E+04</pdfrwt>
<pdfrwt beam="2">  1       -1 0.46508149E+00 0.31093355E+04</pdfrwt>
<totfact> 0.47502639E-02</totfact>
</mgrwt>
</event>
<event>
 6    1  0.9988873E-007  0.2817892E+04  0.7818608E-02  0.8297735E-01
          1   -1    0    0  501    0  0.00000000000E+00  0.00000000000E+00  0.15225020838E+04  0.15225020838E+04  0.00000000000E+00 0. -1.
         -1   -1    0    0    0  501 -0.00000000000E+00 -0.00000000000E+00 -0.13038598274E+04  0.13038598274E+04  0.00000000000E+00 0.  1.
         23    2    1    2    0    0  0.44447933391E+03  0.21234084199E+02  0.14487517781E+04  0.15182402808E+04  0.90327576773E+02 0.  0.
         13    1    3    3    0    0  0.27505562067E+03  0.24792727159E+02  0.10329699820E+04  0.10692507927E+04  0.00000000000E+00 0. -1.
        -13    1    3    3    0    0  0.16942371323E+03 -0.35586429597E+01  0.41578179608E+03  0.44898948819E+03  0.00000000000E+00 0.  1.
         22    1    1    2    0    0 -0.44447933391E+03 -0.21234084199E+02 -0.12301095217E+04  0.13081216304E+04  0.00000000000E+00 0.  1.
<mgrwt>
<rscale>  0 0.28178923E+04</rscale>
<asrwt>0</asrwt>
<pdfrwt beam="1">  1        1 0.23423109E+00 0.28178923E+04</pdfrwt>
<pdfrwt beam="2">  1       -1 0.20059382E+00 0.28178923E+04</pdfrwt>
<totfact> 0.81335601E-01</totfact>
</mgrwt>
</event>
<event>
 6    1  0.9988873E-007  0.3054168E+04  0.7818608E-02  0.8228430E-01
         -2   -1    0    0    0  501 -0.00000000000E+00  0.00000000000E+00  0.89155462710E+03  0.89155462710E+03  0.00000000000E+00 0.  1.
          2   -1    0    0  501    0  0.00000000000E+00 -0.00000000000E+00 -0.26156401144E+04  0.26156401144E+04  0.00000000000E+00 0. -1.
         23    2    1    2    0    0 -0.14737853755E+03 -0.10451322216E+04  0.40235172702E+03  0.11332198005E+04  0.90985767890E+02 0.  0.
         11    1    3    3    0    0 -0.42113304448E+02 -0.57484762386E+03  0.24453779586E+03  0.62611664622E+03  0.00000000000E+00 0. -1.
        -11    1    3    3    0    0 -0.10526523310E+03 -0.47028459779E+03  0.15781393117E+03  0.50710315428E+03  0.00000000000E+00 0.  1.
         22    1    1    2    0    0  0.14737853755E+03  0.10451322216E+04 -0.21264372144E+04  0.23739749410E+04  0.00000000000E+00 0. -1.
<mgrwt>
<rscale>  0 0.30541683E+04</rscale>
<asrwt>0</asrwt>
<pdfrwt beam="1">  1        2 0.40240617E+00 0.30541683E+04</pdfrwt>
<pdfrwt beam="2">  1       -2 0.13716225E+00 0.30541683E+04</pdfrwt>
<totfact> 0.96140828E-01</totfact>
</mgrwt>
</event>
<event>
 6    1  0.9988873E-007  0.2138028E+04  0.7818608E-02  0.8544675E-01
         -1   -1    0    0    0  501 -0.00000000000E+00  0.00000000000E+00  0.64942099845E+03  0.64942099845E+03  0.00000000000E+00 0.  1.
          1   -1    0    0  501    0  0.00000000000E+00 -0.00000000000E+00 -0.17597065726E+04  0.17597065726E+04  0.00000000000E+00 0. -1.
         23    2    1    2    0    0  0.26235202208E+03  0.88759646660E+03  0.42111199104E+02  0.93106316310E+03  0.91919473355E+02 0.  0.
         13    1    3    3    0    0  0.41656121874E+02  0.25902834123E+03  0.36264234250E+02  0.26485091794E+03  0.00000000000E+00 0. -1.
        -13    1    3    3    0    0  0.22069590020E+03  0.62856812538E+03  0.58469648545E+01  0.66621224516E+03  0.00000000000E+00 0.  1.
         22    1    1    2    0    0 -0.26235202208E+03 -0.88759646660E+03 -0.11523967732E+04  0.14780644079E+04  0.00000000000E+00 0. -1.
<mgrwt>
<rscale>  0 0.21380275E+04</rscale>
<asrwt>0</asrwt>
<pdfrwt beam="1">  1        1 0.27072408E+00 0.21380275E+04</pdfrwt>
<pdfrwt beam="2">  1       -1 0.99910925E-01 0.21380275E+04</pdfrwt>
<totfact> 0.37986893E+00</totfact>
</mgrwt>
</event>
<event>
 6    1  0.9988873E-007  0.5133464E+03  0.7818608E-02  0.1010353E+00
          2   -1    0    0  501    0  0.00000000000E+00  0.00000000000E+00  0.14406149652E+03  0.14406149652E+03  0.00000000000E+00 0. -1.
         -2   -1    0    0    0  501 -0.00000000000E+00 -0.00000000000E+00 -0.45731262365E+03  0.45731262365E+03  0.00000000000E+00 0.  1.
         23    2    1    2    0    0 -0.23914477710E+03  0.56910953390E+02 -0.20609701667E+03  0.33321169846E+03  0.90138641459E+02 0.  0.
         11    1    3    3    0    0 -0.66104452715E+02 -0.51148619770E+01 -0.10288173294E+03  0.12239530814E+03  0.00000000000E+00 0. -1.
        -11    1    3    3    0    0 -0.17304032438E+03  0.62025815367E+02 -0.10321528373E+03  0.21081639033E+03  0.00000000000E+00 0.  1.
         22    1    1    2    0    0  0.23914477710E+03 -0.56910953390E+02 -0.10715411046E+03  0.26816242171E+03  0.00000000000E+00 0. -1.
<mgrwt>
<rscale>  0 0.51334644E+03</rscale>
<asrwt>0</asrwt>
<pdfrwt beam="1">  1        2 0.22163307E-01 0.51334644E+03</pdfrwt>
<pdfrwt beam="2">  1       -2 0.70355789E-01 0.51334644E+03</pdfrwt>
<totfact> 0.46736353E+02</totfact>
</mgrwt>
</event>
<event>
 6    1  0.9988873E-007  0.2140301E+04  0.7818608E-02  0.8543695E-01
         -2   -1    0    0    0  501 -0.00000000000E+00  0.00000000000E+00  0.60959118371E+03  0.60959118371E+03  0.00000000000E+00 0.  1.
          2   -1    0    0  501    0  0.00000000000E+00 -0.00000000000E+00 -0.18786729398E+04  0.18786729398E+04  0.00000000000E+00 0. -1.
         23    2    1    2    0    0  0.61583875219E+03  0.69132975306E+03 -0.16160837325E+02  0.93037933160E+03  0.90279188343E+02 0.  0.
         13    1    3    3    0    0  0.23054383030E+03  0.25267569725E+03 -0.49393355737E+02  0.34559393696E+03  0.00000000000E+00 0. -1.
        -13    1    3    3    0    0  0.38529492189E+03  0.43865405581E+03  0.33232518412E+02  0.58478539465E+03  0.00000000000E+00 0.  1.
         22    1    1    2    0    0 -0.61583875219E+03 -0.69132975306E+03 -0.12529209188E+04  0.15578847919E+04  0.00000000000E+00 0. -1.
<mgrwt>
<rscale>  0 0.21403013E+04</rscale>
<asrwt>0</asrwt>
<pdfrwt beam="1">  1        2 0.28902661E+00 0.21403013E+04</pdfrwt>
<pdfrwt beam="2">  1       -2 0.93783258E-01 0.21403013E+04</pdfrwt>
<totfact> 0.68840618E+00</totfact>
</mgrwt>
</event>
<event>
 6    1  0.9988873E-007  0.1441667E+04  0.7818608E-02  0.8924198E-01
         -1   -1    0    0    0  501 -0.00000000000E+00  0.00000000000E+00  0.30715523406E+03  0.30715523406E+03  0.00000000000E+00 0.  1.
          1   -1    0    0  501    0  0.00000000000E+00 -0.00000000000E+00 -0.16916557659E+04  0.16916557659E+04  0.00000000000E+00 0. -1.
         23    2    1    2    0    0  0.41271137807E+02  0.54064065641E+03 -0.37443807295E+02  0.54672372803E+03  0.59238246987E+02 0.  0.
         13    1    3    3    0    0  0.12880145985E+02  0.11931350893E+03 -0.32828346469E+02  0.12441588285E+03  0.00000000000E+00 0. -1.
        -13    1    3    3    0    0  0.28390991822E+02  0.42132714748E+03 -0.46154608265E+01  0.42230784518E+03  0.00000000000E+00 0.  1.
         22    1    1    2    0    0 -0.41271137807E+02 -0.54064065641E+03 -0.13470567245E+04  0.14520872719E+04  0.00000000000E+00 0. -1.
<mgrwt>
<rscale>  0 0.14416670E+04</rscale>
<asrwt>0</asrwt>
<pdfrwt beam="1">  1        1 0.26025473E+00 0.14416670E+04</pdfrwt>
<pdfrwt beam="2">  1       -1 0.47254651E-01 0.14416670E+04</pdfrwt>
<totfact> 0.20969483E+01</totfact>
</mgrwt>
</event>
<event>
 6    1  0.9988873E-007  0.2388578E+04  0.7818608E-02  0.8443792E-01
          1   -1    0    0  501    0  0.00000000000E+00  0.00000000000E+00  0.34884421690E+04  0.34884421690E+04  0.00000000000E+00 0. -1.
         -1   -1    0    0    0  501 -0.00000000000E+00 -0.00000000000E+00 -0.40887200136E+03  0.40887200136E+03  0.00000000000E+00 0.  1.
         23    2    1    2    0    0  0.59981692628E+03 -0.26272254163E+03 -0.84029906799E+02  0.66665341598E+03  0.92532550289E+02 0.  0.
         11    1    3    3    0    0  0.41266005345E+03 -0.13419337062E+03 -0.44639623090E+02  0.43622113243E+03  0.00000000000E+00 0. -1.
        -11    1    3    3    0    0  0.18715687283E+03 -0.12852917101E+03 -0.39390283709E+02  0.23043228355E+03  0.00000000000E+00 0.  1.
         22    1    1    2    0    0 -0.59981692628E+03  0.26272254163E+03  0.31636000744E+04  0.32306607544E+04  0.00000000000E+00 0. -1.
<mgrwt>
<rscale>  0 0.23885781E+04</rscale>
<asrwt>0</asrwt>
<pdfrwt beam="1">  1        1 0.53668339E+00 0.23885781E+04</pdfrwt>
<pdfrwt beam="2">  1       -1 0.62903387E-01 0.23885781E+04</pdfrwt>
<totfact> 0.58764549E-01</totfact>
</mgrwt>
</event>
<event>
 6    1  0.9988873E-007  0.3502224E+04  0.7818608E-02  0.8113263E-01
         -2   -1    0    0    0  501 -0.00000000000E+00  0.00000000000E+00  0.15260097690E+04  0.15260097690E+04  0.00000000000E+00 0.  1.
          2   -1    0    0  501    0  0.00000000000E+00 -0.00000000000E+00 -0.20094194712E+04  0.20094194712E+04  0.00000000000E+00 0. -1.
         23    2    1    2    0    0  0.68739946545E+03 -0.70525877639E+03  0.12182875743E+04  0.15692955754E+04  0.92498770917E+02 0.  0.
         11    1    3    3    0    0  0.59398132325E+03 -0.65023954880E+03  0.10901516234E+04  0.14014477676E+04  0.00000000000E+00 0.  1.
        -11    1    3    3    0    0  0.93418142199E+02 -0.55019227585E+02  0.12813595086E+03  0.16784780785E+03  0.00000000000E+00 0. -1.
         22    1    1    2    0    0 -0.68739946545E+03  0.70525877639E+03 -0.17016972766E+04  0.19661336648E+04  0.00000000000E+00 0. -1.
<mgrwt>
<rscale>  0 0.35022243E+04</rscale>
<asrwt>0</asrwt>
<pdfrwt beam="1">  1        2 0.30914145E+00 0.35022243E+04</pdfrwt>
<pdfrwt beam="2">  1       -2 0.23477074E+00 0.35022243E+04</pdfrwt>
<totfact> 0.43295397E-01</totfact>
</mgrwt>
</event>
<event>
 6    1  0.9988873E-007  0.2152059E+04  0.7818608E-02  0.8538652E-01
         -2   -1    0    0    0  501 -0.00000000000E+00  0.00000000000E+00  0.99344800441E+03  0.99344800441E+03  0.00000000000E+00 0.  1.
          2   -1    0    0  501    0  0.00000000000E+00 -0.00000000000E+00 -0.11654753080E+04  0.11654753080E+04  0.00000000000E+00 0. -1.
         23    2    1    2    0    0  0.10027208864E+04 -0.31629120376E+03  0.13502971124E+03  0.10635816708E+04  0.86508068395E+02 0.  0.
         11    1    3    3    0    0  0.80554273280E+03 -0.21731071810E+03  0.10507974442E+03  0.84093090992E+03  0.00000000000E+00 0. -1.
        -11    1    3    3    0    0  0.19717815360E+03 -0.98980485662E+02  0.29949966818E+02  0.22265076086E+03  0.00000000000E+00 0.  1.
         22    1    1    2    0    0 -0.10027208864E+04  0.31629120376E+03 -0.30705701487E+03  0.10953416417E+04  0.00000000000E+00 0. -1.
<mgrwt>
<rscale>  0 0.21520587E+04</rscale>
<asrwt>0</asrwt>
<pdfrwt beam="1">  1        2 0.17930389E+00 0.21520587E+04</pdfrwt>
<pdfrwt beam="2">  1       -2 0.15283815E+00 0.21520587E+04</pdfrwt>
<totfact> 0.51971158E+00</totfact>
</mgrwt>
</event>
<event>
 6    1  0.9988873E-007  0.1099142E+04  0.7818608E-02  0.9206029E-01
          2   -1    0    0  501    0  0.00000000000E+00  0.00000000000E+00  0.10313156635E+04  0.10313156635E+04  0.00000000000E+00 0. -1.
         -2   -1    0    0    0  501 -0.00000000000E+00 -0.00000000000E+00 -0.29285722908E+03  0.29285722908E+03  0.00000000000E+00 0.  1.
         23    2    1    2    0    0 -0.43131277873E+03  0.17038835711E+03  0.25378451880E+02  0.47355784049E+03  0.92466519002E+02 0.  0.
         13    1    3    3    0    0 -0.21525110575E+03  0.11220738938E+03 -0.25533218604E+02  0.24408089234E+03  0.00000000000E+00 0.  1.
        -13    1    3    3    0    0 -0.21606167299E+03  0.58180967734E+02  0.50911670484E+02  0.22947694815E+03  0.00000000000E+00 0. -1.
         22    1    1    2    0    0  0.43131277873E+03 -0.17038835711E+03  0.71307998253E+03  0.85061505208E+03  0.00000000000E+00 0. -1.
<mgrwt>
<rscale>  0 0.10991419E+04</rscale>
<asrwt>0</asrwt>
<pdfrwt beam="1">  1        2 0.15866395E+00 0.10991419E+04</pdfrwt>
<pdfrwt beam="2">  1       -2 0.45054959E-01 0.10991419E+04</pdfrwt>
<totfact> 0.11152489E+02</totfact>
</mgrwt>
</event>
<event>
 6    1  0.1257907E-006  0.4633394E+04  0.7818608E-02  0.7887691E-01
          3   -1    0    0  501    0  0.00000000000E+00  0.00000000000E+00  0.26262267518E+04  0.26262267518E+04  0.00000000000E+00 0. -1.
         -3   -1    0    0    0  501 -0.00000000000E+00 -0.00000000000E+00 -0.20436491540E+04  0.20436491540E+04  0.00000000000E+00 0.  1.
         23    2    1    2    0    0  0.21726000803E+04  0.55539193670E+03  0.87397535644E+03  0.24085568291E+04  0.93068593622E+02 0.  0.
         13    1    3    3    0    0  0.11074791169E+04  0.32193966116E+03  0.41987487948E+03  0.12273752703E+04  0.00000000000E+00 0. -1.
        -13    1    3    3    0    0  0.10651209634E+04  0.23345227553E+03  0.45410047696E+03  0.11811815588E+04  0.00000000000E+00 0.  1.
         22    1    1    2    0    0 -0.21726000803E+04 -0.55539193670E+03 -0.29139775861E+03  0.22613190766E+04  0.00000000000E+00 0. -1.
<mgrwt>
<rscale>  0 0.46333945E+04</rscale>
<asrwt>0</asrwt>
<pdfrwt beam="1">  1        3 0.40403488E+00 0.46333945E+04</pdfrwt>
<pdfrwt beam="2">  1       -3 0.31440756E+00 0.46333945E+04</pdfrwt>
<totfact> 0.64307873E-04</totfact>
</mgrwt>
</event>
<event>
 6    1  0.9988873E-007  0.4584177E+04  0.7818608E-02  0.7896063E-01
         -2   -1    0    0    0  501 -0.00000000000E+00  0.00000000000E+00  0.14116152760E+04  0.14116152760E+04  0.00000000000E+00 0.  1.
          2   -1    0    0  501    0  0.00000000000E+00 -0.00000000000E+00 -0.37217439816E+04  0.37217439816E+04  0.00000000000E+00 0. -1.
         23    2    1    2    0    0 -0.16705371175E+04 -0.10465457601E+04  0.15214358175E+03  0.19791973870E+04  0.90124015006E+02 0.  0.
         13    1    3    3    0    0 -0.72867367079E+03 -0.50169444803E+03  0.91576603140E+02  0.88940930506E+03  0.00000000000E+00 0.  1.
        -13    1    3    3    0    0 -0.94186344674E+03 -0.54485131212E+03  0.60566978608E+02  0.10897880819E+04  0.00000000000E+00 0. -1.
         22    1    1    2    0    0  0.16705371175E+04  0.10465457601E+04 -0.24622722874E+04  0.31541618707E+04  0.00000000000E+00 0. -1.
<mgrwt>
<rscale>  0 0.45841774E+04</rscale>
<asrwt>0</asrwt>
<pdfrwt beam="1">  1        2 0.57257601E+00 0.45841774E+04</pdfrwt>
<pdfrwt beam="2">  1       -2 0.21717158E+00 0.45841774E+04</pdfrwt>
<totfact> 0.43477985E-02</totfact>
</mgrwt>
</event>
<event>
 6    1  0.9988873E-007  0.2579700E+04  0.7818608E-02  0.8375129E-01
         -1   -1    0    0    0  501 -0.00000000000E+00  0.00000000000E+00  0.15684709015E+04  0.15684709015E+04  0.00000000000E+00 0.  1.
          1   -1    0    0  501    0  0.00000000000E+00 -0.00000000000E+00 -0.10607233140E+04  0.10607233140E+04  0.00000000000E+00 0. -1.
         23    2    1    2    0    0 -0.11052795804E+04 -0.14843409299E+03 -0.40147150495E+03  0.11903213966E+04  0.10959026844E+03 0.  0.
         13    1    3    3    0    0 -0.32091539154E+03 -0.24199926373E+02 -0.67593307925E+02  0.32884826324E+03  0.00000000000E+00 0. -1.
        -13    1    3    3    0    0 -0.78436418891E+03 -0.12423416661E+03 -0.33387819703E+03  0.86147313333E+03  0.00000000000E+00 0.  1.
         22    1    1    2    0    0  0.11052795804E+04  0.14843409299E+03  0.90921909247E+03  0.14388728189E+04  0.00000000000E+00 0.  1.
<mgrwt>
<rscale>  0 0.25797005E+04</rscale>
<asrwt>0</asrwt>
<pdfrwt beam="1">  1        1 0.16318820E+00 0.25797005E+04</pdfrwt>
<pdfrwt beam="2">  1       -1 0.24130322E+00 0.25797005E+04</pdfrwt>
<totfact> 0.95237436E-01</totfact>
</mgrwt>
</event>
<event>
 6    1  0.9988873E-007  0.2762582E+04  0.7818608E-02  0.8314980E-01
          1   -1    0    0  501    0  0.00000000000E+00  0.00000000000E+00  0.13392047318E+04  0.13392047318E+04  0.00000000000E+00 0. -1.
         -1   -1    0    0    0  501 -0.00000000000E+00 -0.00000000000E+00 -0.14246997629E+04  0.14246997629E+04  0.00000000000E+00 0.  1.
         23    2    1    2    0    0 -0.84990946540E+03  0.10863814684E+04 -0.24997373948E+02  0.13832413349E+04  0.10080142599E+03 0.  0.
         11    1    3    3    0    0 -0.64641983653E+03  0.79212256468E+03 -0.57358230597E+02  0.10240150044E+04  0.00000000000E+00 0. -1.
        -11    1    3    3    0    0 -0.20348962886E+03  0.29425890375E+03  0.32360856648E+02  0.35922633051E+03  0.00000000000E+00 0.  1.
         22    1    1    2    0    0  0.84990946540E+03 -0.10863814684E+04 -0.60497657107E+02  0.13806631598E+04  0.00000000000E+00 0.  1.
<mgrwt>
<rscale>  0 0.27625819E+04</rscale>
<asrwt>0</asrwt>
<pdfrwt beam="1">  1        1 0.20603150E+00 0.27625819E+04</pdfrwt>
<pdfrwt beam="2">  1       -1 0.21918458E+00 0.27625819E+04</pdfrwt>
<totfact> 0.82096723E-01</totfact>
</mgrwt>
</event>
<event>
 6    1  0.9988873E-007  0.2079220E+04  0.7818608E-02  0.8570453E-01
          2   -1    0    0  501    0  0.00000000000E+00  0.00000000000E+00  0.12186229893E+04  0.12186229893E+04  0.00000000000E+00 0. -1.
         -2   -1    0    0    0  501 -0.00000000000E+00 -0.00000000000E+00 -0.88689396233E+03  0.88689396233E+03  0.00000000000E+00 0.  1.
         23    2    1    2    0    0 -0.74444836623E+03 -0.51322245208E+03  0.68163066862E+03  0.11359645734E+04  0.90523413001E+02 0.  0.
         11    1    3    3    0    0 -0.57904753544E+03 -0.35771281492E+03  0.48675832580E+03  0.83677247445E+03  0.00000000000E+00 0. -1.
        -11    1    3    3    0    0 -0.16540083079E+03 -0.15550963716E+03  0.19487234282E+03  0.29919209895E+03  0.00000000000E+00 0.  1.
         22    1    1    2    0    0  0.74444836623E+03  0.51322245208E+03 -0.34990164166E+03  0.96955237823E+03  0.00000000000E+00 0.  1.
<mgrwt>
<rscale>  0 0.20792204E+04</rscale>
<asrwt>0</asrwt>
<pdfrwt beam="1">  1        2 0.18748046E+00 0.20792204E+04</pdfrwt>
<pdfrwt beam="2">  1       -2 0.13644523E+00 0.20792204E+04</pdfrwt>
<totfact> 0.65434631E+00</totfact>
</mgrwt>
</event>
<event>
 6    1  0.9988873E-007  0.3591717E+04  0.7818608E-02  0.8092392E-01
         -2   -1    0    0    0  501 -0.00000000000E+00  0.00000000000E+00  0.23164431698E+04  0.23164431698E+04  0.00000000000E+00 0.  1.
          2   -1    0    0  501    0  0.00000000000E+00 -0.00000000000E+00 -0.13922670952E+04  0.13922670952E+04  0.00000000000E+00 0. -1.
         23    2    1    2    0    0  0.76606363196E+03 -0.16120499377E+04  0.26828337846E+03  0.18071967313E+04  0.91790874659E+02 0.  0.
         11    1    3    3    0    0  0.61337971941E+03 -0.12004080898E+04  0.20996189775E+03  0.13642940521E+04  0.00000000000E+00 0. -1.
        -11    1    3    3    0    0  0.15268391255E+03 -0.41164184790E+03  0.58321480712E+02  0.44290267916E+03  0.00000000000E+00 0.  1.
         22    1    1    2    0    0 -0.76606363196E+03  0.16120499377E+04  0.65589269614E+03  0.19015135336E+04  0.00000000000E+00 0.  1.
<mgrwt>
<rscale>  0 0.35917169E+04</rscale>
<asrwt>0</asrwt>
<pdfrwt beam="1">  1        2 0.21419494E+00 0.35917169E+04</pdfrwt>
<pdfrwt beam="2">  1       -2 0.35637587E+00 0.35917169E+04</pdfrwt>
<totfact> 0.16898107E-01</totfact>
</mgrwt>
</event>
<event>
 6    1  0.9988873E-007  0.3381897E+04  0.7818608E-02  0.8142364E-01
          1   -1    0    0  501    0  0.00000000000E+00  0.00000000000E+00  0.11656027820E+04  0.11656027820E+04  0.00000000000E+00 0. -1.
         -1   -1    0    0    0  501 -0.00000000000E+00 -0.00000000000E+00 -0.24530713899E+04  0.24530713899E+04  0.00000000000E+00 0.  1.
         23    2    1    2    0    0  0.15767086065E+04  0.36588827885E+03 -0.12523389415E+03  0.16260192113E+04  0.91491446047E+02 0.  0.
         13    1    3    3    0    0  0.52882342476E+03  0.78785718593E+02 -0.45560498895E+02  0.53659776657E+03  0.00000000000E+00 0.  1.
        -13    1    3    3    0    0  0.10478851818E+04  0.28710256026E+03 -0.79673395253E+02  0.10894214447E+04  0.00000000000E+00 0. -1.
         22    1    1    2    0    0 -0.15767086065E+04 -0.36588827885E+03 -0.11622347138E+04  0.19926549607E+04  0.00000000000E+00 0.  1.
<mgrwt>
<rscale>  0 0.33818970E+04</rscale>
<asrwt>0</asrwt>
<pdfrwt beam="1">  1        1 0.17932350E+00 0.33818970E+04</pdfrwt>
<pdfrwt beam="2">  1       -1 0.37739560E+00 0.33818970E+04</pdfrwt>
<totfact> 0.95022412E-02</totfact>
</mgrwt>
</event>
<event>
 6    1  0.9988873E-007  0.1511839E+04  0.7818608E-02  0.8876618E-01
         -1   -1    0    0    0  501 -0.00000000000E+00  0.00000000000E+00  0.12687359016E+04  0.12687359016E+04  0.00000000000E+00 0.  1.
          1   -1    0    0  501    0  0.00000000000E+00 -0.00000000000E+00 -0.45038101713E+03  0.45038101713E+03  0.00000000000E+00 0. -1.
         23    2    1    2    0    0  0.52216132954E+03 -0.32026594338E+03 -0.87625110549E+02  0.62548879184E+03  0.91298084115E+02 0.  0.
         11    1    3    3    0    0  0.32301485829E+03 -0.17813443950E+03 -0.94275644113E+02  0.38073399413E+03  0.00000000000E+00 0.  1.
        -11    1    3    3    0    0  0.19914647125E+03 -0.14213150387E+03  0.66505335640E+01  0.24475479771E+03  0.00000000000E+00 0. -1.
         22    1    1    2    0    0 -0.52216132954E+03  0.32026594338E+03  0.90597999506E+03  0.10936281269E+04  0.00000000000E+00 0.  1.
<mgrwt>
<rscale>  0 0.15118394E+04</rscale>
<asrwt>0</asrwt>
<pdfrwt beam="1">  1        1 0.69289388E-01 0.15118394E+04</pdfrwt>
<pdfrwt beam="2">  1       -1 0.19519014E+00 0.15118394E+04</pdfrwt>
<totfact> 0.80316986E+00</totfact>
</mgrwt>
</event>
<event>
 6    1  0.9988873E-007  0.2436170E+04  0.7818608E-02  0.8426085E-01
          1   -1    0    0  501    0  0.00000000000E+00  0.00000000000E+00  0.24503429742E+04  0.24503429742E+04  0.00000000000E+00 0. -1.
         -1   -1    0    0    0  501 -0.00000000000E+00 -0.00000000000E+00 -0.60551967606E+03  0.60551967606E+03  0.00000000000E+00 0.  1.
         23    2    1    2    0    0  0.65286560515E+03  0.90003472415E+03  0.30532200715E+03  0.11568207266E+04  0.93363066956E+02 0.  0.
         11    1    3    3    0    0  0.14803742695E+03  0.26468593684E+03  0.10539235627E+03  0.32106272549E+03  0.00000000000E+00 0. -1.
        -11    1    3    3    0    0  0.50482817820E+03  0.63534878730E+03  0.19992965088E+03  0.83575800106E+03  0.00000000000E+00 0.  1.
         22    1    1    2    0    0 -0.65286560515E+03 -0.90003472415E+03  0.15395012910E+04  0.18990419237E+04  0.00000000000E+00 0.  1.
<mgrwt>
<rscale>  0 0.24361698E+04</rscale>
<asrwt>0</asrwt>
<pdfrwt beam="1">  1        1 0.37697584E+00 0.24361698E+04</pdfrwt>
<pdfrwt beam="2">  1       -1 0.93156875E-01 0.24361698E+04</pdfrwt>
<totfact> 0.14653208E+00</totfact>
</mgrwt>
</event>
<event>
 6    1  0.9988873E-007  0.6805031E+03  0.7818608E-02  0.9751168E-01
         -1   -1    0    0    0  501 -0.00000000000E+00  0.00000000000E+00  0.18365891159E+03  0.18365891159E+03  0.00000000000E+00 0.  1.
          1   -1    0    0  501    0  0.00000000000E+00 -0.00000000000E+00 -0.63035944369E+03  0.63035944369E+03  0.00000000000E+00 0. -1.
         23    2    1    2    0    0 -0.27394642053E+03 -0.18829997985E+03 -0.26333894541E+03  0.43438037614E+03  0.93996740732E+02 0.  0.
         13    1    3    3    0    0 -0.17288362032E+03 -0.16950576627E+03 -0.19581234170E+03  0.31138950550E+03  0.00000000000E+00 0. -1.
        -13    1    3    3    0    0 -0.10106280021E+03 -0.18794213575E+02 -0.67526603715E+02  0.12299087063E+03  0.00000000000E+00 0.  1.
         22    1    1    2    0    0  0.27394642053E+03  0.18829997985E+03 -0.18336158670E+03  0.37963797914E+03  0.00000000000E+00 0.  1.
<mgrwt>
<rscale>  0 0.68050314E+03</rscale>
<asrwt>0</asrwt>
<pdfrwt beam="1">  1        1 0.96978375E-01 0.68050314E+03</pdfrwt>
<pdfrwt beam="2">  1       -1 0.28255217E-01 0.68050314E+03</pdfrwt>
<totfact> 0.36522018E+02</totfact>
</mgrwt>
</event>
<event>
 6    1  0.9988873E-007  0.1424853E+04  0.7818608E-02  0.8936023E-01
          2   -1    0    0  501    0  0.00000000000E+00  0.00000000000E+00  0.53349334066E+03  0.53349334066E+03  0.00000000000E+00 0. -1.
         -2   -1    0    0    0  501 -0.00000000000E+00 -0.00000000000E+00 -0.95137318890E+03  0.95137318890E+03  0.00000000000E+00 0.  1.
         23    2    1    2    0    0 -0.65777420160E+03  0.23396150789E+03 -0.78393855459E+02  0.70855755321E+03  0.92213459860E+02 0.  0.
         11    1    3    3    0    0 -0.55260556707E+03  0.23101386032E+03 -0.63720746974E+02  0.60232935344E+03  0.00000000000E+00 0. -1.
        -11    1    3    3    0    0 -0.10516863453E+03  0.29476475645E+01 -0.14673108485E+02  0.10622819978E+03  0.00000000000E+00 0.  1.
         22    1    1    2    0    0  0.65777420160E+03 -0.23396150789E+03 -0.33948599279E+03  0.77630897635E+03  0.00000000000E+00 0.  1.
<mgrwt>
<rscale>  0 0.14248526E+04</rscale>
<asrwt>0</asrwt>
<pdfrwt beam="1">  1        2 0.82075900E-01 0.14248526E+04</pdfrwt>
<pdfrwt beam="2">  1       -2 0.14636510E+00 0.14248526E+04</pdfrwt>
<totfact> 0.17713227E+01</totfact>
</mgrwt>
</event>
<event>
 6    1  0.9988873E-007  0.3332889E+04  0.7818608E-02  0.8154577E-01
         -1   -1    0    0    0  501 -0.00000000000E+00  0.00000000000E+00  0.18255924764E+04  0.18255924764E+04  0.00000000000E+00 0.  1.
          1   -1    0    0  501    0  0.00000000000E+00 -0.00000000000E+00 -0.15211705875E+04  0.15211705875E+04  0.00000000000E+00 0. -1.
         23    2    1    2    0    0  0.87852446423E+03  0.11702274954E+03  0.15679249051E+04  0.18034097570E+04  0.91644342600E+02 0.  0.
         13    1    3    3    0    0  0.47014491107E+03  0.32342041266E+02  0.76165331542E+03  0.89565507754E+03  0.00000000000E+00 0.  1.
        -13    1    3    3    0    0  0.40837955316E+03  0.84680708276E+02  0.80627158966E+03  0.90775467946E+03  0.00000000000E+00 0. -1.
         22    1    1    2    0    0 -0.87852446423E+03 -0.11702274954E+03 -0.12635030162E+04  0.15433533070E+04  0.00000000000E+00 0. -1.
<mgrwt>
<rscale>  0 0.33328892E+04</rscale>
<asrwt>0</asrwt>
<pdfrwt beam="1">  1        1 0.23402625E+00 0.33328892E+04</pdfrwt>
<pdfrwt beam="2">  1       -1 0.28086038E+00 0.33328892E+04</pdfrwt>
<totfact> 0.22989149E-01</totfact>
</mgrwt>
</event>
<event>
 6    1  0.9988873E-007  0.1722925E+04  0.7818608E-02  0.8748397E-01
         -2   -1    0    0    0  501 -0.00000000000E+00  0.00000000000E+00  0.11804147850E+04  0.11804147850E+04  0.00000000000E+00 0.  1.
          2   -1    0    0  501    0  0.00000000000E+00 -0.00000000000E+00 -0.62869194827E+03  0.62869194827E+03  0.00000000000E+00 0. -1.
         23    2    1    2    0    0 -0.17438578668E+03 -0.83007249572E+03  0.13543310486E+03  0.86426394655E+03  0.95808625252E+02 0.  0.
         13    1    3    3    0    0 -0.16293172973E+03 -0.58330365387E+03  0.11433833205E+03  0.61633039464E+03  0.00000000000E+00 0.  1.
        -13    1    3    3    0    0 -0.11454056950E+02 -0.24676884184E+03  0.21094772811E+02  0.24793355191E+03  0.00000000000E+00 0. -1.
         22    1    1    2    0    0  0.17438578668E+03  0.83007249572E+03  0.41628973187E+03  0.94484278671E+03  0.00000000000E+00 0.  1.
<mgrwt>
<rscale>  0 0.17229246E+04</rscale>
<asrwt>0</asrwt>
<pdfrwt beam="1">  1        2 0.96721839E-01 0.17229246E+04</pdfrwt>
<pdfrwt beam="2">  1       -2 0.18160227E+00 0.17229246E+04</pdfrwt>
<totfact> 0.78594637E+00</totfact>
</mgrwt>
</event>
<event>
 6    1  0.1575971E-006  0.2573229E+04  0.7818608E-02  0.8377352E-01
          2   -1    0    0  501    0  0.00000000000E+00  0.00000000000E+00  0.15629525266E+04  0.15629525266E+04  0.00000000000E+00 0. -1.
         -2   -1    0    0    0  501 -0.00000000000E+00 -0.00000000000E+00 -0.10591344273E+04  0.10591344273E+04  0.00000000000E+00 0.  1.
         23    2    1    2    0    0 -0.71493360219E+03 -0.38250680444E+03 -0.76353937760E+03  0.11175483251E+04  0.92088907394E+02 0.  0.
         13    1    3    3    0    0 -0.44926705402E+03 -0.19282315415E+03 -0.48052834761E+03  0.68551378357E+03  0.00000000000E+00 0. -1.
        -13    1    3    3    0    0 -0.26566654817E+03 -0.18968365030E+03 -0.28301102998E+03  0.43203454156E+03  0.00000000000E+00 0.  1.
         22    1    1    2    0    0  0.71493360219E+03  0.38250680444E+03  0.12673574770E+04  0.15045386287E+04  0.00000000000E+00 0. -1.
<mgrwt>
<rscale>  0 0.25732290E+04</rscale>
<asrwt>0</asrwt>
<pdfrwt beam="1">  1        2 0.24045424E+00 0.25732290E+04</pdfrwt>
<pdfrwt beam="2">  1       -2 0.16294376E+00 0.25732290E+04</pdfrwt>
<totfact> 0.24856809E+00</totfact>
</mgrwt>
</event>
<event>
 6    1  0.9988873E-007  0.3127334E+04  0.7818608E-02  0.8208276E-01
         -2   -1    0    0    0  501 -0.00000000000E+00  0.00000000000E+00  0.62975002213E+03  0.62975002213E+03  0.00000000000E+00 0.  1.
          2   -1    0    0  501    0  0.00000000000E+00 -0.00000000000E+00 -0.38825790925E+04  0.38825790925E+04  0.00000000000E+00 0. -1.
         23    2    1    2    0    0 -0.59563257252E+03  0.17277217966E+03 -0.36968101762E+04  0.37496053050E+04  0.92228394490E+02 0.  0.
         13    1    3    3    0    0 -0.11762285732E+03  0.33797771602E+01 -0.82717185728E+03  0.83549975520E+03  0.00000000000E+00 0. -1.
        -13    1    3    3    0    0 -0.47800971520E+03  0.16939240250E+03 -0.28696383189E+04  0.29141055498E+04  0.00000000000E+00 0.  1.
         22    1    1    2    0    0  0.59563257252E+03 -0.17277217966E+03  0.44398110581E+03  0.76272380967E+03  0.00000000000E+00 0.  1.
<mgrwt>
<rscale>  0 0.31273339E+04</rscale>
<asrwt>0</asrwt>
<pdfrwt beam="1">  1        2 0.59731986E+00 0.31273339E+04</pdfrwt>
<pdfrwt beam="2">  1       -2 0.96884618E-01 0.31273339E+04</pdfrwt>
<totfact> 0.31941395E-01</totfact>
</mgrwt>
</event>
<event>
 6    1  0.9988873E-007  0.2709333E+04  0.7818608E-02  0.8331983E-01
         -2   -1    0    0    0  501 -0.00000000000E+00  0.00000000000E+00  0.76252808305E+03  0.76252808305E+03  0.00000000000E+00 0.  1.
          2   -1    0    0  501    0  0.00000000000E+00 -0.00000000000E+00 -0.24066285087E+04  0.24066285087E+04  0.00000000000E+00 0. -1.
         23    2    1    2    0    0 -0.51843189998E+03 -0.74442928032E+03  0.35147672276E+03  0.97706290225E+03  0.90384954504E+02 0.  0.
         11    1    3    3    0    0 -0.76839533036E+02 -0.80948871223E+02  0.17756492940E+02  0.11301471865E+03  0.00000000000E+00 0. -1.
        -11    1    3    3    0    0 -0.44159236694E+03 -0.66348040910E+03  0.33372022982E+03  0.86404818360E+03  0.00000000000E+00 0.  1.
         22    1    1    2    0    0  0.51843189998E+03  0.74442928032E+03 -0.19955771484E+04  0.21920936895E+04  0.00000000000E+00 0. -1.
<mgrwt>
<rscale>  0 0.27093334E+04</rscale>
<asrwt>0</asrwt>
<pdfrwt beam="1">  1        2 0.37025054E+00 0.27093334E+04</pdfrwt>
<pdfrwt beam="2">  1       -2 0.11731201E+00 0.27093334E+04</pdfrwt>
<totfact> 0.19397579E+00</totfact>
</mgrwt>
</event>
<event>
 6    1  0.9988873E-007  0.2116771E+04  0.7818608E-02  0.8553891E-01
          2   -1    0    0  501    0  0.00000000000E+00  0.00000000000E+00  0.10144022232E+04  0.10144022232E+04  0.00000000000E+00 0. -1.
         -2   -1    0    0    0  501 -0.00000000000E+00 -0.00000000000E+00 -0.11042759409E+04  0.11042759409E+04  0.00000000000E+00 0.  1.
         23    2    1    2    0    0 -0.96543529901E+03  0.42613630962E+03 -0.93233966963E+02  0.10633731076E+04  0.91718713472E+02 0.  0.
         13    1    3    3    0    0 -0.72116137538E+03  0.35238537946E+03 -0.46771465056E+02  0.80401290719E+03  0.00000000000E+00 0. -1.
        -13    1    3    3    0    0 -0.24427392363E+03  0.73750930167E+02 -0.46462501907E+02  0.25936020040E+03  0.00000000000E+00 0.  1.
         22    1    1    2    0    0  0.96543529901E+03 -0.42613630962E+03  0.33602492416E+01  0.10553050565E+04  0.00000000000E+00 0. -1.
<mgrwt>
<rscale>  0 0.21167711E+04</rscale>
<asrwt>0</asrwt>
<pdfrwt beam="1">  1        2 0.15606188E+00 0.21167711E+04</pdfrwt>
<pdfrwt beam="2">  1       -2 0.16988861E+00 0.21167711E+04</pdfrwt>
<totfact> 0.48446129E+00</totfact>
</mgrwt>
</event>
<event>
 6    1  0.9988873E-007  0.2057847E+04  0.7818608E-02  0.8580043E-01
          2   -1    0    0  501    0  0.00000000000E+00  0.00000000000E+00  0.21264413240E+04  0.21264413240E+04  0.00000000000E+00 0. -1.
         -2   -1    0    0    0  501 -0.00000000000E+00 -0.00000000000E+00 -0.49786632298E+03  0.49786632298E+03  0.00000000000E+00 0.  1.
         23    2    1    2    0    0  0.29282024838E+03  0.97898266927E+03  0.68577091598E+03  0.12339730443E+04  0.90867817693E+02 0.  0.
         11    1    3    3    0    0  0.10846390564E+03  0.52105541625E+03  0.35531966210E+03  0.63993376838E+03  0.00000000000E+00 0. -1.
        -11    1    3    3    0    0  0.18435634274E+03  0.45792725302E+03  0.33045125388E+03  0.59403927594E+03  0.00000000000E+00 0.  1.
         22    1    1    2    0    0 -0.29282024838E+03 -0.97898266927E+03  0.94280408507E+03  0.13903346027E+04  0.00000000000E+00 0. -1.
<mgrwt>
<rscale>  0 0.20578470E+04</rscale>
<asrwt>0</asrwt>
<pdfrwt beam="1">  1        2 0.32714481E+00 0.20578470E+04</pdfrwt>
<pdfrwt beam="2">  1       -2 0.76594820E-01 0.20578470E+04</pdfrwt>
<totfact> 0.80016112E+00</totfact>
</mgrwt>
</event>
<event>
 6    1  0.9988873E-007  0.1337382E+04  0.7818608E-02  0.9000435E-01
         -2   -1    0    0    0  501 -0.00000000000E+00  0.00000000000E+00  0.18769828385E+03  0.18769828385E+03  0.00000000000E+00 0.  1.
          2   -1    0    0  501    0  0.00000000000E+00 -0.00000000000E+00 -0.23822697086E+04  0.23822697086E+04  0.00000000000E+00 0. -1.
         23    2    1    2    0    0 -0.32891240396E+02 -0.40467047415E+03 -0.87994490079E+02  0.42462270369E+03  0.87871405245E+02 0.  0.
         13    1    3    3    0    0  0.17329203205E+02 -0.24144791646E+03 -0.28306282835E+02  0.24371836881E+03  0.00000000000E+00 0.  1.
        -13    1    3    3    0    0 -0.50220443601E+02 -0.16322255768E+03 -0.59688207244E+02  0.18090433487E+03  0.00000000000E+00 0. -1.
         22    1    1    2    0    0  0.32891240396E+02  0.40467047415E+03 -0.21065769346E+04  0.21453452887E+04  0.00000000000E+00 0. -1.
<mgrwt>
<rscale>  0 0.13373824E+04</rscale>
<asrwt>0</asrwt>
<pdfrwt beam="1">  1        2 0.36650303E+00 0.13373824E+04</pdfrwt>
<pdfrwt beam="2">  1       -2 0.28876659E-01 0.13373824E+04</pdfrwt>
<totfact> 0.43946942E+01</totfact>
</mgrwt>
</event>
<event>
 6    1  0.9988873E-007  0.1465306E+04  0.7818608E-02  0.8907857E-01
          4   -1    0    0  501    0  0.00000000000E+00  0.00000000000E+00  0.51466025102E+03  0.51466025102E+03  0.00000000000E+00 0. -1.
         -4   -1    0    0    0  501 -0.00000000000E+00 -0.00000000000E+00 -0.10429803757E+04  0.10429803757E+04  0.00000000000E+00 0.  1.
         23    2    1    2    0    0  0.64732414980E+02  0.52782114638E+03  0.26616690051E+03  0.60160972694E+03  0.91126266834E+02 0.  0.
         13    1    3    3    0    0  0.70347755766E+02  0.20713180209E+03  0.10448503903E+03  0.24242424293E+03  0.00000000000E+00 0.  1.
        -13    1    3    3    0    0 -0.56153407860E+01  0.32068934429E+03  0.16168186148E+03  0.35918548401E+03  0.00000000000E+00 0. -1.
         22    1    1    2    0    0 -0.64732414980E+02 -0.52782114638E+03 -0.79448702516E+03  0.95603089974E+03  0.00000000000E+00 0.  1.
<mgrwt>
<rscale>  0 0.14653062E+04</rscale>
<asrwt>0</asrwt>
<pdfrwt beam="1">  1        4 0.79178500E-01 0.14653062E+04</pdfrwt>
<pdfrwt beam="2">  1       -4 0.16045852E+00 0.14653062E+04</pdfrwt>
<totfact> 0.68282279E-01</totfact>
</mgrwt>
</event>
<event>
 6    1  0.9988873E-007  0.5974547E+03  0.7818608E-02  0.9910701E-01
         -2   -1    0    0    0  501 -0.00000000000E+00  0.00000000000E+00  0.29540507732E+02  0.29540507732E+02  0.00000000000E+00 0.  1.
          2   -1    0    0  501    0  0.00000000000E+00 -0.00000000000E+00 -0.30208702916E+04  0.30208702916E+04  0.00000000000E+00 0. -1.
         23    2    1    2    0    0  0.18325667209E+03 -0.80467124745E+02 -0.26143609043E+04  0.26236046347E+04  0.91435087065E+02 0.  0.
         13    1    3    3    0    0  0.64743963699E+02  0.96312472085E+01 -0.10993151297E+04  0.11012621378E+04  0.00000000000E+00 0. -1.
        -13    1    3    3    0    0  0.11851270839E+03 -0.90098371954E+02 -0.15150457745E+04  0.15223424968E+04  0.00000000000E+00 0.  1.
         22    1    1    2    0    0 -0.18325667209E+03  0.80467124745E+02 -0.37696887962E+03  0.42680616471E+03  0.00000000000E+00 0.  1.
<mgrwt>
<rscale>  0 0.59745474E+03</rscale>
<asrwt>0</asrwt>
<pdfrwt beam="1">  1        2 0.46474943E+00 0.59745474E+03</pdfrwt>
<pdfrwt beam="2">  1       -2 0.45446919E-02 0.59745474E+03</pdfrwt>
<totfact> 0.43435647E+02</totfact>
</mgrwt>
</event>
<event>
 6    1  0.9988873E-007  0.6304904E+03  0.7818608E-02  0.9844092E-01
          3   -1    0    0  501    0  0.00000000000E+00  0.00000000000E+00  0.38940252093E+02  0.38940252093E+02  0.00000000000E+00 0. -1.
         -3   -1    0    0    0  501 -0.00000000000E+00 -0.00000000000E+00 -0.25521030765E+04  0.25521030765E+04  0.00000000000E+00 0.  1.
         23    2    1    2    0    0  0.95983952014E+02 -0.21120470932E+03 -0.21194219065E+04  0.21340397633E+04  0.91411953196E+02 0.  0.
         13    1    3    3    0    0  0.53858450878E+01 -0.96361657535E+02 -0.61547831265E+03  0.62299930154E+03  0.00000000000E+00 0. -1.
        -13    1    3    3    0    0  0.90598106926E+02 -0.11484305178E+03 -0.15039435939E+04  0.15110404618E+04  0.00000000000E+00 0.  1.
         22    1    1    2    0    0 -0.95983952014E+02  0.21120470932E+03 -0.39374091789E+03  0.45700356531E+03  0.00000000000E+00 0. -1.
<mgrwt>
<rscale>  0 0.63049040E+03</rscale>
<asrwt>0</asrwt>
<pdfrwt beam="1">  1        3 0.59908093E-02 0.63049040E+03</pdfrwt>
<pdfrwt beam="2">  1       -3 0.39263116E+00 0.63049040E+03</pdfrwt>
<totfact> 0.58501887E+00</totfact>
</mgrwt>
</event>
<event>
 6    1  0.9988873E-007  0.3604899E+04  0.7818608E-02  0.8089370E-01
         -1   -1    0    0    0  501 -0.00000000000E+00  0.00000000000E+00  0.25255119403E+04  0.25255119403E+04  0.00000000000E+00 0.  1.
          1   -1    0    0  501    0  0.00000000000E+00 -0.00000000000E+00 -0.12864021417E+04  0.12864021417E+04  0.00000000000E+00 0. -1.
         23    2    1    2    0    0  0.10584076837E+03  0.61602388922E+03  0.24063696865E+04  0.24878357814E+04  0.89577378460E+02 0.  0.
         11    1    3    3    0    0  0.60029674981E+02  0.35259328717E+03  0.11988366976E+04  0.12510535622E+04  0.00000000000E+00 0. -1.
        -11    1    3    3    0    0  0.45811093386E+02  0.26343060205E+03  0.12075329889E+04  0.12367822192E+04  0.00000000000E+00 0.  1.
         22    1    1    2    0    0 -0.10584076837E+03 -0.61602388922E+03 -0.11672598879E+04  0.13240783006E+04  0.00000000000E+00 0. -1.
<mgrwt>
<rscale>  0 0.36048989E+04</rscale>
<asrwt>0</asrwt>
<pdfrwt beam="1">  1        1 0.19790802E+00 0.36048989E+04</pdfrwt>
<pdfrwt beam="2">  1       -1 0.38854030E+00 0.36048989E+04</pdfrwt>
<totfact> 0.64016054E-02</totfact>
</mgrwt>
</event>
<event>
 6    1  0.1064553E-006  0.3162803E+04  0.7818608E-02  0.8198710E-01
         -1   -1    0    0    0  501 -0.00000000000E+00  0.00000000000E+00  0.81991487788E+03  0.81991487788E+03  0.00000000000E+00 0.  1.
          1   -1    0    0  501    0  0.00000000000E+00 -0.00000000000E+00 -0.30501109642E+04  0.30501109642E+04  0.00000000000E+00 0. -1.
         23    2    1    2    0    0 -0.68265523622E+03 -0.10286596949E+04 -0.23227085828E+04  0.26319961568E+04  0.90937722386E+02 0.  0.
         11    1    3    3    0    0 -0.41216849266E+03 -0.61774647445E+03 -0.13013049788E+04  0.14982951048E+04  0.00000000000E+00 0.  1.
        -11    1    3    3    0    0 -0.27048674357E+03 -0.41091322045E+03 -0.10214036040E+04  0.11337010521E+04  0.00000000000E+00 0. -1.
         22    1    1    2    0    0  0.68265523622E+03  0.10286596949E+04  0.92512496556E+02  0.12380296852E+04  0.00000000000E+00 0.  1.
<mgrwt>
<rscale>  0 0.31628034E+04</rscale>
<asrwt>0</asrwt>
<pdfrwt beam="1">  1        1 0.46924784E+00 0.31628034E+04</pdfrwt>
<pdfrwt beam="2">  1       -1 0.12614075E+00 0.31628034E+04</pdfrwt>
<totfact> 0.25199494E-01</totfact>
</mgrwt>
</event>
<event>
 6    1  0.9988873E-007  0.2114030E+04  0.7818608E-02  0.8555088E-01
          2   -1    0    0  501    0  0.00000000000E+00  0.00000000000E+00  0.15083966267E+04  0.15083966267E+04  0.00000000000E+00 0. -1.
         -2   -1    0    0    0  501 -0.00000000000E+00 -0.00000000000E+00 -0.74070758225E+03  0.74070758225E+03  0.00000000000E+00 0.  1.
         23    2    1    2    0    0  0.40751586442E+03  0.96657511146E+03  0.26367216886E+03  0.10853303320E+04  0.89901563304E+02 0.  0.
         11    1    3    3    0    0  0.13179766546E+03  0.35171199795E+03  0.13619484382E+03  0.39952595611E+03  0.00000000000E+00 0. -1.
        -11    1    3    3    0    0  0.27571819895E+03  0.61486311351E+03  0.12747732504E+03  0.68580437589E+03  0.00000000000E+00 0.  1.
         22    1    1    2    0    0 -0.40751586442E+03 -0.96657511146E+03  0.50401687563E+03  0.11637738770E+04  0.00000000000E+00 0. -1.
<mgrwt>
<rscale>  0 0.21140301E+04</rscale>
<asrwt>0</asrwt>
<pdfrwt beam="1">  1        2 0.23206102E+00 0.21140301E+04</pdfrwt>
<pdfrwt beam="2">  1       -2 0.11395501E+00 0.21140301E+04</pdfrwt>
<totfact> 0.69696224E+00</totfact>
</mgrwt>
</event>
<event>
 6    1  0.9988873E-007  0.8004118E+03  0.7818608E-02  0.9559421E-01
         -1   -1    0    0    0  501 -0.00000000000E+00  0.00000000000E+00  0.58436719319E+02  0.58436719319E+02  0.00000000000E+00 0.  1.
          1   -1    0    0  501    0  0.00000000000E+00 -0.00000000000E+00 -0.27408242018E+04  0.27408242018E+04  0.00000000000E+00 0. -1.
         23    2    1    2    0    0 -0.25127063917E+03  0.29304967565E+03 -0.16319803691E+04  0.16801674709E+04  0.10289683473E+03 0.  0.
         11    1    3    3    0    0 -0.12906489249E+03  0.12790592485E+03 -0.97593350797E+03  0.99270533597E+03  0.00000000000E+00 0. -1.
        -11    1    3    3    0    0 -0.12220574667E+03  0.16514375079E+03 -0.65604686113E+03  0.68746213492E+03  0.00000000000E+00 0.  1.
         22    1    1    2    0    0  0.25127063917E+03 -0.29304967565E+03 -0.10504071134E+04  0.11190934502E+04  0.00000000000E+00 0.  1.
<mgrwt>
<rscale>  0 0.80041183E+03</rscale>
<asrwt>0</asrwt>
<pdfrwt beam="1">  1        1 0.42166524E+00 0.80041183E+03</pdfrwt>
<pdfrwt beam="2">  1       -1 0.89902650E-02 0.80041183E+03</pdfrwt>
<totfact> 0.71537689E+01</totfact>
</mgrwt>
</event>
<event>
 6    1  0.9988873E-007  0.3829259E+03  0.7818608E-02  0.1049858E+00
         -1   -1    0    0    0  501 -0.00000000000E+00  0.00000000000E+00  0.75374224664E+03  0.75374224664E+03  0.00000000000E+00 0.  1.
          1   -1    0    0  501    0  0.00000000000E+00 -0.00000000000E+00 -0.48634740082E+02  0.48634740082E+02  0.00000000000E+00 0. -1.
         23    2    1    2    0    0  0.15343785839E+03  0.41294014780E+02  0.55259111352E+03  0.58212798630E+03  0.90926792778E+02 0.  0.
         11    1    3    3    0    0  0.33975663783E+02 -0.26716020013E+02  0.95748574914E+02  0.10505180176E+03  0.00000000000E+00 0.  1.
        -11    1    3    3    0    0  0.11946219460E+03  0.68010034793E+02  0.45684253861E+03  0.47707618454E+03  0.00000000000E+00 0. -1.
         22    1    1    2    0    0 -0.15343785839E+03 -0.41294014780E+02  0.15251639304E+03  0.22024900042E+03  0.00000000000E+00 0. -1.
<mgrwt>
<rscale>  0 0.38292588E+03</rscale>
<asrwt>0</asrwt>
<pdfrwt beam="1">  1        1 0.74822682E-02 0.38292588E+03</pdfrwt>
<pdfrwt beam="2">  1       -1 0.11596034E+00 0.38292588E+03</pdfrwt>
<totfact> 0.68480253E+02</totfact>
</mgrwt>
</event>
<event>
 6    1  0.9988873E-007  0.1715409E+04  0.7818608E-02  0.8752625E-01
         -2   -1    0    0    0  501 -0.00000000000E+00  0.00000000000E+00  0.41297071291E+03  0.41297071291E+03  0.00000000000E+00 0.  1.
          2   -1    0    0  501    0  0.00000000000E+00 -0.00000000000E+00 -0.17813776770E+04  0.17813776770E+04  0.00000000000E+00 0. -1.
         23    2    1    2    0    0 -0.39949017638E+03  0.28727561984E+03  0.20862611297E+03  0.54233355677E+03  0.92093153987E+02 0.  0.
         13    1    3    3    0    0 -0.63850860803E+02  0.86096187921E+02  0.65770439197E+02  0.12575864452E+03  0.00000000000E+00 0. -1.
        -13    1    3    3    0    0 -0.33563931558E+03  0.20117943192E+03  0.14285567377E+03  0.41657491225E+03  0.00000000000E+00 0.  1.
         22    1    1    2    0    0  0.39949017638E+03 -0.28727561984E+03 -0.15770330771E+04  0.16520148332E+04  0.00000000000E+00 0. -1.
<mgrwt>
<rscale>  0 0.17154088E+04</rscale>
<asrwt>0</asrwt>
<pdfrwt beam="1">  1        2 0.27405810E+00 0.17154088E+04</pdfrwt>
<pdfrwt beam="2">  1       -2 0.63533956E-01 0.17154088E+04</pdfrwt>
<totfact> 0.19253733E+01</totfact>
</mgrwt>
</event>
<event>
 6    1  0.9988873E-007  0.3691652E+04  0.7818608E-02  0.8069814E-01
          1   -1    0    0  501    0  0.00000000000E+00  0.00000000000E+00  0.11523862555E+04  0.11523862555E+04  0.00000000000E+00 0. -1.
         -1   -1    0    0    0  501 -0.00000000000E+00 -0.00000000000E+00 -0.29565383915E+04  0.29565383915E+04  0.00000000000E+00 0.  1.
         23    2    1    2    0    0  0.16346250740E+04 -0.32945758359E+03 -0.17805627711E+04  0.24412622442E+04  0.93894254863E+02 0.  0.
         11    1    3    3    0    0  0.61702662308E+03 -0.12020451550E+03 -0.60567614455E+03  0.87293445986E+03  0.00000000000E+00 0. -1.
        -11    1    3    3    0    0  0.10175984509E+04 -0.20925306809E+03 -0.11748866266E+04  0.15683277843E+04  0.00000000000E+00 0.  1.
         22    1    1    2    0    0 -0.16346250740E+04  0.32945758359E+03 -0.23589364871E+02  0.16676624029E+04  0.00000000000E+00 0. -1.
<mgrwt>
<rscale>  0 0.36916523E+04</rscale>
<asrwt>0</asrwt>
<pdfrwt beam="1">  1        1 0.17729019E+00 0.36916523E+04</pdfrwt>
<pdfrwt beam="2">  1       -1 0.45485206E+00 0.36916523E+04</pdfrwt>
<totfact> 0.27852844E-02</totfact>
</mgrwt>
</event>
<event>
 6    1  0.9988873E-007  0.1989447E+04  0.7818608E-02  0.8611571E-01
          1   -1    0    0  501    0  0.00000000000E+00  0.00000000000E+00  0.11401941007E+04  0.11401941007E+04  0.00000000000E+00 0. -1.
         -1   -1    0    0    0  501 -0.00000000000E+00 -0.00000000000E+00 -0.86781234671E+03  0.86781234671E+03  0.00000000000E+00 0.  1.
         23    2    1    2    0    0 -0.88302084014E+03  0.32211238826E+03  0.45819710544E+03  0.10498783038E+04  0.93902452323E+02 0.  0.
         11    1    3    3    0    0 -0.27207263863E+03  0.13327609233E+03  0.18104128180E+03  0.35293339767E+03  0.00000000000E+00 0.  1.
        -11    1    3    3    0    0 -0.61094820151E+03  0.18883629592E+03  0.27715582364E+03  0.69694490612E+03  0.00000000000E+00 0. -1.
         22    1    1    2    0    0  0.88302084014E+03 -0.32211238826E+03 -0.18581535144E+03  0.95812814363E+03  0.00000000000E+00 0.  1.
<mgrwt>
<rscale>  0 0.19894467E+04</rscale>
<asrwt>0</asrwt>
<pdfrwt beam="1">  1        1 0.17541448E+00 0.19894467E+04</pdfrwt>
<pdfrwt beam="2">  1       -1 0.13350959E+00 0.19894467E+04</pdfrwt>
<totfact> 0.52058798E+00</totfact>
</mgrwt>
</event>
<event>
 6    1  0.1341313E-006  0.1882128E+04  0.7818608E-02  0.8663804E-01
         -1   -1    0    0    0  501 -0.00000000000E+00  0.00000000000E+00  0.70096605666E+03  0.70096605666E+03  0.00000000000E+00 0.  1.
          1   -1    0    0  501    0  0.00000000000E+00 -0.00000000000E+00 -0.12634019330E+04  0.12634019330E+04  0.00000000000E+00 0. -1.
         23    2    1    2    0    0 -0.63278146559E+03  0.20398021644E+03  0.41012423145E+03  0.78627908166E+03  0.89513111566E+02 0.  0.
         13    1    3    3    0    0 -0.42460348559E+03  0.17983801474E+03  0.28973774085E+03  0.54458956104E+03  0.00000000000E+00 0.  1.
        -13    1    3    3    0    0 -0.20817798000E+03  0.24142201709E+02  0.12038649059E+03  0.24168952062E+03  0.00000000000E+00 0. -1.
         22    1    1    2    0    0  0.63278146559E+03 -0.20398021644E+03 -0.97256010779E+03  0.11780889080E+04  0.00000000000E+00 0. -1.
<mgrwt>
<rscale>  0 0.18821284E+04</rscale>
<asrwt>0</asrwt>
<pdfrwt beam="1">  1        1 0.19436953E+00 0.18821284E+04</pdfrwt>
<pdfrwt beam="2">  1       -1 0.10784093E+00 0.18821284E+04</pdfrwt>
<totfact> 0.72022941E+00</totfact>
</mgrwt>
</event>
<event>
 6    1  0.9988873E-007  0.2183846E+04  0.7818608E-02  0.8525182E-01
          2   -1    0    0  501    0  0.00000000000E+00  0.00000000000E+00  0.15811289250E+04  0.15811289250E+04  0.00000000000E+00 0. -1.
         -2   -1    0    0    0  501 -0.00000000000E+00 -0.00000000000E+00 -0.75407865934E+03  0.75407865934E+03  0.00000000000E+00 0.  1.
         23    2    1    2    0    0  0.29020376488E+02 -0.10710322786E+04  0.62832000917E+03  0.12455076078E+04  0.92470769882E+02 0.  0.
         13    1    3    3    0    0 -0.27174438391E+02 -0.50717439582E+03  0.27221582947E+03  0.57625148649E+03  0.00000000000E+00 0. -1.
        -13    1    3    3    0    0  0.56194814879E+02 -0.56385788274E+03  0.35610417970E+03  0.66925612133E+03  0.00000000000E+00 0.  1.
         22    1    1    2    0    0 -0.29020376488E+02  0.10710322786E+04  0.19873025650E+03  0.10896999765E+04  0.00000000000E+00 0.  1.
<mgrwt>
<rscale>  0 0.21838458E+04</rscale>
<asrwt>0</asrwt>
<pdfrwt beam="1">  1        2 0.24325060E+00 0.21838458E+04</pdfrwt>
<pdfrwt beam="2">  1       -2 0.11601210E+00 0.21838458E+04</pdfrwt>
<totfact> 0.60368634E+00</totfact>
</mgrwt>
</event>
<event>
 6    1  0.9988873E-007  0.6549038E+04  0.7818608E-02  0.7625820E-01
          2   -1    0    0  501    0  0.00000000000E+00  0.00000000000E+00  0.39291649948E+04  0.39291649948E+04  0.00000000000E+00 0. -1.
         -2   -1    0    0    0  501 -0.00000000000E+00 -0.00000000000E+00 -0.27289449071E+04  0.27289449071E+04  0.00000000000E+00 0.  1.
         23    2    1    2    0    0 -0.14533119732E+04  0.17799739802E+04  0.29709900327E+04  0.37570671136E+04  0.91369909985E+02 0.  0.
         11    1    3    3    0    0 -0.42997990640E+03  0.56270010972E+03  0.85805364148E+03  0.11125512056E+04  0.00000000000E+00 0. -1.
        -11    1    3    3    0    0 -0.10233320668E+04  0.12172738705E+04  0.21129363912E+04  0.26445159081E+04  0.00000000000E+00 0.  1.
         22    1    1    2    0    0  0.14533119732E+04 -0.17799739802E+04 -0.17707699449E+04  0.29010427883E+04  0.00000000000E+00 0.  1.
<mgrwt>
<rscale>  0 0.65490380E+04</rscale>
<asrwt>0</asrwt>
<pdfrwt beam="1">  1        2 0.60448692E+00 0.65490380E+04</pdfrwt>
<pdfrwt beam="2">  1       -2 0.41983768E+00 0.65490380E+04</pdfrwt>
<totfact> 0.13796373E-03</totfact>
</mgrwt>
</event>
<event>
 6    1  0.9988873E-007  0.3065966E+04  0.7818608E-02  0.8225141E-01
          2   -1    0    0  501    0  0.00000000000E+00  0.00000000000E+00  0.11255138711E+04  0.11255138711E+04  0.00000000000E+00 0. -1.
         -2   -1    0    0    0  501 -0.00000000000E+00 -0.00000000000E+00 -0.20879674212E+04  0.20879674212E+04  0.00000000000E+00 0.  1.
         23    2    1    2    0    0 -0.49547235621E+03 -0.47351170514E+03 -0.19173291204E+04  0.20381117567E+04  0.89679352521E+02 0.  0.
         13    1    3    3    0    0 -0.45808946558E+03 -0.41812978247E+03 -0.17884260738E+04  0.18929200445E+04  0.00000000000E+00 0. -1.
        -13    1    3    3    0    0 -0.37382890629E+02 -0.55381922675E+02 -0.12890304657E+03  0.14519171218E+03  0.00000000000E+00 0.  1.
         22    1    1    2    0    0  0.49547235621E+03  0.47351170514E+03  0.95487557020E+03  0.11753695356E+04  0.00000000000E+00 0. -1.
<mgrwt>
<rscale>  0 0.30659656E+04</rscale>
<asrwt>0</asrwt>
<pdfrwt beam="1">  1        2 0.17315598E+00 0.30659656E+04</pdfrwt>
<pdfrwt beam="2">  1       -2 0.32122575E+00 0.30659656E+04</pdfrwt>
<totfact> 0.42088803E-01</totfact>
</mgrwt>
</event>
<event>
 6    1  0.9988873E-007  0.2405513E+04  0.7818608E-02  0.8437442E-01
          2   -1    0    0  501    0  0.00000000000E+00  0.00000000000E+00  0.18936495365E+04  0.18936495365E+04  0.00000000000E+00 0. -1.
         -2   -1    0    0    0  501 -0.00000000000E+00 -0.00000000000E+00 -0.76393416778E+03  0.76393416778E+03  0.00000000000E+00 0.  1.
         23    2    1    2    0    0  0.43543185740E+03 -0.12683515355E+03 -0.66309358195E+03  0.80829952055E+03  0.89257816969E+02 0.  0.
         13    1    3    3    0    0  0.98838049345E+02  0.75380053124E+01 -0.12497073067E+03  0.15951007820E+03  0.00000000000E+00 0.  1.
        -13    1    3    3    0    0  0.33659380806E+03 -0.13437315886E+03 -0.53812285128E+03  0.64878944236E+03  0.00000000000E+00 0. -1.
         22    1    1    2    0    0 -0.43543185740E+03  0.12683515355E+03  0.17928089507E+04  0.18492841838E+04  0.00000000000E+00 0. -1.
<mgrwt>
<rscale>  0 0.24055133E+04</rscale>
<asrwt>0</asrwt>
<pdfrwt beam="1">  1        2 0.29133070E+00 0.24055133E+04</pdfrwt>
<pdfrwt beam="2">  1       -2 0.11752833E+00 0.24055133E+04</pdfrwt>
<totfact> 0.38469687E+00</totfact>
</mgrwt>
</event>
<event>
 6    1  0.9988873E-007  0.1050034E+04  0.7818608E-02  0.9255309E-01
         -1   -1    0    0    0  501 -0.00000000000E+00  0.00000000000E+00  0.37989760757E+03  0.37989760757E+03  0.00000000000E+00 0.  1.
          1   -1    0    0  501    0  0.00000000000E+00 -0.00000000000E+00 -0.72557123446E+03  0.72557123446E+03  0.00000000000E+00 0. -1.
         23    2    1    2    0    0 -0.46081422872E+03  0.21066976728E+03 -0.45595356486E+02  0.51658984546E+03  0.89747577479E+02 0.  0.
         11    1    3    3    0    0 -0.12505855482E+03  0.93182053494E+02  0.11234370930E+02  0.15636095522E+03  0.00000000000E+00 0. -1.
        -11    1    3    3    0    0 -0.33575567389E+03  0.11748771379E+03 -0.56829727416E+02  0.36022889024E+03  0.00000000000E+00 0.  1.
         22    1    1    2    0    0  0.46081422872E+03 -0.21066976728E+03 -0.30007827040E+03  0.58887899657E+03  0.00000000000E+00 0. -1.
<mgrwt>
<rscale>  0 0.10500339E+04</rscale>
<asrwt>0</asrwt>
<pdfrwt beam="1">  1        1 0.11162634E+00 0.10500339E+04</pdfrwt>
<pdfrwt beam="2">  1       -1 0.58445786E-01 0.10500339E+04</pdfrwt>
<totfact> 0.76469550E+01</totfact>
</mgrwt>
</event>
<event>
 6    1  0.9988873E-007  0.5251546E+04  0.7818608E-02  0.7790833E-01
         -2   -1    0    0    0  501 -0.00000000000E+00  0.00000000000E+00  0.23039509410E+04  0.23039509410E+04  0.00000000000E+00 0.  1.
          2   -1    0    0  501    0  0.00000000000E+00 -0.00000000000E+00 -0.29925481759E+04  0.29925481759E+04  0.00000000000E+00 0. -1.
         23    2    1    2    0    0  0.17688412863E+04  0.12294400439E+03  0.16077810733E+04  0.23952462739E+04  0.91268882292E+02 0.  0.
         13    1    3    3    0    0  0.14319458882E+03  0.36274633692E+01  0.98991318126E+02  0.17411814903E+03  0.00000000000E+00 0. -1.
        -13    1    3    3    0    0  0.16256466975E+04  0.11931654102E+03  0.15087897551E+04  0.22211281249E+04  0.00000000000E+00 0.  1.
         22    1    1    2    0    0 -0.17688412863E+04 -0.12294400439E+03 -0.22963783082E+04  0.29012528429E+04  0.00000000000E+00 0. -1.
<mgrwt>
<rscale>  0 0.52515461E+04</rscale>
<asrwt>0</asrwt>
<pdfrwt beam="1">  1        2 0.46039203E+00 0.52515461E+04</pdfrwt>
<pdfrwt beam="2">  1       -2 0.35445399E+00 0.52515461E+04</pdfrwt>
<totfact> 0.18309989E-02</totfact>
</mgrwt>
</event>
<event>
 6    1  0.9988873E-007  0.9152715E+03  0.7818608E-02  0.9406690E-01
         -1   -1    0    0    0  501 -0.00000000000E+00  0.00000000000E+00  0.98376501383E+02  0.98376501383E+02  0.00000000000E+00 0.  1.
          1   -1    0    0  501    0  0.00000000000E+00 -0.00000000000E+00 -0.21288668674E+04  0.21288668674E+04  0.00000000000E+00 0. -1.
         23    2    1    2    0    0  0.78149178542E+02  0.43520144444E+03 -0.78399378608E+03  0.90464693935E+03  0.90731675388E+02 0.  0.
         11    1    3    3    0    0  0.32772725323E+02  0.22481650524E+03 -0.49183181997E+03  0.54177029421E+03  0.00000000000E+00 0. -1.
        -11    1    3    3    0    0  0.45376453218E+02  0.21038493920E+03 -0.29216196611E+03  0.36287664514E+03  0.00000000000E+00 0.  1.
         22    1    1    2    0    0 -0.78149178542E+02 -0.43520144444E+03 -0.12464965799E+04  0.13225964294E+04  0.00000000000E+00 0. -1.
<mgrwt>
<rscale>  0 0.91527149E+03</rscale>
<asrwt>0</asrwt>
<pdfrwt beam="1">  1        1 0.32751800E+00 0.91527149E+03</pdfrwt>
<pdfrwt beam="2">  1       -1 0.15134846E-01 0.91527149E+03</pdfrwt>
<totfact> 0.80320139E+01</totfact>
</mgrwt>
</event>
<event>
 6    1  0.9988873E-007  0.7736879E+03  0.7818608E-02  0.9598904E-01
         -1   -1    0    0    0  501 -0.00000000000E+00  0.00000000000E+00  0.36831243415E+03  0.36831243415E+03  0.00000000000E+00 0.  1.
          1   -1    0    0  501    0  0.00000000000E+00 -0.00000000000E+00 -0.40630782195E+03  0.40630782195E+03  0.00000000000E+00 0. -1.
         23    2    1    2    0    0 -0.10580029500E+03 -0.36031124146E+03  0.50368710026E+02  0.38884038762E+03  0.87418230079E+02 0.  0.
         13    1    3    3    0    0 -0.91723242358E+02 -0.21754987148E+03 -0.20646879444E+01  0.23610455884E+03  0.00000000000E+00 0.  1.
        -13    1    3    3    0    0 -0.14077052640E+02 -0.14276136998E+03  0.52433397970E+02  0.15273582878E+03  0.00000000000E+00 0. -1.
         22    1    1    2    0    0  0.10580029500E+03  0.36031124146E+03 -0.88364097822E+02  0.38577986848E+03  0.00000000000E+00 0. -1.
<mgrwt>
<rscale>  0 0.77368785E+03</rscale>
<asrwt>0</asrwt>
<pdfrwt beam="1">  1        1 0.62508896E-01 0.77368785E+03</pdfrwt>
<pdfrwt beam="2">  1       -1 0.56663451E-01 0.77368785E+03</pdfrwt>
<totfact> 0.18758228E+02</totfact>
</mgrwt>
</event>
<event>
 6    1  0.9988873E-007  0.2422728E+04  0.7818608E-02  0.8431043E-01
          2   -1    0    0  501    0  0.00000000000E+00  0.00000000000E+00  0.22963057480E+04  0.22963057480E+04  0.00000000000E+00 0. -1.
         -2   -1    0    0    0  501 -0.00000000000E+00 -0.00000000000E+00 -0.63902779625E+03  0.63902779625E+03  0.00000000000E+00 0.  1.
         23    2    1    2    0    0 -0.11492254653E+04 -0.13364526436E+03  0.40220645655E+03  0.12283523830E+04  0.92191736995E+02 0.  0.
         11    1    3    3    0    0 -0.79810046105E+03 -0.70057031066E+02  0.23973029221E+03  0.83626726980E+03  0.00000000000E+00 0.  1.
        -11    1    3    3    0    0 -0.35112500425E+03 -0.63588233291E+02  0.16247616434E+03  0.39208511321E+03  0.00000000000E+00 0. -1.
         22    1    1    2    0    0  0.11492254653E+04  0.13364526436E+03  0.12550714952E+04  0.17069811612E+04  0.00000000000E+00 0. -1.
<mgrwt>
<rscale>  0 0.24227284E+04</rscale>
<asrwt>0</asrwt>
<pdfrwt beam="1">  1        2 0.35327780E+00 0.24227284E+04</pdfrwt>
<pdfrwt beam="2">  1       -2 0.98311970E-01 0.24227284E+04</pdfrwt>
<totfact> 0.35156237E+00</totfact>
</mgrwt>
</event>
<event>
 6    1  0.9988873E-007  0.4065242E+04  0.7818608E-02  0.7991513E-01
          1   -1    0    0  501    0  0.00000000000E+00  0.00000000000E+00  0.37367837020E+04  0.37367837020E+04  0.00000000000E+00 0. -1.
         -1   -1    0    0    0  501 -0.00000000000E+00 -0.00000000000E+00 -0.11056429820E+04  0.11056429820E+04  0.00000000000E+00 0.  1.
         23    2    1    2    0    0 -0.13308275611E+04  0.10425122141E+04 -0.25805363338E+02  0.16932527917E+04  0.92224649999E+02 0.  0.
         13    1    3    3    0    0 -0.51605834457E+03  0.34823775560E+03 -0.15173604519E+02  0.62274873561E+03  0.00000000000E+00 0. -1.
        -13    1    3    3    0    0 -0.81476921652E+03  0.69427445846E+03 -0.10631758819E+02  0.10705040561E+04  0.00000000000E+00 0.  1.
         22    1    1    2    0    0  0.13308275611E+04 -0.10425122141E+04  0.26569460834E+04  0.31491738923E+04  0.00000000000E+00 0. -1.
<mgrwt>
<rscale>  0 0.40652423E+04</rscale>
<asrwt>0</asrwt>
<pdfrwt beam="1">  1        1 0.57488979E+00 0.40652423E+04</pdfrwt>
<pdfrwt beam="2">  1       -1 0.17009892E+00 0.40652423E+04</pdfrwt>
<totfact> 0.30699507E-02</totfact>
</mgrwt>
</event>
<event>
 6    1  0.9988873E-007  0.1132000E+04  0.7818608E-02  0.9174552E-01
         -1   -1    0    0    0  501 -0.00000000000E+00  0.00000000000E+00  0.20883219475E+03  0.20883219475E+03  0.00000000000E+00 0.  1.
          1   -1    0    0  501    0  0.00000000000E+00 -0.00000000000E+00 -0.15340349251E+04  0.15340349251E+04  0.00000000000E+00 0. -1.
         23    2    1    2    0    0  0.21071067830E+03 -0.49804393423E+03 -0.43037005709E+03  0.69731833404E+03  0.92669965888E+02 0.  0.
         13    1    3    3    0    0  0.62374314316E+02 -0.13414258346E+03 -0.68166821700E+02  0.16288493903E+03  0.00000000000E+00 0. -1.
        -13    1    3    3    0    0  0.14833636399E+03 -0.36390135078E+03 -0.36220323539E+03  0.53443339501E+03  0.00000000000E+00 0.  1.
         22    1    1    2    0    0 -0.21071067830E+03  0.49804393423E+03 -0.89483267328E+03  0.10455487858E+04  0.00000000000E+00 0. -1.
<mgrwt>
<rscale>  0 0.11319998E+04</rscale>
<asrwt>0</asrwt>
<pdfrwt beam="1">  1        1 0.23600537E+00 0.11319998E+04</pdfrwt>
<pdfrwt beam="2">  1       -1 0.32128030E-01 0.11319998E+04</pdfrwt>
<totfact> 0.55693747E+01</totfact>
</mgrwt>
</event>
<event>
 6    1  0.9988873E-007  0.2228642E+04  0.7818608E-02  0.8506600E-01
          1   -1    0    0  501    0  0.00000000000E+00  0.00000000000E+00  0.16313109873E+04  0.16313109873E+04  0.00000000000E+00 0. -1.
         -1   -1    0    0    0  501 -0.00000000000E+00 -0.00000000000E+00 -0.76117387234E+03  0.76117387234E+03  0.00000000000E+00 0.  1.
         23    2    1    2    0    0  0.44031223672E+03 -0.44396664565E+03  0.14235748377E+04  0.15574551828E+04  0.90111484315E+02 0.  0.
         11    1    3    3    0    0  0.27143683215E+03 -0.26266047299E+03  0.74974338241E+03  0.83951391733E+03  0.00000000000E+00 0.  1.
        -11    1    3    3    0    0  0.16887540457E+03 -0.18130617266E+03  0.67383145525E+03  0.71794126543E+03  0.00000000000E+00 0. -1.
         22    1    1    2    0    0 -0.44031223672E+03  0.44396664565E+03 -0.55343772274E+03  0.83502967684E+03  0.00000000000E+00 0.  1.
<mgrwt>
<rscale>  0 0.22286420E+04</rscale>
<asrwt>0</asrwt>
<pdfrwt beam="1">  1        1 0.25097092E+00 0.22286420E+04</pdfrwt>
<pdfrwt beam="2">  1       -1 0.11710367E+00 0.22286420E+04</pdfrwt>
<totfact> 0.31732945E+00</totfact>
</mgrwt>
</event>
<event>
 6    1  0.9988873E-007  0.1215165E+04  0.7818608E-02  0.9099685E-01
         -1   -1    0    0    0  501 -0.00000000000E+00  0.00000000000E+00  0.82142831804E+03  0.82142831804E+03  0.00000000000E+00 0.  1.
          1   -1    0    0  501    0  0.00000000000E+00 -0.00000000000E+00 -0.44940826127E+03  0.44940826127E+03  0.00000000000E+00 0. -1.
         23    2    1    2    0    0  0.31316463843E+03 -0.60854002991E+02 -0.34941571035E+03  0.48201158825E+03  0.92024627836E+02 0.  0.
         11    1    3    3    0    0  0.56718676030E+02  0.97702850844E+01 -0.10996710443E+03  0.12411780991E+03  0.00000000000E+00 0. -1.
        -11    1    3    3    0    0  0.25644596240E+03 -0.70624288076E+02 -0.23944860592E+03  0.35789377834E+03  0.00000000000E+00 0.  1.
         22    1    1    2    0    0 -0.31316463843E+03  0.60854002991E+02  0.72143576712E+03  0.78882499106E+03  0.00000000000E+00 0.  1.
<mgrwt>
<rscale>  0 0.12151653E+04</rscale>
<asrwt>0</asrwt>
<pdfrwt beam="1">  1        1 0.69139733E-01 0.12151653E+04</pdfrwt>
<pdfrwt beam="2">  1       -1 0.12637359E+00 0.12151653E+04</pdfrwt>
<totfact> 0.27625442E+01</totfact>
</mgrwt>
</event>
<event>
 6    1  0.9988873E-007  0.5118644E+04  0.7818608E-02  0.7810461E-01
          1   -1    0    0  501    0  0.00000000000E+00  0.00000000000E+00  0.15900347346E+04  0.15900347346E+04  0.00000000000E+00 0. -1.
         -1   -1    0    0    0  501 -0.00000000000E+00 -0.00000000000E+00 -0.41194885800E+04  0.41194885800E+04  0.00000000000E+00 0.  1.
         23    2    1    2    0    0 -0.13187767303E+04 -0.14359171775E+04  0.58292450163E+03  0.20369316983E+04  0.90882143648E+02 0.  0.
         11    1    3    3    0    0 -0.75716516079E+03 -0.88827907250E+03  0.36002560238E+03  0.12214570094E+04  0.00000000000E+00 0. -1.
        -11    1    3    3    0    0 -0.56161156949E+03 -0.54763810500E+03  0.22289889925E+03  0.81547468895E+03  0.00000000000E+00 0.  1.
         22    1    1    2    0    0  0.13187767303E+04  0.14359171775E+04 -0.31123783470E+04  0.36725916163E+04  0.00000000000E+00 0.  1.
<mgrwt>
<rscale>  0 0.51186443E+04</rscale>
<asrwt>0</asrwt>
<pdfrwt beam="1">  1        1 0.24462073E+00 0.51186443E+04</pdfrwt>
<pdfrwt beam="2">  1       -1 0.63376746E+00 0.51186443E+04</pdfrwt>
<totfact> 0.13613673E-03</totfact>
</mgrwt>
</event>
<event>
 6    1  0.9988873E-007  0.1473009E+04  0.7818608E-02  0.8902603E-01
         -2   -1    0    0    0  501 -0.00000000000E+00  0.00000000000E+00  0.60207594042E+03  0.60207594042E+03  0.00000000000E+00 0.  1.
          2   -1    0    0  501    0  0.00000000000E+00 -0.00000000000E+00 -0.90094788263E+03  0.90094788263E+03  0.00000000000E+00 0. -1.
         23    2    1    2    0    0  0.71486911636E+03  0.65373116341E+01 -0.32008932522E+03  0.78781003171E+03  0.84302313015E+02 0.  0.
         11    1    3    3    0    0  0.37749114344E+03 -0.26599750908E+02 -0.13653160725E+03  0.40230335557E+03  0.00000000000E+00 0.  1.
        -11    1    3    3    0    0  0.33737797292E+03  0.33137062543E+02 -0.18355771797E+03  0.38550667615E+03  0.00000000000E+00 0. -1.
         22    1    1    2    0    0 -0.71486911636E+03 -0.65373116341E+01  0.21217383008E+02  0.71521379133E+03  0.00000000000E+00 0. -1.
<mgrwt>
<rscale>  0 0.14730092E+04</rscale>
<asrwt>0</asrwt>
<pdfrwt beam="1">  1        2 0.13860737E+00 0.14730092E+04</pdfrwt>
<pdfrwt beam="2">  1       -2 0.92627068E-01 0.14730092E+04</pdfrwt>
<totfact> 0.28030829E+01</totfact>
</mgrwt>
</event>
<event>
 6    1  0.9988873E-007  0.3667303E+04  0.7818608E-02  0.8075247E-01
          2   -1    0    0  501    0  0.00000000000E+00  0.00000000000E+00  0.19408780655E+04  0.19408780655E+04  0.00000000000E+00 0. -1.
         -2   -1    0    0    0  501 -0.00000000000E+00 -0.00000000000E+00 -0.17323492033E+04  0.17323492033E+04  0.00000000000E+00 0.  1.
         23    2    1    2    0    0 -0.92499686137E+03 -0.47309262280E+03  0.16162899764E+04  0.19235909701E+04  0.91504695815E+02 0.  0.
         13    1    3    3    0    0 -0.36804453270E+03 -0.23443186813E+03  0.64253002869E+03  0.77669808588E+03  0.00000000000E+00 0.  1.
        -13    1    3    3    0    0 -0.55695232867E+03 -0.23866075467E+03  0.97375994768E+03  0.11468928842E+04  0.00000000000E+00 0. -1.
         22    1    1    2    0    0  0.92499686137E+03  0.47309262280E+03 -0.14077611141E+04  0.17496362987E+04  0.00000000000E+00 0.  1.
<mgrwt>
<rscale>  0 0.36673034E+04</rscale>
<asrwt>0</asrwt>
<pdfrwt beam="1">  1        2 0.29859663E+00 0.36673034E+04</pdfrwt>
<pdfrwt beam="2">  1       -2 0.26651526E+00 0.36673034E+04</pdfrwt>
<totfact> 0.29736209E-01</totfact>
</mgrwt>
</event>
<event>
 6    1  0.9988873E-007  0.2385139E+04  0.7818608E-02  0.8445088E-01
         -1   -1    0    0    0  501 -0.00000000000E+00  0.00000000000E+00  0.87575649631E+03  0.87575649631E+03  0.00000000000E+00 0.  1.
          1   -1    0    0  501    0  0.00000000000E+00 -0.00000000000E+00 -0.16239923939E+04  0.16239923939E+04  0.00000000000E+00 0. -1.
         23    2    1    2    0    0 -0.15389340417E+03  0.67310569462E+03  0.64218660273E+03  0.94732202063E+03  0.90889614753E+02 0.  0.
         13    1    3    3    0    0 -0.10887045856E+03  0.57655425241E+03  0.50888033844E+03  0.77667675488E+03  0.00000000000E+00 0. -1.
        -13    1    3    3    0    0 -0.45022945613E+02  0.96551442208E+02  0.13330626429E+03  0.17064526575E+03  0.00000000000E+00 0.  1.
         22    1    1    2    0    0  0.15389340417E+03 -0.67310569462E+03 -0.13904225003E+04  0.15524268696E+04  0.00000000000E+00 0. -1.
<mgrwt>
<rscale>  0 0.23851389E+04</rscale>
<asrwt>0</asrwt>
<pdfrwt beam="1">  1        1 0.24984498E+00 0.23851389E+04</pdfrwt>
<pdfrwt beam="2">  1       -1 0.13473177E+00 0.23851389E+04</pdfrwt>
<totfact> 0.22318553E+00</totfact>
</mgrwt>
</event>
<event>
 6    1  0.9988873E-007  0.1367247E+04  0.7818608E-02  0.8977874E-01
         -1   -1    0    0    0  501 -0.00000000000E+00  0.00000000000E+00  0.61916424003E+03  0.61916424003E+03  0.00000000000E+00 0.  1.
          1   -1    0    0  501    0  0.00000000000E+00 -0.00000000000E+00 -0.75479289996E+03  0.75479289996E+03  0.00000000000E+00 0. -1.
         23    2    1    2    0    0  0.31967419998E+03  0.36824974135E+03  0.40893357399E+03  0.64296637893E+03  0.91540321024E+02 0.  0.
         13    1    3    3    0    0  0.21736131923E+03  0.18592160430E+03  0.21534246014E+03  0.35802955351E+03  0.00000000000E+00 0. -1.
        -13    1    3    3    0    0  0.10231288074E+03  0.18232813705E+03  0.19359111384E+03  0.28493682542E+03  0.00000000000E+00 0.  1.
         22    1    1    2    0    0 -0.31967419998E+03 -0.36824974135E+03 -0.54456223392E+03  0.73099076106E+03  0.00000000000E+00 0. -1.
<mgrwt>
<rscale>  0 0.13672465E+04</rscale>
<asrwt>0</asrwt>
<pdfrwt beam="1">  1        1 0.11612198E+00 0.13672465E+04</pdfrwt>
<pdfrwt beam="2">  1       -1 0.95256038E-01 0.13672465E+04</pdfrwt>
<totfact> 0.25240106E+01</totfact>
</mgrwt>
</event>
<event>
 6    1  0.1690166E-006  0.4089801E+04  0.7818608E-02  0.7986672E-01
         -2   -1    0    0    0  501 -0.00000000000E+00  0.00000000000E+00  0.17148574941E+04  0.17148574941E+04  0.00000000000E+00 0.  1.
          2   -1    0    0  501    0  0.00000000000E+00 -0.00000000000E+00 -0.24384641110E+04  0.24384641110E+04  0.00000000000E+00 0. -1.
         23    2    1    2    0    0  0.12633241173E+04 -0.24345862131E+03  0.12497752740E+04  0.17975847750E+04  0.11879756932E+03 0.  0.
         11    1    3    3    0    0  0.39027309384E+03 -0.41084482343E+02  0.44200539800E+03  0.59107511733E+03  0.00000000000E+00 0.  1.
        -11    1    3    3    0    0  0.87305102341E+03 -0.20237413896E+03  0.80776987597E+03  0.12065096577E+04  0.00000000000E+00 0. -1.
         22    1    1    2    0    0 -0.12633241173E+04  0.24345862131E+03 -0.19733818908E+04  0.23557368301E+04  0.00000000000E+00 0. -1.
<mgrwt>
<rscale>  0 0.40898012E+04</rscale>
<asrwt>0</asrwt>
<pdfrwt beam="1">  1        2 0.37514832E+00 0.40898012E+04</pdfrwt>
<pdfrwt beam="2">  1       -2 0.26382423E+00 0.40898012E+04</pdfrwt>
<totfact> 0.15644396E-01</totfact>
</mgrwt>
</event>
<event>
 6    1  0.9988873E-007  0.1408099E+04  0.7818608E-02  0.8947977E-01
          1   -1    0    0  501    0  0.00000000000E+00  0.00000000000E+00  0.96595365794E+03  0.96595365794E+03  0.00000000000E+00 0. -1.
         -1   -1    0    0    0  501 -0.00000000000E+00 -0.00000000000E+00 -0.51315654371E+03  0.51315654371E+03  0.00000000000E+00 0.  1.
         23    2    1    2    0    0 -0.58757946733E+03  0.37501071447E+03  0.14223569075E+03  0.71600400710E+03  0.80920207989E+02 0.  0.
         11    1    3    3    0    0 -0.32007908917E+03  0.24868775492E+03  0.96479702918E+02  0.41665880027E+03  0.00000000000E+00 0. -1.
        -11    1    3    3    0    0 -0.26750037816E+03  0.12632295955E+03  0.45755987828E+02  0.29934520683E+03  0.00000000000E+00 0.  1.
         22    1    1    2    0    0  0.58757946733E+03 -0.37501071447E+03  0.31056142349E+03  0.76310619455E+03  0.00000000000E+00 0.  1.
<mgrwt>
<rscale>  0 0.14080986E+04</rscale>
<asrwt>0</asrwt>
<pdfrwt beam="1">  1        1 0.14860825E+00 0.14080986E+04</pdfrwt>
<pdfrwt beam="2">  1       -1 0.78947161E-01 0.14080986E+04</pdfrwt>
<totfact> 0.25172989E+01</totfact>
</mgrwt>
</event>
<event>
 6    1  0.9988873E-007  0.4668730E+04  0.7818608E-02  0.7881745E-01
         -1   -1    0    0    0  501 -0.00000000000E+00  0.00000000000E+00  0.14579525112E+04  0.14579525112E+04  0.00000000000E+00 0.  1.
          1   -1    0    0  501    0  0.00000000000E+00 -0.00000000000E+00 -0.37376118859E+04  0.37376118859E+04  0.00000000000E+00 0. -1.
         23    2    1    2    0    0 -0.12423697555E+04  0.15577797328E+03 -0.33315319950E+04  0.35602707246E+04  0.93127938010E+02 0.  0.
         13    1    3    3    0    0 -0.81957987060E+03  0.61253110869E+02 -0.22271632112E+04  0.23739669495E+04  0.00000000000E+00 0.  1.
        -13    1    3    3    0    0 -0.42278988490E+03  0.94524862408E+02 -0.11043687837E+04  0.11863037751E+04  0.00000000000E+00 0. -1.
         22    1    1    2    0    0  0.12423697555E+04 -0.15577797328E+03  0.10518726202E+04  0.16352936726E+04  0.00000000000E+00 0.  1.
<mgrwt>
<rscale>  0 0.46687303E+04</rscale>
<asrwt>0</asrwt>
<pdfrwt beam="1">  1        1 0.57501721E+00 0.46687303E+04</pdfrwt>
<pdfrwt beam="2">  1       -1 0.22430039E+00 0.46687303E+04</pdfrwt>
<totfact> 0.12238108E-02</totfact>
</mgrwt>
</event>
<event>
 6    1  0.9988873E-007  0.6890145E+03  0.7818608E-02  0.9736206E-01
          2   -1    0    0  501    0  0.00000000000E+00  0.00000000000E+00  0.12039574084E+04  0.12039574084E+04  0.00000000000E+00 0. -1.
         -2   -1    0    0    0  501 -0.00000000000E+00 -0.00000000000E+00 -0.98579262165E+02  0.98579262165E+02  0.00000000000E+00 0.  1.
         23    2    1    2    0    0  0.29382328057E+03 -0.12776734091E+03  0.35684901856E+03  0.48831773895E+03  0.91958569599E+02 0.  0.
         13    1    3    3    0    0  0.11326338582E+03 -0.96917957781E+02  0.17985731179E+03  0.23360294885E+03  0.00000000000E+00 0.  1.
        -13    1    3    3    0    0  0.18055989475E+03 -0.30849383130E+02  0.17699170677E+03  0.25471479010E+03  0.00000000000E+00 0. -1.
         22    1    1    2    0    0 -0.29382328057E+03  0.12776734091E+03  0.74852912765E+03  0.81421893159E+03  0.00000000000E+00 0. -1.
<mgrwt>
<rscale>  0 0.68901446E+03</rscale>
<asrwt>0</asrwt>
<pdfrwt beam="1">  1        2 0.18522421E+00 0.68901446E+03</pdfrwt>
<pdfrwt beam="2">  1       -2 0.15166041E-01 0.68901446E+03</pdfrwt>
<totfact> 0.65417315E+02</totfact>
</mgrwt>
</event>
<event>
 6    1  0.9988873E-007  0.1431536E+04  0.7818608E-02  0.8931302E-01
         -1   -1    0    0    0  501 -0.00000000000E+00  0.00000000000E+00  0.46875678187E+03  0.46875678187E+03  0.00000000000E+00 0.  1.
          1   -1    0    0  501    0  0.00000000000E+00 -0.00000000000E+00 -0.10929415089E+04  0.10929415089E+04  0.00000000000E+00 0. -1.
         23    2    1    2    0    0  0.40845466093E+03 -0.58345938786E+03 -0.28496943774E+03  0.77282119019E+03  0.93728033350E+02 0.  0.
         11    1    3    3    0    0  0.25697144140E+03 -0.42090642384E+03 -0.22877188101E+03  0.54362957321E+03  0.00000000000E+00 0. -1.
        -11    1    3    3    0    0  0.15148321953E+03 -0.16255296402E+03 -0.56197556736E+02  0.22919161698E+03  0.00000000000E+00 0.  1.
         22    1    1    2    0    0 -0.40845466093E+03  0.58345938786E+03 -0.33921528926E+03  0.78887710056E+03  0.00000000000E+00 0. -1.
<mgrwt>
<rscale>  0 0.14315359E+04</rscale>
<asrwt>0</asrwt>
<pdfrwt beam="1">  1        1 0.16814485E+00 0.14315359E+04</pdfrwt>
<pdfrwt beam="2">  1       -1 0.72116429E-01 0.14315359E+04</pdfrwt>
<totfact> 0.24224132E+01</totfact>
</mgrwt>
</event>
<event>
 6    1  0.9988873E-007  0.1443186E+04  0.7818608E-02  0.8923139E-01
          2   -1    0    0  501    0  0.00000000000E+00  0.00000000000E+00  0.31633860139E+04  0.31633860139E+04  0.00000000000E+00 0. -1.
         -2   -1    0    0    0  501 -0.00000000000E+00 -0.00000000000E+00 -0.16460087408E+03  0.16460087408E+03  0.00000000000E+00 0.  1.
         23    2    1    2    0    0  0.31439407821E+03  0.54215096613E+03  0.69761237738E+03  0.94299896577E+03  0.99059143322E+02 0.  0.
         13    1    3    3    0    0  0.31998640160E+02  0.32772373197E+02  0.92008302334E+02  0.10277873864E+03  0.00000000000E+00 0. -1.
        -13    1    3    3    0    0  0.28239543805E+03  0.50937859293E+03  0.60560407505E+03  0.84022022713E+03  0.00000000000E+00 0.  1.
         22    1    1    2    0    0 -0.31439407821E+03 -0.54215096613E+03  0.23011727625E+04  0.23849879222E+04  0.00000000000E+00 0. -1.
<mgrwt>
<rscale>  0 0.14431855E+04</rscale>
<asrwt>0</asrwt>
<pdfrwt beam="1">  1        2 0.48667473E+00 0.14431855E+04</pdfrwt>
<pdfrwt beam="2">  1       -2 0.25323214E-01 0.14431855E+04</pdfrwt>
<totfact> 0.18824640E+01</totfact>
</mgrwt>
</event>
<event>
 6    1  0.9988873E-007  0.3026328E+04  0.7818608E-02  0.8236253E-01
          2   -1    0    0  501    0  0.00000000000E+00  0.00000000000E+00  0.16936921253E+04  0.16936921253E+04  0.00000000000E+00 0. -1.
         -2   -1    0    0    0  501 -0.00000000000E+00 -0.00000000000E+00 -0.13518778957E+04  0.13518778957E+04  0.00000000000E+00 0.  1.
         23    2    1    2    0    0  0.16382519347E+03  0.54459072884E+03  0.15807016314E+04  0.16823900071E+04  0.91655510066E+02 0.  0.
         11    1    3    3    0    0  0.96664494013E+02  0.21206889310E+03  0.55155832524E+03  0.59877694174E+03  0.00000000000E+00 0.  1.
        -11    1    3    3    0    0  0.67160699458E+02  0.33252183574E+03  0.10291433061E+04  0.10836130653E+04  0.00000000000E+00 0. -1.
         22    1    1    2    0    0 -0.16382519347E+03 -0.54459072884E+03 -0.12388874018E+04  0.13631800139E+04  0.00000000000E+00 0.  1.
<mgrwt>
<rscale>  0 0.30263278E+04</rscale>
<asrwt>0</asrwt>
<pdfrwt beam="1">  1        2 0.26056802E+00 0.30263278E+04</pdfrwt>
<pdfrwt beam="2">  1       -2 0.20798122E+00 0.30263278E+04</pdfrwt>
<totfact> 0.99653047E-01</totfact>
</mgrwt>
</event>
<event>
 6    1  0.9988873E-007  0.1006068E+04  0.7818608E-02  0.9301915E-01
         -2   -1    0    0    0  501 -0.00000000000E+00  0.00000000000E+00  0.18223666947E+03  0.18223666947E+03  0.00000000000E+00 0.  1.
          2   -1    0    0  501    0  0.00000000000E+00 -0.00000000000E+00 -0.13885405355E+04  0.13885405355E+04  0.00000000000E+00 0. -1.
         23    2    1    2    0    0  0.24619105678E+03 -0.30785769769E+03 -0.13117215791E+03  0.42565948688E+03  0.92700945502E+02 0.  0.
         13    1    3    3    0    0  0.23381852524E+03 -0.28769856145E+03 -0.14520913203E+03  0.39815481540E+03  0.00000000000E+00 0.  1.
        -13    1    3    3    0    0  0.12372531540E+02 -0.20159136240E+02  0.14036974120E+02  0.27504671478E+02  0.00000000000E+00 0. -1.
         22    1    1    2    0    0 -0.24619105678E+03  0.30785769769E+03 -0.10751317081E+04  0.11451177181E+04  0.00000000000E+00 0. -1.
<mgrwt>
<rscale>  0 0.10060676E+04</rscale>
<asrwt>0</asrwt>
<pdfrwt beam="1">  1        2 0.21362162E+00 0.10060676E+04</pdfrwt>
<pdfrwt beam="2">  1       -2 0.28036411E-01 0.10060676E+04</pdfrwt>
<totfact> 0.17030847E+02</totfact>
</mgrwt>
</event>
<event>
 6    1  0.9988873E-007  0.1691581E+04  0.7818608E-02  0.8766180E-01
         -2   -1    0    0    0  501 -0.00000000000E+00  0.00000000000E+00  0.32433287130E+03  0.32433287130E+03  0.00000000000E+00 0.  1.
          2   -1    0    0  501    0  0.00000000000E+00 -0.00000000000E+00 -0.22056408928E+04  0.22056408928E+04  0.00000000000E+00 0. -1.
         23    2    1    2    0    0 -0.61936071127E+03  0.42027918559E+03 -0.15244865955E+04  0.17007790858E+04  0.91366482582E+02 0.  0.
         11    1    3    3    0    0 -0.38802548650E+03  0.23045503356E+03 -0.99539058534E+03  0.10929207282E+04  0.00000000000E+00 0. -1.
        -11    1    3    3    0    0 -0.23133522477E+03  0.18982415203E+03 -0.52909601017E+03  0.60785835759E+03  0.00000000000E+00 0.  1.
         22    1    1    2    0    0  0.61936071127E+03 -0.42027918559E+03 -0.35682142595E+03  0.82919467830E+03  0.00000000000E+00 0.  1.
<mgrwt>
<rscale>  0 0.16915813E+04</rscale>
<asrwt>0</asrwt>
<pdfrwt beam="1">  1        2 0.33932937E+00 0.16915813E+04</pdfrwt>
<pdfrwt beam="2">  1       -2 0.49897364E-01 0.16915813E+04</pdfrwt>
<totfact> 0.18558989E+01</totfact>
</mgrwt>
</event>
<event>
 6    1  0.9988873E-007  0.1555997E+04  0.7818608E-02  0.8848046E-01
          2   -1    0    0  501    0  0.00000000000E+00  0.00000000000E+00  0.20855498114E+04  0.20855498114E+04  0.00000000000E+00 0. -1.
         -2   -1    0    0    0  501 -0.00000000000E+00 -0.00000000000E+00 -0.29022636096E+03  0.29022636096E+03  0.00000000000E+00 0.  1.
         23    2    1    2    0    0  0.71048612269E+03  0.15570238457E+03  0.49188341041E+03  0.88313096970E+03  0.94537067371E+02 0.  0.
         13    1    3    3    0    0  0.96333752503E+02  0.53427436965E+02  0.88045988605E+02  0.14102049142E+03  0.00000000000E+00 0. -1.
        -13    1    3    3    0    0  0.61415237018E+03  0.10227494760E+03  0.40383742181E+03  0.74211047827E+03  0.00000000000E+00 0.  1.
         22    1    1    2    0    0 -0.71048612269E+03 -0.15570238457E+03  0.13034400400E+04  0.14926452027E+04  0.00000000000E+00 0. -1.
<mgrwt>
<rscale>  0 0.15559968E+04</rscale>
<asrwt>0</asrwt>
<pdfrwt beam="1">  1        2 0.32085381E+00 0.15559968E+04</pdfrwt>
<pdfrwt beam="2">  1       -2 0.44650211E-01 0.15559968E+04</pdfrwt>
<totfact> 0.27411436E+01</totfact>
</mgrwt>
</event>
<event>
 6    1  0.9988873E-007  0.1851075E+04  0.7818608E-02  0.8679600E-01
          2   -1    0    0  501    0  0.00000000000E+00  0.00000000000E+00  0.27281238831E+04  0.27281238831E+04  0.00000000000E+00 0. -1.
         -2   -1    0    0    0  501 -0.00000000000E+00 -0.00000000000E+00 -0.31399593079E+03  0.31399593079E+03  0.00000000000E+00 0.  1.
         23    2    1    2    0    0 -0.53204608779E+03 -0.15912054124E+03  0.24223214878E+04  0.24867284922E+04  0.88231612728E+02 0.  0.
         11    1    3    3    0    0 -0.22435518857E+03 -0.73650460072E+02  0.84316816629E+03  0.87560961482E+03  0.00000000000E+00 0. -1.
        -11    1    3    3    0    0 -0.30769089922E+03 -0.85470081166E+02  0.15791533215E+04  0.16111188774E+04  0.00000000000E+00 0.  1.
         22    1    1    2    0    0  0.53204608779E+03  0.15912054124E+03 -0.81935354919E+01  0.55539132168E+03  0.00000000000E+00 0.  1.
<mgrwt>
<rscale>  0 0.18510751E+04</rscale>
<asrwt>0</asrwt>
<pdfrwt beam="1">  1        2 0.41971135E+00 0.18510751E+04</pdfrwt>
<pdfrwt beam="2">  1       -2 0.48307068E-01 0.18510751E+04</pdfrwt>
<totfact> 0.97689880E+00</totfact>
</mgrwt>
</event>
<event>
 6    1  0.9988873E-007  0.3735581E+04  0.7818608E-02  0.8060122E-01
         -1   -1    0    0    0  501 -0.00000000000E+00  0.00000000000E+00  0.90301526107E+03  0.90301526107E+03  0.00000000000E+00 0.  1.
          1   -1    0    0  501    0  0.00000000000E+00 -0.00000000000E+00 -0.38633259088E+04  0.38633259088E+04  0.00000000000E+00 0. -1.
         23    2    1    2    0    0 -0.42451588431E+02 -0.80359612996E+03  0.66820393673E+03  0.10496642984E+04  0.87919058090E+02 0.  0.
         13    1    3    3    0    0 -0.49844919354E+02 -0.48939245213E+03  0.45323690672E+03  0.66888951389E+03  0.00000000000E+00 0. -1.
        -13    1    3    3    0    0  0.73933309223E+01 -0.31420367783E+03  0.21496703001E+03  0.38077478448E+03  0.00000000000E+00 0.  1.
         22    1    1    2    0    0  0.42451588431E+02  0.80359612996E+03 -0.36285145845E+04  0.37166768715E+04  0.00000000000E+00 0. -1.
<mgrwt>
<rscale>  0 0.37355815E+04</rscale>
<asrwt>0</asrwt>
<pdfrwt beam="1">  1        1 0.59435781E+00 0.37355815E+04</pdfrwt>
<pdfrwt beam="2">  1       -1 0.13892543E+00 0.37355815E+04</pdfrwt>
<totfact> 0.43000123E-02</totfact>
</mgrwt>
</event>
<event>
 6    1  0.9988873E-007  0.2501659E+04  0.7818608E-02  0.8402395E-01
          1   -1    0    0  501    0  0.00000000000E+00  0.00000000000E+00  0.26093905778E+04  0.26093905778E+04  0.00000000000E+00 0. -1.
         -1   -1    0    0    0  501 -0.00000000000E+00 -0.00000000000E+00 -0.59959378522E+03  0.59959378522E+03  0.00000000000E+00 0.  1.
         23    2    1    2    0    0  0.21075101613E+03  0.11842743448E+04  0.57552434091E+03  0.13370711224E+04  0.98026551640E+02 0.  0.
         11    1    3    3    0    0  0.13345658812E+03  0.52397348861E+03  0.22668303478E+03  0.58629691790E+03  0.00000000000E+00 0. -1.
        -11    1    3    3    0    0  0.77294428015E+02  0.66030085624E+03  0.34884130613E+03  0.75077420454E+03  0.00000000000E+00 0.  1.
         22    1    1    2    0    0 -0.21075101613E+03 -0.11842743448E+04  0.14342724517E+04  0.18719132406E+04  0.00000000000E+00 0.  1.
<mgrwt>
<rscale>  0 0.25016589E+04</rscale>
<asrwt>0</asrwt>
<pdfrwt beam="1">  1        1 0.40144470E+00 0.25016589E+04</pdfrwt>
<pdfrwt beam="2">  1       -1 0.92245199E-01 0.25016589E+04</pdfrwt>
<totfact> 0.11542236E+00</totfact>
</mgrwt>
</event>
<event>
 6    1  0.9988873E-007  0.1938645E+04  0.7818608E-02  0.8635856E-01
         -1   -1    0    0    0  501 -0.00000000000E+00  0.00000000000E+00  0.14850273638E+04  0.14850273638E+04  0.00000000000E+00 0.  1.
          1   -1    0    0  501    0  0.00000000000E+00 -0.00000000000E+00 -0.63270652475E+03  0.63270652475E+03  0.00000000000E+00 0. -1.
         23    2    1    2    0    0  0.28301227101E+03 -0.16284228176E+03 -0.56735393423E+03  0.66099437301E+03  0.91703436075E+02 0.  0.
         13    1    3    3    0    0  0.19699190015E+02 -0.42076583173E+02 -0.51445539221E+02  0.69319120338E+02  0.00000000000E+00 0. -1.
        -13    1    3    3    0    0  0.26331308099E+03 -0.12076569859E+03 -0.51590839501E+03  0.59167525267E+03  0.00000000000E+00 0.  1.
         22    1    1    2    0    0 -0.28301227101E+03  0.16284228176E+03  0.14196747733E+04  0.14567395155E+04  0.00000000000E+00 0.  1.
<mgrwt>
<rscale>  0 0.19386454E+04</rscale>
<asrwt>0</asrwt>
<pdfrwt beam="1">  1        1 0.97339466E-01 0.19386454E+04</pdfrwt>
<pdfrwt beam="2">  1       -1 0.22846575E+00 0.19386454E+04</pdfrwt>
<totfact> 0.28558084E+00</totfact>
</mgrwt>
</event>
<event>
 6    1  0.9988873E-007  0.6836089E+03  0.7818608E-02  0.9745681E-01
          2   -1    0    0  501    0  0.00000000000E+00  0.00000000000E+00  0.51390462198E+03  0.51390462198E+03  0.00000000000E+00 0. -1.
         -2   -1    0    0    0  501 -0.00000000000E+00 -0.00000000000E+00 -0.22733846480E+03  0.22733846480E+03  0.00000000000E+00 0.  1.
         23    2    1    2    0    0 -0.33019844166E+02  0.11948330395E+03  0.48435733287E+03  0.50781661183E+03  0.88933207044E+02 0.  0.
         13    1    3    3    0    0  0.13360333892E+02  0.86140907887E+02  0.20643889252E+03  0.22408875670E+03  0.00000000000E+00 0. -1.
        -13    1    3    3    0    0 -0.46380178058E+02  0.33342396059E+02  0.27791844035E+03  0.28372785513E+03  0.00000000000E+00 0.  1.
         22    1    1    2    0    0  0.33019844166E+02 -0.11948330395E+03 -0.19779117569E+03  0.23342647496E+03  0.00000000000E+00 0.  1.
<mgrwt>
<rscale>  0 0.68360892E+03</rscale>
<asrwt>0</asrwt>
<pdfrwt beam="1">  1        2 0.79062249E-01 0.68360892E+03</pdfrwt>
<pdfrwt beam="2">  1       -2 0.34975149E-01 0.68360892E+03</pdfrwt>
<totfact> 0.46076887E+02</totfact>
</mgrwt>
</event>
<event>
 6    1  0.9988873E-007  0.1678855E+04  0.7818608E-02  0.8773517E-01
         -1   -1    0    0    0  501 -0.00000000000E+00  0.00000000000E+00  0.31605424861E+03  0.31605424861E+03  0.00000000000E+00 0.  1.
          1   -1    0    0  501    0  0.00000000000E+00 -0.00000000000E+00 -0.22294847398E+04  0.22294847398E+04  0.00000000000E+00 0. -1.
         23    2    1    2    0    0  0.52165436445E+03  0.65285828085E+03 -0.90432653485E+03  0.12353336589E+04  0.99476410969E+02 0.  0.
         11    1    3    3    0    0  0.28896785472E+03  0.41025242302E+03 -0.59681238330E+03  0.77974001598E+03  0.00000000000E+00 0. -1.
        -11    1    3    3    0    0  0.23268650973E+03  0.24260585783E+03 -0.30751415155E+03  0.45559364291E+03  0.00000000000E+00 0.  1.
         22    1    1    2    0    0 -0.52165436445E+03 -0.65285828085E+03 -0.10091039564E+04  0.13102053296E+04  0.00000000000E+00 0.  1.
<mgrwt>
<rscale>  0 0.16788545E+04</rscale>
<asrwt>0</asrwt>
<pdfrwt beam="1">  1        1 0.34299764E+00 0.16788545E+04</pdfrwt>
<pdfrwt beam="2">  1       -1 0.48623732E-01 0.16788545E+04</pdfrwt>
<totfact> 0.83988051E+00</totfact>
</mgrwt>
</event>
<event>
 6    1  0.9988873E-007  0.1229493E+04  0.7818608E-02  0.9087426E-01
          1   -1    0    0  501    0  0.00000000000E+00  0.00000000000E+00  0.12892894468E+03  0.12892894468E+03  0.00000000000E+00 0. -1.
         -1   -1    0    0    0  501 -0.00000000000E+00 -0.00000000000E+00 -0.29311732169E+04  0.29311732169E+04  0.00000000000E+00 0.  1.
         23    2    1    2    0    0  0.55288185338E+03 -0.23740799969E+03 -0.16756277814E+04  0.17828764104E+04  0.94228078725E+02 0.  0.
         13    1    3    3    0    0  0.47507805855E+03 -0.16646736264E+03 -0.13625323630E+04  0.14525511987E+04  0.00000000000E+00 0. -1.
        -13    1    3    3    0    0  0.77803794828E+02 -0.70940637052E+02 -0.31309541841E+03  0.33032521173E+03  0.00000000000E+00 0.  1.
         22    1    1    2    0    0 -0.55288185338E+03  0.23740799969E+03 -0.11266164908E+04  0.12772257512E+04  0.00000000000E+00 0. -1.
<mgrwt>
<rscale>  0 0.12294927E+04</rscale>
<asrwt>0</asrwt>
<pdfrwt beam="1">  1        1 0.19835222E-01 0.12294927E+04</pdfrwt>
<pdfrwt beam="2">  1       -1 0.45094972E+00 0.12294927E+04</pdfrwt>
<totfact> 0.84748837E-01</totfact>
</mgrwt>
</event>
<event>
 6    1  0.9988873E-007  0.3514565E+04  0.7818608E-02  0.8110347E-01
          1   -1    0    0  501    0  0.00000000000E+00  0.00000000000E+00  0.20258169360E+04  0.20258169360E+04  0.00000000000E+00 0. -1.
         -1   -1    0    0    0  501 -0.00000000000E+00 -0.00000000000E+00 -0.15243438197E+04  0.15243438197E+04  0.00000000000E+00 0.  1.
         23    2    1    2    0    0  0.14335490220E+04  0.17682585540E+02  0.12752849023E+04  0.19210014166E+04  0.92300532010E+02 0.  0.
         11    1    3    3    0    0  0.97887230249E+03 -0.30652860812E+02  0.87565502274E+03  0.13137360090E+04  0.00000000000E+00 0.  1.
        -11    1    3    3    0    0  0.45467671948E+03  0.48335446352E+02  0.39962987956E+03  0.60726540759E+03  0.00000000000E+00 0. -1.
         22    1    1    2    0    0 -0.14335490220E+04 -0.17682585540E+02 -0.77381178599E+03  0.16291593392E+04  0.00000000000E+00 0.  1.
<mgrwt>
<rscale>  0 0.35145649E+04</rscale>
<asrwt>0</asrwt>
<pdfrwt beam="1">  1        1 0.31166414E+00 0.35145649E+04</pdfrwt>
<pdfrwt beam="2">  1       -1 0.23451443E+00 0.35145649E+04</pdfrwt>
<totfact> 0.20551177E-01</totfact>
</mgrwt>
</event>
<event>
 6    1  0.9988873E-007  0.3450945E+04  0.7818608E-02  0.8125515E-01
          1   -1    0    0  501    0  0.00000000000E+00  0.00000000000E+00  0.19865096042E+04  0.19865096042E+04  0.00000000000E+00 0. -1.
         -1   -1    0    0    0  501 -0.00000000000E+00 -0.00000000000E+00 -0.14987370209E+04  0.14987370209E+04  0.00000000000E+00 0.  1.
         23    2    1    2    0    0 -0.82836367573E+03  0.30571641713E+03 -0.12516585180E+04  0.15345366357E+04  0.92221112143E+02 0.  0.
         13    1    3    3    0    0 -0.21950711507E+03  0.10338058694E+03 -0.40694842097E+03  0.47379102635E+03  0.00000000000E+00 0. -1.
        -13    1    3    3    0    0 -0.60885656066E+03  0.20233583018E+03 -0.84471009703E+03  0.10607456093E+04  0.00000000000E+00 0.  1.
         22    1    1    2    0    0  0.82836367573E+03 -0.30571641713E+03  0.17394311013E+04  0.19507099895E+04  0.00000000000E+00 0. -1.
<mgrwt>
<rscale>  0 0.34509451E+04</rscale>
<asrwt>0</asrwt>
<pdfrwt beam="1">  1        1 0.30561686E+00 0.34509451E+04</pdfrwt>
<pdfrwt beam="2">  1       -1 0.23057493E+00 0.34509451E+04</pdfrwt>
<totfact> 0.23330111E-01</totfact>
</mgrwt>
</event>
<event>
 6    1  0.9988873E-007  0.1122950E+04  0.7818608E-02  0.9183108E-01
          2   -1    0    0  501    0  0.00000000000E+00  0.00000000000E+00  0.68648567263E+03  0.68648567263E+03  0.00000000000E+00 0. -1.
         -2   -1    0    0    0  501 -0.00000000000E+00 -0.00000000000E+00 -0.45922879044E+03  0.45922879044E+03  0.00000000000E+00 0.  1.
         23    2    1    2    0    0 -0.73717198476E+02  0.54827240282E+03  0.18533145566E+03  0.59092207448E+03  0.93831213378E+02 0.  0.
         11    1    3    3    0    0 -0.21608840226E+02  0.97277498429E+02  0.72164597361E+02  0.12303488444E+03  0.00000000000E+00 0. -1.
        -11    1    3    3    0    0 -0.52108358250E+02  0.45099490439E+03  0.11316685830E+03  0.46788719004E+03  0.00000000000E+00 0.  1.
         22    1    1    2    0    0  0.73717198476E+02 -0.54827240282E+03  0.41925426530E+02  0.55479238859E+03  0.00000000000E+00 0.  1.
<mgrwt>
<rscale>  0 0.11229497E+04</rscale>
<asrwt>0</asrwt>
<pdfrwt beam="1">  1        2 0.10561318E+00 0.11229497E+04</pdfrwt>
<pdfrwt beam="2">  1       -2 0.70650583E-01 0.11229497E+04</pdfrwt>
<totfact> 0.75896435E+01</totfact>
</mgrwt>
</event>
<event>
 6    1  0.9988873E-007  0.2585895E+04  0.7818608E-02  0.8373008E-01
          1   -1    0    0  501    0  0.00000000000E+00  0.00000000000E+00  0.13172931728E+04  0.13172931728E+04  0.00000000000E+00 0. -1.
         -1   -1    0    0    0  501 -0.00000000000E+00 -0.00000000000E+00 -0.12690518617E+04  0.12690518617E+04  0.00000000000E+00 0.  1.
         23    2    1    2    0    0 -0.87471675974E+03  0.80829755951E+03  0.52320832626E+03  0.13041328758E+04  0.92418886179E+02 0.  0.
         11    1    3    3    0    0 -0.33126876313E+03  0.34221602507E+03  0.16917039723E+03  0.50543983276E+03  0.00000000000E+00 0.  1.
        -11    1    3    3    0    0 -0.54344799661E+03  0.46608153444E+03  0.35403792903E+03  0.79869304301E+03  0.00000000000E+00 0. -1.
         22    1    1    2    0    0  0.87471675974E+03 -0.80829755951E+03 -0.47496701521E+03  0.12822121587E+04  0.00000000000E+00 0.  1.
<mgrwt>
<rscale>  0 0.25858951E+04</rscale>
<asrwt>0</asrwt>
<pdfrwt beam="1">  1        1 0.20266049E+00 0.25858951E+04</pdfrwt>
<pdfrwt beam="2">  1       -1 0.19523875E+00 0.25858951E+04</pdfrwt>
<totfact> 0.12590790E+00</totfact>
</mgrwt>
</event>
<event>
 6    1  0.9988873E-007  0.4666031E+04  0.7818608E-02  0.7882197E-01
          2   -1    0    0  501    0  0.00000000000E+00  0.00000000000E+00  0.23522834157E+04  0.23522834157E+04  0.00000000000E+00 0. -1.
         -2   -1    0    0    0  501 -0.00000000000E+00 -0.00000000000E+00 -0.23139049863E+04  0.23139049863E+04  0.00000000000E+00 0.  1.
         23    2    1    2    0    0  0.81078883245E+03  0.14759340352E+04 -0.15942544076E+04  0.23207140815E+04  0.91142333309E+02 0.  0.
         13    1    3    3    0    0  0.71664703759E+03  0.12421085459E+04 -0.13388379782E+04  0.19618623163E+04  0.00000000000E+00 0.  1.
        -13    1    3    3    0    0  0.94141794858E+02  0.23382548926E+03 -0.25541642945E+03  0.35885176522E+03  0.00000000000E+00 0. -1.
         22    1    1    2    0    0 -0.81078883245E+03 -0.14759340352E+04  0.16326328371E+04  0.23454743204E+04  0.00000000000E+00 0. -1.
<mgrwt>
<rscale>  0 0.46660306E+04</rscale>
<asrwt>0</asrwt>
<pdfrwt beam="1">  1        2 0.36188976E+00 0.46660306E+04</pdfrwt>
<pdfrwt beam="2">  1       -2 0.35598538E+00 0.46660306E+04</pdfrwt>
<totfact> 0.45135162E-02</totfact>
</mgrwt>
</event>
<event>
 6    1  0.9988873E-007  0.1063719E+04  0.7818608E-02  0.9241293E-01
          1   -1    0    0  501    0  0.00000000000E+00  0.00000000000E+00  0.18012149749E+04  0.18012149749E+04  0.00000000000E+00 0. -1.
         -1   -1    0    0    0  501 -0.00000000000E+00 -0.00000000000E+00 -0.15704662092E+03  0.15704662092E+03  0.00000000000E+00 0.  1.
         23    2    1    2    0    0  0.10520457718E+03  0.41360355164E+03  0.25622637693E+03  0.50618761952E+03  0.91858853296E+02 0.  0.
         11    1    3    3    0    0  0.84207593078E+02  0.40501122056E+03  0.23950104468E+03  0.47800183882E+03  0.00000000000E+00 0. -1.
        -11    1    3    3    0    0  0.20996984102E+02  0.85923310819E+01  0.16725332248E+02  0.28185780698E+02  0.00000000000E+00 0.  1.
         22    1    1    2    0    0 -0.10520457718E+03 -0.41360355164E+03  0.13879419770E+04  0.14520739763E+04  0.00000000000E+00 0. -1.
<mgrwt>
<rscale>  0 0.10637194E+04</rscale>
<asrwt>0</asrwt>
<pdfrwt beam="1">  1        1 0.27710998E+00 0.10637194E+04</pdfrwt>
<pdfrwt beam="2">  1       -1 0.24161020E-01 0.10637194E+04</pdfrwt>
<totfact> 0.60415276E+01</totfact>
</mgrwt>
</event>
<event>
 6    1  0.9988873E-007  0.1850396E+04  0.7818608E-02  0.8679949E-01
         -1   -1    0    0    0  501 -0.00000000000E+00  0.00000000000E+00  0.73022473526E+03  0.73022473526E+03  0.00000000000E+00 0.  1.
          1   -1    0    0  501    0  0.00000000000E+00 -0.00000000000E+00 -0.11722303709E+04  0.11722303709E+04  0.00000000000E+00 0. -1.
         23    2    1    2    0    0  0.59531701041E+03  0.55494377626E+03 -0.66891695575E+03  0.10575564821E+04  0.92794835682E+02 0.  0.
         13    1    3    3    0    0  0.11186380200E+03  0.12366764362E+03 -0.18396470151E+03  0.24829459857E+03  0.00000000000E+00 0.  1.
        -13    1    3    3    0    0  0.48345320841E+03  0.43127613264E+03 -0.48495225423E+03  0.80926188356E+03  0.00000000000E+00 0. -1.
         22    1    1    2    0    0 -0.59531701041E+03 -0.55494377626E+03  0.22691132011E+03  0.84489862403E+03  0.00000000000E+00 0.  1.
<mgrwt>
<rscale>  0 0.18503963E+04</rscale>
<asrwt>0</asrwt>
<pdfrwt beam="1">  1        1 0.18034313E+00 0.18503963E+04</pdfrwt>
<pdfrwt beam="2">  1       -1 0.11234227E+00 0.18503963E+04</pdfrwt>
<totfact> 0.76396554E+00</totfact>
</mgrwt>
</event>
<event>
 6    1  0.9988873E-007  0.1552637E+04  0.7818608E-02  0.8850185E-01
         -2   -1    0    0    0  501 -0.00000000000E+00  0.00000000000E+00  0.13590158202E+04  0.13590158202E+04  0.00000000000E+00 0.  1.
          2   -1    0    0  501    0  0.00000000000E+00 -0.00000000000E+00 -0.44346064451E+03  0.44346064451E+03  0.00000000000E+00 0. -1.
         23    2    1    2    0    0  0.12525825445E+03  0.64228010930E+03  0.93841780209E+03  0.11476970600E+04  0.91472407076E+02 0.  0.
         11    1    3    3    0    0  0.40903791953E+02  0.38107085482E+03  0.59988823090E+03  0.71186656486E+03  0.00000000000E+00 0. -1.
        -11    1    3    3    0    0  0.84354462494E+02  0.26120925448E+03  0.33852957119E+03  0.43583049519E+03  0.00000000000E+00 0.  1.
         22    1    1    2    0    0 -0.12525825445E+03 -0.64228010930E+03 -0.22862626374E+02  0.65477940468E+03  0.00000000000E+00 0. -1.
<mgrwt>
<rscale>  0 0.15526365E+04</rscale>
<asrwt>0</asrwt>
<pdfrwt beam="1">  1        2 0.68224715E-01 0.15526365E+04</pdfrwt>
<pdfrwt beam="2">  1       -2 0.20907936E+00 0.15526365E+04</pdfrwt>
<totfact> 0.78940039E+00</totfact>
</mgrwt>
</event>
<event>
 6    1  0.9988873E-007  0.2127104E+04  0.7818608E-02  0.8549397E-01
         -1   -1    0    0    0  501 -0.00000000000E+00  0.00000000000E+00  0.10990274420E+04  0.10990274420E+04  0.00000000000E+00 0.  1.
          1   -1    0    0  501    0  0.00000000000E+00 -0.00000000000E+00 -0.10292219070E+04  0.10292219070E+04  0.00000000000E+00 0. -1.
         23    2    1    2    0    0  0.76286748463E+03 -0.36449973681E+03 -0.60737591598E+03  0.10450127290E+04  0.91209885746E+02 0.  0.
         11    1    3    3    0    0  0.50529438474E+03 -0.28566082130E+03 -0.39707467000E+03  0.70327292969E+03  0.00000000000E+00 0. -1.
        -11    1    3    3    0    0  0.25757309989E+03 -0.78838915507E+02 -0.21030124598E+03  0.34173979933E+03  0.00000000000E+00 0.  1.
         22    1    1    2    0    0 -0.76286748463E+03  0.36449973681E+03  0.67718145097E+03  0.10832366199E+04  0.00000000000E+00 0.  1.
<mgrwt>
<rscale>  0 0.21271042E+04</rscale>
<asrwt>0</asrwt>
<pdfrwt beam="1">  1        1 0.15834183E+00 0.21271042E+04</pdfrwt>
<pdfrwt beam="2">  1       -1 0.16908114E+00 0.21271042E+04</pdfrwt>
<totfact> 0.32928791E+00</totfact>
</mgrwt>
</event>
<event>
 6    1  0.9988873E-007  0.5933722E+03  0.7818608E-02  0.9919253E-01
         -1   -1    0    0    0  501 -0.00000000000E+00  0.00000000000E+00  0.97089663926E+02  0.97089663926E+02  0.00000000000E+00 0.  1.
          1   -1    0    0  501    0  0.00000000000E+00 -0.00000000000E+00 -0.90661178383E+03  0.90661178383E+03  0.00000000000E+00 0. -1.
         23    2    1    2    0    0 -0.17177833292E+03 -0.14014795851E+03 -0.73011556367E+03  0.76821334379E+03  0.89071652762E+02 0.  0.
         13    1    3    3    0    0 -0.12416233895E+03 -0.14385678595E+03 -0.61140034305E+03  0.64025107634E+03  0.00000000000E+00 0.  1.
        -13    1    3    3    0    0 -0.47615993969E+02  0.37088274410E+01 -0.11871522063E+03  0.12796226745E+03  0.00000000000E+00 0. -1.
         22    1    1    2    0    0  0.17177833292E+03  0.14014795851E+03 -0.79406556228E+02  0.23548810396E+03  0.00000000000E+00 0.  1.
<mgrwt>
<rscale>  0 0.59337217E+03</rscale>
<asrwt>0</asrwt>
<pdfrwt beam="1">  1        1 0.13947874E+00 0.59337217E+03</pdfrwt>
<pdfrwt beam="2">  1       -1 0.14936871E-01 0.59337217E+03</pdfrwt>
<totfact> 0.60288491E+02</totfact>
</mgrwt>
</event>
<event>
 6    1  0.9988873E-007  0.3526148E+04  0.7818608E-02  0.8107621E-01
         -2   -1    0    0    0  501 -0.00000000000E+00  0.00000000000E+00  0.11288084566E+04  0.11288084566E+04  0.00000000000E+00 0.  1.
          2   -1    0    0  501    0  0.00000000000E+00 -0.00000000000E+00 -0.27537261664E+04  0.27537261664E+04  0.00000000000E+00 0. -1.
         23    2    1    2    0    0 -0.15867717280E+04 -0.16555386631E+03 -0.16360684797E+04  0.22871108739E+04  0.94358252339E+02 0.  0.
         13    1    3    3    0    0 -0.10560083075E+04 -0.98727937785E+02 -0.10250158762E+04  0.14749773889E+04  0.00000000000E+00 0.  1.
        -13    1    3    3    0    0 -0.53076342057E+03 -0.66825928525E+02 -0.61105260347E+03  0.81213348505E+03  0.00000000000E+00 0. -1.
         22    1    1    2    0    0  0.15867717280E+04  0.16555386631E+03  0.11150769871E+02  0.15954237491E+04  0.00000000000E+00 0.  1.
<mgrwt>
<rscale>  0 0.35261477E+04</rscale>
<asrwt>0</asrwt>
<pdfrwt beam="1">  1        2 0.42365018E+00 0.35261477E+04</pdfrwt>
<pdfrwt beam="2">  1       -2 0.17366284E+00 0.35261477E+04</pdfrwt>
<totfact> 0.40583943E-01</totfact>
</mgrwt>
</event>
<event>
 6    1  0.9988873E-007  0.1412827E+04  0.7818608E-02  0.8944586E-01
          1   -1    0    0  501    0  0.00000000000E+00  0.00000000000E+00  0.14840537199E+04  0.14840537199E+04  0.00000000000E+00 0. -1.
         -1   -1    0    0    0  501 -0.00000000000E+00 -0.00000000000E+00 -0.33625469741E+03  0.33625469741E+03  0.00000000000E+00 0.  1.
         23    2    1    2    0    0  0.39419930645E+03 -0.30396259682E+03 -0.64259129726E+02  0.51001405426E+03  0.90546928853E+02 0.  0.
         11    1    3    3    0    0  0.18473131438E+03 -0.16694489573E+03  0.91861795304E+01  0.24915987361E+03  0.00000000000E+00 0. -1.
        -11    1    3    3    0    0  0.20946799207E+03 -0.13701770108E+03 -0.73445309256E+02  0.26085418065E+03  0.00000000000E+00 0.  1.
         22    1    1    2    0    0 -0.39419930645E+03  0.30396259682E+03  0.12120581522E+04  0.13102943631E+04  0.00000000000E+00 0. -1.
<mgrwt>
<rscale>  0 0.14128270E+04</rscale>
<asrwt>0</asrwt>
<pdfrwt beam="1">  1        1 0.22831595E+00 0.14128270E+04</pdfrwt>
<pdfrwt beam="2">  1       -1 0.51731493E-01 0.14128270E+04</pdfrwt>
<totfact> 0.24581213E+01</totfact>
</mgrwt>
</event>
<event>
 6    1  0.9988873E-007  0.1066301E+04  0.7818608E-02  0.9238674E-01
         -1   -1    0    0    0  501 -0.00000000000E+00  0.00000000000E+00  0.24528753941E+03  0.24528753941E+03  0.00000000000E+00 0.  1.
          1   -1    0    0  501    0  0.00000000000E+00 -0.00000000000E+00 -0.11588418525E+04  0.11588418525E+04  0.00000000000E+00 0. -1.
         23    2    1    2    0    0  0.16454428085E+02  0.23761297351E+03  0.16243661702E+03  0.30209166340E+03  0.90238822937E+02 0.  0.
         13    1    3    3    0    0  0.53499764086E+02  0.13126468368E+03  0.82757542349E+02  0.16413851698E+03  0.00000000000E+00 0. -1.
        -13    1    3    3    0    0 -0.37045336001E+02  0.10634828982E+03  0.79679074670E+02  0.13795314642E+03  0.00000000000E+00 0.  1.
         22    1    1    2    0    0 -0.16454428085E+02 -0.23761297351E+03 -0.10759909301E+04  0.11020377285E+04  0.00000000000E+00 0. -1.
<mgrwt>
<rscale>  0 0.10663010E+04</rscale>
<asrwt>0</asrwt>
<pdfrwt beam="1">  1        1 0.17828336E+00 0.10663010E+04</pdfrwt>
<pdfrwt beam="2">  1       -1 0.37736544E-01 0.10663010E+04</pdfrwt>
<totfact> 0.77441211E+01</totfact>
</mgrwt>
</event>
<event>
 6    1  0.9988873E-007  0.4825534E+03  0.7818608E-02  0.1018436E+00
         -1   -1    0    0    0  501 -0.00000000000E+00  0.00000000000E+00  0.16272360909E+03  0.16272360909E+03  0.00000000000E+00 0.  1.
          1   -1    0    0  501    0  0.00000000000E+00 -0.00000000000E+00 -0.35775039009E+03  0.35775039009E+03  0.00000000000E+00 0. -1.
         23    2    1    2    0    0 -0.17410337746E+03 -0.14167814768E+03 -0.16650041270E+03  0.29420328243E+03  0.91915724389E+02 0.  0.
         11    1    3    3    0    0 -0.33966417008E+02 -0.82989309361E+02 -0.74563913374E+02  0.11662212539E+03  0.00000000000E+00 0. -1.
        -11    1    3    3    0    0 -0.14013696045E+03 -0.58688838319E+02 -0.91936499329E+02  0.17758115704E+03  0.00000000000E+00 0.  1.
         22    1    1    2    0    0  0.17410337746E+03  0.14167814768E+03 -0.28526368289E+02  0.22627071675E+03  0.00000000000E+00 0. -1.
<mgrwt>
<rscale>  0 0.48255335E+03</rscale>
<asrwt>0</asrwt>
<pdfrwt beam="1">  1        1 0.55038521E-01 0.48255335E+03</pdfrwt>
<pdfrwt beam="2">  1       -1 0.25034402E-01 0.48255335E+03</pdfrwt>
<totfact> 0.97487073E+02</totfact>
</mgrwt>
</event>
<event>
 6    1  0.9988873E-007  0.2350718E+04  0.7818608E-02  0.8458188E-01
         -1   -1    0    0    0  501 -0.00000000000E+00  0.00000000000E+00  0.12411014940E+04  0.12411014940E+04  0.00000000000E+00 0.  1.
          1   -1    0    0  501    0  0.00000000000E+00 -0.00000000000E+00 -0.11130991105E+04  0.11130991105E+04  0.00000000000E+00 0. -1.
         23    2    1    2    0    0 -0.56880250134E+02  0.10235088514E+04  0.63638973249E+03  0.12099701084E+04  0.90719567624E+02 0.  0.
         11    1    3    3    0    0 -0.44427032567E+02  0.64616492380E+03  0.45188999799E+03  0.78975150538E+03  0.00000000000E+00 0.  1.
        -11    1    3    3    0    0 -0.12453217567E+02  0.37734392758E+03  0.18449973450E+03  0.42021860304E+03  0.00000000000E+00 0. -1.
         22    1    1    2    0    0  0.56880250134E+02 -0.10235088514E+04 -0.50838734898E+03  0.11442304961E+04  0.00000000000E+00 0. -1.
<mgrwt>
<rscale>  0 0.23507182E+04</rscale>
<asrwt>0</asrwt>
<pdfrwt beam="1">  1        1 0.17124602E+00 0.23507182E+04</pdfrwt>
<pdfrwt beam="2">  1       -1 0.19093869E+00 0.23507182E+04</pdfrwt>
<totfact> 0.19412732E+00</totfact>
</mgrwt>
</event>
<event>
 6    1  0.9988873E-007  0.7820959E+03  0.7818608E-02  0.9586300E-01
         -2   -1    0    0    0  501 -0.00000000000E+00  0.00000000000E+00  0.15224392620E+03  0.15224392620E+03  0.00000000000E+00 0.  1.
          2   -1    0    0  501    0  0.00000000000E+00 -0.00000000000E+00 -0.10044309008E+04  0.10044309008E+04  0.00000000000E+00 0. -1.
         23    2    1    2    0    0 -0.36531289652E+03 -0.11158435553E+03 -0.35287309384E+03  0.52801042346E+03  0.91493202836E+02 0.  0.
         13    1    3    3    0    0 -0.22964743256E+03 -0.11436342248E+03 -0.21751581674E+03  0.33634813247E+03  0.00000000000E+00 0.  1.
        -13    1    3    3    0    0 -0.13566546396E+03  0.27790669542E+01 -0.13535727710E+03  0.19166229099E+03  0.00000000000E+00 0. -1.
         22    1    1    2    0    0  0.36531289652E+03  0.11158435553E+03 -0.49931388080E+03  0.62866440358E+03  0.00000000000E+00 0. -1.
<mgrwt>
<rscale>  0 0.78209591E+03</rscale>
<asrwt>0</asrwt>
<pdfrwt beam="1">  1        2 0.15452783E+00 0.78209591E+03</pdfrwt>
<pdfrwt beam="2">  1       -2 0.23422143E-01 0.78209591E+03</pdfrwt>
<totfact> 0.40553659E+02</totfact>
</mgrwt>
</event>
<event>
 6    1  0.9988873E-007  0.4437818E+04  0.7818608E-02  0.7921614E-01
          2   -1    0    0  501    0  0.00000000000E+00  0.00000000000E+00  0.37714716865E+04  0.37714716865E+04  0.00000000000E+00 0. -1.
         -2   -1    0    0    0  501 -0.00000000000E+00 -0.00000000000E+00 -0.13054736547E+04  0.13054736547E+04  0.00000000000E+00 0.  1.
         23    2    1    2    0    0 -0.20273915488E+04 -0.85539686701E+02  0.22581898475E+04  0.30371370729E+04  0.84538052030E+02 0.  0.
         11    1    3    3    0    0 -0.15669172382E+04 -0.55692250282E+02  0.16930730029E+04  0.23075587644E+04  0.00000000000E+00 0. -1.
        -11    1    3    3    0    0 -0.46047431057E+03 -0.29847436418E+02  0.56511684467E+03  0.72957830854E+03  0.00000000000E+00 0.  1.
         22    1    1    2    0    0  0.20273915488E+04  0.85539686701E+02  0.20780818423E+03  0.20398082683E+04  0.00000000000E+00 0. -1.
<mgrwt>
<rscale>  0 0.44378179E+04</rscale>
<asrwt>0</asrwt>
<pdfrwt beam="1">  1        2 0.58022641E+00 0.44378179E+04</pdfrwt>
<pdfrwt beam="2">  1       -2 0.20084210E+00 0.44378179E+04</pdfrwt>
<totfact> 0.51465257E-02</totfact>
</mgrwt>
</event>
<event>
 6    1  0.9988873E-007  0.1859751E+04  0.7818608E-02  0.8675154E-01
         -2   -1    0    0    0  501 -0.00000000000E+00  0.00000000000E+00  0.18351353504E+04  0.18351353504E+04  0.00000000000E+00 0.  1.
          2   -1    0    0  501    0  0.00000000000E+00 -0.00000000000E+00 -0.47117439499E+03  0.47117439499E+03  0.00000000000E+00 0. -1.
         23    2    1    2    0    0 -0.90110395374E+02 -0.18439832684E+02  0.18283963570E+04  0.18328542006E+04  0.88664376915E+02 0.  0.
         11    1    3    3    0    0 -0.10418793433E+03 -0.28155781751E+01  0.13610341902E+04  0.13650190915E+04  0.00000000000E+00 0. -1.
        -11    1    3    3    0    0  0.14077538960E+02 -0.15624254509E+02  0.46736216673E+03  0.46783510912E+03  0.00000000000E+00 0.  1.
         22    1    1    2    0    0  0.90110395374E+02  0.18439832684E+02 -0.46443540149E+03  0.47345554484E+03  0.00000000000E+00 0. -1.
<mgrwt>
<rscale>  0 0.18597514E+04</rscale>
<asrwt>0</asrwt>
<pdfrwt beam="1">  1        2 0.72488369E-01 0.18597514E+04</pdfrwt>
<pdfrwt beam="2">  1       -2 0.28232851E+00 0.18597514E+04</pdfrwt>
<totfact> 0.25283149E+00</totfact>
</mgrwt>
</event>
<event>
 6    1  0.9988873E-007  0.2177326E+04  0.7818608E-02  0.8527925E-01
          2   -1    0    0  501    0  0.00000000000E+00  0.00000000000E+00  0.20100574011E+04  0.20100574011E+04  0.00000000000E+00 0. -1.
         -2   -1    0    0    0  501 -0.00000000000E+00 -0.00000000000E+00 -0.58962863678E+03  0.58962863678E+03  0.00000000000E+00 0.  1.
         23    2    1    2    0    0 -0.46395989028E+03 -0.10139858274E+03  0.18786081688E+04  0.19397854249E+04  0.89768537343E+02 0.  0.
         11    1    3    3    0    0 -0.17166398439E+03 -0.11632270995E+02  0.82252505353E+03  0.84032808887E+03  0.00000000000E+00 0. -1.
        -11    1    3    3    0    0 -0.29229590590E+03 -0.89766311748E+02  0.10560831153E+04  0.10994573360E+04  0.00000000000E+00 0.  1.
         22    1    1    2    0    0  0.46395989028E+03  0.10139858274E+03 -0.45817940448E+03  0.65990061302E+03  0.00000000000E+00 0.  1.
<mgrwt>
<rscale>  0 0.21773263E+04</rscale>
<asrwt>0</asrwt>
<pdfrwt beam="1">  1        2 0.30923960E+00 0.21773263E+04</pdfrwt>
<pdfrwt beam="2">  1       -2 0.90712099E-01 0.21773263E+04</pdfrwt>
<totfact> 0.62672144E+00</totfact>
</mgrwt>
</event>
<event>
 6    1  0.9988873E-007  0.4229152E+04  0.7818608E-02  0.7959850E-01
         -2   -1    0    0    0  501 -0.00000000000E+00  0.00000000000E+00  0.13157701956E+04  0.13157701956E+04  0.00000000000E+00 0.  1.
          2   -1    0    0  501    0  0.00000000000E+00 -0.00000000000E+00 -0.33983385900E+04  0.33983385900E+04  0.00000000000E+00 0. -1.
         23    2    1    2    0    0  0.11626802059E+04 -0.14871743308E+04 -0.21015624773E+04  0.28262863558E+04  0.88413616553E+02 0.  0.
         13    1    3    3    0    0  0.95681687876E+03 -0.12711905507E+04 -0.17488784462E+04  0.23643180360E+04  0.00000000000E+00 0. -1.
        -13    1    3    3    0    0  0.20586332709E+03 -0.21598378013E+03 -0.35268403112E+03  0.46196831983E+03  0.00000000000E+00 0.  1.
         22    1    1    2    0    0 -0.11626802059E+04  0.14871743308E+04  0.18994082894E+02  0.18878224298E+04  0.00000000000E+00 0.  1.
<mgrwt>
<rscale>  0 0.42291525E+04</rscale>
<asrwt>0</asrwt>
<pdfrwt beam="1">  1        2 0.52282131E+00 0.42291525E+04</pdfrwt>
<pdfrwt beam="2">  1       -2 0.20242619E+00 0.42291525E+04</pdfrwt>
<totfact> 0.94772865E-02</totfact>
</mgrwt>
</event>
<event>
 6    1  0.9988873E-007  0.1530072E+04  0.7818608E-02  0.8864698E-01
          1   -1    0    0  501    0  0.00000000000E+00  0.00000000000E+00  0.50957521278E+03  0.50957521278E+03  0.00000000000E+00 0. -1.
         -1   -1    0    0    0  501 -0.00000000000E+00 -0.00000000000E+00 -0.11485647687E+04  0.11485647687E+04  0.00000000000E+00 0.  1.
         23    2    1    2    0    0 -0.29933001364E+03  0.47836842678E+02 -0.10786636485E+04  0.11240986645E+04  0.90530217614E+02 0.  0.
         13    1    3    3    0    0 -0.23034556670E+03  0.64129501097E+02 -0.72530804693E+03  0.76370376191E+03  0.00000000000E+00 0. -1.
        -13    1    3    3    0    0 -0.68984446940E+02 -0.16292658419E+02 -0.35335560156E+03  0.36039490256E+03  0.00000000000E+00 0.  1.
         22    1    1    2    0    0  0.29933001364E+03 -0.47836842678E+02  0.43967409258E+03  0.53404131700E+03  0.00000000000E+00 0. -1.
<mgrwt>
<rscale>  0 0.15300721E+04</rscale>
<asrwt>0</asrwt>
<pdfrwt beam="1">  1        1 0.78396188E-01 0.15300721E+04</pdfrwt>
<pdfrwt beam="2">  1       -1 0.17670227E+00 0.15300721E+04</pdfrwt>
<totfact> 0.91573950E+00</totfact>
</mgrwt>
</event>
<event>
 6    1  0.9988873E-007  0.2105715E+04  0.7818608E-02  0.8558730E-01
          3   -1    0    0  501    0  0.00000000000E+00  0.00000000000E+00  0.35043919871E+04  0.35043919871E+04  0.00000000000E+00 0. -1.
         -3   -1    0    0    0  501 -0.00000000000E+00 -0.00000000000E+00 -0.31631991059E+03  0.31631991059E+03  0.00000000000E+00 0.  1.
         23    2    1    2    0    0 -0.58524682541E+03  0.18602971155E+03  0.49876564354E+02  0.62299521657E+03  0.92273874736E+02 0.  0.
         11    1    3    3    0    0 -0.32240322153E+03  0.55759704304E+02  0.38149984179E+02  0.32940613712E+03  0.00000000000E+00 0.  1.
        -11    1    3    3    0    0 -0.26284360388E+03  0.13027000725E+03  0.11726580175E+02  0.29358907945E+03  0.00000000000E+00 0. -1.
         22    1    1    2    0    0  0.58524682541E+03 -0.18602971155E+03  0.31381955122E+04  0.31977166811E+04  0.00000000000E+00 0. -1.
<mgrwt>
<rscale>  0 0.21057150E+04</rscale>
<asrwt>0</asrwt>
<pdfrwt beam="1">  1        3 0.53913720E+00 0.21057150E+04</pdfrwt>
<pdfrwt beam="2">  1       -3 0.48664604E-01 0.21057150E+04</pdfrwt>
<totfact> 0.22425618E-02</totfact>
</mgrwt>
</event>
<event>
 6    1  0.9988873E-007  0.1734149E+04  0.7818608E-02  0.8742124E-01
         -1   -1    0    0    0  501 -0.00000000000E+00  0.00000000000E+00  0.43292610117E+03  0.43292610117E+03  0.00000000000E+00 0.  1.
          1   -1    0    0  501    0  0.00000000000E+00 -0.00000000000E+00 -0.17365961033E+04  0.17365961033E+04  0.00000000000E+00 0. -1.
         23    2    1    2    0    0  0.85345488646E+03  0.74822495688E+00 -0.48051503720E+03  0.98378618860E+03  0.92491950119E+02 0.  0.
         11    1    3    3    0    0  0.15754168313E+03 -0.14435707729E+02 -0.52702525411E+02  0.16674929615E+03  0.00000000000E+00 0. -1.
        -11    1    3    3    0    0  0.69591320333E+03  0.15183932686E+02 -0.42781251179E+03  0.81703689245E+03  0.00000000000E+00 0.  1.
         22    1    1    2    0    0 -0.85345488646E+03 -0.74822495688E+00 -0.82315496495E+03  0.11857360159E+04  0.00000000000E+00 0. -1.
<mgrwt>
<rscale>  0 0.17341485E+04</rscale>
<asrwt>0</asrwt>
<pdfrwt beam="1">  1        1 0.26716864E+00 0.17341485E+04</pdfrwt>
<pdfrwt beam="2">  1       -1 0.66604014E-01 0.17341485E+04</pdfrwt>
<totfact> 0.97520822E+00</totfact>
</mgrwt>
</event>
<event>
 6    1  0.9988873E-007  0.7831466E+03  0.7818608E-02  0.9584737E-01
         -2   -1    0    0    0  501 -0.00000000000E+00  0.00000000000E+00  0.14647784215E+03  0.14647784215E+03  0.00000000000E+00 0.  1.
          2   -1    0    0  501    0  0.00000000000E+00 -0.00000000000E+00 -0.10467771290E+04  0.10467771290E+04  0.00000000000E+00 0. -1.
         23    2    1    2    0    0  0.23016186904E+03  0.20228048767E+03 -0.96637718222E+02  0.33315974471E+03  0.88117451507E+02 0.  0.
         13    1    3    3    0    0  0.13697316302E+03  0.15563077599E+03 -0.97126426788E+02  0.22894568920E+03  0.00000000000E+00 0.  1.
        -13    1    3    3    0    0  0.93188706019E+02  0.46649711677E+02  0.48870856652E+00  0.10421405551E+03  0.00000000000E+00 0. -1.
         22    1    1    2    0    0 -0.23016186904E+03 -0.20228048767E+03 -0.80366156862E+03  0.86009522643E+03  0.00000000000E+00 0. -1.
<mgrwt>
<rscale>  0 0.78314661E+03</rscale>
<asrwt>0</asrwt>
<pdfrwt beam="1">  1        2 0.16104263E+00 0.78314661E+03</pdfrwt>
<pdfrwt beam="2">  1       -2 0.22535054E-01 0.78314661E+03</pdfrwt>
<totfact> 0.40848658E+02</totfact>
</mgrwt>
</event>
<event>
 6    1  0.9988873E-007  0.2175076E+04  0.7818608E-02  0.8528874E-01
          1   -1    0    0  501    0  0.00000000000E+00  0.00000000000E+00  0.13395083887E+04  0.13395083887E+04  0.00000000000E+00 0. -1.
         -1   -1    0    0    0  501 -0.00000000000E+00 -0.00000000000E+00 -0.88296460536E+03  0.88296460536E+03  0.00000000000E+00 0.  1.
         23    2    1    2    0    0 -0.53609405364E+03 -0.46841394020E+03  0.10658902140E+04  0.12853969425E+04  0.96513717866E+02 0.  0.
         13    1    3    3    0    0 -0.10510911188E+03 -0.12053054734E+03  0.30347000952E+03  0.34303000586E+03  0.00000000000E+00 0.  1.
        -13    1    3    3    0    0 -0.43098494176E+03 -0.34788339286E+03  0.76242020452E+03  0.94236693667E+03  0.00000000000E+00 0. -1.
         22    1    1    2    0    0  0.53609405364E+03  0.46841394020E+03 -0.60934643071E+03  0.93707605152E+03  0.00000000000E+00 0.  1.
<mgrwt>
<rscale>  0 0.21750756E+04</rscale>
<asrwt>0</asrwt>
<pdfrwt beam="1">  1        1 0.20607821E+00 0.21750756E+04</pdfrwt>
<pdfrwt beam="2">  1       -1 0.13584071E+00 0.21750756E+04</pdfrwt>
<totfact> 0.35118398E+00</totfact>
</mgrwt>
</event>
<event>
 6    1  0.9988873E-007  0.9902552E+03  0.7818608E-02  0.9319298E-01
          2   -1    0    0  501    0  0.00000000000E+00  0.00000000000E+00  0.96049743648E+03  0.96049743648E+03  0.00000000000E+00 0. -1.
         -2   -1    0    0    0  501 -0.00000000000E+00 -0.00000000000E+00 -0.25523373479E+03  0.25523373479E+03  0.00000000000E+00 0.  1.
         23    2    1    2    0    0 -0.37787556055E+03 -0.19328518284E+03  0.65866664622E+03  0.78874125717E+03  0.90121688593E+02 0.  0.
         11    1    3    3    0    0 -0.34858557283E+03 -0.17263560267E+03  0.54516425935E+03  0.66971562813E+03  0.00000000000E+00 0.  1.
        -11    1    3    3    0    0 -0.29289987712E+02 -0.20649580168E+02  0.11350238687E+03  0.11902562903E+03  0.00000000000E+00 0. -1.
         22    1    1    2    0    0  0.37787556055E+03  0.19328518284E+03  0.46597055466E+02  0.42698991410E+03  0.00000000000E+00 0.  1.
<mgrwt>
<rscale>  0 0.99025522E+03</rscale>
<asrwt>0</asrwt>
<pdfrwt beam="1">  1        2 0.14776883E+00 0.99025522E+03</pdfrwt>
<pdfrwt beam="2">  1       -2 0.39266729E-01 0.99025522E+03</pdfrwt>
<totfact> 0.16353251E+02</totfact>
</mgrwt>
</event>
<event>
 6    1  0.9988873E-007  0.1924569E+04  0.7818608E-02  0.8642723E-01
         -2   -1    0    0    0  501 -0.00000000000E+00  0.00000000000E+00  0.54905227622E+03  0.54905227622E+03  0.00000000000E+00 0.  1.
          2   -1    0    0  501    0  0.00000000000E+00 -0.00000000000E+00 -0.16865271079E+04  0.16865271079E+04  0.00000000000E+00 0. -1.
         23    2    1    2    0    0  0.93575701818E+03  0.16376443916E+03 -0.73097264901E+03  0.12022817440E+04  0.93275879393E+02 0.  0.
         11    1    3    3    0    0  0.26629735029E+03  0.89252164414E+02 -0.22295262328E+03  0.35859182904E+03  0.00000000000E+00 0. -1.
        -11    1    3    3    0    0  0.66945966788E+03  0.74512274751E+02 -0.50802002573E+03  0.84368991493E+03  0.00000000000E+00 0.  1.
         22    1    1    2    0    0 -0.93575701818E+03 -0.16376443916E+03 -0.40650218265E+03  0.10332976401E+04  0.00000000000E+00 0. -1.
<mgrwt>
<rscale>  0 0.19245691E+04</rscale>
<asrwt>0</asrwt>
<pdfrwt beam="1">  1        2 0.25946571E+00 0.19245691E+04</pdfrwt>
<pdfrwt beam="2">  1       -2 0.84469580E-01 0.19245691E+04</pdfrwt>
<totfact> 0.11398522E+01</totfact>
</mgrwt>
</event>
<event>
 6    1  0.9988873E-007  0.3126536E+04  0.7818608E-02  0.8208493E-01
          2   -1    0    0  501    0  0.00000000000E+00  0.00000000000E+00  0.20179549042E+04  0.20179549042E+04  0.00000000000E+00 0. -1.
         -2   -1    0    0    0  501 -0.00000000000E+00 -0.00000000000E+00 -0.12110315919E+04  0.12110315919E+04  0.00000000000E+00 0.  1.
         23    2    1    2    0    0 -0.12507427421E+04 -0.22833497126E+03 -0.53315547423E+03  0.13817438428E+04  0.92016418698E+02 0.  0.
         11    1    3    3    0    0 -0.80907808178E+03 -0.17188507708E+03 -0.30630637638E+03  0.88202914825E+03  0.00000000000E+00 0.  1.
        -11    1    3    3    0    0 -0.44166466031E+03 -0.56449894173E+02 -0.22684909785E+03  0.49971469452E+03  0.00000000000E+00 0. -1.
         22    1    1    2    0    0  0.12507427421E+04  0.22833497126E+03  0.13400787866E+04  0.18472426533E+04  0.00000000000E+00 0. -1.
<mgrwt>
<rscale>  0 0.31265362E+04</rscale>
<asrwt>0</asrwt>
<pdfrwt beam="1">  1        2 0.31045460E+00 0.31265362E+04</pdfrwt>
<pdfrwt beam="2">  1       -2 0.18631255E+00 0.31265362E+04</pdfrwt>
<totfact> 0.90800000E-01</totfact>
</mgrwt>
</event>
<event>
 6    1  0.9988873E-007  0.1165466E+04  0.7818608E-02  0.9143633E-01
          1   -1    0    0  501    0  0.00000000000E+00  0.00000000000E+00  0.12165730159E+04  0.12165730159E+04  0.00000000000E+00 0. -1.
         -1   -1    0    0    0  501 -0.00000000000E+00 -0.00000000000E+00 -0.27912643547E+03  0.27912643547E+03  0.00000000000E+00 0.  1.
         23    2    1    2    0    0 -0.16524871401E+03 -0.52629557696E+03  0.69841847226E+03  0.89451012321E+03  0.89809945581E+02 0.  0.
         13    1    3    3    0    0 -0.13228348646E+03 -0.44800206110E+03  0.63590480524E+03  0.78903719106E+03  0.00000000000E+00 0. -1.
        -13    1    3    3    0    0 -0.32965227556E+02 -0.78293515863E+02  0.62513667015E+02  0.10547293216E+03  0.00000000000E+00 0.  1.
         22    1    1    2    0    0  0.16524871401E+03  0.52629557696E+03  0.23902810821E+03  0.60118932819E+03  0.00000000000E+00 0.  1.
<mgrwt>
<rscale>  0 0.11654659E+04</rscale>
<asrwt>0</asrwt>
<pdfrwt beam="1">  1        1 0.18716508E+00 0.11654659E+04</pdfrwt>
<pdfrwt beam="2">  1       -1 0.42942529E-01 0.11654659E+04</pdfrwt>
<totfact> 0.55063592E+01</totfact>
</mgrwt>
</event>
<event>
 6    1  0.9988873E-007  0.3024515E+04  0.7818608E-02  0.8236765E-01
          2   -1    0    0  501    0  0.00000000000E+00  0.00000000000E+00  0.13099498059E+04  0.13099498059E+04  0.00000000000E+00 0. -1.
         -2   -1    0    0    0  501 -0.00000000000E+00 -0.00000000000E+00 -0.17458091860E+04  0.17458091860E+04  0.00000000000E+00 0.  1.
         23    2    1    2    0    0  0.13390030792E+04  0.32901282508E+03  0.40595424779E+03  0.14402625143E+04  0.91534549633E+02 0.  0.
         11    1    3    3    0    0  0.51557260032E+03  0.15170340614E+03  0.19729279294E+03  0.57249757709E+03  0.00000000000E+00 0.  1.
        -11    1    3    3    0    0  0.82343047884E+03  0.17730941895E+03  0.20866145485E+03  0.86776493722E+03  0.00000000000E+00 0. -1.
         22    1    1    2    0    0 -0.13390030792E+04 -0.32901282508E+03 -0.84181362785E+03  0.16154964776E+04  0.00000000000E+00 0. -1.
<mgrwt>
<rscale>  0 0.30245148E+04</rscale>
<asrwt>0</asrwt>
<pdfrwt beam="1">  1        2 0.20153074E+00 0.30245148E+04</pdfrwt>
<pdfrwt beam="2">  1       -2 0.26858603E+00 0.30245148E+04</pdfrwt>
<totfact> 0.68895651E-01</totfact>
</mgrwt>
</event>
<event>
 6    1  0.1173019E-006  0.2826322E+04  0.7818608E-02  0.8295143E-01
          2   -1    0    0  501    0  0.00000000000E+00  0.00000000000E+00  0.19496592938E+04  0.19496592938E+04  0.00000000000E+00 0. -1.
         -2   -1    0    0    0  501 -0.00000000000E+00 -0.00000000000E+00 -0.10242938824E+04  0.10242938824E+04  0.00000000000E+00 0.  1.
         23    2    1    2    0    0  0.13383586493E+03 -0.12798874360E+04 -0.14751510009E+03  0.12985139863E+04  0.91400110997E+02 0.  0.
         11    1    3    3    0    0  0.13922965527E+02 -0.27098691417E+03 -0.65947688880E+02  0.27924336033E+03  0.00000000000E+00 0. -1.
        -11    1    3    3    0    0  0.11991289941E+03 -0.10089005218E+04 -0.81567411213E+02  0.10192706259E+04  0.00000000000E+00 0.  1.
         22    1    1    2    0    0 -0.13383586493E+03  0.12798874360E+04  0.10728805115E+04  0.16754391900E+04  0.00000000000E+00 0. -1.
<mgrwt>
<rscale>  0 0.28263221E+04</rscale>
<asrwt>0</asrwt>
<pdfrwt beam="1">  1        2 0.29994758E+00 0.28263221E+04</pdfrwt>
<pdfrwt beam="2">  1       -2 0.15758368E+00 0.28263221E+04</pdfrwt>
<totfact> 0.16245667E+00</totfact>
</mgrwt>
</event>
<event>
 6    1  0.9988873E-007  0.2371700E+04  0.7818608E-02  0.8450175E-01
         -2   -1    0    0    0  501 -0.00000000000E+00  0.00000000000E+00  0.10670683660E+04  0.10670683660E+04  0.00000000000E+00 0.  1.
          2   -1    0    0  501    0  0.00000000000E+00 -0.00000000000E+00 -0.13178541858E+04  0.13178541858E+04  0.00000000000E+00 0. -1.
         23    2    1    2    0    0  0.67736158262E+03  0.34278579842E+03 -0.10394625781E+04  0.12902391060E+04  0.88958879268E+02 0.  0.
         13    1    3    3    0    0  0.36158084549E+03  0.14486760633E+03 -0.48278682960E+03  0.62033092299E+03  0.00000000000E+00 0.  1.
        -13    1    3    3    0    0  0.31578073714E+03  0.19791819209E+03 -0.55667574853E+03  0.66990818304E+03  0.00000000000E+00 0. -1.
         22    1    1    2    0    0 -0.67736158262E+03 -0.34278579842E+03  0.78867675833E+03  0.10946834457E+04  0.00000000000E+00 0.  1.
<mgrwt>
<rscale>  0 0.23717002E+04</rscale>
<asrwt>0</asrwt>
<pdfrwt beam="1">  1        2 0.20274680E+00 0.23717002E+04</pdfrwt>
<pdfrwt beam="2">  1       -2 0.16416436E+00 0.23717002E+04</pdfrwt>
<totfact> 0.34157428E+00</totfact>
</mgrwt>
</event>
<event>
 6    1  0.9988873E-007  0.3680730E+04  0.7818608E-02  0.8072246E-01
          1   -1    0    0  501    0  0.00000000000E+00  0.00000000000E+00  0.25406790825E+04  0.25406790825E+04  0.00000000000E+00 0. -1.
         -1   -1    0    0    0  501 -0.00000000000E+00 -0.00000000000E+00 -0.13330859763E+04  0.13330859763E+04  0.00000000000E+00 0.  1.
         23    2    1    2    0    0 -0.66882961280E+03 -0.12882593659E+04 -0.58463931020E+03  0.15674601615E+04  0.90459880819E+02 0.  0.
         13    1    3    3    0    0 -0.38559836431E+02 -0.76549233503E+02 -0.12409600361E+02  0.86606260262E+02  0.00000000000E+00 0.  1.
        -13    1    3    3    0    0 -0.63026977637E+03 -0.12117101324E+04 -0.57222970984E+03  0.14808539013E+04  0.00000000000E+00 0. -1.
         22    1    1    2    0    0  0.66882961280E+03  0.12882593659E+04  0.17922324164E+04  0.23063048973E+04  0.00000000000E+00 0. -1.
<mgrwt>
<rscale>  0 0.36807302E+04</rscale>
<asrwt>0</asrwt>
<pdfrwt beam="1">  1        1 0.39087370E+00 0.36807302E+04</pdfrwt>
<pdfrwt beam="2">  1       -1 0.20509015E+00 0.36807302E+04</pdfrwt>
<totfact> 0.14162205E-01</totfact>
</mgrwt>
</event>
<event>
 6    1  0.9988873E-007  0.1973658E+04  0.7818608E-02  0.8619037E-01
          2   -1    0    0  501    0  0.00000000000E+00  0.00000000000E+00  0.42154221127E+04  0.42154221127E+04  0.00000000000E+00 0. -1.
         -2   -1    0    0    0  501 -0.00000000000E+00 -0.00000000000E+00 -0.23101627422E+03  0.23101627422E+03  0.00000000000E+00 0.  1.
         23    2    1    2    0    0  0.67560734767E+03  0.21919881707E+03  0.45993735618E+03  0.85111204675E+03  0.91410802900E+02 0.  0.
         13    1    3    3    0    0  0.49642538778E+03  0.14876300648E+03  0.38010297144E+03  0.64268722301E+03  0.00000000000E+00 0. -1.
        -13    1    3    3    0    0  0.17918195989E+03  0.70435810591E+02  0.79834384747E+02  0.20842482374E+03  0.00000000000E+00 0.  1.
         22    1    1    2    0    0 -0.67560734767E+03 -0.21919881707E+03  0.35244684823E+04  0.35953263402E+04  0.00000000000E+00 0. -1.
<mgrwt>
<rscale>  0 0.19736576E+04</rscale>
<asrwt>0</asrwt>
<pdfrwt beam="1">  1        2 0.64852642E+00 0.19736576E+04</pdfrwt>
<pdfrwt beam="2">  1       -2 0.35540968E-01 0.19736576E+04</pdfrwt>
<totfact> 0.15828020E+00</totfact>
</mgrwt>
</event>
<event>
 6    1  0.9988873E-007  0.1740827E+04  0.7818608E-02  0.8738416E-01
          2   -1    0    0  501    0  0.00000000000E+00  0.00000000000E+00  0.23033002944E+04  0.23033002944E+04  0.00000000000E+00 0. -1.
         -2   -1    0    0    0  501 -0.00000000000E+00 -0.00000000000E+00 -0.32892798173E+03  0.32892798173E+03  0.00000000000E+00 0.  1.
         23    2    1    2    0    0 -0.36930681746E+03 -0.33701278598E+03  0.20628904881E+04  0.21244875838E+04  0.89247882763E+02 0.  0.
         11    1    3    3    0    0 -0.13728976291E+03 -0.15861522770E+03  0.10175337445E+04  0.10389331984E+04  0.00000000000E+00 0.  1.
        -11    1    3    3    0    0 -0.23201705455E+03 -0.17839755829E+03  0.10453567436E+04  0.10855543854E+04  0.00000000000E+00 0. -1.
         22    1    1    2    0    0  0.36930681746E+03  0.33701278598E+03 -0.88518175345E+02  0.50774069239E+03  0.00000000000E+00 0.  1.
<mgrwt>
<rscale>  0 0.17408273E+04</rscale>
<asrwt>0</asrwt>
<pdfrwt beam="1">  1        2 0.35435388E+00 0.17408273E+04</pdfrwt>
<pdfrwt beam="2">  1       -2 0.50604306E-01 0.17408273E+04</pdfrwt>
<totfact> 0.15820656E+01</totfact>
</mgrwt>
</event>
<event>
 6    1  0.9988873E-007  0.2852631E+04  0.7818608E-02  0.8287112E-01
          2   -1    0    0  501    0  0.00000000000E+00  0.00000000000E+00  0.21295939565E+04  0.21295939565E+04  0.00000000000E+00 0. -1.
         -2   -1    0    0    0  501 -0.00000000000E+00 -0.00000000000E+00 -0.95528831412E+03  0.95528831412E+03  0.00000000000E+00 0.  1.
         23    2    1    2    0    0  0.12739643219E+04 -0.60731875981E+03  0.79960142205E+03  0.16246684430E+04  0.91454611839E+02 0.  0.
         11    1    3    3    0    0  0.62313393340E+03 -0.33074275639E+03  0.43855687825E+03  0.83067370568E+03  0.00000000000E+00 0. -1.
        -11    1    3    3    0    0  0.65083038854E+03 -0.27657600343E+03  0.36104454380E+03  0.79399473735E+03  0.00000000000E+00 0.  1.
         22    1    1    2    0    0 -0.12739643219E+04  0.60731875981E+03  0.37470422034E+03  0.14602138276E+04  0.00000000000E+00 0.  1.
<mgrwt>
<rscale>  0 0.28526312E+04</rscale>
<asrwt>0</asrwt>
<pdfrwt beam="1">  1        2 0.32762984E+00 0.28526312E+04</pdfrwt>
<pdfrwt beam="2">  1       -2 0.14696743E+00 0.28526312E+04</pdfrwt>
<totfact> 0.15497922E+00</totfact>
</mgrwt>
</event>
<event>
 6    1  0.9988873E-007  0.1018084E+04  0.7818608E-02  0.9288930E-01
         -2   -1    0    0    0  501 -0.00000000000E+00  0.00000000000E+00  0.43689813542E+03  0.43689813542E+03  0.00000000000E+00 0.  1.
          2   -1    0    0  501    0  0.00000000000E+00 -0.00000000000E+00 -0.59309901149E+03  0.59309901149E+03  0.00000000000E+00 0. -1.
         23    2    1    2    0    0  0.56324096968E+02 -0.25962857547E+03  0.35568901375E+03  0.45327307043E+03  0.91446163264E+02 0.  0.
         11    1    3    3    0    0  0.43544990479E+02 -0.35492986496E+02  0.63186309452E+02  0.84548376616E+02  0.00000000000E+00 0. -1.
        -11    1    3    3    0    0  0.12779106489E+02 -0.22413558897E+03  0.29250270429E+03  0.36872469381E+03  0.00000000000E+00 0.  1.
         22    1    1    2    0    0 -0.56324096968E+02  0.25962857547E+03 -0.51188988982E+03  0.57672407648E+03  0.00000000000E+00 0. -1.
<mgrwt>
<rscale>  0 0.10180842E+04</rscale>
<asrwt>0</asrwt>
<pdfrwt beam="1">  1        2 0.91246002E-01 0.10180842E+04</pdfrwt>
<pdfrwt beam="2">  1       -2 0.67215098E-01 0.10180842E+04</pdfrwt>
<totfact> 0.10194809E+02</totfact>
</mgrwt>
</event>
<event>
 6    1  0.9988873E-007  0.1743201E+04  0.7818608E-02  0.8737102E-01
          2   -1    0    0  501    0  0.00000000000E+00  0.00000000000E+00  0.18721313643E+04  0.18721313643E+04  0.00000000000E+00 0. -1.
         -2   -1    0    0    0  501 -0.00000000000E+00 -0.00000000000E+00 -0.40578737480E+03  0.40578737480E+03  0.00000000000E+00 0.  1.
         23    2    1    2    0    0 -0.46596553908E+03  0.30448287898E+03  0.16075590540E+04  0.17036579955E+04  0.91491783691E+02 0.  0.
         13    1    3    3    0    0 -0.22141041063E+03  0.16338082524E+03  0.92347824142E+03  0.96360153921E+03  0.00000000000E+00 0. -1.
        -13    1    3    3    0    0 -0.24455512845E+03  0.14110205374E+03  0.68408081253E+03  0.74005645629E+03  0.00000000000E+00 0.  1.
         22    1    1    2    0    0  0.46596553908E+03 -0.30448287898E+03 -0.14121506447E+03  0.57426074359E+03  0.00000000000E+00 0.  1.
<mgrwt>
<rscale>  0 0.17432008E+04</rscale>
<asrwt>0</asrwt>
<pdfrwt beam="1">  1        2 0.28802020E+00 0.17432008E+04</pdfrwt>
<pdfrwt beam="2">  1       -2 0.62428828E-01 0.17432008E+04</pdfrwt>
<totfact> 0.17762165E+01</totfact>
</mgrwt>
</event>
<event>
 6    1  0.9988873E-007  0.1244738E+04  0.7818608E-02  0.9074574E-01
          2   -1    0    0  501    0  0.00000000000E+00  0.00000000000E+00  0.17751498790E+04  0.17751498790E+04  0.00000000000E+00 0. -1.
         -2   -1    0    0    0  501 -0.00000000000E+00 -0.00000000000E+00 -0.21820304144E+03  0.21820304144E+03  0.00000000000E+00 0.  1.
         23    2    1    2    0    0  0.41639044017E+03  0.76277611292E+02  0.15059344271E+04  0.15669710040E+04  0.91434981984E+02 0.  0.
         11    1    3    3    0    0  0.17913989429E+03  0.77875523038E+02  0.71727882582E+03  0.74340070809E+03  0.00000000000E+00 0.  1.
        -11    1    3    3    0    0  0.23725054588E+03 -0.15979117465E+01  0.78865560131E+03  0.82357029592E+03  0.00000000000E+00 0. -1.
         22    1    1    2    0    0 -0.41639044017E+03 -0.76277611292E+02  0.51012410437E+02  0.42638191644E+03  0.00000000000E+00 0.  1.
<mgrwt>
<rscale>  0 0.12447379E+04</rscale>
<asrwt>0</asrwt>
<pdfrwt beam="1">  1        2 0.27309997E+00 0.12447379E+04</pdfrwt>
<pdfrwt beam="2">  1       -2 0.33569700E-01 0.12447379E+04</pdfrwt>
<totfact> 0.72706037E+01</totfact>
</mgrwt>
</event>
<event>
 6    1  0.9988873E-007  0.1876178E+04  0.7818608E-02  0.8666806E-01
          1   -1    0    0  501    0  0.00000000000E+00  0.00000000000E+00  0.26138561163E+04  0.26138561163E+04  0.00000000000E+00 0. -1.
         -1   -1    0    0    0  501 -0.00000000000E+00 -0.00000000000E+00 -0.33667161183E+03  0.33667161183E+03  0.00000000000E+00 0.  1.
         23    2    1    2    0    0 -0.45406969373E+03  0.78850208224E+03  0.14863992035E+04  0.17450169598E+04  0.88242717746E+02 0.  0.
         13    1    3    3    0    0 -0.41532889656E+03  0.73813850888E+03  0.13373367645E+04  0.15829769968E+04  0.00000000000E+00 0.  1.
        -13    1    3    3    0    0 -0.38740797168E+02  0.50363573354E+02  0.14906243900E+03  0.16203996299E+03  0.00000000000E+00 0. -1.
         22    1    1    2    0    0  0.45406969373E+03 -0.78850208224E+03  0.79078530100E+03  0.12055107684E+04  0.00000000000E+00 0.  1.
<mgrwt>
<rscale>  0 0.18761782E+04</rscale>
<asrwt>0</asrwt>
<pdfrwt beam="1">  1        1 0.40213170E+00 0.18761782E+04</pdfrwt>
<pdfrwt beam="2">  1       -1 0.51795634E-01 0.18761782E+04</pdfrwt>
<totfact> 0.39733647E+00</totfact>
</mgrwt>
</event>
<event>
 6    1  0.9988873E-007  0.1904703E+04  0.7818608E-02  0.8652519E-01
          1   -1    0    0  501    0  0.00000000000E+00  0.00000000000E+00  0.11906664956E+04  0.11906664956E+04  0.00000000000E+00 0. -1.
         -1   -1    0    0    0  501 -0.00000000000E+00 -0.00000000000E+00 -0.76173570431E+03  0.76173570431E+03  0.00000000000E+00 0.  1.
         23    2    1    2    0    0  0.26671454262E+03 -0.77798699998E+03 -0.27326096771E+03  0.87098013346E+03  0.86801019685E+02 0.  0.
         13    1    3    3    0    0  0.12596615380E+02 -0.10233104828E+03 -0.14390652303E+02  0.10410287717E+03  0.00000000000E+00 0. -1.
        -13    1    3    3    0    0  0.25411792724E+03 -0.67565595171E+03 -0.25887031541E+03  0.76687725630E+03  0.00000000000E+00 0.  1.
         22    1    1    2    0    0 -0.26671454262E+03  0.77798699998E+03  0.70219175902E+03  0.10814220665E+04  0.00000000000E+00 0. -1.
<mgrwt>
<rscale>  0 0.19047028E+04</rscale>
<asrwt>0</asrwt>
<pdfrwt beam="1">  1        1 0.18317946E+00 0.19047028E+04</pdfrwt>
<pdfrwt beam="2">  1       -1 0.11719011E+00 0.19047028E+04</pdfrwt>
<totfact> 0.66595256E+00</totfact>
</mgrwt>
</event>
<event>
 6    1  0.9988873E-007  0.9933915E+03  0.7818608E-02  0.9315823E-01
          1   -1    0    0  501    0  0.00000000000E+00  0.00000000000E+00  0.21608068147E+04  0.21608068147E+04  0.00000000000E+00 0. -1.
         -1   -1    0    0    0  501 -0.00000000000E+00 -0.00000000000E+00 -0.11417340481E+03  0.11417340481E+03  0.00000000000E+00 0.  1.
         23    2    1    2    0    0  0.48678792104E+03 -0.15953059071E+02  0.11880903155E+04  0.12879071598E+04  0.99645744721E+02 0.  0.
         11    1    3    3    0    0  0.35716614331E+03 -0.50666638626E+02  0.80961216017E+03  0.88634452223E+03  0.00000000000E+00 0.  1.
        -11    1    3    3    0    0  0.12962177773E+03  0.34713579555E+02  0.37847815533E+03  0.40156263761E+03  0.00000000000E+00 0. -1.
         22    1    1    2    0    0 -0.48678792104E+03  0.15953059071E+02  0.85854309437E+03  0.98707305963E+03  0.00000000000E+00 0.  1.
<mgrwt>
<rscale>  0 0.99339151E+03</rscale>
<asrwt>0</asrwt>
<pdfrwt beam="1">  1        1 0.33243179E+00 0.99339151E+03</pdfrwt>
<pdfrwt beam="2">  1       -1 0.17565141E-01 0.99339151E+03</pdfrwt>
<totfact> 0.59429513E+01</totfact>
</mgrwt>
</event>
<event>
 6    1  0.9988873E-007  0.1117520E+04  0.7818608E-02  0.9188282E-01
         -2   -1    0    0    0  501 -0.00000000000E+00  0.00000000000E+00  0.11295930345E+03  0.11295930345E+03  0.00000000000E+00 0.  1.
          2   -1    0    0  501    0  0.00000000000E+00 -0.00000000000E+00 -0.27639404986E+04  0.27639404986E+04  0.00000000000E+00 0. -1.
         23    2    1    2    0    0  0.12019400610E+03 -0.37946699038E+03 -0.23301750497E+04  0.23656675859E+04  0.90694921547E+02 0.  0.
         13    1    3    3    0    0  0.11025402884E+03 -0.32081085118E+03 -0.17597320948E+04  0.17921307426E+04  0.00000000000E+00 0. -1.
        -13    1    3    3    0    0  0.99399772593E+01 -0.58656139204E+02 -0.57044295489E+03  0.57353684328E+03  0.00000000000E+00 0.  1.
         22    1    1    2    0    0 -0.12019400610E+03  0.37946699038E+03 -0.32080614546E+03  0.51123221618E+03  0.00000000000E+00 0.  1.
<mgrwt>
<rscale>  0 0.11175201E+04</rscale>
<asrwt>0</asrwt>
<pdfrwt beam="1">  1        2 0.42522163E+00 0.11175201E+04</pdfrwt>
<pdfrwt beam="2">  1       -2 0.17378354E-01 0.11175201E+04</pdfrwt>
<totfact> 0.66701234E+01</totfact>
</mgrwt>
</event>
<event>
 6    1  0.9988873E-007  0.1402914E+04  0.7818608E-02  0.8951712E-01
         -2   -1    0    0    0  501 -0.00000000000E+00  0.00000000000E+00  0.13194657052E+03  0.13194657052E+03  0.00000000000E+00 0.  1.
          2   -1    0    0  501    0  0.00000000000E+00 -0.00000000000E+00 -0.37291021540E+04  0.37291021540E+04  0.00000000000E+00 0. -1.
         23    2    1    2    0    0  0.40351076431E+03  0.51205027699E+03 -0.24992242996E+04  0.25841503233E+04  0.81819131621E+02 0.  0.
         11    1    3    3    0    0  0.31985447828E+03  0.37964047585E+03 -0.20138116198E+04  0.20740952288E+04  0.00000000000E+00 0.  1.
        -11    1    3    3    0    0  0.83656286022E+02  0.13240980114E+03 -0.48541267985E+03  0.51005509446E+03  0.00000000000E+00 0. -1.
         22    1    1    2    0    0 -0.40351076431E+03 -0.51205027699E+03 -0.10979312839E+04  0.12768984013E+04  0.00000000000E+00 0.  1.
<mgrwt>
<rscale>  0 0.14029145E+04</rscale>
<asrwt>0</asrwt>
<pdfrwt beam="1">  1        2 0.57370800E+00 0.14029145E+04</pdfrwt>
<pdfrwt beam="2">  1       -2 0.20299473E-01 0.14029145E+04</pdfrwt>
<totfact> 0.11501100E+01</totfact>
</mgrwt>
</event>
<event>
 6    1  0.9988873E-007  0.1073483E+04  0.7818608E-02  0.9231430E-01
          1   -1    0    0  501    0  0.00000000000E+00  0.00000000000E+00  0.14632187171E+04  0.14632187171E+04  0.00000000000E+00 0. -1.
         -1   -1    0    0    0  501 -0.00000000000E+00 -0.00000000000E+00 -0.19688884419E+03  0.19688884419E+03  0.00000000000E+00 0.  1.
         23    2    1    2    0    0 -0.20939717492E+03 -0.47671706166E+03  0.46352036408E+03  0.70323273081E+03  0.92621876580E+02 0.  0.
         11    1    3    3    0    0 -0.10654019706E+03 -0.21793438283E+03  0.15625089243E+03  0.28854904296E+03  0.00000000000E+00 0. -1.
        -11    1    3    3    0    0 -0.10285697786E+03 -0.25878267883E+03  0.30726947166E+03  0.41468368785E+03  0.00000000000E+00 0.  1.
         22    1    1    2    0    0  0.20939717492E+03  0.47671706166E+03  0.80280950881E+03  0.95687483047E+03  0.00000000000E+00 0. -1.
<mgrwt>
<rscale>  0 0.10734830E+04</rscale>
<asrwt>0</asrwt>
<pdfrwt beam="1">  1        1 0.22511056E+00 0.10734830E+04</pdfrwt>
<pdfrwt beam="2">  1       -1 0.30290592E-01 0.10734830E+04</pdfrwt>
<totfact> 0.69457308E+01</totfact>
</mgrwt>
</event>
<event>
 6    1  0.9988873E-007  0.2543249E+04  0.7818608E-02  0.8387738E-01
         -2   -1    0    0    0  501 -0.00000000000E+00  0.00000000000E+00  0.54651663584E+03  0.54651663584E+03  0.00000000000E+00 0.  1.
          2   -1    0    0  501    0  0.00000000000E+00 -0.00000000000E+00 -0.29587924889E+04  0.29587924889E+04  0.00000000000E+00 0. -1.
         23    2    1    2    0    0 -0.19214456706E+03  0.64144948854E+03 -0.26949881454E+04  0.27784644225E+04  0.92338845098E+02 0.  0.
         11    1    3    3    0    0 -0.14692540350E+03  0.48593412814E+03 -0.21931907365E+04  0.22511785042E+04  0.00000000000E+00 0. -1.
        -11    1    3    3    0    0 -0.45219163565E+02  0.15551536039E+03 -0.50179740883E+03  0.52728591825E+03  0.00000000000E+00 0.  1.
         22    1    1    2    0    0  0.19214456706E+03 -0.64144948854E+03  0.28271229230E+03  0.72684470227E+03  0.00000000000E+00 0.  1.
<mgrwt>
<rscale>  0 0.25432494E+04</rscale>
<asrwt>0</asrwt>
<pdfrwt beam="1">  1        2 0.45519885E+00 0.25432494E+04</pdfrwt>
<pdfrwt beam="2">  1       -2 0.84079482E-01 0.25432494E+04</pdfrwt>
<totfact> 0.20280236E+00</totfact>
</mgrwt>
</event>
<event>
 6    1  0.9988873E-007  0.4876382E+04  0.7818608E-02  0.7847865E-01
         -2   -1    0    0    0  501 -0.00000000000E+00  0.00000000000E+00  0.22144414252E+04  0.22144414252E+04  0.00000000000E+00 0.  1.
          2   -1    0    0  501    0  0.00000000000E+00 -0.00000000000E+00 -0.26845487518E+04  0.26845487518E+04  0.00000000000E+00 0. -1.
         23    2    1    2    0    0 -0.14912000833E+04  0.15228742436E+04  0.95267443300E+03  0.23363486520E+04  0.90071071899E+02 0.  0.
         11    1    3    3    0    0 -0.98631715187E+03  0.10014289887E+04  0.67452406823E+03  0.15590587744E+04  0.00000000000E+00 0.  1.
        -11    1    3    3    0    0 -0.50488293148E+03  0.52144525492E+03  0.27815036477E+03  0.77728987758E+03  0.00000000000E+00 0. -1.
         22    1    1    2    0    0  0.14912000833E+04 -0.15228742436E+04 -0.14227817596E+04  0.25626415250E+04  0.00000000000E+00 0. -1.
<mgrwt>
<rscale>  0 0.48763823E+04</rscale>
<asrwt>0</asrwt>
<pdfrwt beam="1">  1        2 0.41300750E+00 0.48763823E+04</pdfrwt>
<pdfrwt beam="2">  1       -2 0.34068330E+00 0.48763823E+04</pdfrwt>
<totfact> 0.35502883E-02</totfact>
</mgrwt>
</event>
<event>
 6    1  0.9988873E-007  0.2588223E+04  0.7818608E-02  0.8372213E-01
          1   -1    0    0  501    0  0.00000000000E+00  0.00000000000E+00  0.50285558003E+03  0.50285558003E+03  0.00000000000E+00 0. -1.
         -1   -1    0    0    0  501 -0.00000000000E+00 -0.00000000000E+00 -0.33304289139E+04  0.33304289139E+04  0.00000000000E+00 0.  1.
         23    2    1    2    0    0  0.70220785964E+03 -0.51087873788E+02 -0.30210435076E+04  0.31031224865E+04  0.83423270897E+02 0.  0.
         11    1    3    3    0    0  0.24200603858E+03  0.21582712255E+02 -0.10087342532E+04  0.10375825412E+04  0.00000000000E+00 0.  1.
        -11    1    3    3    0    0  0.46020182105E+03 -0.72670586043E+02 -0.20123092544E+04  0.20655399453E+04  0.00000000000E+00 0. -1.
         22    1    1    2    0    0 -0.70220785964E+03  0.51087873788E+02  0.19347017376E+03  0.73016200745E+03  0.00000000000E+00 0. -1.
<mgrwt>
<rscale>  0 0.25882231E+04</rscale>
<asrwt>0</asrwt>
<pdfrwt beam="1">  1        1 0.77362398E-01 0.25882231E+04</pdfrwt>
<pdfrwt beam="2">  1       -1 0.51237367E+00 0.25882231E+04</pdfrwt>
<totfact> 0.47950210E-02</totfact>
</mgrwt>
</event>
<event>
 6    1  0.9988873E-007  0.6144634E+03  0.7818608E-02  0.9875845E-01
          2   -1    0    0  501    0  0.00000000000E+00  0.00000000000E+00  0.62227618134E+03  0.62227618134E+03  0.00000000000E+00 0. -1.
         -2   -1    0    0    0  501 -0.00000000000E+00 -0.00000000000E+00 -0.15168717197E+03  0.15168717197E+03  0.00000000000E+00 0.  1.
         23    2    1    2    0    0  0.17614562189E+02  0.25215013870E+03  0.44602005405E+03  0.52000745397E+03  0.87085580445E+02 0.  0.
         13    1    3    3    0    0 -0.19021027895E+02  0.18464234724E+03  0.26676061998E+03  0.32498588319E+03  0.00000000000E+00 0.  1.
        -13    1    3    3    0    0  0.36635590084E+02  0.67507791457E+02  0.17925943407E+03  0.19502157078E+03  0.00000000000E+00 0. -1.
         22    1    1    2    0    0 -0.17614562189E+02 -0.25215013870E+03  0.24568955321E+02  0.25395589935E+03  0.00000000000E+00 0.  1.
<mgrwt>
<rscale>  0 0.61446339E+03</rscale>
<asrwt>0</asrwt>
<pdfrwt beam="1">  1        2 0.95734796E-01 0.61446339E+03</pdfrwt>
<pdfrwt beam="2">  1       -2 0.23336488E-01 0.61446339E+03</pdfrwt>
<totfact> 0.77380133E+02</totfact>
</mgrwt>
</event>
<event>
 6    1  0.1047098E-006  0.2896013E+04  0.7818608E-02  0.8274065E-01
         -2   -1    0    0    0  501 -0.00000000000E+00  0.00000000000E+00  0.10027118218E+04  0.10027118218E+04  0.00000000000E+00 0.  1.
          2   -1    0    0  501    0  0.00000000000E+00 -0.00000000000E+00 -0.20910527894E+04  0.20910527894E+04  0.00000000000E+00 0. -1.
         23    2    1    2    0    0  0.88046476657E+03 -0.37106722695E+03  0.61551459680E+03  0.11402977248E+04  0.92258280258E+02 0.  0.
         11    1    3    3    0    0  0.43201129427E+03 -0.14481893549E+03  0.32933934182E+03  0.56220164045E+03  0.00000000000E+00 0. -1.
        -11    1    3    3    0    0  0.44845347229E+03 -0.22624829146E+03  0.28617525498E+03  0.57809608437E+03  0.00000000000E+00 0.  1.
         22    1    1    2    0    0 -0.88046476657E+03  0.37106722695E+03 -0.17038555643E+04  0.19534668864E+04  0.00000000000E+00 0. -1.
<mgrwt>
<rscale>  0 0.28960134E+04</rscale>
<asrwt>0</asrwt>
<pdfrwt beam="1">  1        2 0.32170043E+00 0.28960134E+04</pdfrwt>
<pdfrwt beam="2">  1       -2 0.15426336E+00 0.28960134E+04</pdfrwt>
<totfact> 0.14269158E+00</totfact>
</mgrwt>
</event>
<event>
 6    1  0.9988873E-007  0.3681341E+04  0.7818608E-02  0.8072109E-01
         -1   -1    0    0    0  501 -0.00000000000E+00  0.00000000000E+00  0.15758588773E+04  0.15758588773E+04  0.00000000000E+00 0.  1.
          1   -1    0    0  501    0  0.00000000000E+00 -0.00000000000E+00 -0.21499819163E+04  0.21499819163E+04  0.00000000000E+00 0. -1.
         23    2    1    2    0    0 -0.95350298530E+03 -0.12170756529E+04  0.72124744114E+03  0.17088068899E+04  0.96860868593E+02 0.  0.
         11    1    3    3    0    0 -0.40330988161E+03 -0.52998577227E+03  0.25895500149E+03  0.71456383355E+03  0.00000000000E+00 0. -1.
        -11    1    3    3    0    0 -0.55019310368E+03 -0.68708988059E+03  0.46229243965E+03  0.99424305635E+03  0.00000000000E+00 0.  1.
         22    1    1    2    0    0  0.95350298530E+03  0.12170756529E+04 -0.12953704802E+04  0.20170339037E+04  0.00000000000E+00 0. -1.
<mgrwt>
<rscale>  0 0.36813411E+04</rscale>
<asrwt>0</asrwt>
<pdfrwt beam="1">  1        1 0.33076645E+00 0.36813411E+04</pdfrwt>
<pdfrwt beam="2">  1       -1 0.24243983E+00 0.36813411E+04</pdfrwt>
<totfact> 0.14797147E-01</totfact>
</mgrwt>
</event>
<event>
 6    1  0.9988873E-007  0.4925872E+04  0.7818608E-02  0.7840045E-01
          2   -1    0    0  501    0  0.00000000000E+00  0.00000000000E+00  0.38279621444E+04  0.38279621444E+04  0.00000000000E+00 0. -1.
         -2   -1    0    0    0  501 -0.00000000000E+00 -0.00000000000E+00 -0.15846688980E+04  0.15846688980E+04  0.00000000000E+00 0.  1.
         23    2    1    2    0    0  0.13843962306E+04 -0.62168596038E+03 -0.10083438896E+04  0.18242901416E+04  0.90723561103E+02 0.  0.
         13    1    3    3    0    0  0.61477884915E+03 -0.22806192414E+03 -0.42294558175E+03  0.78028728025E+03  0.00000000000E+00 0. -1.
        -13    1    3    3    0    0  0.76961738142E+03 -0.39362403624E+03 -0.58539830786E+03  0.10440028614E+04  0.00000000000E+00 0.  1.
         22    1    1    2    0    0 -0.13843962306E+04  0.62168596038E+03  0.32516371360E+04  0.35883409008E+04  0.00000000000E+00 0. -1.
<mgrwt>
<rscale>  0 0.49258715E+04</rscale>
<asrwt>0</asrwt>
<pdfrwt beam="1">  1        2 0.58891725E+00 0.49258715E+04</pdfrwt>
<pdfrwt beam="2">  1       -2 0.24379522E+00 0.49258715E+04</pdfrwt>
<totfact> 0.23943296E-02</totfact>
</mgrwt>
</event>
<event>
 6    1  0.9988873E-007  0.3652121E+04  0.7818608E-02  0.8078656E-01
         -2   -1    0    0    0  501 -0.00000000000E+00  0.00000000000E+00  0.11598357911E+04  0.11598357911E+04  0.00000000000E+00 0.  1.
          2   -1    0    0  501    0  0.00000000000E+00 -0.00000000000E+00 -0.28749734801E+04  0.28749734801E+04  0.00000000000E+00 0. -1.
         23    2    1    2    0    0 -0.12405686038E+04 -0.78095433304E+03 -0.20589584978E+04  0.25291157833E+04  0.90644464360E+02 0.  0.
         13    1    3    3    0    0 -0.91491237463E+03 -0.60807817028E+03 -0.14916500987E+04  0.18525236115E+04  0.00000000000E+00 0.  1.
        -13    1    3    3    0    0 -0.32565622916E+03 -0.17287616276E+03 -0.56730839911E+03  0.67659217180E+03  0.00000000000E+00 0. -1.
         22    1    1    2    0    0  0.12405686038E+04  0.78095433304E+03  0.34382080882E+03  0.15056934879E+04  0.00000000000E+00 0.  1.
<mgrwt>
<rscale>  0 0.36521211E+04</rscale>
<asrwt>0</asrwt>
<pdfrwt beam="1">  1        2 0.44230361E+00 0.36521211E+04</pdfrwt>
<pdfrwt beam="2">  1       -2 0.17843628E+00 0.36521211E+04</pdfrwt>
<totfact> 0.31390349E-01</totfact>
</mgrwt>
</event>
<event>
 6    1  0.9988873E-007  0.4735413E+04  0.7818608E-02  0.7870671E-01
          1   -1    0    0  501    0  0.00000000000E+00  0.00000000000E+00  0.32336283142E+04  0.32336283142E+04  0.00000000000E+00 0. -1.
         -1   -1    0    0    0  501 -0.00000000000E+00 -0.00000000000E+00 -0.17336667530E+04  0.17336667530E+04  0.00000000000E+00 0.  1.
         23    2    1    2    0    0  0.18868318371E+04  0.10079832733E+04 -0.31227475383E+03  0.21636607968E+04  0.88021935926E+02 0.  0.
         13    1    3    3    0    0  0.74053484846E+03  0.44456471864E+03 -0.12596778509E+03  0.87286742048E+03  0.00000000000E+00 0. -1.
        -13    1    3    3    0    0  0.11462969886E+04  0.56341855463E+03 -0.18630696874E+03  0.12907933763E+04  0.00000000000E+00 0.  1.
         22    1    1    2    0    0 -0.18868318371E+04 -0.10079832733E+04  0.18122363151E+04  0.28036342704E+04  0.00000000000E+00 0. -1.
<mgrwt>
<rscale>  0 0.47354129E+04</rscale>
<asrwt>0</asrwt>
<pdfrwt beam="1">  1        1 0.49748128E+00 0.47354129E+04</pdfrwt>
<pdfrwt beam="2">  1       -1 0.26671796E+00 0.47354129E+04</pdfrwt>
<totfact> 0.16034793E-02</totfact>
</mgrwt>
</event>
<event>
 6    1  0.9988873E-007  0.2404451E+04  0.7818608E-02  0.8437839E-01
          2   -1    0    0  501    0  0.00000000000E+00  0.00000000000E+00  0.18324625485E+04  0.18324625485E+04  0.00000000000E+00 0. -1.
         -2   -1    0    0    0  501 -0.00000000000E+00 -0.00000000000E+00 -0.78874546760E+03  0.78874546760E+03  0.00000000000E+00 0.  1.
         23    2    1    2    0    0 -0.28014039067E+03 -0.19542687919E+03  0.17772971249E+04  0.18120047137E+04  0.88914051789E+02 0.  0.
         13    1    3    3    0    0 -0.16097921013E+03 -0.70522134626E+02  0.10418136626E+04  0.10565336650E+04  0.00000000000E+00 0.  1.
        -13    1    3    3    0    0 -0.11916118054E+03 -0.12490474456E+03  0.73548346229E+03  0.75547104873E+03  0.00000000000E+00 0. -1.
         22    1    1    2    0    0  0.28014039067E+03  0.19542687919E+03 -0.73358004404E+03  0.80920330239E+03  0.00000000000E+00 0.  1.
<mgrwt>
<rscale>  0 0.24044513E+04</rscale>
<asrwt>0</asrwt>
<pdfrwt beam="1">  1        2 0.28191731E+00 0.24044513E+04</pdfrwt>
<pdfrwt beam="2">  1       -2 0.12134546E+00 0.24044513E+04</pdfrwt>
<totfact> 0.38433142E+00</totfact>
</mgrwt>
</event>
<event>
 6    1  0.9988873E-007  0.3032161E+04  0.7818608E-02  0.8234606E-01
         -2   -1    0    0    0  501 -0.00000000000E+00  0.00000000000E+00  0.66263970557E+03  0.66263970557E+03  0.00000000000E+00 0.  1.
          2   -1    0    0  501    0  0.00000000000E+00 -0.00000000000E+00 -0.34687021334E+04  0.34687021334E+04  0.00000000000E+00 0. -1.
         23    2    1    2    0    0 -0.14408597433E+04 -0.17612151884E+03 -0.19951015864E+04  0.24685871741E+04  0.79979413792E+02 0.  0.
         13    1    3    3    0    0 -0.85322367253E+03 -0.65369736806E+02 -0.11616819448E+04  0.14428335936E+04  0.00000000000E+00 0.  1.
        -13    1    3    3    0    0 -0.58763607080E+03 -0.11075178203E+03 -0.83341964154E+03  0.10257535805E+04  0.00000000000E+00 0. -1.
         22    1    1    2    0    0  0.14408597433E+04  0.17612151884E+03 -0.81096084148E+03  0.16627546649E+04  0.00000000000E+00 0.  1.
<mgrwt>
<rscale>  0 0.30321608E+04</rscale>
<asrwt>0</asrwt>
<pdfrwt beam="1">  1        2 0.53364647E+00 0.30321608E+04</pdfrwt>
<pdfrwt beam="2">  1       -2 0.10194457E+00 0.30321608E+04</pdfrwt>
<totfact> 0.57535405E-01</totfact>
</mgrwt>
</event>
<event>
 6    1  0.9988873E-007  0.2501168E+04  0.7818608E-02  0.8402569E-01
         -2   -1    0    0    0  501 -0.00000000000E+00  0.00000000000E+00  0.94905063006E+03  0.94905063006E+03  0.00000000000E+00 0.  1.
          2   -1    0    0  501    0  0.00000000000E+00 -0.00000000000E+00 -0.16479210810E+04  0.16479210810E+04  0.00000000000E+00 0. -1.
         23    2    1    2    0    0  0.12393827002E+04  0.14808643822E+03 -0.39291551345E+03  0.13118228891E+04  0.92182540766E+02 0.  0.
         13    1    3    3    0    0  0.60472677622E+03  0.88274702075E+02 -0.14700457895E+03  0.62856761222E+03  0.00000000000E+00 0. -1.
        -13    1    3    3    0    0  0.63465592401E+03  0.59811736146E+02 -0.24591093451E+03  0.68325527687E+03  0.00000000000E+00 0.  1.
         22    1    1    2    0    0 -0.12393827002E+04 -0.14808643822E+03 -0.30595493748E+03  0.12851488220E+04  0.00000000000E+00 0. -1.
<mgrwt>
<rscale>  0 0.25011682E+04</rscale>
<asrwt>0</asrwt>
<pdfrwt beam="1">  1        2 0.25352632E+00 0.25011682E+04</pdfrwt>
<pdfrwt beam="2">  1       -2 0.14600779E+00 0.25011682E+04</pdfrwt>
<totfact> 0.30090567E+00</totfact>
</mgrwt>
</event>
<event>
 6    1  0.9988873E-007  0.2467846E+04  0.7818608E-02  0.8414531E-01
          1   -1    0    0  501    0  0.00000000000E+00  0.00000000000E+00  0.67169244273E+03  0.67169244273E+03  0.00000000000E+00 0. -1.
         -1   -1    0    0    0  501 -0.00000000000E+00 -0.00000000000E+00 -0.22667613065E+04  0.22667613065E+04  0.00000000000E+00 0.  1.
         23    2    1    2    0    0  0.36631459617E+03 -0.11673487067E+04 -0.61881692755E+03  0.13732198276E+04  0.76869490485E+02 0.  0.
         11    1    3    3    0    0  0.65091048006E+02 -0.30041955100E+03 -0.13494559134E+03  0.33570681223E+03  0.00000000000E+00 0. -1.
        -11    1    3    3    0    0  0.30122354816E+03 -0.86692915573E+03 -0.48387133620E+03  0.10375130153E+04  0.00000000000E+00 0.  1.
         22    1    1    2    0    0 -0.36631459617E+03  0.11673487067E+04 -0.97625193621E+03  0.15652339216E+04  0.00000000000E+00 0.  1.
<mgrwt>
<rscale>  0 0.24678464E+04</rscale>
<asrwt>0</asrwt>
<pdfrwt beam="1">  1        1 0.10333730E+00 0.24678464E+04</pdfrwt>
<pdfrwt beam="2">  1       -1 0.34873251E+00 0.24678464E+04</pdfrwt>
<totfact> 0.40939495E-01</totfact>
</mgrwt>
</event>
<event>
 6    1  0.9988873E-007  0.8322953E+03  0.7818608E-02  0.9514413E-01
          1   -1    0    0  501    0  0.00000000000E+00  0.00000000000E+00  0.12657944039E+04  0.12657944039E+04  0.00000000000E+00 0. -1.
         -1   -1    0    0    0  501 -0.00000000000E+00 -0.00000000000E+00 -0.13681437092E+03  0.13681437092E+03  0.00000000000E+00 0.  1.
         23    2    1    2    0    0  0.14026984048E+03  0.39438096051E+02  0.12183194738E+04  0.12316920487E+04  0.10738701557E+03 0.  0.
         11    1    3    3    0    0  0.81324029448E+02 -0.28976604568E+02  0.73054109115E+03  0.73562458308E+03  0.00000000000E+00 0. -1.
        -11    1    3    3    0    0  0.58945811032E+02  0.68414700620E+02  0.48777838265E+03  0.49606746565E+03  0.00000000000E+00 0.  1.
         22    1    1    2    0    0 -0.14026984048E+03 -0.39438096051E+02 -0.89339440823E+02  0.17091672608E+03  0.00000000000E+00 0.  1.
<mgrwt>
<rscale>  0 0.83229530E+03</rscale>
<asrwt>0</asrwt>
<pdfrwt beam="1">  1        1 0.19473759E+00 0.83229530E+03</pdfrwt>
<pdfrwt beam="2">  1       -1 0.21048366E-01 0.83229530E+03</pdfrwt>
<totfact> 0.18151565E+02</totfact>
</mgrwt>
</event>
<event>
 6    1  0.9988873E-007  0.1681992E+04  0.7818608E-02  0.8771702E-01
         -2   -1    0    0    0  501 -0.00000000000E+00  0.00000000000E+00  0.44299419238E+03  0.44299419238E+03  0.00000000000E+00 0.  1.
          2   -1    0    0  501    0  0.00000000000E+00 -0.00000000000E+00 -0.15965765590E+04  0.15965765590E+04  0.00000000000E+00 0. -1.
         23    2    1    2    0    0 -0.78520583790E+02 -0.75308461496E+03 -0.14142521169E+03  0.77554384280E+03  0.90361729879E+02 0.  0.
         13    1    3    3    0    0  0.63083613250E+01 -0.37127882629E+03 -0.74888918119E+02  0.37880880709E+03  0.00000000000E+00 0.  1.
        -13    1    3    3    0    0 -0.84828945115E+02 -0.38180578867E+03 -0.66536293572E+02  0.39673503571E+03  0.00000000000E+00 0. -1.
         22    1    1    2    0    0  0.78520583790E+02  0.75308461496E+03 -0.10121571550E+04  0.12640269086E+04  0.00000000000E+00 0. -1.
<mgrwt>
<rscale>  0 0.16819918E+04</rscale>
<asrwt>0</asrwt>
<pdfrwt beam="1">  1        2 0.24562716E+00 0.16819918E+04</pdfrwt>
<pdfrwt beam="2">  1       -2 0.68152953E-01 0.16819918E+04</pdfrwt>
<totfact> 0.21030410E+01</totfact>
</mgrwt>
</event>
<event>
 6    1  0.9988873E-007  0.1600926E+04  0.7818608E-02  0.8819979E-01
          1   -1    0    0  501    0  0.00000000000E+00  0.00000000000E+00  0.62047479315E+03  0.62047479315E+03  0.00000000000E+00 0. -1.
         -1   -1    0    0    0  501 -0.00000000000E+00 -0.00000000000E+00 -0.10326623606E+04  0.10326623606E+04  0.00000000000E+00 0.  1.
         23    2    1    2    0    0 -0.55779001446E+03  0.31772774548E+03 -0.69561003465E+03  0.95141860950E+03  0.96142756932E+02 0.  0.
         11    1    3    3    0    0 -0.31141816854E+03  0.21559125192E+03 -0.45699001086E+03  0.59354926807E+03  0.00000000000E+00 0.  1.
        -11    1    3    3    0    0 -0.24637184592E+03  0.10213649356E+03 -0.23862002379E+03  0.35786934143E+03  0.00000000000E+00 0. -1.
         22    1    1    2    0    0  0.55779001446E+03 -0.31772774548E+03  0.28342246718E+03  0.70171854428E+03  0.00000000000E+00 0. -1.
<mgrwt>
<rscale>  0 0.16009259E+04</rscale>
<asrwt>0</asrwt>
<pdfrwt beam="1">  1        1 0.95457660E-01 0.16009259E+04</pdfrwt>
<pdfrwt beam="2">  1       -1 0.15887113E+00 0.16009259E+04</pdfrwt>
<totfact> 0.93276570E+00</totfact>
</mgrwt>
</event>
<event>
 6    1  0.9988873E-007  0.7354495E+03  0.7818608E-02  0.9658458E-01
          1   -1    0    0  501    0  0.00000000000E+00  0.00000000000E+00  0.21442301922E+03  0.21442301922E+03  0.00000000000E+00 0. -1.
         -1   -1    0    0    0  501 -0.00000000000E+00 -0.00000000000E+00 -0.63062957314E+03  0.63062957314E+03  0.00000000000E+00 0.  1.
         23    2    1    2    0    0  0.71865730251E+02  0.18930441815E+03  0.13275902021E+03  0.25993376041E+03  0.94550285223E+02 0.  0.
         11    1    3    3    0    0  0.12470851259E+02  0.10726597645E+03  0.11381944354E+03  0.15689607249E+03  0.00000000000E+00 0.  1.
        -11    1    3    3    0    0  0.59394878992E+02  0.82038441703E+02  0.18939576674E+02  0.10303768792E+03  0.00000000000E+00 0. -1.
         22    1    1    2    0    0 -0.71865730251E+02 -0.18930441815E+03 -0.54896557413E+03  0.58511883195E+03  0.00000000000E+00 0.  1.
<mgrwt>
<rscale>  0 0.73544951E+03</rscale>
<asrwt>0</asrwt>
<pdfrwt beam="1">  1        1 0.32988157E-01 0.73544951E+03</pdfrwt>
<pdfrwt beam="2">  1       -1 0.97019933E-01 0.73544951E+03</pdfrwt>
<totfact> 0.14075379E+02</totfact>
</mgrwt>
</event>
<event>
 6    1  0.9988873E-007  0.4697934E+04  0.7818608E-02  0.7876872E-01
          1   -1    0    0  501    0  0.00000000000E+00  0.00000000000E+00  0.42865218775E+04  0.42865218775E+04  0.00000000000E+00 0. -1.
         -1   -1    0    0    0  501 -0.00000000000E+00 -0.00000000000E+00 -0.12872079773E+04  0.12872079773E+04  0.00000000000E+00 0.  1.
         23    2    1    2    0    0 -0.49621842971E+03 -0.22531593217E+04  0.20176061995E+04  0.30663986704E+04  0.95427304248E+02 0.  0.
         11    1    3    3    0    0 -0.24807004344E+03 -0.10248798012E+04  0.86601609128E+03  0.13645150141E+04  0.00000000000E+00 0. -1.
        -11    1    3    3    0    0 -0.24814838626E+03 -0.12282795205E+04  0.11515901082E+04  0.17018836562E+04  0.00000000000E+00 0.  1.
         22    1    1    2    0    0  0.49621842971E+03  0.22531593217E+04  0.98170770071E+03  0.25073311845E+04  0.00000000000E+00 0. -1.
<mgrwt>
<rscale>  0 0.46979337E+04</rscale>
<asrwt>0</asrwt>
<pdfrwt beam="1">  1        1 0.65946490E+00 0.46979337E+04</pdfrwt>
<pdfrwt beam="2">  1       -1 0.19803200E+00 0.46979337E+04</pdfrwt>
<totfact> 0.59863669E-03</totfact>
</mgrwt>
</event>
<event>
 6    1  0.9988873E-007  0.9000581E+03  0.7818608E-02  0.9425509E-01
          2   -1    0    0  501    0  0.00000000000E+00  0.00000000000E+00  0.14707485752E+04  0.14707485752E+04  0.00000000000E+00 0. -1.
         -2   -1    0    0    0  501 -0.00000000000E+00 -0.00000000000E+00 -0.13770276415E+03  0.13770276415E+03  0.00000000000E+00 0.  1.
         23    2    1    2    0    0 -0.20091269397E+03  0.12155264559E+03  0.13497815552E+04  0.13730345995E+04  0.90403585830E+02 0.  0.
         11    1    3    3    0    0 -0.88618339952E+02  0.38279746277E+02  0.79803158036E+03  0.80384883679E+03  0.00000000000E+00 0.  1.
        -11    1    3    3    0    0 -0.11229435402E+03  0.83272899316E+02  0.55174997487E+03  0.56918576271E+03  0.00000000000E+00 0. -1.
         22    1    1    2    0    0  0.20091269397E+03 -0.12155264559E+03 -0.16735744221E+02  0.23541673981E+03  0.00000000000E+00 0.  1.
<mgrwt>
<rscale>  0 0.90005810E+03</rscale>
<asrwt>0</asrwt>
<pdfrwt beam="1">  1        2 0.22626900E+00 0.90005810E+03</pdfrwt>
<pdfrwt beam="2">  1       -2 0.21185042E-01 0.90005810E+03</pdfrwt>
<totfact> 0.25523515E+02</totfact>
</mgrwt>
</event>
<event>
 6    1  0.9988873E-007  0.1762656E+04  0.7818608E-02  0.8726415E-01
          1   -1    0    0  501    0  0.00000000000E+00  0.00000000000E+00  0.94274791031E+03  0.94274791031E+03  0.00000000000E+00 0. -1.
         -1   -1    0    0    0  501 -0.00000000000E+00 -0.00000000000E+00 -0.82390953459E+03  0.82390953459E+03  0.00000000000E+00 0.  1.
         23    2    1    2    0    0 -0.60126892875E+02  0.29080949852E+03 -0.76955932028E+03  0.82994197373E+03  0.91633643727E+02 0.  0.
         11    1    3    3    0    0  0.94810902441E+01  0.81481261770E+02 -0.30220754054E+03  0.31314291410E+03  0.00000000000E+00 0.  1.
        -11    1    3    3    0    0 -0.69607983119E+02  0.20932823675E+03 -0.46735177974E+03  0.51679905964E+03  0.00000000000E+00 0. -1.
         22    1    1    2    0    0  0.60126892875E+02 -0.29080949852E+03  0.88839769600E+03  0.93671547117E+03  0.00000000000E+00 0. -1.
<mgrwt>
<rscale>  0 0.17626559E+04</rscale>
<asrwt>0</asrwt>
<pdfrwt beam="1">  1        1 0.14503814E+00 0.17626559E+04</pdfrwt>
<pdfrwt beam="2">  1       -1 0.12675531E+00 0.17626559E+04</pdfrwt>
<totfact> 0.85956114E+00</totfact>
</mgrwt>
</event>
<event>
 6    1  0.9988873E-007  0.1209261E+04  0.7818608E-02  0.9104789E-01
         -1   -1    0    0    0  501 -0.00000000000E+00  0.00000000000E+00  0.33002768172E+03  0.33002768172E+03  0.00000000000E+00 0.  1.
          1   -1    0    0  501    0  0.00000000000E+00 -0.00000000000E+00 -0.11077198635E+04  0.11077198635E+04  0.00000000000E+00 0. -1.
         23    2    1    2    0    0 -0.30761603248E+03 -0.30924215054E+03  0.10070064436E+03  0.45701705824E+03  0.92008916076E+02 0.  0.
         13    1    3    3    0    0 -0.19753059690E+03 -0.21265444534E+03  0.10972032429E+03  0.31028825211E+03  0.00000000000E+00 0. -1.
        -13    1    3    3    0    0 -0.11008543558E+03 -0.96587705197E+02 -0.90196799276E+01  0.14672880613E+03  0.00000000000E+00 0.  1.
         22    1    1    2    0    0  0.30761603248E+03  0.30924215054E+03 -0.87839282617E+03  0.98073048702E+03  0.00000000000E+00 0. -1.
<mgrwt>
<rscale>  0 0.12092613E+04</rscale>
<asrwt>0</asrwt>
<pdfrwt beam="1">  1        1 0.17041844E+00 0.12092613E+04</pdfrwt>
<pdfrwt beam="2">  1       -1 0.50773490E-01 0.12092613E+04</pdfrwt>
<totfact> 0.48217596E+01</totfact>
</mgrwt>
</event>
<event>
 6    1  0.9988873E-007  0.1632865E+04  0.7818608E-02  0.8800608E-01
          1   -1    0    0  501    0  0.00000000000E+00  0.00000000000E+00  0.98119198556E+03  0.98119198556E+03  0.00000000000E+00 0. -1.
         -1   -1    0    0    0  501 -0.00000000000E+00 -0.00000000000E+00 -0.67933937925E+03  0.67933937925E+03  0.00000000000E+00 0.  1.
         23    2    1    2    0    0  0.49972718476E+03 -0.49597471643E+03  0.56680788900E+03  0.90825516529E+03  0.89095924221E+02 0.  0.
         13    1    3    3    0    0  0.41265562309E+03 -0.36882962779E+03  0.41338379233E+03  0.69080106932E+03  0.00000000000E+00 0.  1.
        -13    1    3    3    0    0  0.87071561670E+02 -0.12714508863E+03  0.15342409667E+03  0.21745409597E+03  0.00000000000E+00 0. -1.
         22    1    1    2    0    0 -0.49972718476E+03  0.49597471643E+03 -0.26495528269E+03  0.75227619951E+03  0.00000000000E+00 0.  1.
<mgrwt>
<rscale>  0 0.16328654E+04</rscale>
<asrwt>0</asrwt>
<pdfrwt beam="1">  1        1 0.15095261E+00 0.16328654E+04</pdfrwt>
<pdfrwt beam="2">  1       -1 0.10451375E+00 0.16328654E+04</pdfrwt>
<totfact> 0.12895915E+01</totfact>
</mgrwt>
</event>
<event>
 6    1  0.9988873E-007  0.1662002E+04  0.7818608E-02  0.8783338E-01
         -2   -1    0    0    0  501 -0.00000000000E+00  0.00000000000E+00  0.28161797028E+03  0.28161797028E+03  0.00000000000E+00 0.  1.
          2   -1    0    0  501    0  0.00000000000E+00 -0.00000000000E+00 -0.24521267417E+04  0.24521267417E+04  0.00000000000E+00 0. -1.
         23    2    1    2    0    0 -0.40254321341E+03 -0.68156093979E+03 -0.14831421665E+04  0.16853940059E+04  0.11948186385E+03 0.  0.
         11    1    3    3    0    0 -0.71770230257E+02 -0.16609411472E+03 -0.43984002997E+03  0.47560222125E+03  0.00000000000E+00 0. -1.
        -11    1    3    3    0    0 -0.33077298315E+03 -0.51546682508E+03 -0.10433021365E+04  0.12097917847E+04  0.00000000000E+00 0.  1.
         22    1    1    2    0    0  0.40254321341E+03  0.68156093979E+03 -0.68736660488E+03  0.10483507060E+04  0.00000000000E+00 0.  1.
<mgrwt>
<rscale>  0 0.16620024E+04</rscale>
<asrwt>0</asrwt>
<pdfrwt beam="1">  1        2 0.37725028E+00 0.16620024E+04</pdfrwt>
<pdfrwt beam="2">  1       -2 0.43325840E-01 0.16620024E+04</pdfrwt>
<totfact> 0.17915181E+01</totfact>
</mgrwt>
</event>
<event>
 6    1  0.9988873E-007  0.2959865E+04  0.7818608E-02  0.8255285E-01
         -2   -1    0    0    0  501 -0.00000000000E+00  0.00000000000E+00  0.10357504239E+04  0.10357504239E+04  0.00000000000E+00 0.  1.
          2   -1    0    0  501    0  0.00000000000E+00 -0.00000000000E+00 -0.21146029546E+04  0.21146029546E+04  0.00000000000E+00 0. -1.
         23    2    1    2    0    0 -0.24674828542E+03  0.97341056265E+03  0.61506981787E+03  0.11811439527E+04  0.91527681105E+02 0.  0.
         11    1    3    3    0    0 -0.14518140890E+03  0.61961914831E+03  0.43893197622E+03  0.77308913470E+03  0.00000000000E+00 0. -1.
        -11    1    3    3    0    0 -0.10156687652E+03  0.35379141435E+03  0.17613784166E+03  0.40805481805E+03  0.00000000000E+00 0.  1.
         22    1    1    2    0    0  0.24674828542E+03 -0.97341056265E+03 -0.16939223486E+04  0.19692094258E+04  0.00000000000E+00 0. -1.
<mgrwt>
<rscale>  0 0.29598655E+04</rscale>
<asrwt>0</asrwt>
<pdfrwt beam="1">  1        2 0.32532353E+00 0.29598655E+04</pdfrwt>
<pdfrwt beam="2">  1       -2 0.15934622E+00 0.29598655E+04</pdfrwt>
<totfact> 0.12614894E+00</totfact>
</mgrwt>
</event>
<event>
 6    1  0.9988873E-007  0.9114691E+03  0.7818608E-02  0.9411357E-01
          1   -1    0    0  501    0  0.00000000000E+00  0.00000000000E+00  0.80758414996E+03  0.80758414996E+03  0.00000000000E+00 0. -1.
         -1   -1    0    0    0  501 -0.00000000000E+00 -0.00000000000E+00 -0.25717936658E+03  0.25717936658E+03  0.00000000000E+00 0.  1.
         23    2    1    2    0    0 -0.89491022495E+02 -0.38459851632E+03  0.23244985863E+02  0.40611177702E+03  0.91987956853E+02 0.  0.
         11    1    3    3    0    0 -0.72796692131E+02 -0.24256035610E+03  0.56060483126E+02  0.25937937949E+03  0.00000000000E+00 0. -1.
        -11    1    3    3    0    0 -0.16694330364E+02 -0.14203816022E+03 -0.32815497262E+02  0.14673239753E+03  0.00000000000E+00 0.  1.
         22    1    1    2    0    0  0.89491022495E+02  0.38459851632E+03  0.52715979751E+03  0.65865173952E+03  0.00000000000E+00 0. -1.
<mgrwt>
<rscale>  0 0.91146910E+03</rscale>
<asrwt>0</asrwt>
<pdfrwt beam="1">  1        1 0.12424371E+00 0.91146910E+03</pdfrwt>
<pdfrwt beam="2">  1       -1 0.39566057E-01 0.91146910E+03</pdfrwt>
<totfact> 0.13614764E+02</totfact>
</mgrwt>
</event>
<event>
 6    1  0.9988873E-007  0.2175434E+04  0.7818608E-02  0.8528723E-01
         -2   -1    0    0    0  501 -0.00000000000E+00  0.00000000000E+00  0.41717511381E+03  0.41717511381E+03  0.00000000000E+00 0.  1.
          2   -1    0    0  501    0  0.00000000000E+00 -0.00000000000E+00 -0.28360471625E+04  0.28360471625E+04  0.00000000000E+00 0. -1.
         23    2    1    2    0    0  0.27748938412E+03 -0.98784874091E+03 -0.17426568263E+04  0.20243559206E+04  0.91206281677E+02 0.  0.
         13    1    3    3    0    0  0.12986477617E+03 -0.30920512721E+03 -0.54695661444E+03  0.64158725740E+03  0.00000000000E+00 0.  1.
        -13    1    3    3    0    0  0.14762460795E+03 -0.67864361370E+03 -0.11957002118E+04  0.13827686632E+04  0.00000000000E+00 0. -1.
         22    1    1    2    0    0 -0.27748938412E+03  0.98784874091E+03 -0.67621522242E+03  0.12288663557E+04  0.00000000000E+00 0.  1.
<mgrwt>
<rscale>  0 0.21754340E+04</rscale>
<asrwt>0</asrwt>
<pdfrwt beam="1">  1        2 0.43631496E+00 0.21754340E+04</pdfrwt>
<pdfrwt beam="2">  1       -2 0.64180785E-01 0.21754340E+04</pdfrwt>
<totfact> 0.45217080E+00</totfact>
</mgrwt>
</event>
<event>
 6    1  0.9988873E-007  0.2516415E+04  0.7818608E-02  0.8397161E-01
         -2   -1    0    0    0  501 -0.00000000000E+00  0.00000000000E+00  0.72024619368E+03  0.72024619368E+03  0.00000000000E+00 0.  1.
          2   -1    0    0  501    0  0.00000000000E+00 -0.00000000000E+00 -0.21979794417E+04  0.21979794417E+04  0.00000000000E+00 0. -1.
         23    2    1    2    0    0 -0.21264055751E+02  0.11384591605E+04 -0.12308185905E+03  0.11485867440E+04  0.86953690193E+02 0.  0.
         11    1    3    3    0    0 -0.28597495605E+02  0.69766859254E+03 -0.11499978140E+03  0.70766109932E+03  0.00000000000E+00 0.  1.
        -11    1    3    3    0    0  0.73334398545E+01  0.44079056798E+03 -0.80820776514E+01  0.44092564469E+03  0.00000000000E+00 0. -1.
         22    1    1    2    0    0  0.21264055751E+02 -0.11384591605E+04 -0.13546513889E+04  0.17696388914E+04  0.00000000000E+00 0. -1.
<mgrwt>
<rscale>  0 0.25164152E+04</rscale>
<asrwt>0</asrwt>
<pdfrwt beam="1">  1        2 0.33815068E+00 0.25164152E+04</pdfrwt>
<pdfrwt beam="2">  1       -2 0.11080711E+00 0.25164152E+04</pdfrwt>
<totfact> 0.29761449E+00</totfact>
</mgrwt>
</event>
<event>
 6    1  0.9988873E-007  0.1006993E+04  0.7818608E-02  0.9300909E-01
          1   -1    0    0  501    0  0.00000000000E+00  0.00000000000E+00  0.12901318881E+04  0.12901318881E+04  0.00000000000E+00 0. -1.
         -1   -1    0    0    0  501 -0.00000000000E+00 -0.00000000000E+00 -0.19649814331E+03  0.19649814331E+03  0.00000000000E+00 0.  1.
         23    2    1    2    0    0  0.24337277626E+03  0.30902325149E+03  0.97536877124E+02  0.41567968338E+03  0.92468797925E+02 0.  0.
         13    1    3    3    0    0  0.18888626370E+03  0.16779315527E+03  0.57912006047E+02  0.25920332563E+03  0.00000000000E+00 0. -1.
        -13    1    3    3    0    0  0.54486512561E+02  0.14123009621E+03  0.39624871077E+02  0.15647635775E+03  0.00000000000E+00 0.  1.
         22    1    1    2    0    0 -0.24337277626E+03 -0.30902325149E+03  0.99609686763E+03  0.10709503480E+04  0.00000000000E+00 0. -1.
<mgrwt>
<rscale>  0 0.10069926E+04</rscale>
<asrwt>0</asrwt>
<pdfrwt beam="1">  1        1 0.19848182E+00 0.10069926E+04</pdfrwt>
<pdfrwt beam="2">  1       -1 0.30230484E-01 0.10069926E+04</pdfrwt>
<totfact> 0.92682628E+01</totfact>
</mgrwt>
</event>
<event>
 6    1  0.9988873E-007  0.1696894E+04  0.7818608E-02  0.8763138E-01
         -1   -1    0    0    0  501 -0.00000000000E+00  0.00000000000E+00  0.40185063499E+03  0.40185063499E+03  0.00000000000E+00 0.  1.
          1   -1    0    0  501    0  0.00000000000E+00 -0.00000000000E+00 -0.17913674567E+04  0.17913674567E+04  0.00000000000E+00 0. -1.
         23    2    1    2    0    0  0.62945966191E+02  0.67826994807E+03 -0.48124677112E+02  0.68877626740E+03  0.89913541074E+02 0.  0.
         13    1    3    3    0    0  0.15132290458E+02  0.32153458885E+03 -0.65276211637E+02  0.32844247875E+03  0.00000000000E+00 0. -1.
        -13    1    3    3    0    0  0.47813675734E+02  0.35673535922E+03  0.17151534525E+02  0.36033378865E+03  0.00000000000E+00 0.  1.
         22    1    1    2    0    0 -0.62945966191E+02 -0.67826994807E+03 -0.13413921446E+04  0.15044418243E+04  0.00000000000E+00 0. -1.
<mgrwt>
<rscale>  0 0.16968938E+04</rscale>
<asrwt>0</asrwt>
<pdfrwt beam="1">  1        1 0.27559499E+00 0.16968938E+04</pdfrwt>
<pdfrwt beam="2">  1       -1 0.61823174E-01 0.16968938E+04</pdfrwt>
<totfact> 0.10431197E+01</totfact>
</mgrwt>
</event>
<event>
 6    1  0.1468754E-006  0.3575747E+04  0.7818608E-02  0.8096070E-01
         -1   -1    0    0    0  501 -0.00000000000E+00  0.00000000000E+00  0.21168919524E+04  0.21168919524E+04  0.00000000000E+00 0.  1.
          1   -1    0    0  501    0  0.00000000000E+00 -0.00000000000E+00 -0.15099926602E+04  0.15099926602E+04  0.00000000000E+00 0. -1.
         23    2    1    2    0    0  0.14466508170E+04  0.12246072068E+03 -0.75271331557E+03  0.16378291440E+04  0.90065281468E+02 0.  0.
         11    1    3    3    0    0  0.69119050279E+03  0.97955404423E+02 -0.33675384715E+03  0.77507594852E+03  0.00000000000E+00 0.  1.
        -11    1    3    3    0    0  0.75546031420E+03  0.24505316254E+02 -0.41595946842E+03  0.86275319543E+03  0.00000000000E+00 0. -1.
         22    1    1    2    0    0 -0.14466508170E+04 -0.12246072068E+03  0.13596126077E+04  0.19890554687E+04  0.00000000000E+00 0.  1.
<mgrwt>
<rscale>  0 0.35757468E+04</rscale>
<asrwt>0</asrwt>
<pdfrwt beam="1">  1        1 0.23230656E+00 0.35757468E+04</pdfrwt>
<pdfrwt beam="2">  1       -1 0.32567569E+00 0.35757468E+04</pdfrwt>
<totfact> 0.11724993E-01</totfact>
</mgrwt>
</event>
<event>
 6    1  0.9988873E-007  0.3536836E+04  0.7818608E-02  0.8105115E-01
          1   -1    0    0  501    0  0.00000000000E+00  0.00000000000E+00  0.23483838922E+04  0.23483838922E+04  0.00000000000E+00 0. -1.
         -1   -1    0    0    0  501 -0.00000000000E+00 -0.00000000000E+00 -0.13316825023E+04  0.13316825023E+04  0.00000000000E+00 0.  1.
         23    2    1    2    0    0 -0.51892505809E+03  0.26932339543E+03 -0.12265509001E+04  0.13618776308E+04  0.92006866977E+02 0.  0.
         13    1    3    3    0    0 -0.12403198193E+03  0.80648317273E+02 -0.40231602826E+03  0.42865635445E+03  0.00000000000E+00 0.  1.
        -13    1    3    3    0    0 -0.39489307615E+03  0.18867507816E+03 -0.82423487186E+03  0.93322127638E+03  0.00000000000E+00 0. -1.
         22    1    1    2    0    0  0.51892505809E+03 -0.26932339543E+03  0.22432522900E+04  0.23181887636E+04  0.00000000000E+00 0. -1.
<mgrwt>
<rscale>  0 0.35368357E+04</rscale>
<asrwt>0</asrwt>
<pdfrwt beam="1">  1        1 0.36128983E+00 0.35368357E+04</pdfrwt>
<pdfrwt beam="2">  1       -1 0.20487423E+00 0.35368357E+04</pdfrwt>
<totfact> 0.19537557E-01</totfact>
</mgrwt>
</event>
<event>
 6    1  0.9988873E-007  0.8674076E+03  0.7818608E-02  0.9467266E-01
         -2   -1    0    0    0  501 -0.00000000000E+00  0.00000000000E+00  0.74402878756E+02  0.74402878756E+02  0.00000000000E+00 0.  1.
          2   -1    0    0  501    0  0.00000000000E+00 -0.00000000000E+00 -0.25281145464E+04  0.25281145464E+04  0.00000000000E+00 0. -1.
         23    2    1    2    0    0 -0.23056093955E+03 -0.11803768711E+03 -0.22664184251E+04  0.22828770004E+04  0.88225161086E+02 0.  0.
         11    1    3    3    0    0 -0.12906317328E+03 -0.11353111522E+03 -0.13884121558E+04  0.13990121269E+04  0.00000000000E+00 0. -1.
        -11    1    3    3    0    0 -0.10149776627E+03 -0.45065718907E+01 -0.87800626925E+03  0.88386487349E+03  0.00000000000E+00 0.  1.
         22    1    1    2    0    0  0.23056093955E+03  0.11803768711E+03 -0.18729324258E+03  0.31964042476E+03  0.00000000000E+00 0.  1.
<mgrwt>
<rscale>  0 0.86740763E+03</rscale>
<asrwt>0</asrwt>
<pdfrwt beam="1">  1        2 0.38894072E+00 0.86740763E+03</pdfrwt>
<pdfrwt beam="2">  1       -2 0.11446596E-01 0.86740763E+03</pdfrwt>
<totfact> 0.18944116E+02</totfact>
</mgrwt>
</event>
<event>
 6    1  0.9988873E-007  0.9113146E+03  0.7818608E-02  0.9411547E-01
         -2   -1    0    0    0  501 -0.00000000000E+00  0.00000000000E+00  0.60305278778E+02  0.60305278778E+02  0.00000000000E+00 0.  1.
          2   -1    0    0  501    0  0.00000000000E+00 -0.00000000000E+00 -0.34428759372E+04  0.34428759372E+04  0.00000000000E+00 0. -1.
         23    2    1    2    0    0 -0.40093244580E+03 -0.16158978370E+03 -0.22029910921E+04  0.22468906295E+04  0.92139377813E+02 0.  0.
         13    1    3    3    0    0 -0.31453175906E+03 -0.11497066022E+03 -0.18691617460E+04  0.18989244621E+04  0.00000000000E+00 0. -1.
        -13    1    3    3    0    0 -0.86400686740E+02 -0.46619123480E+02 -0.33382934612E+03  0.34796616743E+03  0.00000000000E+00 0.  1.
         22    1    1    2    0    0  0.40093244580E+03  0.16158978370E+03 -0.11795795663E+04  0.12562905864E+04  0.00000000000E+00 0. -1.
<mgrwt>
<rscale>  0 0.91131464E+03</rscale>
<asrwt>0</asrwt>
<pdfrwt beam="1">  1        2 0.52967347E+00 0.91131464E+03</pdfrwt>
<pdfrwt beam="2">  1       -2 0.92777308E-02 0.91131464E+03</pdfrwt>
<totfact> 0.72583697E+01</totfact>
</mgrwt>
</event>
<event>
 6    1  0.9988873E-007  0.2989269E+04  0.7818608E-02  0.8246802E-01
          2   -1    0    0  501    0  0.00000000000E+00  0.00000000000E+00  0.39913362486E+04  0.39913362486E+04  0.00000000000E+00 0. -1.
         -2   -1    0    0    0  501 -0.00000000000E+00 -0.00000000000E+00 -0.55969541917E+03  0.55969541917E+03  0.00000000000E+00 0.  1.
         23    2    1    2    0    0 -0.84301938887E+03  0.11722236337E+04  0.22975762745E+04  0.27150326612E+04  0.88066321940E+02 0.  0.
         13    1    3    3    0    0 -0.79615814142E+03  0.10683073196E+04  0.21033528888E+04  0.24898276426E+04  0.00000000000E+00 0. -1.
        -13    1    3    3    0    0 -0.46861247445E+02  0.10391631411E+03  0.19422338567E+03  0.22520501858E+03  0.00000000000E+00 0.  1.
         22    1    1    2    0    0  0.84301938887E+03 -0.11722236337E+04  0.11340645550E+04  0.18359990066E+04  0.00000000000E+00 0.  1.
<mgrwt>
<rscale>  0 0.29892692E+04</rscale>
<asrwt>0</asrwt>
<pdfrwt beam="1">  1        2 0.61405171E+00 0.29892692E+04</pdfrwt>
<pdfrwt beam="2">  1       -2 0.86106990E-01 0.29892692E+04</pdfrwt>
<totfact> 0.34829643E-01</totfact>
</mgrwt>
</event>
<event>
 6    1  0.9988873E-007  0.4023657E+04  0.7818608E-02  0.7999791E-01
          1   -1    0    0  501    0  0.00000000000E+00  0.00000000000E+00  0.28115539065E+04  0.28115539065E+04  0.00000000000E+00 0. -1.
         -1   -1    0    0    0  501 -0.00000000000E+00 -0.00000000000E+00 -0.14395790868E+04  0.14395790868E+04  0.00000000000E+00 0.  1.
         23    2    1    2    0    0 -0.80660138122E+03  0.88289528967E+03  0.23942610055E+04  0.26778628555E+04  0.91399287896E+02 0.  0.
         13    1    3    3    0    0 -0.46382205290E+03  0.52898800994E+03  0.15022167803E+04  0.16587991037E+04  0.00000000000E+00 0. -1.
        -13    1    3    3    0    0 -0.34277932832E+03  0.35390727972E+03  0.89204422517E+03  0.10190637518E+04  0.00000000000E+00 0.  1.
         22    1    1    2    0    0  0.80660138122E+03 -0.88289528967E+03 -0.10222861858E+04  0.15732701378E+04  0.00000000000E+00 0.  1.
<mgrwt>
<rscale>  0 0.40236571E+04</rscale>
<asrwt>0</asrwt>
<pdfrwt beam="1">  1        1 0.43254675E+00 0.40236571E+04</pdfrwt>
<pdfrwt beam="2">  1       -1 0.22147371E+00 0.40236571E+04</pdfrwt>
<totfact> 0.68697838E-02</totfact>
</mgrwt>
</event>
<event>
 6    1  0.9988873E-007  0.1620718E+04  0.7818608E-02  0.8807920E-01
          1   -1    0    0  501    0  0.00000000000E+00  0.00000000000E+00  0.12267714929E+04  0.12267714929E+04  0.00000000000E+00 0. -1.
         -1   -1    0    0    0  501 -0.00000000000E+00 -0.00000000000E+00 -0.53529267720E+03  0.53529267720E+03  0.00000000000E+00 0.  1.
         23    2    1    2    0    0 -0.11289365853E+03  0.67692505703E+03  0.81124566501E+03  0.10654174812E+04  0.77603925584E+02 0.  0.
         11    1    3    3    0    0 -0.66364495725E+01  0.10252004900E+03  0.84605203607E+02  0.13308810385E+03  0.00000000000E+00 0. -1.
        -11    1    3    3    0    0 -0.10625720896E+03  0.57440500803E+03  0.72664046140E+03  0.93232937734E+03  0.00000000000E+00 0.  1.
         22    1    1    2    0    0  0.11289365853E+03 -0.67692505703E+03 -0.11976684931E+03  0.69664668891E+03  0.00000000000E+00 0.  1.
<mgrwt>
<rscale>  0 0.16207181E+04</rscale>
<asrwt>0</asrwt>
<pdfrwt beam="1">  1        1 0.18873408E+00 0.16207181E+04</pdfrwt>
<pdfrwt beam="2">  1       -1 0.82352720E-01 0.16207181E+04</pdfrwt>
<totfact> 0.14346672E+01</totfact>
</mgrwt>
</event>
<event>
 6    1  0.9988873E-007  0.3041726E+04  0.7818608E-02  0.8231915E-01
          2   -1    0    0  501    0  0.00000000000E+00  0.00000000000E+00  0.18602965026E+04  0.18602965026E+04  0.00000000000E+00 0. -1.
         -2   -1    0    0    0  501 -0.00000000000E+00 -0.00000000000E+00 -0.12433628198E+04  0.12433628198E+04  0.00000000000E+00 0.  1.
         23    2    1    2    0    0 -0.21663413307E+03  0.14178103574E+04 -0.20328723948E+03  0.14514247996E+04  0.90507954238E+02 0.  0.
         11    1    3    3    0    0 -0.13665024295E+03  0.10953348367E+04 -0.17952392260E+03  0.11183293487E+04  0.00000000000E+00 0.  1.
        -11    1    3    3    0    0 -0.79983890114E+02  0.32247552071E+03 -0.23763316885E+02  0.33309545083E+03  0.00000000000E+00 0. -1.
         22    1    1    2    0    0  0.21663413307E+03 -0.14178103574E+04  0.82022092220E+03  0.16522345229E+04  0.00000000000E+00 0. -1.
<mgrwt>
<rscale>  0 0.30417255E+04</rscale>
<asrwt>0</asrwt>
<pdfrwt beam="1">  1        2 0.28619946E+00 0.30417255E+04</pdfrwt>
<pdfrwt beam="2">  1       -2 0.19128659E+00 0.30417255E+04</pdfrwt>
<totfact> 0.10356916E+00</totfact>
</mgrwt>
</event>
<event>
 6    1  0.9988873E-007  0.7488981E+03  0.7818608E-02  0.9637081E-01
         -2   -1    0    0    0  501 -0.00000000000E+00  0.00000000000E+00  0.17695522135E+03  0.17695522135E+03  0.00000000000E+00 0.  1.
          2   -1    0    0  501    0  0.00000000000E+00 -0.00000000000E+00 -0.79235925943E+03  0.79235925943E+03  0.00000000000E+00 0. -1.
         23    2    1    2    0    0 -0.28332700798E+03  0.13096191594E+03 -0.56657723590E+03  0.65338842378E+03  0.92094794697E+02 0.  0.
         11    1    3    3    0    0 -0.12817096847E+03  0.10827922027E+03 -0.26935586811E+03  0.31734014934E+03  0.00000000000E+00 0. -1.
        -11    1    3    3    0    0 -0.15515603951E+03  0.22682695672E+02 -0.29722136780E+03  0.33604827444E+03  0.00000000000E+00 0.  1.
         22    1    1    2    0    0  0.28332700798E+03 -0.13096191594E+03 -0.48826802176E+02  0.31592605699E+03  0.00000000000E+00 0.  1.
<mgrwt>
<rscale>  0 0.74889815E+03</rscale>
<asrwt>0</asrwt>
<pdfrwt beam="1">  1        2 0.12190143E+00 0.74889815E+03</pdfrwt>
<pdfrwt beam="2">  1       -2 0.27223880E-01 0.74889815E+03</pdfrwt>
<totfact> 0.43043849E+02</totfact>
</mgrwt>
</event>
<event>
 6    1  0.9988873E-007  0.3453344E+04  0.7818608E-02  0.8124937E-01
         -1   -1    0    0    0  501 -0.00000000000E+00  0.00000000000E+00  0.13704914769E+04  0.13704914769E+04  0.00000000000E+00 0.  1.
          1   -1    0    0  501    0  0.00000000000E+00 -0.00000000000E+00 -0.21754212779E+04  0.21754212779E+04  0.00000000000E+00 0. -1.
         23    2    1    2    0    0  0.52986111937E+03 -0.14974735272E+04 -0.10945705035E+04  0.19312699128E+04  0.92407351289E+02 0.  0.
         11    1    3    3    0    0  0.44305395059E+03 -0.13281595690E+04 -0.98258744215E+03  0.17104919542E+04  0.00000000000E+00 0.  1.
        -11    1    3    3    0    0  0.86807168775E+02 -0.16931395825E+03 -0.11198306134E+03  0.22077795867E+03  0.00000000000E+00 0. -1.
         22    1    1    2    0    0 -0.52986111937E+03  0.14974735272E+04  0.28964070245E+03  0.16146428419E+04  0.00000000000E+00 0.  1.
<mgrwt>
<rscale>  0 0.34533441E+04</rscale>
<asrwt>0</asrwt>
<pdfrwt beam="1">  1        1 0.33468020E+00 0.34533441E+04</pdfrwt>
<pdfrwt beam="2">  1       -1 0.21084484E+00 0.34533441E+04</pdfrwt>
<totfact> 0.23529442E-01</totfact>
</mgrwt>
</event>
<event>
 6    1  0.9988873E-007  0.9251846E+03  0.7818608E-02  0.9394636E-01
          1   -1    0    0  501    0  0.00000000000E+00  0.00000000000E+00  0.52821766950E+03  0.52821766950E+03  0.00000000000E+00 0. -1.
         -1   -1    0    0    0  501 -0.00000000000E+00 -0.00000000000E+00 -0.40512015831E+03  0.40512015831E+03  0.00000000000E+00 0.  1.
         23    2    1    2    0    0 -0.95782852001E+02 -0.74083171146E+02  0.50765472181E+03  0.53016674846E+03  0.93278044656E+02 0.  0.
         11    1    3    3    0    0 -0.61472440880E+02 -0.10563324148E+02  0.11401001143E+03  0.12995663704E+03  0.00000000000E+00 0. -1.
        -11    1    3    3    0    0 -0.34310411122E+02 -0.63519846998E+02  0.39364471038E+03  0.40021011142E+03  0.00000000000E+00 0.  1.
         22    1    1    2    0    0  0.95782852001E+02  0.74083171146E+02 -0.38455721062E+03  0.40317107935E+03  0.00000000000E+00 0.  1.
<mgrwt>
<rscale>  0 0.92518458E+03</rscale>
<asrwt>0</asrwt>
<pdfrwt beam="1">  1        1 0.81264257E-01 0.92518458E+03</pdfrwt>
<pdfrwt beam="2">  1       -1 0.62326178E-01 0.92518458E+03</pdfrwt>
<totfact> 0.10795779E+02</totfact>
</mgrwt>
</event>
<event>
 6    1  0.9988873E-007  0.4136128E+04  0.7818608E-02  0.7977634E-01
         -2   -1    0    0    0  501 -0.00000000000E+00  0.00000000000E+00  0.12541116055E+04  0.12541116055E+04  0.00000000000E+00 0.  1.
          2   -1    0    0  501    0  0.00000000000E+00 -0.00000000000E+00 -0.34102932983E+04  0.34102932983E+04  0.00000000000E+00 0. -1.
         23    2    1    2    0    0  0.25653503995E+03 -0.69584837483E+02 -0.33903257963E+04  0.34019612636E+04  0.91537738751E+02 0.  0.
         11    1    3    3    0    0  0.16228804581E+03 -0.86527381346E+02 -0.20599596224E+04  0.20681532930E+04  0.00000000000E+00 0.  1.
        -11    1    3    3    0    0  0.94246994141E+02  0.16942543863E+02 -0.13303661739E+04  0.13338079706E+04  0.00000000000E+00 0. -1.
         22    1    1    2    0    0 -0.25653503995E+03  0.69584837483E+02  0.12341441036E+04  0.12624436402E+04  0.00000000000E+00 0.  1.
<mgrwt>
<rscale>  0 0.41361279E+04</rscale>
<asrwt>0</asrwt>
<pdfrwt beam="1">  1        2 0.52466051E+00 0.41361279E+04</pdfrwt>
<pdfrwt beam="2">  1       -2 0.19294025E+00 0.41361279E+04</pdfrwt>
<totfact> 0.10825308E-01</totfact>
</mgrwt>
</event>
<event>
 6    1  0.9988873E-007  0.1418946E+04  0.7818608E-02  0.8940218E-01
          2   -1    0    0  501    0  0.00000000000E+00  0.00000000000E+00  0.11915267037E+04  0.11915267037E+04  0.00000000000E+00 0. -1.
         -2   -1    0    0    0  501 -0.00000000000E+00 -0.00000000000E+00 -0.42244279438E+03  0.42244279438E+03  0.00000000000E+00 0.  1.
         23    2    1    2    0    0 -0.37889082406E+03 -0.41628077921E+03  0.87183448419E+03  0.10417758033E+04  0.91397553936E+02 0.  0.
         13    1    3    3    0    0 -0.13201527354E+03 -0.21237407118E+03  0.37977853228E+03  0.45471146031E+03  0.00000000000E+00 0. -1.
        -13    1    3    3    0    0 -0.24687555052E+03 -0.20390670804E+03  0.49205595191E+03  0.58706434301E+03  0.00000000000E+00 0.  1.
         22    1    1    2    0    0  0.37889082406E+03  0.41628077921E+03 -0.10275057485E+03  0.57219369477E+03  0.00000000000E+00 0.  1.
<mgrwt>
<rscale>  0 0.14189459E+04</rscale>
<asrwt>0</asrwt>
<pdfrwt beam="1">  1        2 0.18331180E+00 0.14189459E+04</pdfrwt>
<pdfrwt beam="2">  1       -2 0.64991200E-01 0.14189459E+04</pdfrwt>
<totfact> 0.40678609E+01</totfact>
</mgrwt>
</event>
<event>
 6    1  0.9988873E-007  0.1621281E+04  0.7818608E-02  0.8807580E-01
         -2   -1    0    0    0  501 -0.00000000000E+00  0.00000000000E+00  0.75420408605E+03  0.75420408605E+03  0.00000000000E+00 0.  1.
          2   -1    0    0  501    0  0.00000000000E+00 -0.00000000000E+00 -0.87130028512E+03  0.87130028512E+03  0.00000000000E+00 0. -1.
         23    2    1    2    0    0 -0.83732270272E+02  0.67096594071E+03  0.38505583138E+03  0.78326743992E+03  0.89629807949E+02 0.  0.
         11    1    3    3    0    0 -0.46037175745E+02  0.23487710947E+03  0.91554483964E+02  0.25625944204E+03  0.00000000000E+00 0.  1.
        -11    1    3    3    0    0 -0.37695094527E+02  0.43608883125E+03  0.29350134741E+03  0.52700799787E+03  0.00000000000E+00 0. -1.
         22    1    1    2    0    0  0.83732270272E+02 -0.67096594071E+03 -0.50215203045E+03  0.84223693125E+03  0.00000000000E+00 0. -1.
<mgrwt>
<rscale>  0 0.16212813E+04</rscale>
<asrwt>0</asrwt>
<pdfrwt beam="1">  1        2 0.13404620E+00 0.16212813E+04</pdfrwt>
<pdfrwt beam="2">  1       -2 0.11603140E+00 0.16212813E+04</pdfrwt>
<totfact> 0.16943633E+01</totfact>
</mgrwt>
</event>
<event>
 6    1  0.9988873E-007  0.1825158E+04  0.7818608E-02  0.8693034E-01
         -2   -1    0    0    0  501 -0.00000000000E+00  0.00000000000E+00  0.42722632004E+03  0.42722632004E+03  0.00000000000E+00 0.  1.
          2   -1    0    0  501    0  0.00000000000E+00 -0.00000000000E+00 -0.19493194761E+04  0.19493194761E+04  0.00000000000E+00 0. -1.
         23    2    1    2    0    0  0.50652958358E+03  0.42562293511E+03  0.51991657943E+02  0.66907102221E+03  0.85004695915E+02 0.  0.
         13    1    3    3    0    0  0.48869953854E+03  0.42419679443E+03  0.41774151863E+02  0.64847146363E+03  0.00000000000E+00 0.  1.
        -13    1    3    3    0    0  0.17830045042E+02  0.14261406872E+01  0.10217506080E+02  0.20599558587E+02  0.00000000000E+00 0. -1.
         22    1    1    2    0    0 -0.50652958358E+03 -0.42562293511E+03 -0.15740848140E+04  0.17074747739E+04  0.00000000000E+00 0. -1.
<mgrwt>
<rscale>  0 0.18251582E+04</rscale>
<asrwt>0</asrwt>
<pdfrwt beam="1">  1        2 0.29989530E+00 0.18251582E+04</pdfrwt>
<pdfrwt beam="2">  1       -2 0.65727128E-01 0.18251582E+04</pdfrwt>
<totfact> 0.14315895E+01</totfact>
</mgrwt>
</event>
<event>
 6    1  0.9988873E-007  0.4310840E+04  0.7818608E-02  0.7944617E-01
          2   -1    0    0  501    0  0.00000000000E+00  0.00000000000E+00  0.20245022212E+04  0.20245022212E+04  0.00000000000E+00 0. -1.
         -2   -1    0    0    0  501 -0.00000000000E+00 -0.00000000000E+00 -0.22948038841E+04  0.22948038841E+04  0.00000000000E+00 0.  1.
         23    2    1    2    0    0 -0.96820364685E+03  0.16411351414E+04 -0.11426191638E+04  0.22236723881E+04  0.91637775419E+02 0.  0.
         11    1    3    3    0    0 -0.66833062260E+03  0.11682318707E+04 -0.76254295836E+03  0.15469011889E+04  0.00000000000E+00 0. -1.
        -11    1    3    3    0    0 -0.29987302425E+03  0.47290327074E+03 -0.38007620547E+03  0.67677119923E+03  0.00000000000E+00 0.  1.
         22    1    1    2    0    0  0.96820364685E+03 -0.16411351414E+04  0.87231750088E+03  0.20956337172E+04  0.00000000000E+00 0.  1.
<mgrwt>
<rscale>  0 0.43108401E+04</rscale>
<asrwt>0</asrwt>
<pdfrwt beam="1">  1        2 0.31146188E+00 0.43108401E+04</pdfrwt>
<pdfrwt beam="2">  1       -2 0.35304675E+00 0.43108401E+04</pdfrwt>
<totfact> 0.74133095E-02</totfact>
</mgrwt>
</event>
<event>
 6    1  0.9988873E-007  0.1996636E+04  0.7818608E-02  0.8608195E-01
          2   -1    0    0  501    0  0.00000000000E+00  0.00000000000E+00  0.17154182009E+04  0.17154182009E+04  0.00000000000E+00 0. -1.
         -2   -1    0    0    0  501 -0.00000000000E+00 -0.00000000000E+00 -0.58098883896E+03  0.58098883896E+03  0.00000000000E+00 0.  1.
         23    2    1    2    0    0 -0.85010734322E+03 -0.47331006376E+03  0.32206745706E+03  0.10288752746E+04  0.90288273189E+02 0.  0.
         13    1    3    3    0    0 -0.45819877213E+03 -0.22990116494E+03  0.21087653229E+03  0.55431901671E+03  0.00000000000E+00 0. -1.
        -13    1    3    3    0    0 -0.39190857110E+03 -0.24340889883E+03  0.11119092477E+03  0.47455625786E+03  0.00000000000E+00 0.  1.
         22    1    1    2    0    0  0.85010734322E+03  0.47331006376E+03  0.81236190485E+03  0.12675317652E+04  0.00000000000E+00 0. -1.
<mgrwt>
<rscale>  0 0.19966360E+04</rscale>
<asrwt>0</asrwt>
<pdfrwt beam="1">  1        2 0.26391049E+00 0.19966360E+04</pdfrwt>
<pdfrwt beam="2">  1       -2 0.89382899E-01 0.19966360E+04</pdfrwt>
<totfact> 0.95939935E+00</totfact>
</mgrwt>
</event>
<event>
 6    1  0.1162509E-006  0.4135981E+04  0.7818608E-02  0.7977663E-01
         -2   -1    0    0    0  501 -0.00000000000E+00  0.00000000000E+00  0.18317543099E+04  0.18317543099E+04  0.00000000000E+00 0.  1.
          2   -1    0    0  501    0  0.00000000000E+00 -0.00000000000E+00 -0.23346938255E+04  0.23346938255E+04  0.00000000000E+00 0. -1.
         23    2    1    2    0    0 -0.83557696236E+03  0.16811552528E+04 -0.11228271000E+04  0.21893966790E+04  0.90803510297E+02 0.  0.
         13    1    3    3    0    0 -0.18584198633E+03  0.44617739358E+03 -0.26199197683E+03  0.54977386838E+03  0.00000000000E+00 0. -1.
        -13    1    3    3    0    0 -0.64973497603E+03  0.12349778592E+04 -0.86083512316E+03  0.16396228106E+04  0.00000000000E+00 0.  1.
         22    1    1    2    0    0  0.83557696236E+03 -0.16811552528E+04  0.61988758433E+03  0.19770514564E+04  0.00000000000E+00 0.  1.
<mgrwt>
<rscale>  0 0.41359814E+04</rscale>
<asrwt>0</asrwt>
<pdfrwt beam="1">  1        2 0.35918367E+00 0.41359814E+04</pdfrwt>
<pdfrwt beam="2">  1       -2 0.28180835E+00 0.41359814E+04</pdfrwt>
<totfact> 0.13879337E-01</totfact>
</mgrwt>
</event>
<event>
 6    1  0.9988873E-007  0.2386848E+04  0.7818608E-02  0.8444444E-01
         -1   -1    0    0    0  501 -0.00000000000E+00  0.00000000000E+00  0.90744176639E+03  0.90744176639E+03  0.00000000000E+00 0.  1.
          1   -1    0    0  501    0  0.00000000000E+00 -0.00000000000E+00 -0.15695339042E+04  0.15695339042E+04  0.00000000000E+00 0. -1.
         23    2    1    2    0    0  0.65020072029E+03  0.52666146244E+03 -0.12120349355E+04  0.14756913186E+04  0.92211225690E+02 0.  0.
         13    1    3    3    0    0  0.34763020690E+03  0.32856860759E+03 -0.64178705775E+03  0.80043408107E+03  0.00000000000E+00 0.  1.
        -13    1    3    3    0    0  0.30257051339E+03  0.19809285485E+03 -0.57024787778E+03  0.67525723753E+03  0.00000000000E+00 0. -1.
         22    1    1    2    0    0 -0.65020072029E+03 -0.52666146244E+03  0.54994279776E+03  0.10012843520E+04  0.00000000000E+00 0.  1.
<mgrwt>
<rscale>  0 0.23868478E+04</rscale>
<asrwt>0</asrwt>
<pdfrwt beam="1">  1        1 0.24146675E+00 0.23868478E+04</pdfrwt>
<pdfrwt beam="2">  1       -1 0.13960643E+00 0.23868478E+04</pdfrwt>
<totfact> 0.22184763E+00</totfact>
</mgrwt>
</event>
<event>
 6    1  0.9988873E-007  0.1178556E+04  0.7818608E-02  0.9131836E-01
          2   -1    0    0  501    0  0.00000000000E+00  0.00000000000E+00  0.18618370870E+04  0.18618370870E+04  0.00000000000E+00 0. -1.
         -2   -1    0    0    0  501 -0.00000000000E+00 -0.00000000000E+00 -0.18650860872E+03  0.18650860872E+03  0.00000000000E+00 0.  1.
         23    2    1    2    0    0  0.25526857872E+03  0.51454206827E+03  0.10397813359E+04  0.11917035548E+04  0.95375829842E+02 0.  0.
         13    1    3    3    0    0  0.15091357261E+03  0.39724482554E+03  0.74193478197E+03  0.85501203413E+03  0.00000000000E+00 0.  1.
        -13    1    3    3    0    0  0.10435500611E+03  0.11729724272E+03  0.29784655389E+03  0.33669152071E+03  0.00000000000E+00 0. -1.
         22    1    1    2    0    0 -0.25526857872E+03 -0.51454206827E+03  0.63554714240E+03  0.85664214087E+03  0.00000000000E+00 0.  1.
<mgrwt>
<rscale>  0 0.11785561E+04</rscale>
<asrwt>0</asrwt>
<pdfrwt beam="1">  1        2 0.28643646E+00 0.11785561E+04</pdfrwt>
<pdfrwt beam="2">  1       -2 0.28693633E-01 0.11785561E+04</pdfrwt>
<totfact> 0.87820891E+01</totfact>
</mgrwt>
</event>
<event>
 6    1  0.9988873E-007  0.5624537E+03  0.7818608E-02  0.9986518E-01
         -2   -1    0    0    0  501 -0.00000000000E+00  0.00000000000E+00  0.55582990643E+03  0.55582990643E+03  0.00000000000E+00 0.  1.
          2   -1    0    0  501    0  0.00000000000E+00 -0.00000000000E+00 -0.14228909364E+03  0.14228909364E+03  0.00000000000E+00 0. -1.
         23    2    1    2    0    0  0.19320865313E+03  0.14029905794E+03  0.45628520024E+02  0.25951568902E+03  0.90846143030E+02 0.  0.
         11    1    3    3    0    0  0.15213527025E+03  0.57828767736E+02  0.20670700912E+02  0.16406274625E+03  0.00000000000E+00 0. -1.
        -11    1    3    3    0    0  0.41073382878E+02  0.82470290202E+02  0.24957819112E+02  0.95452942761E+02  0.00000000000E+00 0.  1.
         22    1    1    2    0    0 -0.19320865313E+03 -0.14029905794E+03  0.36791229277E+03  0.43860331106E+03  0.00000000000E+00 0.  1.
<mgrwt>
<rscale>  0 0.56245367E+03</rscale>
<asrwt>0</asrwt>
<pdfrwt beam="1">  1        2 0.21890630E-01 0.56245367E+03</pdfrwt>
<pdfrwt beam="2">  1       -2 0.85512292E-01 0.56245367E+03</pdfrwt>
<totfact> 0.30719894E+02</totfact>
</mgrwt>
</event>
<event>
 6    1  0.9988873E-007  0.4144959E+04  0.7818608E-02  0.7975926E-01
          1   -1    0    0  501    0  0.00000000000E+00  0.00000000000E+00  0.27318707096E+04  0.27318707096E+04  0.00000000000E+00 0. -1.
         -1   -1    0    0    0  501 -0.00000000000E+00 -0.00000000000E+00 -0.15722450800E+04  0.15722450800E+04  0.00000000000E+00 0.  1.
         23    2    1    2    0    0  0.39919842823E+03 -0.15395824760E+04  0.19582303989E+04  0.25243845843E+04  0.90430351204E+02 0.  0.
         13    1    3    3    0    0  0.21598908953E+03 -0.65462478716E+03  0.85001982818E+03  0.10944033110E+04  0.00000000000E+00 0.  1.
        -13    1    3    3    0    0  0.18320933870E+03 -0.88495768885E+03  0.11082105708E+04  0.14299812733E+04  0.00000000000E+00 0. -1.
         22    1    1    2    0    0 -0.39919842823E+03  0.15395824760E+04 -0.79860476941E+03  0.17797312053E+04  0.00000000000E+00 0.  1.
<mgrwt>
<rscale>  0 0.41449585E+04</rscale>
<asrwt>0</asrwt>
<pdfrwt beam="1">  1        1 0.42028780E+00 0.41449585E+04</pdfrwt>
<pdfrwt beam="2">  1       -1 0.24188386E+00 0.41449585E+04</pdfrwt>
<totfact> 0.56777832E-02</totfact>
</mgrwt>
</event>
<event>
 6    1  0.9988873E-007  0.3043756E+04  0.7818608E-02  0.8231345E-01
          1   -1    0    0  501    0  0.00000000000E+00  0.00000000000E+00  0.20869046015E+04  0.20869046015E+04  0.00000000000E+00 0. -1.
         -1   -1    0    0    0  501 -0.00000000000E+00 -0.00000000000E+00 -0.11098315771E+04  0.11098315771E+04  0.00000000000E+00 0.  1.
         23    2    1    2    0    0 -0.92866511846E+03 -0.11626592381E+04  0.16066641590E+03  0.14994692118E+04  0.91645041553E+02 0.  0.
         11    1    3    3    0    0 -0.31698531017E+03 -0.33529982305E+03  0.31809298896E+02  0.46251215087E+03  0.00000000000E+00 0. -1.
        -11    1    3    3    0    0 -0.61167980829E+03 -0.82735941508E+03  0.12885711700E+03  0.10369570609E+04  0.00000000000E+00 0.  1.
         22    1    1    2    0    0  0.92866511846E+03  0.11626592381E+04  0.81640660851E+03  0.16972669668E+04  0.00000000000E+00 0. -1.
<mgrwt>
<rscale>  0 0.30437560E+04</rscale>
<asrwt>0</asrwt>
<pdfrwt beam="1">  1        1 0.32106224E+00 0.30437560E+04</pdfrwt>
<pdfrwt beam="2">  1       -1 0.17074332E+00 0.30437560E+04</pdfrwt>
<totfact> 0.53589108E-01</totfact>
</mgrwt>
</event>
<event>
 6    1  0.9988873E-007  0.2626905E+04  0.7818608E-02  0.8359119E-01
          2   -1    0    0  501    0  0.00000000000E+00  0.00000000000E+00  0.13756901199E+04  0.13756901199E+04  0.00000000000E+00 0. -1.
         -2   -1    0    0    0  501 -0.00000000000E+00 -0.00000000000E+00 -0.12540305553E+04  0.12540305553E+04  0.00000000000E+00 0.  1.
         23    2    1    2    0    0  0.63463550865E+03  0.85266766766E+03 -0.70878616497E+03  0.12808528203E+04  0.91661002490E+02 0.  0.
         11    1    3    3    0    0  0.30909978705E+03  0.37896779686E+03 -0.37426455775E+03  0.61581915251E+03  0.00000000000E+00 0. -1.
        -11    1    3    3    0    0  0.32553572159E+03  0.47369987080E+03 -0.33452160722E+03  0.66503366782E+03  0.00000000000E+00 0.  1.
         22    1    1    2    0    0 -0.63463550865E+03 -0.85266766766E+03  0.83044572951E+03  0.13488678549E+04  0.00000000000E+00 0. -1.
<mgrwt>
<rscale>  0 0.26269050E+04</rscale>
<asrwt>0</asrwt>
<pdfrwt beam="1">  1        2 0.21164463E+00 0.26269050E+04</pdfrwt>
<pdfrwt beam="2">  1       -2 0.19292778E+00 0.26269050E+04</pdfrwt>
<totfact> 0.19542075E+00</totfact>
</mgrwt>
</event>
<event>
 6    1  0.9988873E-007  0.2718701E+04  0.7818608E-02  0.8328963E-01
         -2   -1    0    0    0  501 -0.00000000000E+00  0.00000000000E+00  0.51581455826E+03  0.51581455826E+03  0.00000000000E+00 0.  1.
          2   -1    0    0  501    0  0.00000000000E+00 -0.00000000000E+00 -0.35823604455E+04  0.35823604455E+04  0.00000000000E+00 0. -1.
         23    2    1    2    0    0  0.11548374472E+04 -0.69476191911E+03 -0.17841309108E+04  0.22378170207E+04  0.91423505959E+02 0.  0.
         13    1    3    3    0    0  0.53166008079E+03 -0.36623998618E+03 -0.81595744131E+03  0.10404713908E+04  0.00000000000E+00 0. -1.
        -13    1    3    3    0    0  0.62317736636E+03 -0.32852193292E+03 -0.96817346951E+03  0.11973456299E+04  0.00000000000E+00 0.  1.
         22    1    1    2    0    0 -0.11548374472E+04  0.69476191911E+03 -0.12824149765E+04  0.18603579831E+04  0.00000000000E+00 0. -1.
<mgrwt>
<rscale>  0 0.27187009E+04</rscale>
<asrwt>0</asrwt>
<pdfrwt beam="1">  1        2 0.55113239E+00 0.27187009E+04</pdfrwt>
<pdfrwt beam="2">  1       -2 0.79356083E-01 0.27187009E+04</pdfrwt>
<totfact> 0.87670621E-01</totfact>
</mgrwt>
</event>
<event>
 6    1  0.9988873E-007  0.2749780E+04  0.7818608E-02  0.8319031E-01
         -2   -1    0    0    0  501 -0.00000000000E+00  0.00000000000E+00  0.15588641887E+04  0.15588641887E+04  0.00000000000E+00 0.  1.
          2   -1    0    0  501    0  0.00000000000E+00 -0.00000000000E+00 -0.12126280651E+04  0.12126280651E+04  0.00000000000E+00 0. -1.
         23    2    1    2    0    0 -0.13386405360E+03  0.69224417750E+03  0.13612178307E+04  0.15356486342E+04  0.90449759225E+02 0.  0.
         13    1    3    3    0    0 -0.94561610616E+02  0.33435172405E+03  0.59433427498E+03  0.68845203464E+03  0.00000000000E+00 0.  1.
        -13    1    3    3    0    0 -0.39302442984E+02  0.35789245345E+03  0.76688355576E+03  0.84719659959E+03  0.00000000000E+00 0. -1.
         22    1    1    2    0    0  0.13386405360E+03 -0.69224417750E+03 -0.10149817071E+04  0.12358436195E+04  0.00000000000E+00 0. -1.
<mgrwt>
<rscale>  0 0.27497800E+04</rscale>
<asrwt>0</asrwt>
<pdfrwt beam="1">  1        2 0.18655816E+00 0.27497800E+04</pdfrwt>
<pdfrwt beam="2">  1       -2 0.23982526E+00 0.27497800E+04</pdfrwt>
<totfact> 0.12077680E+00</totfact>
</mgrwt>
</event>
<event>
 6    1  0.9988873E-007  0.4053100E+03  0.7818608E-02  0.1041956E+00
         -1   -1    0    0    0  501 -0.00000000000E+00  0.00000000000E+00  0.76844314442E+02  0.76844314442E+02  0.00000000000E+00 0.  1.
          1   -1    0    0  501    0  0.00000000000E+00 -0.00000000000E+00 -0.53444487317E+03  0.53444487317E+03  0.00000000000E+00 0. -1.
         23    2    1    2    0    0  0.18692415487E+03  0.29816708299E+02 -0.30623119685E+03  0.36892095644E+03  0.80594357188E+02 0.  0.
         11    1    3    3    0    0  0.55561865668E+02  0.45213932505E+02 -0.84904268852E+02  0.11108625243E+03  0.00000000000E+00 0. -1.
        -11    1    3    3    0    0  0.13136228920E+03 -0.15397224205E+02 -0.22132692799E+03  0.25783470401E+03  0.00000000000E+00 0.  1.
         22    1    1    2    0    0 -0.18692415487E+03 -0.29816708299E+02 -0.15136936188E+03  0.24236823118E+03  0.00000000000E+00 0.  1.
<mgrwt>
<rscale>  0 0.40531000E+03</rscale>
<asrwt>0</asrwt>
<pdfrwt beam="1">  1        1 0.82222287E-01 0.40531000E+03</pdfrwt>
<pdfrwt beam="2">  1       -1 0.11822202E-01 0.40531000E+03</pdfrwt>
<totfact> 0.19430866E+03</totfact>
</mgrwt>
</event>
<event>
 6    1  0.9988873E-007  0.5845121E+03  0.7818608E-02  0.9938070E-01
         -2   -1    0    0    0  501 -0.00000000000E+00  0.00000000000E+00  0.27943931288E+02  0.27943931288E+02  0.00000000000E+00 0.  1.
          2   -1    0    0  501    0  0.00000000000E+00 -0.00000000000E+00 -0.30566064903E+04  0.30566064903E+04  0.00000000000E+00 0. -1.
         23    2    1    2    0    0  0.20287626626E+03 -0.14620899900E+03 -0.22822677628E+04  0.22973776054E+04  0.81620277305E+02 0.  0.
         13    1    3    3    0    0  0.20944461941E+03 -0.13689827924E+03 -0.21210721533E+04  0.21357797796E+04  0.00000000000E+00 0. -1.
        -13    1    3    3    0    0 -0.65683531440E+01 -0.93107197641E+01 -0.16119560952E+03  0.16159782577E+03  0.00000000000E+00 0.  1.
         22    1    1    2    0    0 -0.20287626626E+03  0.14620899900E+03 -0.74639479619E+03  0.78717281621E+03  0.00000000000E+00 0.  1.
<mgrwt>
<rscale>  0 0.58451211E+03</rscale>
<asrwt>0</asrwt>
<pdfrwt beam="1">  1        2 0.47024708E+00 0.58451211E+03</pdfrwt>
<pdfrwt beam="2">  1       -2 0.42990670E-02 0.58451211E+03</pdfrwt>
<totfact> 0.45067110E+02</totfact>
</mgrwt>
</event>
<event>
 6    1  0.9988873E-007  0.2470838E+04  0.7818608E-02  0.8413449E-01
         -1   -1    0    0    0  501 -0.00000000000E+00  0.00000000000E+00  0.16811745518E+04  0.16811745518E+04  0.00000000000E+00 0.  1.
          1   -1    0    0  501    0  0.00000000000E+00 -0.00000000000E+00 -0.90785323442E+03  0.90785323442E+03  0.00000000000E+00 0. -1.
         23    2    1    2    0    0  0.92244277848E+03 -0.59706717467E+03  0.97508177831E+03  0.14718450912E+04  0.90297327446E+02 0.  0.
         11    1    3    3    0    0  0.52920318575E+03 -0.39382982720E+03  0.56982732168E+03  0.87170013257E+03  0.00000000000E+00 0.  1.
        -11    1    3    3    0    0  0.39323959273E+03 -0.20323734748E+03  0.40525445664E+03  0.60014495859E+03  0.00000000000E+00 0. -1.
         22    1    1    2    0    0 -0.92244277848E+03  0.59706717467E+03 -0.20176046089E+03  0.11171826951E+04  0.00000000000E+00 0. -1.
<mgrwt>
<rscale>  0 0.24708377E+04</rscale>
<asrwt>0</asrwt>
<pdfrwt beam="1">  1        1 0.13966973E+00 0.24708377E+04</pdfrwt>
<pdfrwt beam="2">  1       -1 0.25864224E+00 0.24708377E+04</pdfrwt>
<totfact> 0.97776980E-01</totfact>
</mgrwt>
</event>
<event>
 6    1  0.9988873E-007  0.3144058E+04  0.7818608E-02  0.8203750E-01
          1   -1    0    0  501    0  0.00000000000E+00  0.00000000000E+00  0.11169315282E+04  0.11169315282E+04  0.00000000000E+00 0. -1.
         -1   -1    0    0    0  501 -0.00000000000E+00 -0.00000000000E+00 -0.22125569341E+04  0.22125569341E+04  0.00000000000E+00 0.  1.
         23    2    1    2    0    0  0.72980503431E+03  0.77792194368E+03 -0.17692464162E+04  0.20679246691E+04  0.91113212586E+02 0.  0.
         13    1    3    3    0    0  0.22588449254E+03  0.26674177534E+03 -0.65638629098E+03  0.74365176102E+03  0.00000000000E+00 0. -1.
        -13    1    3    3    0    0  0.50392054177E+03  0.51118016833E+03 -0.11128601252E+04  0.13242729081E+04  0.00000000000E+00 0.  1.
         22    1    1    2    0    0 -0.72980503431E+03 -0.77792194368E+03  0.67362101037E+03  0.12615637931E+04  0.00000000000E+00 0. -1.
<mgrwt>
<rscale>  0 0.31440576E+04</rscale>
<asrwt>0</asrwt>
<pdfrwt beam="1">  1        1 0.17183562E+00 0.31440576E+04</pdfrwt>
<pdfrwt beam="2">  1       -1 0.34039337E+00 0.31440576E+04</pdfrwt>
<totfact> 0.18610532E-01</totfact>
</mgrwt>
</event>
<event>
 6    1  0.9988873E-007  0.1768475E+04  0.7818608E-02  0.8723246E-01
          2   -1    0    0  501    0  0.00000000000E+00  0.00000000000E+00  0.31663642181E+04  0.31663642181E+04  0.00000000000E+00 0. -1.
         -2   -1    0    0    0  501 -0.00000000000E+00 -0.00000000000E+00 -0.24693177049E+03  0.24693177049E+03  0.00000000000E+00 0.  1.
         23    2    1    2    0    0  0.51205300891E+03 -0.36655624074E+03  0.26540026240E+04  0.27299112120E+04  0.11010692902E+03 0.  0.
         11    1    3    3    0    0  0.10251618496E+03 -0.25608208818E+02  0.48986859292E+03  0.50113529796E+03  0.00000000000E+00 0. -1.
        -11    1    3    3    0    0  0.40953682394E+03 -0.34094803192E+03  0.21641340311E+04  0.22287759141E+04  0.00000000000E+00 0.  1.
         22    1    1    2    0    0 -0.51205300891E+03  0.36655624074E+03  0.26542982360E+03  0.68338477654E+03  0.00000000000E+00 0.  1.
<mgrwt>
<rscale>  0 0.17684750E+04</rscale>
<asrwt>0</asrwt>
<pdfrwt beam="1">  1        2 0.48713293E+00 0.17684750E+04</pdfrwt>
<pdfrwt beam="2">  1       -2 0.37989505E-01 0.17684750E+04</pdfrwt>
<totfact> 0.84885212E+00</totfact>
</mgrwt>
</event>
<event>
 6    1  0.9988873E-007  0.6590508E+03  0.7818608E-02  0.9789943E-01
          2   -1    0    0  501    0  0.00000000000E+00  0.00000000000E+00  0.31057558778E+03  0.31057558778E+03  0.00000000000E+00 0. -1.
         -2   -1    0    0    0  501 -0.00000000000E+00 -0.00000000000E+00 -0.34963140092E+03  0.34963140092E+03  0.00000000000E+00 0.  1.
         23    2    1    2    0    0  0.14720029100E+03 -0.11815969669E+03  0.24348165477E+03  0.32041725906E+03  0.88058299428E+02 0.  0.
         11    1    3    3    0    0  0.13859557244E+03 -0.73172905306E+02  0.21644925230E+03  0.26723264320E+03  0.00000000000E+00 0. -1.
        -11    1    3    3    0    0  0.86047185647E+01 -0.44986791380E+02  0.27032402469E+02  0.53184615853E+02  0.00000000000E+00 0.  1.
         22    1    1    2    0    0 -0.14720029100E+03  0.11815969669E+03 -0.28253746791E+03  0.33978972964E+03  0.00000000000E+00 0.  1.
<mgrwt>
<rscale>  0 0.65905077E+03</rscale>
<asrwt>0</asrwt>
<pdfrwt beam="1">  1        2 0.47780860E-01 0.65905077E+03</pdfrwt>
<pdfrwt beam="2">  1       -2 0.53789446E-01 0.65905077E+03</pdfrwt>
<totfact> 0.34724449E+02</totfact>
</mgrwt>
</event>
<event>
 6    1  0.9988873E-007  0.1579264E+04  0.7818608E-02  0.8833389E-01
         -2   -1    0    0    0  501 -0.00000000000E+00  0.00000000000E+00  0.96893445994E+03  0.96893445994E+03  0.00000000000E+00 0.  1.
          2   -1    0    0  501    0  0.00000000000E+00 -0.00000000000E+00 -0.64350978045E+03  0.64350978045E+03  0.00000000000E+00 0. -1.
         23    2    1    2    0    0 -0.39098450119E+03 -0.15768488155E+03  0.84174761399E+03  0.94586883225E+03  0.91626416073E+02 0.  0.
         11    1    3    3    0    0 -0.11756588573E+03 -0.93633303279E+02  0.31070404850E+03  0.34514625701E+03  0.00000000000E+00 0. -1.
        -11    1    3    3    0    0 -0.27341861546E+03 -0.64051578267E+02  0.53104356549E+03  0.60072257524E+03  0.00000000000E+00 0.  1.
         22    1    1    2    0    0  0.39098450119E+03  0.15768488155E+03 -0.51632293451E+03  0.66657540814E+03  0.00000000000E+00 0. -1.
<mgrwt>
<rscale>  0 0.15792641E+04</rscale>
<asrwt>0</asrwt>
<pdfrwt beam="1">  1        2 0.99001504E-01 0.15792641E+04</pdfrwt>
<pdfrwt beam="2">  1       -2 0.14906684E+00 0.15792641E+04</pdfrwt>
<totfact> 0.13310431E+01</totfact>
</mgrwt>
</event>
<event>
 6    1  0.9988873E-007  0.4583091E+04  0.7818608E-02  0.7896249E-01
         -2   -1    0    0    0  501 -0.00000000000E+00  0.00000000000E+00  0.22255926848E+04  0.22255926848E+04  0.00000000000E+00 0.  1.
          2   -1    0    0  501    0  0.00000000000E+00 -0.00000000000E+00 -0.23594529698E+04  0.23594529698E+04  0.00000000000E+00 0. -1.
         23    2    1    2    0    0 -0.51297831877E+03 -0.22319026503E+04 -0.16398883620E+02  0.22919400362E+04  0.90465520001E+02 0.  0.
         11    1    3    3    0    0 -0.12413180519E+03 -0.70156667432E+03 -0.26189908406E+02  0.71294488909E+03  0.00000000000E+00 0. -1.
        -11    1    3    3    0    0 -0.38884651358E+03 -0.15303359760E+04  0.97910247856E+01  0.15789951472E+04  0.00000000000E+00 0.  1.
         22    1    1    2    0    0  0.51297831877E+03  0.22319026503E+04 -0.11746140137E+03  0.22931056183E+04  0.00000000000E+00 0.  1.
<mgrwt>
<rscale>  0 0.45830912E+04</rscale>
<asrwt>0</asrwt>
<pdfrwt beam="1">  1        2 0.36299276E+00 0.45830912E+04</pdfrwt>
<pdfrwt beam="2">  1       -2 0.34239887E+00 0.45830912E+04</pdfrwt>
<totfact> 0.54823089E-02</totfact>
</mgrwt>
</event>
<event>
 6    1  0.9988873E-007  0.5060236E+04  0.7818608E-02  0.7819282E-01
         -2   -1    0    0    0  501 -0.00000000000E+00  0.00000000000E+00  0.18651833125E+04  0.18651833125E+04  0.00000000000E+00 0.  1.
          2   -1    0    0  501    0  0.00000000000E+00 -0.00000000000E+00 -0.34321002767E+04  0.34321002767E+04  0.00000000000E+00 0. -1.
         23    2    1    2    0    0  0.11967756881E+04  0.81247971599E+03 -0.29557705443E+04  0.32919632647E+04  0.89706684617E+02 0.  0.
         11    1    3    3    0    0  0.96221303773E+03  0.61051222062E+03 -0.23014387139E+04  0.25681120021E+04  0.00000000000E+00 0.  1.
        -11    1    3    3    0    0  0.23456265036E+03  0.20196749536E+03 -0.65433183041E+03  0.72385126263E+03  0.00000000000E+00 0. -1.
         22    1    1    2    0    0 -0.11967756881E+04 -0.81247971599E+03  0.13888535802E+04  0.20053203245E+04  0.00000000000E+00 0.  1.
<mgrwt>
<rscale>  0 0.50602356E+04</rscale>
<asrwt>0</asrwt>
<pdfrwt beam="1">  1        2 0.52801543E+00 0.50602356E+04</pdfrwt>
<pdfrwt beam="2">  1       -2 0.28695128E+00 0.50602356E+04</pdfrwt>
<totfact> 0.25035579E-02</totfact>
</mgrwt>
</event>
<event>
 6    1  0.9988873E-007  0.3732987E+04  0.7818608E-02  0.8060691E-01
          2   -1    0    0  501    0  0.00000000000E+00  0.00000000000E+00  0.43428049618E+04  0.43428049618E+04  0.00000000000E+00 0. -1.
         -2   -1    0    0    0  501 -0.00000000000E+00 -0.00000000000E+00 -0.80219992805E+03  0.80219992805E+03  0.00000000000E+00 0.  1.
         23    2    1    2    0    0 -0.11856952996E+03  0.11553571811E+04  0.37832016378E+04  0.39585133974E+04  0.91130326548E+02 0.  0.
         11    1    3    3    0    0 -0.62616321492E+02  0.70247612524E+03  0.21467986186E+04  0.22596764855E+04  0.00000000000E+00 0.  1.
        -11    1    3    3    0    0 -0.55953208470E+02  0.45288105585E+03  0.16364030191E+04  0.16988369119E+04  0.00000000000E+00 0. -1.
         22    1    1    2    0    0  0.11856952996E+03 -0.11553571811E+04 -0.24259660399E+03  0.11864914924E+04  0.00000000000E+00 0.  1.
<mgrwt>
<rscale>  0 0.37329869E+04</rscale>
<asrwt>0</asrwt>
<pdfrwt beam="1">  1        2 0.66812383E+00 0.37329869E+04</pdfrwt>
<pdfrwt beam="2">  1       -2 0.12341538E+00 0.37329869E+04</pdfrwt>
<totfact> 0.68874630E-02</totfact>
</mgrwt>
</event>
<event>
 6    1  0.9988873E-007  0.3243855E+04  0.7818608E-02  0.8177330E-01
          1   -1    0    0  501    0  0.00000000000E+00  0.00000000000E+00  0.19119767538E+04  0.19119767538E+04  0.00000000000E+00 0. -1.
         -1   -1    0    0    0  501 -0.00000000000E+00 -0.00000000000E+00 -0.13758788103E+04  0.13758788103E+04  0.00000000000E+00 0.  1.
         23    2    1    2    0    0 -0.91400684927E+03  0.10341838643E+04 -0.59276370568E+03  0.15048038519E+04  0.90116792324E+02 0.  0.
         13    1    3    3    0    0 -0.52591685207E+03  0.59558560855E+03 -0.29259301574E+03  0.84671212656E+03  0.00000000000E+00 0.  1.
        -13    1    3    3    0    0 -0.38808999721E+03  0.43859825572E+03 -0.30017068994E+03  0.65809172534E+03  0.00000000000E+00 0. -1.
         22    1    1    2    0    0  0.91400684927E+03 -0.10341838643E+04  0.11288616491E+04  0.17830517122E+04  0.00000000000E+00 0. -1.
<mgrwt>
<rscale>  0 0.32438547E+04</rscale>
<asrwt>0</asrwt>
<pdfrwt beam="1">  1        1 0.29415027E+00 0.32438547E+04</pdfrwt>
<pdfrwt beam="2">  1       -1 0.21167366E+00 0.32438547E+04</pdfrwt>
<totfact> 0.35698948E-01</totfact>
</mgrwt>
</event>
<event>
 6    1  0.9988873E-007  0.3913221E+04  0.7818608E-02  0.8022285E-01
          2   -1    0    0  501    0  0.00000000000E+00  0.00000000000E+00  0.14436029832E+04  0.14436029832E+04  0.00000000000E+00 0. -1.
         -2   -1    0    0    0  501 -0.00000000000E+00 -0.00000000000E+00 -0.26519236181E+04  0.26519236181E+04  0.00000000000E+00 0.  1.
         23    2    1    2    0    0 -0.10319102845E+04  0.10705952033E+04  0.72490314230E+03  0.16565991532E+04  0.88449218295E+02 0.  0.
         13    1    3    3    0    0 -0.94328868719E+03  0.93981222865E+03  0.64430301581E+03  0.14792453984E+04  0.00000000000E+00 0.  1.
        -13    1    3    3    0    0 -0.88621597306E+02  0.13078297460E+03  0.80600126487E+02  0.17735375481E+03  0.00000000000E+00 0. -1.
         22    1    1    2    0    0  0.10319102845E+04 -0.10705952033E+04 -0.19332237772E+04  0.24389274481E+04  0.00000000000E+00 0.  1.
<mgrwt>
<rscale>  0 0.39132211E+04</rscale>
<asrwt>0</asrwt>
<pdfrwt beam="1">  1        2 0.22209277E+00 0.39132211E+04</pdfrwt>
<pdfrwt beam="2">  1       -2 0.40798825E+00 0.39132211E+04</pdfrwt>
<totfact> 0.71375865E-02</totfact>
</mgrwt>
</event>
<event>
 6    1  0.9988873E-007  0.1709840E+04  0.7818608E-02  0.8755772E-01
          1   -1    0    0  501    0  0.00000000000E+00  0.00000000000E+00  0.17887129939E+04  0.17887129939E+04  0.00000000000E+00 0. -1.
         -1   -1    0    0    0  501 -0.00000000000E+00 -0.00000000000E+00 -0.40861110124E+03  0.40861110124E+03  0.00000000000E+00 0.  1.
         23    2    1    2    0    0  0.38787873086E+02 -0.75402940336E+03  0.12008928837E+04  0.14213210609E+04  0.89134728913E+02 0.  0.
         11    1    3    3    0    0  0.51739991997E+02 -0.34869781724E+03  0.50460874947E+03  0.61554624892E+03  0.00000000000E+00 0.  1.
        -11    1    3    3    0    0 -0.12952118911E+02 -0.40533158613E+03  0.69628413424E+03  0.80577481203E+03  0.00000000000E+00 0. -1.
         22    1    1    2    0    0 -0.38787873086E+02  0.75402940336E+03  0.17920900899E+03  0.77600303423E+03  0.00000000000E+00 0.  1.
<mgrwt>
<rscale>  0 0.17098397E+04</rscale>
<asrwt>0</asrwt>
<pdfrwt beam="1">  1        1 0.27518661E+00 0.17098397E+04</pdfrwt>
<pdfrwt beam="2">  1       -1 0.62863248E-01 0.17098397E+04</pdfrwt>
<totfact> 0.10119808E+01</totfact>
</mgrwt>
</event>
<event>
 6    1  0.9988873E-007  0.1255496E+04  0.7818608E-02  0.9065621E-01
          2   -1    0    0  501    0  0.00000000000E+00  0.00000000000E+00  0.10160134056E+04  0.10160134056E+04  0.00000000000E+00 0. -1.
         -2   -1    0    0    0  501 -0.00000000000E+00 -0.00000000000E+00 -0.38785653564E+03  0.38785653564E+03  0.00000000000E+00 0.  1.
         23    2    1    2    0    0 -0.90370959973E+02  0.31183954775E+03 -0.28065772753E+03  0.43880269667E+03  0.91478044556E+02 0.  0.
         11    1    3    3    0    0 -0.46321403392E+02  0.25504758281E+03 -0.18195967607E+03  0.31670848682E+03  0.00000000000E+00 0. -1.
        -11    1    3    3    0    0 -0.44049556581E+02  0.56791964943E+02 -0.98698051463E+02  0.12209420985E+03  0.00000000000E+00 0.  1.
         22    1    1    2    0    0  0.90370959973E+02 -0.31183954775E+03  0.90881459750E+03  0.96506724459E+03  0.00000000000E+00 0. -1.
<mgrwt>
<rscale>  0 0.12554958E+04</rscale>
<asrwt>0</asrwt>
<pdfrwt beam="1">  1        2 0.15630975E+00 0.12554958E+04</pdfrwt>
<pdfrwt beam="2">  1       -2 0.59670237E-01 0.12554958E+04</pdfrwt>
<totfact> 0.63378932E+01</totfact>
</mgrwt>
</event>
<event>
 6    1  0.9988873E-007  0.4260662E+04  0.7818608E-02  0.7953932E-01
          2   -1    0    0  501    0  0.00000000000E+00  0.00000000000E+00  0.35678253783E+04  0.35678253783E+04  0.00000000000E+00 0. -1.
         -2   -1    0    0    0  501 -0.00000000000E+00 -0.00000000000E+00 -0.12720100770E+04  0.12720100770E+04  0.00000000000E+00 0.  1.
         23    2    1    2    0    0  0.67877089829E+03  0.20018367958E+04  0.85656749539E+03  0.22825879632E+04  0.91757539065E+02 0.  0.
         11    1    3    3    0    0  0.35013641452E+03  0.96090974004E+03  0.37157644900E+03  0.10881231983E+04  0.00000000000E+00 0.  1.
        -11    1    3    3    0    0  0.32863448377E+03  0.10409270558E+04  0.48499104639E+03  0.11944647648E+04  0.00000000000E+00 0. -1.
         22    1    1    2    0    0 -0.67877089829E+03 -0.20018367958E+04  0.14392478059E+04  0.25572474921E+04  0.00000000000E+00 0. -1.
<mgrwt>
<rscale>  0 0.42606618E+04</rscale>
<asrwt>0</asrwt>
<pdfrwt beam="1">  1        2 0.54889621E+00 0.42606618E+04</pdfrwt>
<pdfrwt beam="2">  1       -2 0.19569386E+00 0.42606618E+04</pdfrwt>
<totfact> 0.79691221E-02</totfact>
</mgrwt>
</event>
<event>
 6    1  0.9988873E-007  0.9530633E+03  0.7818608E-02  0.9361577E-01
          1   -1    0    0  501    0  0.00000000000E+00  0.00000000000E+00  0.14796229068E+04  0.14796229068E+04  0.00000000000E+00 0. -1.
         -1   -1    0    0    0  501 -0.00000000000E+00 -0.00000000000E+00 -0.15347315683E+03  0.15347315683E+03  0.00000000000E+00 0.  1.
         23    2    1    2    0    0 -0.39835283668E+03 -0.12009938033E+03  0.10518345095E+04  0.11347410749E+04  0.90402588290E+02 0.  0.
         11    1    3    3    0    0 -0.29771543060E+03 -0.10163210474E+03  0.88251404621E+03  0.93690693459E+03  0.00000000000E+00 0. -1.
        -11    1    3    3    0    0 -0.10063740608E+03 -0.18467275582E+02  0.16932046333E+03  0.19783414031E+03  0.00000000000E+00 0.  1.
         22    1    1    2    0    0  0.39835283668E+03  0.12009938033E+03  0.27431524042E+03  0.49835498871E+03  0.00000000000E+00 0.  1.
<mgrwt>
<rscale>  0 0.95306327E+03</rscale>
<asrwt>0</asrwt>
<pdfrwt beam="1">  1        1 0.22763428E+00 0.95306327E+03</pdfrwt>
<pdfrwt beam="2">  1       -1 0.23611256E-01 0.95306327E+03</pdfrwt>
<totfact> 0.10496018E+02</totfact>
</mgrwt>
</event>
<event>
 6    1  0.9988873E-007  0.2126324E+04  0.7818608E-02  0.8549735E-01
         -2   -1    0    0    0  501 -0.00000000000E+00  0.00000000000E+00  0.91885273243E+03  0.91885273243E+03  0.00000000000E+00 0.  1.
          2   -1    0    0  501    0  0.00000000000E+00 -0.00000000000E+00 -0.12301351926E+04  0.12301351926E+04  0.00000000000E+00 0. -1.
         23    2    1    2    0    0  0.53861396893E+03 -0.11032298552E+03  0.76158919429E+03  0.94344665424E+03  0.88302434153E+02 0.  0.
         13    1    3    3    0    0  0.14807317021E+02 -0.82725609064E+00  0.55733998572E+02  0.57673387163E+02  0.00000000000E+00 0.  1.
        -13    1    3    3    0    0  0.52380665191E+03 -0.10949572943E+03  0.70585519572E+03  0.88577326708E+03  0.00000000000E+00 0. -1.
         22    1    1    2    0    0 -0.53861396893E+03  0.11032298552E+03 -0.10728716545E+04  0.12055412708E+04  0.00000000000E+00 0. -1.
<mgrwt>
<rscale>  0 0.21263237E+04</rscale>
<asrwt>0</asrwt>
<pdfrwt beam="1">  1        2 0.18925157E+00 0.21263237E+04</pdfrwt>
<pdfrwt beam="2">  1       -2 0.14136196E+00 0.21263237E+04</pdfrwt>
<totfact> 0.58534448E+00</totfact>
</mgrwt>
</event>
<event>
 6    1  0.9988873E-007  0.1258928E+04  0.7818608E-02  0.9062785E-01
         -1   -1    0    0    0  501 -0.00000000000E+00  0.00000000000E+00  0.82851603245E+03  0.82851603245E+03  0.00000000000E+00 0.  1.
          1   -1    0    0  501    0  0.00000000000E+00 -0.00000000000E+00 -0.47823482906E+03  0.47823482906E+03  0.00000000000E+00 0. -1.
         23    2    1    2    0    0 -0.47943995161E+03  0.13164563866E+03  0.57114118528E+03  0.76271743149E+03  0.91336659607E+02 0.  0.
         13    1    3    3    0    0 -0.45767832200E+03  0.11131713909E+03  0.50718880696E+03  0.69217153783E+03  0.00000000000E+00 0. -1.
        -13    1    3    3    0    0 -0.21761629618E+02  0.20328499575E+02  0.63952378325E+02  0.70545893658E+02  0.00000000000E+00 0.  1.
         22    1    1    2    0    0  0.47943995161E+03 -0.13164563866E+03 -0.22085998190E+03  0.54403343003E+03  0.00000000000E+00 0. -1.
<mgrwt>
<rscale>  0 0.12589285E+04</rscale>
<asrwt>0</asrwt>
<pdfrwt beam="1">  1        1 0.73574589E-01 0.12589285E+04</pdfrwt>
<pdfrwt beam="2">  1       -1 0.12746401E+00 0.12589285E+04</pdfrwt>
<totfact> 0.24759446E+01</totfact>
</mgrwt>
</event>
<event>
 6    1  0.9988873E-007  0.4105600E+04  0.7818608E-02  0.7983576E-01
         -2   -1    0    0    0  501 -0.00000000000E+00  0.00000000000E+00  0.13827079277E+04  0.13827079277E+04  0.00000000000E+00 0.  1.
          2   -1    0    0  501    0  0.00000000000E+00 -0.00000000000E+00 -0.30476334066E+04  0.30476334066E+04  0.00000000000E+00 0. -1.
         23    2    1    2    0    0 -0.14068530425E+03 -0.18782305294E+03 -0.30323192746E+04  0.30429568718E+04  0.97757280503E+02 0.  0.
         11    1    3    3    0    0 -0.11180381908E+03 -0.15284468360E+03 -0.27906097978E+04  0.27970278216E+04  0.00000000000E+00 0. -1.
        -11    1    3    3    0    0 -0.28881485167E+02 -0.34978369340E+02 -0.24170947687E+03  0.24592905017E+03  0.00000000000E+00 0.  1.
         22    1    1    2    0    0  0.14068530425E+03  0.18782305294E+03  0.13673937958E+04  0.13873844625E+04  0.00000000000E+00 0.  1.
<mgrwt>
<rscale>  0 0.41055995E+04</rscale>
<asrwt>0</asrwt>
<pdfrwt beam="1">  1        2 0.46886667E+00 0.41055995E+04</pdfrwt>
<pdfrwt beam="2">  1       -2 0.21272430E+00 0.41055995E+04</pdfrwt>
<totfact> 0.13968816E-01</totfact>
</mgrwt>
</event>
<event>
 6    1  0.9988873E-007  0.2700966E+03  0.7818608E-02  0.1101224E+00
          3   -1    0    0  501    0  0.00000000000E+00  0.00000000000E+00  0.58565672166E+03  0.58565672166E+03  0.00000000000E+00 0. -1.
         -3   -1    0    0    0  501 -0.00000000000E+00 -0.00000000000E+00 -0.31141194848E+02  0.31141194848E+02  0.00000000000E+00 0.  1.
         23    2    1    2    0    0 -0.35212687046E+02  0.86483932950E+02  0.14248969428E+03  0.19432343129E+03  0.93481971439E+02 0.  0.
         13    1    3    3    0    0 -0.55957737369E+02  0.35616207188E+02  0.11532225054E+03  0.13303760392E+03  0.00000000000E+00 0.  1.
        -13    1    3    3    0    0  0.20745050323E+02  0.50867725762E+02  0.27167443733E+02  0.61285827367E+02  0.00000000000E+00 0. -1.
         22    1    1    2    0    0  0.35212687046E+02 -0.86483932950E+02  0.41202583253E+03  0.42247448522E+03  0.00000000000E+00 0. -1.
<mgrwt>
<rscale>  0 0.27009665E+03</rscale>
<asrwt>0</asrwt>
<pdfrwt beam="1">  1        3 0.90101026E-01 0.27009665E+03</pdfrwt>
<pdfrwt beam="2">  1       -3 0.47909535E-02 0.27009665E+03</pdfrwt>
<totfact> 0.70983696E+02</totfact>
</mgrwt>
</event>
<event>
 6    1  0.9988873E-007  0.2624443E+04  0.7818608E-02  0.8359946E-01
         -2   -1    0    0    0  501 -0.00000000000E+00  0.00000000000E+00  0.15745761729E+04  0.15745761729E+04  0.00000000000E+00 0.  1.
          2   -1    0    0  501    0  0.00000000000E+00 -0.00000000000E+00 -0.10935801851E+04  0.10935801851E+04  0.00000000000E+00 0. -1.
         23    2    1    2    0    0 -0.39775924884E+03 -0.81424321432E+03  0.12036662453E+04  0.15090805480E+04  0.85482385116E+02 0.  0.
         11    1    3    3    0    0 -0.26882098636E+03 -0.47872570993E+03  0.77266674152E+03  0.94786967538E+03  0.00000000000E+00 0. -1.
        -11    1    3    3    0    0 -0.12893826247E+03 -0.33551750439E+03  0.43099950377E+03  0.56121087261E+03  0.00000000000E+00 0.  1.
         22    1    1    2    0    0  0.39775924884E+03  0.81424321432E+03 -0.72267025750E+03  0.11590758099E+04  0.00000000000E+00 0. -1.
<mgrwt>
<rscale>  0 0.26244430E+04</rscale>
<asrwt>0</asrwt>
<pdfrwt beam="1">  1        2 0.16824310E+00 0.26244430E+04</pdfrwt>
<pdfrwt beam="2">  1       -2 0.24224249E+00 0.26244430E+04</pdfrwt>
<totfact> 0.13924082E+00</totfact>
</mgrwt>
</event>
<event>
 6    1  0.9988873E-007  0.2392392E+04  0.7818608E-02  0.8442357E-01
          1   -1    0    0  501    0  0.00000000000E+00  0.00000000000E+00  0.12772505332E+04  0.12772505332E+04  0.00000000000E+00 0. -1.
         -1   -1    0    0    0  501 -0.00000000000E+00 -0.00000000000E+00 -0.11202856316E+04  0.11202856316E+04  0.00000000000E+00 0.  1.
         23    2    1    2    0    0 -0.89949212990E+03  0.37141618968E+03 -0.61528884451E+03  0.11551948565E+04  0.94120755856E+02 0.  0.
         11    1    3    3    0    0 -0.56085467488E+03  0.18179869505E+03 -0.36937611886E+03  0.69573518600E+03  0.00000000000E+00 0.  1.
        -11    1    3    3    0    0 -0.33863745503E+03  0.18961749463E+03 -0.24591272565E+03  0.45945967054E+03  0.00000000000E+00 0. -1.
         22    1    1    2    0    0  0.89949212990E+03 -0.37141618968E+03  0.77225374615E+03  0.12423413082E+04  0.00000000000E+00 0. -1.
<mgrwt>
<rscale>  0 0.23923925E+04</rscale>
<asrwt>0</asrwt>
<pdfrwt beam="1">  1        1 0.19650008E+00 0.23923925E+04</pdfrwt>
<pdfrwt beam="2">  1       -1 0.17235164E+00 0.23923925E+04</pdfrwt>
<totfact> 0.19917507E+00</totfact>
</mgrwt>
</event>
<event>
 6    1  0.9988873E-007  0.6895592E+04  0.7818608E-02  0.7588300E-01
         -1   -1    0    0    0  501 -0.00000000000E+00  0.00000000000E+00  0.37191795829E+04  0.37191795829E+04  0.00000000000E+00 0.  1.
          1   -1    0    0  501    0  0.00000000000E+00 -0.00000000000E+00 -0.31962145790E+04  0.31962145790E+04  0.00000000000E+00 0. -1.
         23    2    1    2    0    0  0.46440494399E+02  0.32540413379E+04  0.14016117152E+04  0.35444949062E+04  0.89369970421E+02 0.  0.
         13    1    3    3    0    0  0.53089181758E+02  0.14717175751E+04  0.60061285940E+03  0.15904423564E+04  0.00000000000E+00 0. -1.
        -13    1    3    3    0    0 -0.66486873589E+01  0.17823237628E+04  0.80099885579E+03  0.19540525499E+04  0.00000000000E+00 0.  1.
         22    1    1    2    0    0 -0.46440494399E+02 -0.32540413379E+04 -0.87864671134E+03  0.33708992556E+04  0.00000000000E+00 0. -1.
<mgrwt>
<rscale>  0 0.68955916E+04</rscale>
<asrwt>0</asrwt>
<pdfrwt beam="1">  1        1 0.49172532E+00 0.68955916E+04</pdfrwt>
<pdfrwt beam="2">  1       -1 0.57218147E+00 0.68955916E+04</pdfrwt>
<totfact> 0.15937298E-04</totfact>
</mgrwt>
</event>
<event>
 6    1  0.1816329E-006  0.3583017E+04  0.7818608E-02  0.8094393E-01
          2   -1    0    0  501    0  0.00000000000E+00  0.00000000000E+00  0.20200253310E+04  0.20200253310E+04  0.00000000000E+00 0. -1.
         -2   -1    0    0    0  501 -0.00000000000E+00 -0.00000000000E+00 -0.15888426417E+04  0.15888426417E+04  0.00000000000E+00 0.  1.
         23    2    1    2    0    0  0.14900248604E+04  0.95562181414E+03  0.48609636068E+03  0.18378788006E+04  0.90120349813E+02 0.  0.
         11    1    3    3    0    0  0.68869945372E+03  0.49189467142E+03  0.21605834941E+03  0.87346924140E+03  0.00000000000E+00 0.  1.
        -11    1    3    3    0    0  0.80132540667E+03  0.46372714272E+03  0.27003801127E+03  0.96440955916E+03  0.00000000000E+00 0. -1.
         22    1    1    2    0    0 -0.14900248604E+04 -0.95562181414E+03 -0.54913671364E+02  0.17709891721E+04  0.00000000000E+00 0.  1.
<mgrwt>
<rscale>  0 0.35830168E+04</rscale>
<asrwt>0</asrwt>
<pdfrwt beam="1">  1        2 0.31077313E+00 0.35830168E+04</pdfrwt>
<pdfrwt beam="2">  1       -2 0.24443733E+00 0.35830168E+04</pdfrwt>
<totfact> 0.36961420E-01</totfact>
</mgrwt>
</event>
<event>
 6    1  0.9988873E-007  0.3010196E+04  0.7818608E-02  0.8240825E-01
          2   -1    0    0  501    0  0.00000000000E+00  0.00000000000E+00  0.10331148986E+04  0.10331148986E+04  0.00000000000E+00 0. -1.
         -2   -1    0    0    0  501 -0.00000000000E+00 -0.00000000000E+00 -0.21927086852E+04  0.21927086852E+04  0.00000000000E+00 0.  1.
         23    2    1    2    0    0 -0.30842395082E+03  0.14669916862E+04 -0.70706137947E+03  0.16599450698E+04  0.91059867667E+02 0.  0.
         11    1    3    3    0    0 -0.64330470065E+02  0.25933849995E+03 -0.16385654172E+03  0.31343872319E+03  0.00000000000E+00 0. -1.
        -11    1    3    3    0    0 -0.24409348075E+03  0.12076531863E+04 -0.54320483775E+03  0.13465063466E+04  0.00000000000E+00 0.  1.
         22    1    1    2    0    0  0.30842395082E+03 -0.14669916862E+04 -0.45253240714E+03  0.15658785140E+04  0.00000000000E+00 0.  1.
<mgrwt>
<rscale>  0 0.30101960E+04</rscale>
<asrwt>0</asrwt>
<pdfrwt beam="1">  1        2 0.15894076E+00 0.30101960E+04</pdfrwt>
<pdfrwt beam="2">  1       -2 0.33733979E+00 0.30101960E+04</pdfrwt>
<totfact> 0.38328958E-01</totfact>
</mgrwt>
</event>
<event>
 6    1  0.9988873E-007  0.3058686E+04  0.7818608E-02  0.8227168E-01
         -1   -1    0    0    0  501 -0.00000000000E+00  0.00000000000E+00  0.24204601029E+04  0.24204601029E+04  0.00000000000E+00 0.  1.
          1   -1    0    0  501    0  0.00000000000E+00 -0.00000000000E+00 -0.96629990465E+03  0.96629990465E+03  0.00000000000E+00 0. -1.
         23    2    1    2    0    0 -0.13812474225E+03  0.10259541018E+04  0.19721455644E+04  0.22291896629E+04  0.90929438789E+02 0.  0.
         13    1    3    3    0    0 -0.35346338571E+02  0.47600230659E+03  0.83266758338E+03  0.95977229796E+03  0.00000000000E+00 0. -1.
        -13    1    3    3    0    0 -0.10277840368E+03  0.54995179519E+03  0.11394779810E+04  0.12694173650E+04  0.00000000000E+00 0.  1.
         22    1    1    2    0    0  0.13812474225E+03 -0.10259541018E+04 -0.51798536608E+03  0.11575703447E+04  0.00000000000E+00 0. -1.
<mgrwt>
<rscale>  0 0.30586862E+04</rscale>
<asrwt>0</asrwt>
<pdfrwt beam="1">  1        1 0.14866153E+00 0.30586862E+04</pdfrwt>
<pdfrwt beam="2">  1       -1 0.37237847E+00 0.30586862E+04</pdfrwt>
<totfact> 0.14994527E-01</totfact>
</mgrwt>
</event>
<event>
 6    1  0.1306584E-006  0.2251542E+04  0.7818608E-02  0.8497276E-01
         -4   -1    0    0    0  501 -0.00000000000E+00  0.00000000000E+00  0.90892298459E+03  0.90892298459E+03  0.00000000000E+00 0.  1.
          4   -1    0    0  501    0  0.00000000000E+00 -0.00000000000E+00 -0.13943538870E+04  0.13943538870E+04  0.00000000000E+00 0. -1.
         23    2    1    2    0    0  0.64876538607E+03 -0.83936184917E+03  0.13651604283E+03  0.10735440377E+04  0.91844057829E+02 0.  0.
         13    1    3    3    0    0  0.31792328313E+03 -0.34450094796E+03  0.80543284803E+02  0.47565043659E+03  0.00000000000E+00 0. -1.
        -13    1    3    3    0    0  0.33084210293E+03 -0.49486090121E+03  0.55972758022E+02  0.59789360112E+03  0.00000000000E+00 0.  1.
         22    1    1    2    0    0 -0.64876538607E+03  0.83936184917E+03 -0.62194694524E+03  0.12297328339E+04  0.00000000000E+00 0. -1.
<mgrwt>
<rscale>  0 0.22515420E+04</rscale>
<asrwt>0</asrwt>
<pdfrwt beam="1">  1        4 0.21451598E+00 0.22515420E+04</pdfrwt>
<pdfrwt beam="2">  1       -4 0.13983430E+00 0.22515420E+04</pdfrwt>
<totfact> 0.68976191E-02</totfact>
</mgrwt>
</event>
<event>
 6    1  0.9988873E-007  0.2275568E+04  0.7818608E-02  0.8487617E-01
          2   -1    0    0  501    0  0.00000000000E+00  0.00000000000E+00  0.10265042190E+04  0.10265042190E+04  0.00000000000E+00 0. -1.
         -2   -1    0    0    0  501 -0.00000000000E+00 -0.00000000000E+00 -0.12611270903E+04  0.12611270903E+04  0.00000000000E+00 0.  1.
         23    2    1    2    0    0  0.99279388268E+03  0.10853926663E+03 -0.66167504638E+03  0.12014480715E+04  0.90791715209E+02 0.  0.
         11    1    3    3    0    0  0.35974040398E+03  0.33172130862E+02 -0.18830039425E+03  0.40739487846E+03  0.00000000000E+00 0. -1.
        -11    1    3    3    0    0  0.63305347870E+03  0.75367135769E+02 -0.47337465213E+03  0.79405319301E+03  0.00000000000E+00 0.  1.
         22    1    1    2    0    0 -0.99279388268E+03 -0.10853926663E+03  0.42705217515E+03  0.10861832378E+04  0.00000000000E+00 0. -1.
<mgrwt>
<rscale>  0 0.22755679E+04</rscale>
<asrwt>0</asrwt>
<pdfrwt beam="1">  1        2 0.15792373E+00 0.22755679E+04</pdfrwt>
<pdfrwt beam="2">  1       -2 0.19401955E+00 0.22755679E+04</pdfrwt>
<totfact> 0.32053981E+00</totfact>
</mgrwt>
</event>
<event>
 6    1  0.1244392E-006  0.3192218E+04  0.7818608E-02  0.8190875E-01
          1   -1    0    0  501    0  0.00000000000E+00  0.00000000000E+00  0.18996201523E+04  0.18996201523E+04  0.00000000000E+00 0. -1.
         -1   -1    0    0    0  501 -0.00000000000E+00 -0.00000000000E+00 -0.13410913489E+04  0.13410913489E+04  0.00000000000E+00 0.  1.
         23    2    1    2    0    0 -0.45421493326E+03 -0.40912656666E+03  0.17749541713E+04  0.18793201435E+04  0.87670625620E+02 0.  0.
         11    1    3    3    0    0 -0.90885170503E+02 -0.62387422026E+02  0.23574860382E+03  0.26024932055E+03  0.00000000000E+00 0. -1.
        -11    1    3    3    0    0 -0.36332976276E+03 -0.34673914464E+03  0.15392055675E+04  0.16190708230E+04  0.00000000000E+00 0.  1.
         22    1    1    2    0    0  0.45421493326E+03  0.40912656666E+03 -0.12164253679E+04  0.13613913577E+04  0.00000000000E+00 0.  1.
<mgrwt>
<rscale>  0 0.31922181E+04</rscale>
<asrwt>0</asrwt>
<pdfrwt beam="1">  1        1 0.29224925E+00 0.31922181E+04</pdfrwt>
<pdfrwt beam="2">  1       -1 0.20632175E+00 0.31922181E+04</pdfrwt>
<totfact> 0.39751564E-01</totfact>
</mgrwt>
</event>
<event>
 6    1  0.9988873E-007  0.3865272E+04  0.7818608E-02  0.8032291E-01
          1   -1    0    0  501    0  0.00000000000E+00  0.00000000000E+00  0.36758488370E+04  0.36758488370E+04  0.00000000000E+00 0. -1.
         -1   -1    0    0    0  501 -0.00000000000E+00 -0.00000000000E+00 -0.10161140409E+04  0.10161140409E+04  0.00000000000E+00 0.  1.
         23    2    1    2    0    0 -0.85344455275E+03 -0.47052420491E+03 -0.69362759526E+03  0.11998575015E+04  0.93691787443E+02 0.  0.
         11    1    3    3    0    0 -0.16737036556E+03 -0.71011526734E+02 -0.16923858630E+03  0.24838916098E+03  0.00000000000E+00 0. -1.
        -11    1    3    3    0    0 -0.68607418718E+03 -0.39951267818E+03 -0.52438900896E+03  0.95146834055E+03  0.00000000000E+00 0.  1.
         22    1    1    2    0    0  0.85344455275E+03  0.47052420491E+03  0.33533623914E+04  0.34921053764E+04  0.00000000000E+00 0. -1.
<mgrwt>
<rscale>  0 0.38652718E+04</rscale>
<asrwt>0</asrwt>
<pdfrwt beam="1">  1        1 0.56551520E+00 0.38652718E+04</pdfrwt>
<pdfrwt beam="2">  1       -1 0.15632524E+00 0.38652718E+04</pdfrwt>
<totfact> 0.44450786E-02</totfact>
</mgrwt>
</event>
<event>
 6    1  0.9988873E-007  0.7839065E+03  0.7818608E-02  0.9583608E-01
          2   -1    0    0  501    0  0.00000000000E+00  0.00000000000E+00  0.20590379983E+04  0.20590379983E+04  0.00000000000E+00 0. -1.
         -2   -1    0    0    0  501 -0.00000000000E+00 -0.00000000000E+00 -0.74611220017E+02  0.74611220017E+02  0.00000000000E+00 0.  1.
         23    2    1    2    0    0  0.31270174831E+03  0.18439187091E+03  0.13680805163E+04  0.14183412706E+04  0.90911579352E+02 0.  0.
         11    1    3    3    0    0  0.10976500838E+03  0.78584179791E+02  0.35672713132E+03  0.38141588404E+03  0.00000000000E+00 0.  1.
        -11    1    3    3    0    0  0.20293673993E+03  0.10580769112E+03  0.10113533850E+04  0.10369253865E+04  0.00000000000E+00 0. -1.
         22    1    1    2    0    0 -0.31270174831E+03 -0.18439187091E+03  0.61634626201E+03  0.71530794777E+03  0.00000000000E+00 0. -1.
<mgrwt>
<rscale>  0 0.78390647E+03</rscale>
<asrwt>0</asrwt>
<pdfrwt beam="1">  1        2 0.31677503E+00 0.78390647E+03</pdfrwt>
<pdfrwt beam="2">  1       -2 0.11478651E-01 0.78390647E+03</pdfrwt>
<totfact> 0.34681656E+02</totfact>
</mgrwt>
</event>
<event>
 6    1  0.9988873E-007  0.2248059E+04  0.7818608E-02  0.8498687E-01
          1   -1    0    0  501    0  0.00000000000E+00  0.00000000000E+00  0.23086306663E+04  0.23086306663E+04  0.00000000000E+00 0. -1.
         -1   -1    0    0    0  501 -0.00000000000E+00 -0.00000000000E+00 -0.54726937641E+03  0.54726937641E+03  0.00000000000E+00 0.  1.
         23    2    1    2    0    0 -0.80889861545E+03  0.50257792054E+03  0.16362603514E+04  0.18954044513E+04  0.91151303259E+02 0.  0.
         13    1    3    3    0    0 -0.15462999191E+03  0.61933053950E+02  0.32385955149E+03  0.36418559370E+03  0.00000000000E+00 0. -1.
        -13    1    3    3    0    0 -0.65426862354E+03  0.44064486659E+03  0.13124007999E+04  0.15312188576E+04  0.00000000000E+00 0.  1.
         22    1    1    2    0    0  0.80889861545E+03 -0.50257792054E+03  0.12510093846E+03  0.96049559140E+03  0.00000000000E+00 0.  1.
<mgrwt>
<rscale>  0 0.22480595E+04</rscale>
<asrwt>0</asrwt>
<pdfrwt beam="1">  1        1 0.35517394E+00 0.22480595E+04</pdfrwt>
<pdfrwt beam="2">  1       -1 0.84195290E-01 0.22480595E+04</pdfrwt>
<totfact> 0.23293985E+00</totfact>
</mgrwt>
</event>
<event>
 6    1  0.9988873E-007  0.1480534E+04  0.7818608E-02  0.8897502E-01
         -1   -1    0    0    0  501 -0.00000000000E+00  0.00000000000E+00  0.24657768178E+03  0.24657768178E+03  0.00000000000E+00 0.  1.
          1   -1    0    0  501    0  0.00000000000E+00 -0.00000000000E+00 -0.22224037111E+04  0.22224037111E+04  0.00000000000E+00 0. -1.
         23    2    1    2    0    0 -0.22660273305E+03 -0.39656685426E+03 -0.19572138431E+04  0.20118594376E+04  0.90985165660E+02 0.  0.
         13    1    3    3    0    0 -0.17729157252E+03 -0.22269255846E+03 -0.12341555526E+04  0.12665560411E+04  0.00000000000E+00 0.  1.
        -13    1    3    3    0    0 -0.49311160537E+02 -0.17387429581E+03 -0.72305829046E+03  0.74530339641E+03  0.00000000000E+00 0. -1.
         22    1    1    2    0    0  0.22660273305E+03  0.39656685426E+03 -0.18612186183E+02  0.45712195528E+03  0.00000000000E+00 0.  1.
<mgrwt>
<rscale>  0 0.14805339E+04</rscale>
<asrwt>0</asrwt>
<pdfrwt beam="1">  1        1 0.34190826E+00 0.14805339E+04</pdfrwt>
<pdfrwt beam="2">  1       -1 0.37935028E-01 0.14805339E+04</pdfrwt>
<totfact> 0.13691576E+01</totfact>
</mgrwt>
</event>
<event>
 6    1  0.9988873E-007  0.1983271E+04  0.7818608E-02  0.8614482E-01
          1   -1    0    0  501    0  0.00000000000E+00  0.00000000000E+00  0.20250043460E+04  0.20250043460E+04  0.00000000000E+00 0. -1.
         -1   -1    0    0    0  501 -0.00000000000E+00 -0.00000000000E+00 -0.48559938550E+03  0.48559938550E+03  0.00000000000E+00 0.  1.
         23    2    1    2    0    0 -0.62311133543E+03  0.75839684541E+03  0.60791362643E+03  0.11574187416E+04  0.81398124669E+02 0.  0.
         13    1    3    3    0    0 -0.17482240184E+03  0.26634261724E+03  0.21705462517E+03  0.38550482779E+03  0.00000000000E+00 0.  1.
        -13    1    3    3    0    0 -0.44828893359E+03  0.49205422817E+03  0.39085900126E+03  0.77191391379E+03  0.00000000000E+00 0. -1.
         22    1    1    2    0    0  0.62311133543E+03 -0.75839684541E+03  0.93149133408E+03  0.13531849899E+04  0.00000000000E+00 0.  1.
<mgrwt>
<rscale>  0 0.19832709E+04</rscale>
<asrwt>0</asrwt>
<pdfrwt beam="1">  1        1 0.31153913E+00 0.19832709E+04</pdfrwt>
<pdfrwt beam="2">  1       -1 0.74707599E-01 0.19832709E+04</pdfrwt>
<totfact> 0.47986939E+00</totfact>
</mgrwt>
</event>
<event>
 6    1  0.9988873E-007  0.1230340E+04  0.7818608E-02  0.9086707E-01
         -2   -1    0    0    0  501 -0.00000000000E+00  0.00000000000E+00  0.17322575985E+03  0.17322575985E+03  0.00000000000E+00 0.  1.
          2   -1    0    0  501    0  0.00000000000E+00 -0.00000000000E+00 -0.21846291932E+04  0.21846291932E+04  0.00000000000E+00 0. -1.
         23    2    1    2    0    0 -0.61637431981E+02 -0.60562830208E+03 -0.89534549041E+03  0.10865681462E+04  0.91662292129E+02 0.  0.
         11    1    3    3    0    0 -0.61520438982E+02 -0.18585766981E+03 -0.27698959545E+03  0.33919179504E+03  0.00000000000E+00 0. -1.
        -11    1    3    3    0    0 -0.11699299823E+00 -0.41977063227E+03 -0.61835589496E+03  0.74737635114E+03  0.00000000000E+00 0.  1.
         22    1    1    2    0    0  0.61637431981E+02  0.60562830208E+03 -0.11160579429E+04  0.12712868068E+04  0.00000000000E+00 0. -1.
<mgrwt>
<rscale>  0 0.12303399E+04</rscale>
<asrwt>0</asrwt>
<pdfrwt beam="1">  1        2 0.33609679E+00 0.12303399E+04</pdfrwt>
<pdfrwt beam="2">  1       -2 0.26650118E-01 0.12303399E+04</pdfrwt>
<totfact> 0.66398018E+01</totfact>
</mgrwt>
</event>
<event>
 6    1  0.9988873E-007  0.2585342E+04  0.7818608E-02  0.8373197E-01
          1   -1    0    0  501    0  0.00000000000E+00  0.00000000000E+00  0.11417966551E+04  0.11417966551E+04  0.00000000000E+00 0. -1.
         -1   -1    0    0    0  501 -0.00000000000E+00 -0.00000000000E+00 -0.14634818591E+04  0.14634818591E+04  0.00000000000E+00 0.  1.
         23    2    1    2    0    0 -0.12265588934E+04  0.22238384308E+03 -0.50004242146E+03  0.13460277093E+04  0.88582606701E+02 0.  0.
         13    1    3    3    0    0 -0.82933727934E+03  0.16113583701E+03 -0.38154988397E+03  0.92700884291E+03  0.00000000000E+00 0. -1.
        -13    1    3    3    0    0 -0.39722161404E+03  0.61248006073E+02 -0.11849253749E+03  0.41901886634E+03  0.00000000000E+00 0.  1.
         22    1    1    2    0    0  0.12265588934E+04 -0.22238384308E+03  0.17835721751E+03  0.12592508049E+04  0.00000000000E+00 0. -1.
<mgrwt>
<rscale>  0 0.25853423E+04</rscale>
<asrwt>0</asrwt>
<pdfrwt beam="1">  1        1 0.17566102E+00 0.25853423E+04</pdfrwt>
<pdfrwt beam="2">  1       -1 0.22515105E+00 0.25853423E+04</pdfrwt>
<totfact> 0.10576092E+00</totfact>
</mgrwt>
</event>
<event>
 6    1  0.9988873E-007  0.3414699E+04  0.7818608E-02  0.8134308E-01
         -1   -1    0    0    0  501 -0.00000000000E+00  0.00000000000E+00  0.12101514703E+04  0.12101514703E+04  0.00000000000E+00 0.  1.
          1   -1    0    0  501    0  0.00000000000E+00 -0.00000000000E+00 -0.24088238171E+04  0.24088238171E+04  0.00000000000E+00 0. -1.
         23    2    1    2    0    0 -0.12253368601E+04  0.10010071201E+04 -0.12761952008E+04  0.20348428851E+04  0.91900496816E+02 0.  0.
         13    1    3    3    0    0 -0.77727876123E+03  0.61283202676E+03 -0.74500287106E+03  0.12388521476E+04  0.00000000000E+00 0. -1.
        -13    1    3    3    0    0 -0.44805809888E+03  0.38817509335E+03 -0.53119232972E+03  0.79599073753E+03  0.00000000000E+00 0.  1.
         22    1    1    2    0    0  0.12253368601E+04 -0.10010071201E+04  0.77522853974E+02  0.15841324023E+04  0.00000000000E+00 0.  1.
<mgrwt>
<rscale>  0 0.34146986E+04</rscale>
<asrwt>0</asrwt>
<pdfrwt beam="1">  1        1 0.37058828E+00 0.34146986E+04</pdfrwt>
<pdfrwt beam="2">  1       -1 0.18617715E+00 0.34146986E+04</pdfrwt>
<totfact> 0.24199782E-01</totfact>
</mgrwt>
</event>
<event>
 6    1  0.9988873E-007  0.6534634E+03  0.7818608E-02  0.9800302E-01
         -1   -1    0    0    0  501 -0.00000000000E+00  0.00000000000E+00  0.69371059282E+02  0.69371059282E+02  0.00000000000E+00 0.  1.
          1   -1    0    0  501    0  0.00000000000E+00 -0.00000000000E+00 -0.15388782853E+04  0.15388782853E+04  0.00000000000E+00 0. -1.
         23    2    1    2    0    0 -0.14755423785E+03  0.21299299418E+03 -0.28602679955E+03  0.39673616326E+03  0.91923797253E+02 0.  0.
         11    1    3    3    0    0 -0.84820610988E+02  0.18134477845E+03 -0.17811828032E+03  0.26796751016E+03  0.00000000000E+00 0.  1.
        -11    1    3    3    0    0 -0.62733626862E+02  0.31648215732E+02 -0.10790851923E+03  0.12876865310E+03  0.00000000000E+00 0. -1.
         22    1    1    2    0    0  0.14755423785E+03 -0.21299299418E+03 -0.11834804265E+04  0.12115131813E+04  0.00000000000E+00 0. -1.
<mgrwt>
<rscale>  0 0.65346344E+03</rscale>
<asrwt>0</asrwt>
<pdfrwt beam="1">  1        1 0.23675049E+00 0.65346344E+03</pdfrwt>
<pdfrwt beam="2">  1       -1 0.10672471E-01 0.65346344E+03</pdfrwt>
<totfact> 0.35859760E+02</totfact>
</mgrwt>
</event>
<event>
 6    1  0.9988873E-007  0.3578394E+04  0.7818608E-02  0.8095459E-01
         -1   -1    0    0    0  501 -0.00000000000E+00  0.00000000000E+00  0.86446680558E+03  0.86446680558E+03  0.00000000000E+00 0.  1.
          1   -1    0    0  501    0  0.00000000000E+00 -0.00000000000E+00 -0.37031224542E+04  0.37031224542E+04  0.00000000000E+00 0. -1.
         23    2    1    2    0    0 -0.52359703047E+03  0.14203809484E+04 -0.26348103650E+04  0.30401113422E+04  0.91735623495E+02 0.  0.
         13    1    3    3    0    0 -0.20525524269E+03  0.43745317224E+03 -0.86186986672E+03  0.98808636248E+03  0.00000000000E+00 0. -1.
        -13    1    3    3    0    0 -0.31834178778E+03  0.98292777621E+03 -0.17729404983E+04  0.20520249798E+04  0.00000000000E+00 0.  1.
         22    1    1    2    0    0  0.52359703047E+03 -0.14203809484E+04 -0.20384528364E+03  0.15274779176E+04  0.00000000000E+00 0.  1.
<mgrwt>
<rscale>  0 0.35783943E+04</rscale>
<asrwt>0</asrwt>
<pdfrwt beam="1">  1        1 0.56971115E+00 0.35783943E+04</pdfrwt>
<pdfrwt beam="2">  1       -1 0.13299489E+00 0.35783943E+04</pdfrwt>
<totfact> 0.66405619E-02</totfact>
</mgrwt>
</event>
<event>
 6    1  0.9988873E-007  0.2292285E+03  0.7818608E-02  0.1127184E+00
          2   -1    0    0  501    0  0.00000000000E+00  0.00000000000E+00  0.11277790464E+02  0.11277790464E+02  0.00000000000E+00 0. -1.
         -2   -1    0    0    0  501 -0.00000000000E+00 -0.00000000000E+00 -0.11648046018E+04  0.11648046018E+04  0.00000000000E+00 0.  1.
         23    2    1    2    0    0 -0.62647214338E+02 -0.41298903957E+02 -0.97777086671E+03  0.98497921331E+03  0.92292523754E+02 0.  0.
         11    1    3    3    0    0 -0.82902171572E+01 -0.40064961217E+02 -0.73747115182E+03  0.73860519128E+03  0.00000000000E+00 0.  1.
        -11    1    3    3    0    0 -0.54356997181E+02 -0.12339427400E+01 -0.24029971489E+03  0.24637402203E+03  0.00000000000E+00 0. -1.
         22    1    1    2    0    0  0.62647214338E+02  0.41298903957E+02 -0.17575594458E+03  0.19110317890E+03  0.00000000000E+00 0. -1.
<mgrwt>
<rscale>  0 0.22922846E+03</rscale>
<asrwt>0</asrwt>
<pdfrwt beam="1">  1        2 0.17350447E-02 0.22922846E+03</pdfrwt>
<pdfrwt beam="2">  1       -2 0.17920071E+00 0.22922846E+03</pdfrwt>
<totfact> 0.13049769E+03</totfact>
</mgrwt>
</event>
<event>
 6    1  0.9988873E-007  0.1272297E+04  0.7818608E-02  0.9051827E-01
         -1   -1    0    0    0  501 -0.00000000000E+00  0.00000000000E+00  0.39184855489E+03  0.39184855489E+03  0.00000000000E+00 0.  1.
          1   -1    0    0  501    0  0.00000000000E+00 -0.00000000000E+00 -0.10327583172E+04  0.10327583172E+04  0.00000000000E+00 0. -1.
         23    2    1    2    0    0  0.26543978263E+03  0.26442817851E+03 -0.89260747444E+03  0.97323975084E+03  0.10033428832E+03 0.  0.
         13    1    3    3    0    0  0.23939835813E+03  0.18170852932E+03 -0.71462272622E+03  0.77525170386E+03  0.00000000000E+00 0.  1.
        -13    1    3    3    0    0  0.26041424493E+02  0.82719649191E+02 -0.17798474821E+03  0.19798804698E+03  0.00000000000E+00 0. -1.
         22    1    1    2    0    0 -0.26543978263E+03 -0.26442817851E+03  0.25169771217E+03  0.45136712120E+03  0.00000000000E+00 0.  1.
<mgrwt>
<rscale>  0 0.12722969E+04</rscale>
<asrwt>0</asrwt>
<pdfrwt beam="1">  1        1 0.15888590E+00 0.12722969E+04</pdfrwt>
<pdfrwt beam="2">  1       -1 0.60284393E-01 0.12722969E+04</pdfrwt>
<totfact> 0.39198115E+01</totfact>
</mgrwt>
</event>
<event>
 6    1  0.9988873E-007  0.3452250E+04  0.7818608E-02  0.8125200E-01
         -2   -1    0    0    0  501 -0.00000000000E+00  0.00000000000E+00  0.13434737588E+04  0.13434737588E+04  0.00000000000E+00 0.  1.
          2   -1    0    0  501    0  0.00000000000E+00 -0.00000000000E+00 -0.22177638873E+04  0.22177638873E+04  0.00000000000E+00 0. -1.
         23    2    1    2    0    0  0.48997477402E+03  0.79444758065E+03  0.10589311943E+04  0.14144803426E+04  0.90537991327E+02 0.  0.
         13    1    3    3    0    0  0.25220477514E+03  0.39802504184E+03  0.46676016004E+03  0.66324673353E+03  0.00000000000E+00 0.  1.
        -13    1    3    3    0    0  0.23776999888E+03  0.39642253882E+03  0.59217103422E+03  0.75123360908E+03  0.00000000000E+00 0. -1.
         22    1    1    2    0    0 -0.48997477402E+03 -0.79444758065E+03 -0.19332213228E+04  0.21467573036E+04  0.00000000000E+00 0. -1.
<mgrwt>
<rscale>  0 0.34522500E+04</rscale>
<asrwt>0</asrwt>
<pdfrwt beam="1">  1        2 0.34119444E+00 0.34522500E+04</pdfrwt>
<pdfrwt beam="2">  1       -2 0.20668827E+00 0.34522500E+04</pdfrwt>
<totfact> 0.50072979E-01</totfact>
</mgrwt>
</event>
<event>
 6    1  0.9988873E-007  0.2897466E+04  0.7818608E-02  0.8273632E-01
         -2   -1    0    0    0  501 -0.00000000000E+00  0.00000000000E+00  0.15942436808E+04  0.15942436808E+04  0.00000000000E+00 0.  1.
          2   -1    0    0  501    0  0.00000000000E+00 -0.00000000000E+00 -0.13165033685E+04  0.13165033685E+04  0.00000000000E+00 0. -1.
         23    2    1    2    0    0  0.13554450945E+04 -0.50064895274E+03  0.53403504313E+02  0.14484858614E+04  0.85898651521E+02 0.  0.
         13    1    3    3    0    0  0.59851026093E+03 -0.26541842923E+03  0.34008200156E+02  0.65560508897E+03  0.00000000000E+00 0. -1.
        -13    1    3    3    0    0  0.75693483359E+03 -0.23523052351E+03  0.19395304157E+02  0.79288077245E+03  0.00000000000E+00 0.  1.
         22    1    1    2    0    0 -0.13554450945E+04  0.50064895274E+03  0.22433680807E+03  0.14622611879E+04  0.00000000000E+00 0. -1.
<mgrwt>
<rscale>  0 0.28974659E+04</rscale>
<asrwt>0</asrwt>
<pdfrwt beam="1">  1        2 0.20253898E+00 0.28974659E+04</pdfrwt>
<pdfrwt beam="2">  1       -2 0.24526826E+00 0.28974659E+04</pdfrwt>
<totfact> 0.95926466E-01</totfact>
</mgrwt>
</event>
<event>
 6    1  0.9988873E-007  0.1387074E+04  0.7818608E-02  0.8963228E-01
          1   -1    0    0  501    0  0.00000000000E+00  0.00000000000E+00  0.39915682220E+03  0.39915682220E+03  0.00000000000E+00 0. -1.
         -1   -1    0    0    0  501 -0.00000000000E+00 -0.00000000000E+00 -0.12050245702E+04  0.12050245702E+04  0.00000000000E+00 0.  1.
         23    2    1    2    0    0  0.41755661922E+03 -0.21756108407E+03 -0.98889094720E+03  0.10990241426E+04  0.90897772037E+02 0.  0.
         13    1    3    3    0    0  0.21579234173E+03 -0.14617074781E+03 -0.46427960638E+03  0.53243570050E+03  0.00000000000E+00 0.  1.
        -13    1    3    3    0    0  0.20176427749E+03 -0.71390336261E+02 -0.52461134083E+03  0.56658844208E+03  0.00000000000E+00 0. -1.
         22    1    1    2    0    0 -0.41755661922E+03  0.21756108407E+03  0.18302319923E+03  0.50515724979E+03  0.00000000000E+00 0. -1.
<mgrwt>
<rscale>  0 0.13870743E+04</rscale>
<asrwt>0</asrwt>
<pdfrwt beam="1">  1        1 0.61408743E-01 0.13870743E+04</pdfrwt>
<pdfrwt beam="2">  1       -1 0.18538839E+00 0.13870743E+04</pdfrwt>
<totfact> 0.11183186E+01</totfact>
</mgrwt>
</event>
<event>
 6    1  0.9988873E-007  0.7804976E+03  0.7818608E-02  0.9588683E-01
          2   -1    0    0  501    0  0.00000000000E+00  0.00000000000E+00  0.25336169614E+04  0.25336169614E+04  0.00000000000E+00 0. -1.
         -2   -1    0    0    0  501 -0.00000000000E+00 -0.00000000000E+00 -0.60109367363E+02  0.60109367363E+02  0.00000000000E+00 0.  1.
         23    2    1    2    0    0 -0.93781246180E+02  0.18051545127E+03  0.23373112478E+04  0.23489198848E+04  0.11410523932E+03 0.  0.
         11    1    3    3    0    0 -0.13159888227E+02  0.95252342480E+02  0.15423758955E+04  0.15453703745E+04  0.00000000000E+00 0. -1.
        -11    1    3    3    0    0 -0.80621357952E+02  0.85263108795E+02  0.79493535237E+03  0.80354951032E+03  0.00000000000E+00 0.  1.
         22    1    1    2    0    0  0.93781246180E+02 -0.18051545127E+03  0.13619634617E+03  0.24480644394E+03  0.00000000000E+00 0.  1.
<mgrwt>
<rscale>  0 0.78049757E+03</rscale>
<asrwt>0</asrwt>
<pdfrwt beam="1">  1        2 0.38978714E+00 0.78049757E+03</pdfrwt>
<pdfrwt beam="2">  1       -2 0.92475970E-02 0.78049757E+03</pdfrwt>
<totfact> 0.26869363E+02</totfact>
</mgrwt>
</event>
<event>
 6    1  0.9988873E-007  0.7765765E+03  0.7818608E-02  0.9594554E-01
         -1   -1    0    0    0  501 -0.00000000000E+00  0.00000000000E+00  0.60309653970E+03  0.60309653970E+03  0.00000000000E+00 0.  1.
          1   -1    0    0  501    0  0.00000000000E+00 -0.00000000000E+00 -0.24998946646E+03  0.24998946646E+03  0.00000000000E+00 0. -1.
         23    2    1    2    0    0  0.32373914838E+03 -0.11581813562E+03  0.36392134975E+03  0.50908335310E+03  0.92229251705E+02 0.  0.
         13    1    3    3    0    0  0.24409157407E+03 -0.10659293838E+03  0.32426804088E+03  0.41963378484E+03  0.00000000000E+00 0.  1.
        -13    1    3    3    0    0  0.79647574316E+02 -0.92251972434E+01  0.39653308871E+02  0.89449568266E+02  0.00000000000E+00 0. -1.
         22    1    1    2    0    0 -0.32373914838E+03  0.11581813562E+03 -0.10814276516E+02  0.34400265306E+03  0.00000000000E+00 0. -1.
<mgrwt>
<rscale>  0 0.77657654E+03</rscale>
<asrwt>0</asrwt>
<pdfrwt beam="1">  1        1 0.38459918E-01 0.77657654E+03</pdfrwt>
<pdfrwt beam="2">  1       -1 0.92784083E-01 0.77657654E+03</pdfrwt>
<totfact> 0.12723467E+02</totfact>
</mgrwt>
</event>
<event>
 6    1  0.9988873E-007  0.5415625E+04  0.7818608E-02  0.7767407E-01
         -1   -1    0    0    0  501 -0.00000000000E+00  0.00000000000E+00  0.18505632377E+04  0.18505632377E+04  0.00000000000E+00 0.  1.
          1   -1    0    0  501    0  0.00000000000E+00 -0.00000000000E+00 -0.39621706602E+04  0.39621706602E+04  0.00000000000E+00 0. -1.
         23    2    1    2    0    0 -0.30300427958E+03 -0.13378089258E+04  0.14487969033E+04  0.19972361219E+04  0.91626109889E+02 0.  0.
         11    1    3    3    0    0 -0.24900068016E+03 -0.10567412009E+04  0.10924041106E+04  0.15401461117E+04  0.00000000000E+00 0.  1.
        -11    1    3    3    0    0 -0.54003599420E+02 -0.28106772496E+03  0.35639279271E+03  0.45709001024E+03  0.00000000000E+00 0. -1.
         22    1    1    2    0    0  0.30300427958E+03  0.13378089258E+04 -0.35604043258E+04  0.38154977760E+04  0.00000000000E+00 0. -1.
<mgrwt>
<rscale>  0 0.54156246E+04</rscale>
<asrwt>0</asrwt>
<pdfrwt beam="1">  1        1 0.60956471E+00 0.54156246E+04</pdfrwt>
<pdfrwt beam="2">  1       -1 0.28470204E+00 0.54156246E+04</pdfrwt>
<totfact> 0.29928268E-03</totfact>
</mgrwt>
</event>
<event>
 6    1  0.9988873E-007  0.3984918E+04  0.7818608E-02  0.8007596E-01
          1   -1    0    0  501    0  0.00000000000E+00  0.00000000000E+00  0.29990056034E+04  0.29990056034E+04  0.00000000000E+00 0. -1.
         -1   -1    0    0    0  501 -0.00000000000E+00 -0.00000000000E+00 -0.13237361629E+04  0.13237361629E+04  0.00000000000E+00 0.  1.
         23    2    1    2    0    0  0.18063195467E+04 -0.79776774920E+03  0.55837920215E+03  0.20541149811E+04  0.91527786765E+02 0.  0.
         13    1    3    3    0    0  0.57665106858E+03 -0.29385576399E+03  0.15833516853E+03  0.66629399706E+03  0.00000000000E+00 0.  1.
        -13    1    3    3    0    0  0.12296684781E+04 -0.50391198521E+03  0.40004403362E+03  0.13878209840E+04  0.00000000000E+00 0. -1.
         22    1    1    2    0    0 -0.18063195467E+04  0.79776774920E+03  0.11168902383E+04  0.22686267853E+04  0.00000000000E+00 0.  1.
<mgrwt>
<rscale>  0 0.39849177E+04</rscale>
<asrwt>0</asrwt>
<pdfrwt beam="1">  1        1 0.46138548E+00 0.39849177E+04</pdfrwt>
<pdfrwt beam="2">  1       -1 0.20365172E+00 0.39849177E+04</pdfrwt>
<totfact> 0.66608648E-02</totfact>
</mgrwt>
</event>
<event>
 6    1  0.9988873E-007  0.2095914E+04  0.7818608E-02  0.8563045E-01
         -1   -1    0    0    0  501 -0.00000000000E+00  0.00000000000E+00  0.10094053589E+04  0.10094053589E+04  0.00000000000E+00 0.  1.
          1   -1    0    0  501    0  0.00000000000E+00 -0.00000000000E+00 -0.10879810161E+04  0.10879810161E+04  0.00000000000E+00 0. -1.
         23    2    1    2    0    0  0.90498667708E+02 -0.84612413283E+03  0.56935704909E+03  0.10278384102E+04  0.90378598769E+02 0.  0.
         13    1    3    3    0    0  0.15922054903E+02 -0.30599807006E+03  0.15750555718E+03  0.34452333920E+03  0.00000000000E+00 0.  1.
        -13    1    3    3    0    0  0.74576612805E+02 -0.54012606277E+03  0.41185149191E+03  0.68331507099E+03  0.00000000000E+00 0. -1.
         22    1    1    2    0    0 -0.90498667708E+02  0.84612413283E+03 -0.64793270629E+03  0.10695479647E+04  0.00000000000E+00 0. -1.
<mgrwt>
<rscale>  0 0.20959140E+04</rscale>
<asrwt>0</asrwt>
<pdfrwt beam="1">  1        1 0.16738170E+00 0.20959140E+04</pdfrwt>
<pdfrwt beam="2">  1       -1 0.15529313E+00 0.20959140E+04</pdfrwt>
<totfact> 0.37817009E+00</totfact>
</mgrwt>
</event>
<event>
 6    1  0.9988873E-007  0.1184956E+04  0.7818608E-02  0.9126128E-01
         -1   -1    0    0    0  501 -0.00000000000E+00  0.00000000000E+00  0.37811685191E+03  0.37811685191E+03  0.00000000000E+00 0.  1.
          1   -1    0    0  501    0  0.00000000000E+00 -0.00000000000E+00 -0.92836390668E+03  0.92836390668E+03  0.00000000000E+00 0. -1.
         23    2    1    2    0    0  0.31388844807E+03  0.44400795524E+03 -0.52633475759E+03  0.76220066517E+03  0.90843573179E+02 0.  0.
         11    1    3    3    0    0  0.54093450728E+02  0.85479719685E+02 -0.53520463889E+02  0.11444354042E+03  0.00000000000E+00 0.  1.
        -11    1    3    3    0    0  0.25979499734E+03  0.35852823556E+03 -0.47281429370E+03  0.64775712475E+03  0.00000000000E+00 0. -1.
         22    1    1    2    0    0 -0.31388844807E+03 -0.44400795524E+03 -0.23912297179E+02  0.54428009343E+03  0.00000000000E+00 0.  1.
<mgrwt>
<rscale>  0 0.11849558E+04</rscale>
<asrwt>0</asrwt>
<pdfrwt beam="1">  1        1 0.14282522E+00 0.11849558E+04</pdfrwt>
<pdfrwt beam="2">  1       -1 0.58171824E-01 0.11849558E+04</pdfrwt>
<totfact> 0.51179121E+01</totfact>
</mgrwt>
</event>
<event>
 6    1  0.9988873E-007  0.2330693E+04  0.7818608E-02  0.8465917E-01
         -1   -1    0    0    0  501 -0.00000000000E+00  0.00000000000E+00  0.48275211099E+03  0.48275211099E+03  0.00000000000E+00 0.  1.
          1   -1    0    0  501    0  0.00000000000E+00 -0.00000000000E+00 -0.28131055820E+04  0.28131055820E+04  0.00000000000E+00 0. -1.
         23    2    1    2    0    0 -0.29751399099E+03  0.83229579298E+03 -0.22369254815E+04  0.24070609496E+04  0.94212224496E+02 0.  0.
         11    1    3    3    0    0 -0.28396214954E+03  0.75619331434E+03 -0.19700409949E+04  0.21292074471E+04  0.00000000000E+00 0.  1.
        -11    1    3    3    0    0 -0.13551841453E+02  0.76102478642E+02 -0.26688448662E+03  0.27785350252E+03  0.00000000000E+00 0. -1.
         22    1    1    2    0    0  0.29751399099E+03 -0.83229579298E+03 -0.93427989469E+02  0.88879674339E+03  0.00000000000E+00 0.  1.
<mgrwt>
<rscale>  0 0.23306932E+04</rscale>
<asrwt>0</asrwt>
<pdfrwt beam="1">  1        1 0.43278547E+00 0.23306932E+04</pdfrwt>
<pdfrwt beam="2">  1       -1 0.74269556E-01 0.23306932E+04</pdfrwt>
<totfact> 0.13420227E+00</totfact>
</mgrwt>
</event>
<event>
 6    1  0.9988873E-007  0.1733336E+04  0.7818608E-02  0.8742577E-01
         -1   -1    0    0    0  501 -0.00000000000E+00  0.00000000000E+00  0.66466804503E+03  0.66466804503E+03  0.00000000000E+00 0.  1.
          1   -1    0    0  501    0  0.00000000000E+00 -0.00000000000E+00 -0.11300582893E+04  0.11300582893E+04  0.00000000000E+00 0. -1.
         23    2    1    2    0    0  0.71689081132E+03  0.10334819364E+03 -0.72176477288E+03  0.10263897002E+04  0.88983958046E+02 0.  0.
         13    1    3    3    0    0  0.12393227185E+03  0.52535941873E+02 -0.13126248040E+03  0.18801348876E+03  0.00000000000E+00 0. -1.
        -13    1    3    3    0    0  0.59295853948E+03  0.50812251769E+02 -0.59050229248E+03  0.83837621143E+03  0.00000000000E+00 0.  1.
         22    1    1    2    0    0 -0.71689081132E+03 -0.10334819364E+03  0.25637452858E+03  0.76833663416E+03  0.00000000000E+00 0.  1.
<mgrwt>
<rscale>  0 0.17333362E+04</rscale>
<asrwt>0</asrwt>
<pdfrwt beam="1">  1        1 0.17385512E+00 0.17333362E+04</pdfrwt>
<pdfrwt beam="2">  1       -1 0.10225662E+00 0.17333362E+04</pdfrwt>
<totfact> 0.10343010E+01</totfact>
</mgrwt>
</event>
<event>
 6    1  0.9988873E-007  0.3397031E+04  0.7818608E-02  0.8138635E-01
          1   -1    0    0  501    0  0.00000000000E+00  0.00000000000E+00  0.29531565696E+04  0.29531565696E+04  0.00000000000E+00 0. -1.
         -1   -1    0    0    0  501 -0.00000000000E+00 -0.00000000000E+00 -0.97690552855E+03  0.97690552855E+03  0.00000000000E+00 0.  1.
         23    2    1    2    0    0  0.14970441740E+04 -0.37247127213E+03  0.17005208798E+03  0.15547240663E+04  0.91504657475E+02 0.  0.
         11    1    3    3    0    0  0.60590932232E+03 -0.10741580460E+03  0.52221080012E+02  0.61756886511E+03  0.00000000000E+00 0. -1.
        -11    1    3    3    0    0  0.89113485166E+03 -0.26505546752E+03  0.11783100797E+03  0.93715520121E+03  0.00000000000E+00 0.  1.
         22    1    1    2    0    0 -0.14970441740E+04  0.37247127213E+03  0.18061989531E+04  0.23753380318E+04  0.00000000000E+00 0. -1.
<mgrwt>
<rscale>  0 0.33970310E+04</rscale>
<asrwt>0</asrwt>
<pdfrwt beam="1">  1        1 0.45433177E+00 0.33970310E+04</pdfrwt>
<pdfrwt beam="2">  1       -1 0.15029316E+00 0.33970310E+04</pdfrwt>
<totfact> 0.18452918E-01</totfact>
</mgrwt>
</event>
<event>
 6    1  0.9988873E-007  0.3764548E+04  0.7818608E-02  0.8053806E-01
          1   -1    0    0  501    0  0.00000000000E+00  0.00000000000E+00  0.27988456261E+04  0.27988456261E+04  0.00000000000E+00 0. -1.
         -1   -1    0    0    0  501 -0.00000000000E+00 -0.00000000000E+00 -0.12658631191E+04  0.12658631191E+04  0.00000000000E+00 0.  1.
         23    2    1    2    0    0  0.18983065053E+03  0.88541635970E+03 -0.10134129831E+04  0.13620937526E+04  0.91080792039E+02 0.  0.
         13    1    3    3    0    0  0.92747029728E+02  0.25596130317E+03 -0.27521876633E+03  0.38712216365E+03  0.00000000000E+00 0. -1.
        -13    1    3    3    0    0  0.97083620805E+02  0.62945505653E+03 -0.73819421678E+03  0.97497158897E+03  0.00000000000E+00 0.  1.
         22    1    1    2    0    0 -0.18983065053E+03 -0.88541635970E+03  0.25463954901E+04  0.27026149925E+04  0.00000000000E+00 0. -1.
<mgrwt>
<rscale>  0 0.37645480E+04</rscale>
<asrwt>0</asrwt>
<pdfrwt beam="1">  1        1 0.43059163E+00 0.37645480E+04</pdfrwt>
<pdfrwt beam="2">  1       -1 0.19474817E+00 0.37645480E+04</pdfrwt>
<totfact> 0.10902573E-01</totfact>
</mgrwt>
</event>
<event>
 6    1  0.9988873E-007  0.4970814E+03  0.7818608E-02  0.1014544E+00
          1   -1    0    0  501    0  0.00000000000E+00  0.00000000000E+00  0.57165175763E+03  0.57165175763E+03  0.00000000000E+00 0. -1.
         -1   -1    0    0    0  501 -0.00000000000E+00 -0.00000000000E+00 -0.10805965398E+03  0.10805965398E+03  0.00000000000E+00 0.  1.
         23    2    1    2    0    0  0.20683757915E+03 -0.94816117230E+02  0.13506081543E+03  0.28008072262E+03  0.91825416352E+02 0.  0.
         13    1    3    3    0    0  0.11230726357E+03 -0.19966053738E+02  0.24889440910E+02  0.11675208358E+03  0.00000000000E+00 0. -1.
        -13    1    3    3    0    0  0.94530315577E+02 -0.74850063492E+02  0.11017137452E+03  0.16332863904E+03  0.00000000000E+00 0.  1.
         22    1    1    2    0    0 -0.20683757915E+03  0.94816117230E+02  0.32853128822E+03  0.39963068898E+03  0.00000000000E+00 0. -1.
<mgrwt>
<rscale>  0 0.49708145E+03</rscale>
<asrwt>0</asrwt>
<pdfrwt beam="1">  1        1 0.87946423E-01 0.49708145E+03</pdfrwt>
<pdfrwt beam="2">  1       -1 0.16624562E-01 0.49708145E+03</pdfrwt>
<totfact> 0.10254462E+03</totfact>
</mgrwt>
</event>
<event>
 6    1  0.9988873E-007  0.1265211E+04  0.7818608E-02  0.9057617E-01
         -1   -1    0    0    0  501 -0.00000000000E+00  0.00000000000E+00  0.37747008082E+03  0.37747008082E+03  0.00000000000E+00 0.  1.
          1   -1    0    0  501    0  0.00000000000E+00 -0.00000000000E+00 -0.10601895962E+04  0.10601895962E+04  0.00000000000E+00 0. -1.
         23    2    1    2    0    0  0.55227752918E+03 -0.24089588477E+03 -0.54831802797E+03  0.82032260836E+03  0.96100080329E+02 0.  0.
         11    1    3    3    0    0  0.14293696850E+03 -0.76056603279E+02 -0.95183895355E+02  0.18781788467E+03  0.00000000000E+00 0. -1.
        -11    1    3    3    0    0  0.40934056068E+03 -0.16483928149E+03 -0.45313413262E+03  0.63250472368E+03  0.00000000000E+00 0.  1.
         22    1    1    2    0    0 -0.55227752918E+03  0.24089588477E+03 -0.13440148742E+03  0.61733706868E+03  0.00000000000E+00 0.  1.
<mgrwt>
<rscale>  0 0.12652112E+04</rscale>
<asrwt>0</asrwt>
<pdfrwt beam="1">  1        1 0.16310609E+00 0.12652112E+04</pdfrwt>
<pdfrwt beam="2">  1       -1 0.58072321E-01 0.12652112E+04</pdfrwt>
<totfact> 0.40222529E+01</totfact>
</mgrwt>
</event>
<event>
 6    1  0.1602359E-006  0.3815975E+04  0.7818608E-02  0.8042735E-01
         -1   -1    0    0    0  501 -0.00000000000E+00  0.00000000000E+00  0.17278428118E+04  0.17278428118E+04  0.00000000000E+00 0.  1.
          1   -1    0    0  501    0  0.00000000000E+00 -0.00000000000E+00 -0.21069139560E+04  0.21069139560E+04  0.00000000000E+00 0. -1.
         23    2    1    2    0    0  0.98993668934E+03  0.10456514239E+04  0.10671956147E+04  0.17939115784E+04  0.76490011061E+02 0.  0.
         13    1    3    3    0    0  0.63648138673E+03  0.66466467981E+03  0.72686418620E+03  0.11726974194E+04  0.00000000000E+00 0. -1.
        -13    1    3    3    0    0  0.35345530260E+03  0.38098674405E+03  0.34033142852E+03  0.62121415898E+03  0.00000000000E+00 0.  1.
         22    1    1    2    0    0 -0.98993668934E+03 -0.10456514239E+04 -0.14462667589E+04  0.20408451894E+04  0.00000000000E+00 0. -1.
<mgrwt>
<rscale>  0 0.38159749E+04</rscale>
<asrwt>0</asrwt>
<pdfrwt beam="1">  1        1 0.32414061E+00 0.38159749E+04</pdfrwt>
<pdfrwt beam="2">  1       -1 0.26582197E+00 0.38159749E+04</pdfrwt>
<totfact> 0.11018150E-01</totfact>
</mgrwt>
</event>
<event>
 6    1  0.9988873E-007  0.3419043E+04  0.7818608E-02  0.8133248E-01
         -1   -1    0    0    0  501 -0.00000000000E+00  0.00000000000E+00  0.81424597065E+03  0.81424597065E+03  0.00000000000E+00 0.  1.
          1   -1    0    0  501    0  0.00000000000E+00 -0.00000000000E+00 -0.35891667143E+04  0.35891667143E+04  0.00000000000E+00 0. -1.
         23    2    1    2    0    0  0.10867397478E+04  0.16964751529E+03  0.29502514309E+03  0.11423773729E+04  0.90568582061E+02 0.  0.
         11    1    3    3    0    0  0.57688933007E+03  0.13250611458E+03  0.17563238936E+03  0.61741874424E+03  0.00000000000E+00 0. -1.
        -11    1    3    3    0    0  0.50985041778E+03  0.37141400703E+02  0.11939275372E+03  0.52495862865E+03  0.00000000000E+00 0.  1.
         22    1    1    2    0    0 -0.10867397478E+04 -0.16964751529E+03 -0.30699458867E+04  0.32610353120E+04  0.00000000000E+00 0. -1.
<mgrwt>
<rscale>  0 0.34190435E+04</rscale>
<asrwt>0</asrwt>
<pdfrwt beam="1">  1        1 0.55217949E+00 0.34190435E+04</pdfrwt>
<pdfrwt beam="2">  1       -1 0.12526861E+00 0.34190435E+04</pdfrwt>
<totfact> 0.96878568E-02</totfact>
</mgrwt>
</event>
<event>
 6    1  0.9988873E-007  0.2712835E+04  0.7818608E-02  0.8330852E-01
          1   -1    0    0  501    0  0.00000000000E+00  0.00000000000E+00  0.13627317115E+04  0.13627317115E+04  0.00000000000E+00 0. -1.
         -1   -1    0    0    0  501 -0.00000000000E+00 -0.00000000000E+00 -0.13501329373E+04  0.13501329373E+04  0.00000000000E+00 0.  1.
         23    2    1    2    0    0  0.13090123179E+03 -0.48101546182E+03 -0.12535511409E+04  0.13521124250E+04  0.91140221478E+02 0.  0.
         13    1    3    3    0    0  0.10046988987E+03 -0.33130916898E+03 -0.75316040815E+03  0.82892132596E+03  0.00000000000E+00 0. -1.
        -13    1    3    3    0    0  0.30431341920E+02 -0.14970629284E+03 -0.50039073276E+03  0.52319109904E+03  0.00000000000E+00 0.  1.
         22    1    1    2    0    0 -0.13090123179E+03  0.48101546182E+03  0.12661499151E+04  0.13607522238E+04  0.00000000000E+00 0. -1.
<mgrwt>
<rscale>  0 0.27128354E+04</rscale>
<asrwt>0</asrwt>
<pdfrwt beam="1">  1        1 0.20965103E+00 0.27128354E+04</pdfrwt>
<pdfrwt beam="2">  1       -1 0.20771276E+00 0.27128354E+04</pdfrwt>
<totfact> 0.94863048E-01</totfact>
</mgrwt>
</event>
<event>
 6    1  0.9988873E-007  0.1184594E+04  0.7818608E-02  0.9126450E-01
          2   -1    0    0  501    0  0.00000000000E+00  0.00000000000E+00  0.62525887105E+03  0.62525887105E+03  0.00000000000E+00 0. -1.
         -2   -1    0    0    0  501 -0.00000000000E+00 -0.00000000000E+00 -0.56107243304E+03  0.56107243304E+03  0.00000000000E+00 0.  1.
         23    2    1    2    0    0  0.34584941987E+03 -0.53955319177E+02 -0.44179428532E+03  0.57107567424E+03  0.91772749057E+02 0.  0.
         13    1    3    3    0    0  0.20987180490E+03 -0.73912970393E+02 -0.24398441840E+03  0.33020856758E+03  0.00000000000E+00 0. -1.
        -13    1    3    3    0    0  0.13597761497E+03  0.19957651217E+02 -0.19780986692E+03  0.24086710665E+03  0.00000000000E+00 0.  1.
         22    1    1    2    0    0 -0.34584941987E+03  0.53955319177E+02  0.50598072333E+03  0.61525562986E+03  0.00000000000E+00 0. -1.
<mgrwt>
<rscale>  0 0.11845936E+04</rscale>
<asrwt>0</asrwt>
<pdfrwt beam="1">  1        2 0.96193672E-01 0.11845936E+04</pdfrwt>
<pdfrwt beam="2">  1       -2 0.86318836E-01 0.11845936E+04</pdfrwt>
<totfact> 0.54219095E+01</totfact>
</mgrwt>
</event>
<event>
 6    1  0.9988873E-007  0.1184089E+04  0.7818608E-02  0.9126899E-01
          1   -1    0    0  501    0  0.00000000000E+00  0.00000000000E+00  0.57458594433E+03  0.57458594433E+03  0.00000000000E+00 0. -1.
         -1   -1    0    0    0  501 -0.00000000000E+00 -0.00000000000E+00 -0.61003315158E+03  0.61003315158E+03  0.00000000000E+00 0.  1.
         23    2    1    2    0    0  0.58777920329E+03  0.29824835075E+01 -0.49074534488E+01  0.59603948057E+03  0.98720272805E+02 0.  0.
         11    1    3    3    0    0  0.44205837634E+03 -0.33387843676E+02  0.20137360543E+02  0.44377457058E+03  0.00000000000E+00 0. -1.
        -11    1    3    3    0    0  0.14572082695E+03  0.36370327183E+02 -0.25044813992E+02  0.15226490999E+03  0.00000000000E+00 0.  1.
         22    1    1    2    0    0 -0.58777920329E+03 -0.29824835075E+01 -0.30539753802E+02  0.58857961534E+03  0.00000000000E+00 0.  1.
<mgrwt>
<rscale>  0 0.11840886E+04</rscale>
<asrwt>0</asrwt>
<pdfrwt beam="1">  1        1 0.88397838E-01 0.11840886E+04</pdfrwt>
<pdfrwt beam="2">  1       -1 0.93851254E-01 0.11840886E+04</pdfrwt>
<totfact> 0.39765154E+01</totfact>
</mgrwt>
</event>
<event>
 6    1  0.9988873E-007  0.2730783E+04  0.7818608E-02  0.8325086E-01
         -1   -1    0    0    0  501 -0.00000000000E+00  0.00000000000E+00  0.53788745003E+03  0.53788745003E+03  0.00000000000E+00 0.  1.
          1   -1    0    0  501    0  0.00000000000E+00 -0.00000000000E+00 -0.34659556201E+04  0.34659556201E+04  0.00000000000E+00 0. -1.
         23    2    1    2    0    0 -0.98266199202E+03 -0.68119135057E+03 -0.50199867597E+03  0.12991324688E+04  0.78078513093E+02 0.  0.
         13    1    3    3    0    0 -0.66374030667E+03 -0.49472887774E+03 -0.37097137994E+03  0.90715358231E+03  0.00000000000E+00 0.  1.
        -13    1    3    3    0    0 -0.31892168535E+03 -0.18646247283E+03 -0.13102729603E+03  0.39197888651E+03  0.00000000000E+00 0. -1.
         22    1    1    2    0    0  0.98266199202E+03  0.68119135057E+03 -0.24260694941E+04  0.27047106013E+04  0.00000000000E+00 0. -1.
<mgrwt>
<rscale>  0 0.27307831E+04</rscale>
<asrwt>0</asrwt>
<pdfrwt beam="1">  1        1 0.53322394E+00 0.27307831E+04</pdfrwt>
<pdfrwt beam="2">  1       -1 0.82751915E-01 0.27307831E+04</pdfrwt>
<totfact> 0.33576162E-01</totfact>
</mgrwt>
</event>
<event>
 6    1  0.9988873E-007  0.2102853E+04  0.7818608E-02  0.8559988E-01
         -3   -1    0    0    0  501 -0.00000000000E+00  0.00000000000E+00  0.10712708810E+04  0.10712708810E+04  0.00000000000E+00 0.  1.
          3   -1    0    0  501    0  0.00000000000E+00 -0.00000000000E+00 -0.10319499717E+04  0.10319499717E+04  0.00000000000E+00 0. -1.
         23    2    1    2    0    0  0.11590908354E+03 -0.13869019001E+03 -0.10142718065E+04  0.10342365239E+04  0.90708353802E+02 0.  0.
         13    1    3    3    0    0  0.52459339696E+02 -0.12708695337E+03 -0.66636672482E+03  0.68040259258E+03  0.00000000000E+00 0.  1.
        -13    1    3    3    0    0  0.63449743849E+02 -0.11603236642E+02 -0.34790508172E+03  0.35383393136E+03  0.00000000000E+00 0. -1.
         22    1    1    2    0    0 -0.11590908354E+03  0.13869019001E+03  0.10535927158E+04  0.10689843289E+04  0.00000000000E+00 0.  1.
<mgrwt>
<rscale>  0 0.21028533E+04</rscale>
<asrwt>0</asrwt>
<pdfrwt beam="1">  1        3 0.15876153E+00 0.21028533E+04</pdfrwt>
<pdfrwt beam="2">  1       -3 0.16481090E+00 0.21028533E+04</pdfrwt>
<totfact> 0.16874417E-01</totfact>
</mgrwt>
</event>
<event>
 6    1  0.9988873E-007  0.2268433E+04  0.7818608E-02  0.8490473E-01
         -2   -1    0    0    0  501 -0.00000000000E+00  0.00000000000E+00  0.12924151562E+04  0.12924151562E+04  0.00000000000E+00 0.  1.
          2   -1    0    0  501    0  0.00000000000E+00 -0.00000000000E+00 -0.99538185568E+03  0.99538185568E+03  0.00000000000E+00 0. -1.
         23    2    1    2    0    0 -0.88653815868E+03 -0.36062954616E+03 -0.46167329241E+03  0.10664701635E+04  0.90624524482E+02 0.  0.
         13    1    3    3    0    0 -0.38733213959E+03 -0.17620186500E+03 -0.25146117663E+03  0.49427321082E+03  0.00000000000E+00 0. -1.
        -13    1    3    3    0    0 -0.49920601909E+03 -0.18442768116E+03 -0.21021211578E+03  0.57219695272E+03  0.00000000000E+00 0.  1.
         22    1    1    2    0    0  0.88653815868E+03  0.36062954616E+03  0.75870659297E+03  0.12213268484E+04  0.00000000000E+00 0.  1.
<mgrwt>
<rscale>  0 0.22684326E+04</rscale>
<asrwt>0</asrwt>
<pdfrwt beam="1">  1        2 0.15313567E+00 0.22684326E+04</pdfrwt>
<pdfrwt beam="2">  1       -2 0.19883310E+00 0.22684326E+04</pdfrwt>
<totfact> 0.31199419E+00</totfact>
</mgrwt>
</event>
<event>
 6    1  0.9988873E-007  0.1626232E+04  0.7818608E-02  0.8804593E-01
         -2   -1    0    0    0  501 -0.00000000000E+00  0.00000000000E+00  0.45467307561E+03  0.45467307561E+03  0.00000000000E+00 0.  1.
          2   -1    0    0  501    0  0.00000000000E+00 -0.00000000000E+00 -0.14541389236E+04  0.14541389236E+04  0.00000000000E+00 0. -1.
         23    2    1    2    0    0  0.72019477144E+03  0.14435301936E+03 -0.99273335912E+02  0.74697515103E+03  0.92727439468E+02 0.  0.
         13    1    3    3    0    0  0.48575397627E+03  0.13508237380E+03 -0.45259272800E+02  0.50621396163E+03  0.00000000000E+00 0.  1.
        -13    1    3    3    0    0  0.23444079517E+03  0.92706455544E+01 -0.54014063113E+02  0.24076118940E+03  0.00000000000E+00 0. -1.
         22    1    1    2    0    0 -0.72019477144E+03 -0.14435301936E+03 -0.90019251212E+03  0.11618368482E+04  0.00000000000E+00 0. -1.
<mgrwt>
<rscale>  0 0.16262322E+04</rscale>
<asrwt>0</asrwt>
<pdfrwt beam="1">  1        2 0.22371368E+00 0.16262322E+04</pdfrwt>
<pdfrwt beam="2">  1       -2 0.69949705E-01 0.16262322E+04</pdfrwt>
<totfact> 0.24011829E+01</totfact>
</mgrwt>
</event>
<event>
 6    1  0.9988873E-007  0.1903250E+04  0.7818608E-02  0.8653240E-01
         -2   -1    0    0    0  501 -0.00000000000E+00  0.00000000000E+00  0.68748862562E+03  0.68748862562E+03  0.00000000000E+00 0.  1.
          2   -1    0    0  501    0  0.00000000000E+00 -0.00000000000E+00 -0.13172436138E+04  0.13172436138E+04  0.00000000000E+00 0. -1.
         23    2    1    2    0    0  0.26063432494E+03  0.70185947233E+03 -0.93067527784E+03  0.11978307640E+04  0.90028307711E+02 0.  0.
         11    1    3    3    0    0  0.14478783152E+03  0.29451338965E+03 -0.35928821628E+03  0.48661039363E+03  0.00000000000E+00 0. -1.
        -11    1    3    3    0    0  0.11584649342E+03  0.40734608269E+03 -0.57138706156E+03  0.71122037038E+03  0.00000000000E+00 0.  1.
         22    1    1    2    0    0 -0.26063432494E+03 -0.70185947233E+03  0.30092028968E+03  0.80690147538E+03  0.00000000000E+00 0.  1.
<mgrwt>
<rscale>  0 0.19032499E+04</rscale>
<asrwt>0</asrwt>
<pdfrwt beam="1">  1        2 0.20265286E+00 0.19032499E+04</pdfrwt>
<pdfrwt beam="2">  1       -2 0.10576748E+00 0.19032499E+04</pdfrwt>
<totfact> 0.10926705E+01</totfact>
</mgrwt>
</event>
<event>
 6    1  0.9988873E-007  0.2523498E+04  0.7818608E-02  0.8394662E-01
         -2   -1    0    0    0  501 -0.00000000000E+00  0.00000000000E+00  0.89169233856E+03  0.89169233856E+03  0.00000000000E+00 0.  1.
          2   -1    0    0  501    0  0.00000000000E+00 -0.00000000000E+00 -0.17853807380E+04  0.17853807380E+04  0.00000000000E+00 0. -1.
         23    2    1    2    0    0 -0.67763327818E+03  0.10525905908E+04 -0.29463738958E+03  0.12892705243E+04  0.90958682614E+02 0.  0.
         11    1    3    3    0    0 -0.16061768392E+03  0.26602318576E+03 -0.11283009809E+03  0.33060097820E+03  0.00000000000E+00 0. -1.
        -11    1    3    3    0    0 -0.51701559426E+03  0.78656740505E+03 -0.18180729149E+03  0.95866954611E+03  0.00000000000E+00 0.  1.
         22    1    1    2    0    0  0.67763327818E+03 -0.10525905908E+04 -0.59905100982E+03  0.13878025522E+04  0.00000000000E+00 0. -1.
<mgrwt>
<rscale>  0 0.25234978E+04</rscale>
<asrwt>0</asrwt>
<pdfrwt beam="1">  1        2 0.27467396E+00 0.25234978E+04</pdfrwt>
<pdfrwt beam="2">  1       -2 0.13718344E+00 0.25234978E+04</pdfrwt>
<totfact> 0.29632482E+00</totfact>
</mgrwt>
</event>
<event>
 6    1  0.9988873E-007  0.3595970E+04  0.7818608E-02  0.8091415E-01
          1   -1    0    0  501    0  0.00000000000E+00  0.00000000000E+00  0.18421720258E+04  0.18421720258E+04  0.00000000000E+00 0. -1.
         -1   -1    0    0    0  501 -0.00000000000E+00 -0.00000000000E+00 -0.17548579830E+04  0.17548579830E+04  0.00000000000E+00 0.  1.
         23    2    1    2    0    0  0.17468234480E+04  0.24396598200E+03  0.38650978028E+03  0.18080555405E+04  0.93613398893E+02 0.  0.
         13    1    3    3    0    0  0.96068887632E+03  0.17040193299E+03  0.24395706760E+03  0.10057211277E+04  0.00000000000E+00 0. -1.
        -13    1    3    3    0    0  0.78613457171E+03  0.73564049009E+02  0.14255271269E+03  0.80233441285E+03  0.00000000000E+00 0.  1.
         22    1    1    2    0    0 -0.17468234480E+04 -0.24396598200E+03 -0.29919573752E+03  0.17889744683E+04  0.00000000000E+00 0.  1.
<mgrwt>
<rscale>  0 0.35959701E+04</rscale>
<asrwt>0</asrwt>
<pdfrwt beam="1">  1        1 0.28341108E+00 0.35959701E+04</pdfrwt>
<pdfrwt beam="2">  1       -1 0.26997815E+00 0.35959701E+04</pdfrwt>
<totfact> 0.15953720E-01</totfact>
</mgrwt>
</event>
<event>
 6    1  0.9988873E-007  0.1801397E+04  0.7818608E-02  0.8705557E-01
         -2   -1    0    0    0  501 -0.00000000000E+00  0.00000000000E+00  0.75455170881E+03  0.75455170881E+03  0.00000000000E+00 0.  1.
          2   -1    0    0  501    0  0.00000000000E+00 -0.00000000000E+00 -0.10751524518E+04  0.10751524518E+04  0.00000000000E+00 0. -1.
         23    2    1    2    0    0  0.50200538390E+03  0.65175440989E+03  0.20586785062E+03  0.85299417482E+03  0.91783844371E+02 0.  0.
         13    1    3    3    0    0  0.32921589935E+03  0.49117132808E+03  0.13251403050E+03  0.60596398423E+03  0.00000000000E+00 0.  1.
        -13    1    3    3    0    0  0.17278948455E+03  0.16058308181E+03  0.73353820123E+02  0.24703019058E+03  0.00000000000E+00 0. -1.
         22    1    1    2    0    0 -0.50200538390E+03 -0.65175440989E+03 -0.52646859359E+03  0.97670998577E+03  0.00000000000E+00 0. -1.
<mgrwt>
<rscale>  0 0.18013974E+04</rscale>
<asrwt>0</asrwt>
<pdfrwt beam="1">  1        2 0.16540807E+00 0.18013974E+04</pdfrwt>
<pdfrwt beam="2">  1       -2 0.11608488E+00 0.18013974E+04</pdfrwt>
<totfact> 0.12281041E+01</totfact>
</mgrwt>
</event>
<event>
 6    1  0.9988873E-007  0.2196715E+04  0.7818608E-02  0.8519797E-01
         -2   -1    0    0    0  501 -0.00000000000E+00  0.00000000000E+00  0.43635556393E+03  0.43635556393E+03  0.00000000000E+00 0.  1.
          2   -1    0    0  501    0  0.00000000000E+00 -0.00000000000E+00 -0.27646938022E+04  0.27646938022E+04  0.00000000000E+00 0. -1.
         23    2    1    2    0    0 -0.66837633968E+03  0.80337182414E+03 -0.16499334696E+04  0.19551094601E+04  0.89662297288E+02 0.  0.
         13    1    3    3    0    0 -0.25389977861E+03  0.31991294270E+03 -0.56632125128E+03  0.69823287529E+03  0.00000000000E+00 0.  1.
        -13    1    3    3    0    0 -0.41447656108E+03  0.48345888144E+03 -0.10836122184E+04  0.12568765848E+04  0.00000000000E+00 0. -1.
         22    1    1    2    0    0  0.66837633968E+03 -0.80337182414E+03 -0.67840476862E+03  0.12459399060E+04  0.00000000000E+00 0.  1.
<mgrwt>
<rscale>  0 0.21967153E+04</rscale>
<asrwt>0</asrwt>
<pdfrwt beam="1">  1        2 0.42533750E+00 0.21967153E+04</pdfrwt>
<pdfrwt beam="2">  1       -2 0.67131627E-01 0.21967153E+04</pdfrwt>
<totfact> 0.45241632E+00</totfact>
</mgrwt>
</event>
<event>
 6    1  0.9988873E-007  0.2675956E+04  0.7818608E-02  0.8342849E-01
          1   -1    0    0  501    0  0.00000000000E+00  0.00000000000E+00  0.31446161212E+04  0.31446161212E+04  0.00000000000E+00 0. -1.
         -1   -1    0    0    0  501 -0.00000000000E+00 -0.00000000000E+00 -0.56928578147E+03  0.56928578147E+03  0.00000000000E+00 0.  1.
         23    2    1    2    0    0  0.13711994005E+03  0.76833804944E+03 -0.21654050106E+03  0.81499037800E+03  0.90411788259E+02 0.  0.
         11    1    3    3    0    0  0.68576931596E+02  0.17235430615E+03 -0.60564149601E+02  0.19513282300E+03  0.00000000000E+00 0. -1.
        -11    1    3    3    0    0  0.68543008450E+02  0.59598374329E+03 -0.15597635146E+03  0.61985755500E+03  0.00000000000E+00 0.  1.
         22    1    1    2    0    0 -0.13711994005E+03 -0.76833804944E+03  0.27918708408E+04  0.28989115247E+04  0.00000000000E+00 0. -1.
<mgrwt>
<rscale>  0 0.26759561E+04</rscale>
<asrwt>0</asrwt>
<pdfrwt beam="1">  1        1 0.48378708E+00 0.26759561E+04</pdfrwt>
<pdfrwt beam="2">  1       -1 0.87582430E-01 0.26759561E+04</pdfrwt>
<totfact> 0.52455905E-01</totfact>
</mgrwt>
</event>
<event>
 6    1  0.9988873E-007  0.4954718E+04  0.7818608E-02  0.7835531E-01
          2   -1    0    0  501    0  0.00000000000E+00  0.00000000000E+00  0.25328787970E+04  0.25328787970E+04  0.00000000000E+00 0. -1.
         -2   -1    0    0    0  501 -0.00000000000E+00 -0.00000000000E+00 -0.24230560709E+04  0.24230560709E+04  0.00000000000E+00 0.  1.
         23    2    1    2    0    0 -0.38105733488E+03  0.20121429619E+04 -0.13379640739E+04  0.24479455120E+04  0.91462425880E+02 0.  0.
         11    1    3    3    0    0 -0.30878455104E+03  0.17304948573E+04 -0.11164392166E+04  0.20824017082E+04  0.00000000000E+00 0. -1.
        -11    1    3    3    0    0 -0.72272783841E+02  0.28164810461E+03 -0.22152485728E+03  0.36554380381E+03  0.00000000000E+00 0.  1.
         22    1    1    2    0    0  0.38105733488E+03 -0.20121429619E+04  0.14477867999E+04  0.25079893559E+04  0.00000000000E+00 0. -1.
<mgrwt>
<rscale>  0 0.49547179E+04</rscale>
<asrwt>0</asrwt>
<pdfrwt beam="1">  1        2 0.38967367E+00 0.49547179E+04</pdfrwt>
<pdfrwt beam="2">  1       -2 0.37277785E+00 0.49547179E+04</pdfrwt>
<totfact> 0.27128986E-02</totfact>
</mgrwt>
</event>
<event>
 6    1  0.9988873E-007  0.1018598E+04  0.7818608E-02  0.9288379E-01
          1   -1    0    0  501    0  0.00000000000E+00  0.00000000000E+00  0.13026514422E+04  0.13026514422E+04  0.00000000000E+00 0. -1.
         -1   -1    0    0    0  501 -0.00000000000E+00 -0.00000000000E+00 -0.19912126921E+03  0.19912126921E+03  0.00000000000E+00 0.  1.
         23    2    1    2    0    0 -0.31256520050E+03 -0.28244173850E+03  0.14500359368E+03  0.45475621515E+03  0.91141828108E+02 0.  0.
         11    1    3    3    0    0 -0.61769271121E+02 -0.93597078643E+02  0.86360840610E+01  0.11247416563E+03  0.00000000000E+00 0. -1.
        -11    1    3    3    0    0 -0.25079592937E+03 -0.18884465985E+03  0.13636750962E+03  0.34228204953E+03  0.00000000000E+00 0.  1.
         22    1    1    2    0    0  0.31256520050E+03  0.28244173850E+03  0.95852657932E+03  0.10470164963E+04  0.00000000000E+00 0. -1.
<mgrwt>
<rscale>  0 0.10185983E+04</rscale>
<asrwt>0</asrwt>
<pdfrwt beam="1">  1        1 0.20040791E+00 0.10185983E+04</pdfrwt>
<pdfrwt beam="2">  1       -1 0.30634042E-01 0.10185983E+04</pdfrwt>
<totfact> 0.88636400E+01</totfact>
</mgrwt>
</event>
<event>
 6    1  0.9988873E-007  0.1746996E+04  0.7818608E-02  0.8735005E-01
          2   -1    0    0  501    0  0.00000000000E+00  0.00000000000E+00  0.17239463447E+04  0.17239463447E+04  0.00000000000E+00 0. -1.
         -2   -1    0    0    0  501 -0.00000000000E+00 -0.00000000000E+00 -0.44258867005E+03  0.44258867005E+03  0.00000000000E+00 0.  1.
         23    2    1    2    0    0  0.81597906113E+03  0.60580207550E+02  0.27207861514E+03  0.86725213189E+03  0.92777678875E+02 0.  0.
         13    1    3    3    0    0  0.35078860360E+03  0.71768381294E+02  0.12460641751E+03  0.37911753356E+03  0.00000000000E+00 0. -1.
        -13    1    3    3    0    0  0.46519045753E+03 -0.11188173744E+02  0.14747219763E+03  0.48813459833E+03  0.00000000000E+00 0.  1.
         22    1    1    2    0    0 -0.81597906113E+03 -0.60580207550E+02  0.10092790595E+04  0.12992828829E+04  0.00000000000E+00 0.  1.
<mgrwt>
<rscale>  0 0.17469964E+04</rscale>
<asrwt>0</asrwt>
<pdfrwt beam="1">  1        2 0.26522251E+00 0.17469964E+04</pdfrwt>
<pdfrwt beam="2">  1       -2 0.68090566E-01 0.17469964E+04</pdfrwt>
<totfact> 0.17800646E+01</totfact>
</mgrwt>
</event>
<event>
 6    1  0.9988873E-007  0.1791808E+04  0.7818608E-02  0.8710668E-01
         -2   -1    0    0    0  501 -0.00000000000E+00  0.00000000000E+00  0.57307342688E+03  0.57307342688E+03  0.00000000000E+00 0.  1.
          2   -1    0    0  501    0  0.00000000000E+00 -0.00000000000E+00 -0.14005954409E+04  0.14005954409E+04  0.00000000000E+00 0. -1.
         23    2    1    2    0    0  0.41326920937E+03 -0.21750126762E+03  0.42433669919E+03  0.63753695862E+03  0.91068647163E+02 0.  0.
         13    1    3    3    0    0  0.11854871606E+03 -0.88435336270E+02  0.88048478001E+02  0.17212536495E+03  0.00000000000E+00 0.  1.
        -13    1    3    3    0    0  0.29472049332E+03 -0.12906593135E+03  0.33628822119E+03  0.46541159368E+03  0.00000000000E+00 0. -1.
         22    1    1    2    0    0 -0.41326920937E+03  0.21750126762E+03 -0.12518587133E+04  0.13361319092E+04  0.00000000000E+00 0. -1.
<mgrwt>
<rscale>  0 0.17918081E+04</rscale>
<asrwt>0</asrwt>
<pdfrwt beam="1">  1        2 0.21547622E+00 0.17918081E+04</pdfrwt>
<pdfrwt beam="2">  1       -2 0.88165144E-01 0.17918081E+04</pdfrwt>
<totfact> 0.15138215E+01</totfact>
</mgrwt>
</event>
<event>
 6    1  0.9988873E-007  0.6187686E+04  0.7818608E-02  0.7667557E-01
         -2   -1    0    0    0  501 -0.00000000000E+00  0.00000000000E+00  0.29601811527E+04  0.29601811527E+04  0.00000000000E+00 0.  1.
          2   -1    0    0  501    0  0.00000000000E+00 -0.00000000000E+00 -0.32335403154E+04  0.32335403154E+04  0.00000000000E+00 0. -1.
         23    2    1    2    0    0  0.41863514869E+03 -0.16366021191E+04 -0.27303812178E+04  0.32119972583E+04  0.90680257514E+02 0.  0.
         11    1    3    3    0    0  0.28761792515E+03 -0.94520431074E+03 -0.16041607528E+04  0.18840029142E+04  0.00000000000E+00 0. -1.
        -11    1    3    3    0    0  0.13101722354E+03 -0.69139780831E+03 -0.11262204650E+04  0.13279943441E+04  0.00000000000E+00 0.  1.
         22    1    1    2    0    0 -0.41863514869E+03  0.16366021191E+04  0.24570220551E+04  0.29817242098E+04  0.00000000000E+00 0.  1.
<mgrwt>
<rscale>  0 0.61876862E+04</rscale>
<asrwt>0</asrwt>
<pdfrwt beam="1">  1        2 0.49746774E+00 0.61876862E+04</pdfrwt>
<pdfrwt beam="2">  1       -2 0.45541248E+00 0.61876862E+04</pdfrwt>
<totfact> 0.26265537E-03</totfact>
</mgrwt>
</event>
<event>
 6    1  0.9988873E-007  0.2011109E+04  0.7818608E-02  0.8601445E-01
          2   -1    0    0  501    0  0.00000000000E+00  0.00000000000E+00  0.19946358139E+04  0.19946358139E+04  0.00000000000E+00 0. -1.
         -2   -1    0    0    0  501 -0.00000000000E+00 -0.00000000000E+00 -0.50692941384E+03  0.50692941384E+03  0.00000000000E+00 0.  1.
         23    2    1    2    0    0  0.20776390794E+03 -0.66903860773E+03 -0.14812550714E+03  0.72203592798E+03  0.92823571120E+02 0.  0.
         13    1    3    3    0    0  0.17492305324E+03 -0.54498650938E+03 -0.15667213459E+03  0.59342609288E+03  0.00000000000E+00 0. -1.
        -13    1    3    3    0    0  0.32840854701E+02 -0.12405209835E+03  0.85466274514E+01  0.12860983510E+03  0.00000000000E+00 0.  1.
         22    1    1    2    0    0 -0.20776390794E+03  0.66903860773E+03  0.16358319072E+04  0.17795292998E+04  0.00000000000E+00 0. -1.
<mgrwt>
<rscale>  0 0.20111087E+04</rscale>
<asrwt>0</asrwt>
<pdfrwt beam="1">  1        2 0.30686705E+00 0.20111087E+04</pdfrwt>
<pdfrwt beam="2">  1       -2 0.77989141E-01 0.20111087E+04</pdfrwt>
<totfact> 0.91385699E+00</totfact>
</mgrwt>
</event>
<event>
 6    1  0.9988873E-007  0.2200692E+04  0.7818608E-02  0.8518140E-01
          1   -1    0    0  501    0  0.00000000000E+00  0.00000000000E+00  0.17005093086E+04  0.17005093086E+04  0.00000000000E+00 0. -1.
         -1   -1    0    0    0  501 -0.00000000000E+00 -0.00000000000E+00 -0.71199900622E+03  0.71199900622E+03  0.00000000000E+00 0.  1.
         23    2    1    2    0    0  0.26090570560E+03  0.86398823040E+03  0.11830967360E+04  0.14892470681E+04  0.59929071367E+02 0.  0.
         11    1    3    3    0    0  0.53858061966E+02  0.20406107369E+03  0.31783105776E+03  0.38152089577E+03  0.00000000000E+00 0.  1.
        -11    1    3    3    0    0  0.20704764364E+03  0.65992715670E+03  0.86526567828E+03  0.11077261723E+04  0.00000000000E+00 0. -1.
         22    1    1    2    0    0 -0.26090570560E+03 -0.86398823040E+03 -0.19458643366E+03  0.92326124669E+03  0.00000000000E+00 0.  1.
<mgrwt>
<rscale>  0 0.22006917E+04</rscale>
<asrwt>0</asrwt>
<pdfrwt beam="1">  1        1 0.26161682E+00 0.22006917E+04</pdfrwt>
<pdfrwt beam="2">  1       -1 0.10953831E+00 0.22006917E+04</pdfrwt>
<totfact> 0.33461872E+00</totfact>
</mgrwt>
</event>
<event>
 6    1  0.9988873E-007  0.2301045E+03  0.7818608E-02  0.1126566E+00
          1   -1    0    0  501    0  0.00000000000E+00  0.00000000000E+00  0.51176975899E+03  0.51176975899E+03  0.00000000000E+00 0. -1.
         -1   -1    0    0    0  501 -0.00000000000E+00 -0.00000000000E+00 -0.25865190280E+02  0.25865190280E+02  0.00000000000E+00 0.  1.
         23    2    1    2    0    0  0.68014926005E+02 -0.67033668731E+02  0.27813027276E+03  0.30896553514E+03  0.94782437049E+02 0.  0.
         13    1    3    3    0    0 -0.27006249455E+01 -0.33331155863E+02  0.19452818551E+02  0.38686838535E+02  0.00000000000E+00 0. -1.
        -13    1    3    3    0    0  0.70715550951E+02 -0.33702512868E+02  0.25867745421E+03  0.27027869660E+03  0.00000000000E+00 0.  1.
         22    1    1    2    0    0 -0.68014926005E+02  0.67033668731E+02  0.20777429594E+03  0.22866941413E+03  0.00000000000E+00 0.  1.
<mgrwt>
<rscale>  0 0.23010452E+03</rscale>
<asrwt>0</asrwt>
<pdfrwt beam="1">  1        1 0.78733802E-01 0.23010452E+03</pdfrwt>
<pdfrwt beam="2">  1       -1 0.39792604E-02 0.23010452E+03</pdfrwt>
<totfact> 0.10685354E+04</totfact>
</mgrwt>
</event>
<event>
 6    1  0.9988873E-007  0.2795652E+04  0.7818608E-02  0.8304620E-01
         -2   -1    0    0    0  501 -0.00000000000E+00  0.00000000000E+00  0.31902395236E+04  0.31902395236E+04  0.00000000000E+00 0.  1.
          2   -1    0    0  501    0  0.00000000000E+00 -0.00000000000E+00 -0.61246733557E+03  0.61246733557E+03  0.00000000000E+00 0. -1.
         23    2    1    2    0    0  0.10369949330E+04 -0.26540297555E+03  0.25098804503E+04  0.27301368062E+04  0.91377651530E+02 0.  0.
         11    1    3    3    0    0  0.75093557915E+03 -0.20316158049E+03  0.17197783540E+04  0.18875424389E+04  0.00000000000E+00 0.  1.
        -11    1    3    3    0    0  0.28605935390E+03 -0.62241395061E+02  0.79010209627E+03  0.84259436726E+03  0.00000000000E+00 0. -1.
         22    1    1    2    0    0 -0.10369949330E+04  0.26540297555E+03  0.67891737801E+02  0.10725700530E+04  0.00000000000E+00 0. -1.
<mgrwt>
<rscale>  0 0.27956520E+04</rscale>
<asrwt>0</asrwt>
<pdfrwt beam="1">  1        2 0.94225746E-01 0.27956520E+04</pdfrwt>
<pdfrwt beam="2">  1       -2 0.49080607E+00 0.27956520E+04</pdfrwt>
<totfact> 0.79063964E-02</totfact>
</mgrwt>
</event>
<event>
 6    1  0.9988873E-007  0.1787641E+04  0.7818608E-02  0.8712899E-01
          1   -1    0    0  501    0  0.00000000000E+00  0.00000000000E+00  0.18559242537E+04  0.18559242537E+04  0.00000000000E+00 0. -1.
         -1   -1    0    0    0  501 -0.00000000000E+00 -0.00000000000E+00 -0.43046758545E+03  0.43046758545E+03  0.00000000000E+00 0.  1.
         23    2    1    2    0    0  0.69642444028E+03 -0.27775833497E+03  0.97897729516E+02  0.76173796713E+03  0.92217522507E+02 0.  0.
         13    1    3    3    0    0  0.32515175099E+03 -0.17882875394E+03  0.41606490081E+02  0.37340927201E+03  0.00000000000E+00 0.  1.
        -13    1    3    3    0    0  0.37127268928E+03 -0.98929581034E+02  0.56291239435E+02  0.38832869511E+03  0.00000000000E+00 0. -1.
         22    1    1    2    0    0 -0.69642444028E+03  0.27775833497E+03  0.13275589387E+04  0.15246538720E+04  0.00000000000E+00 0. -1.
<mgrwt>
<rscale>  0 0.17876412E+04</rscale>
<asrwt>0</asrwt>
<pdfrwt beam="1">  1        1 0.28552680E+00 0.17876412E+04</pdfrwt>
<pdfrwt beam="2">  1       -1 0.66225783E-01 0.17876412E+04</pdfrwt>
<totfact> 0.81469567E+00</totfact>
</mgrwt>
</event>
<event>
 6    1  0.9988873E-007  0.8944034E+03  0.7818608E-02  0.9432605E-01
         -1   -1    0    0    0  501 -0.00000000000E+00  0.00000000000E+00  0.61852188771E+03  0.61852188771E+03  0.00000000000E+00 0.  1.
          1   -1    0    0  501    0  0.00000000000E+00 -0.00000000000E+00 -0.32333434023E+03  0.32333434023E+03  0.00000000000E+00 0. -1.
         23    2    1    2    0    0  0.61567176519E+02 -0.35367133295E+03 -0.12343133796E+03  0.39038936564E+03  0.91074873807E+02 0.  0.
         11    1    3    3    0    0  0.69589739139E+02 -0.17208862478E+03 -0.87049948011E+02  0.20502419375E+03  0.00000000000E+00 0. -1.
        -11    1    3    3    0    0 -0.80225626198E+01 -0.18158270817E+03 -0.36381389951E+02  0.18536517189E+03  0.00000000000E+00 0.  1.
         22    1    1    2    0    0 -0.61567176519E+02  0.35367133295E+03  0.41861888544E+03  0.55146686231E+03  0.00000000000E+00 0.  1.
<mgrwt>
<rscale>  0 0.89440341E+03</rscale>
<asrwt>0</asrwt>
<pdfrwt beam="1">  1        1 0.49743745E-01 0.89440341E+03</pdfrwt>
<pdfrwt beam="2">  1       -1 0.95157213E-01 0.89440341E+03</pdfrwt>
<totfact> 0.85537447E+01</totfact>
</mgrwt>
</event>
<event>
 6    1  0.9988873E-007  0.5028309E+04  0.7818608E-02  0.7824155E-01
          1   -1    0    0  501    0  0.00000000000E+00  0.00000000000E+00  0.34376052178E+04  0.34376052178E+04  0.00000000000E+00 0. -1.
         -1   -1    0    0    0  501 -0.00000000000E+00 -0.00000000000E+00 -0.18387719173E+04  0.18387719173E+04  0.00000000000E+00 0.  1.
         23    2    1    2    0    0  0.67234952187E+03 -0.75881618704E+03 -0.16135601249E+04  0.19077977008E+04  0.90884020618E+02 0.  0.
         11    1    3    3    0    0  0.53910305239E+03 -0.57736644115E+03 -0.11938256843E+04  0.14315040597E+04  0.00000000000E+00 0.  1.
        -11    1    3    3    0    0  0.13324646948E+03 -0.18144974589E+03 -0.41973444059E+03  0.47629364108E+03  0.00000000000E+00 0. -1.
         22    1    1    2    0    0 -0.67234952187E+03  0.75881618704E+03  0.32123934254E+04  0.33685794343E+04  0.00000000000E+00 0. -1.
<mgrwt>
<rscale>  0 0.50283086E+04</rscale>
<asrwt>0</asrwt>
<pdfrwt beam="1">  1        1 0.52886234E+00 0.50283086E+04</pdfrwt>
<pdfrwt beam="2">  1       -1 0.28288799E+00 0.50283086E+04</pdfrwt>
<totfact> 0.85817161E-03</totfact>
</mgrwt>
</event>
<event>
 6    1  0.9988873E-007  0.4127103E+04  0.7818608E-02  0.7979385E-01
         -1   -1    0    0    0  501 -0.00000000000E+00  0.00000000000E+00  0.18222048029E+04  0.18222048029E+04  0.00000000000E+00 0.  1.
          1   -1    0    0  501    0  0.00000000000E+00 -0.00000000000E+00 -0.23368643873E+04  0.23368643873E+04  0.00000000000E+00 0. -1.
         23    2    1    2    0    0  0.12187773678E+04 -0.11671860924E+04  0.93779773372E+03  0.19325530983E+04  0.86920894674E+02 0.  0.
         11    1    3    3    0    0  0.83280537735E+03 -0.79767671942E+03  0.59414996436E+03  0.12972536858E+04  0.00000000000E+00 0. -1.
        -11    1    3    3    0    0  0.38597199040E+03 -0.36950937295E+03  0.34364776936E+03  0.63529941245E+03  0.00000000000E+00 0.  1.
         22    1    1    2    0    0 -0.12187773678E+04  0.11671860924E+04 -0.14524573182E+04  0.22265160919E+04  0.00000000000E+00 0. -1.
<mgrwt>
<rscale>  0 0.41271033E+04</rscale>
<asrwt>0</asrwt>
<pdfrwt beam="1">  1        1 0.35951760E+00 0.41271033E+04</pdfrwt>
<pdfrwt beam="2">  1       -1 0.28033920E+00 0.41271033E+04</pdfrwt>
<totfact> 0.60229257E-02</totfact>
</mgrwt>
</event>
<event>
 6    1  0.9988873E-007  0.7879675E+04  0.7818608E-02  0.7492945E-01
         -1   -1    0    0    0  501 -0.00000000000E+00  0.00000000000E+00  0.42989289223E+04  0.42989289223E+04  0.00000000000E+00 0.  1.
          1   -1    0    0  501    0  0.00000000000E+00 -0.00000000000E+00 -0.36107407957E+04  0.36107407957E+04  0.00000000000E+00 0. -1.
         23    2    1    2    0    0  0.96313216613E+03  0.20471136157E+04 -0.28930153063E+04  0.36737146010E+04  0.91343760765E+02 0.  0.
         11    1    3    3    0    0  0.51429212454E+03  0.11732134646E+04 -0.16854974353E+04  0.21170327885E+04  0.00000000000E+00 0.  1.
        -11    1    3    3    0    0  0.44884004159E+03  0.87390015107E+03 -0.12075178710E+04  0.15566818126E+04  0.00000000000E+00 0. -1.
         22    1    1    2    0    0 -0.96313216613E+03 -0.20471136157E+04  0.35812034329E+04  0.42359551169E+04  0.00000000000E+00 0.  1.
<mgrwt>
<rscale>  0 0.78796746E+04</rscale>
<asrwt>0</asrwt>
<pdfrwt beam="1">  1        1 0.55549859E+00 0.78796746E+04</pdfrwt>
<pdfrwt beam="2">  1       -1 0.66137367E+00 0.78796746E+04</pdfrwt>
<totfact> 0.32980043E-05</totfact>
</mgrwt>
</event>
<event>
 6    1  0.9988873E-007  0.4011853E+04  0.7818608E-02  0.8002160E-01
          2   -1    0    0  501    0  0.00000000000E+00  0.00000000000E+00  0.19771831837E+04  0.19771831837E+04  0.00000000000E+00 0. -1.
         -2   -1    0    0    0  501 -0.00000000000E+00 -0.00000000000E+00 -0.20350871838E+04  0.20350871838E+04  0.00000000000E+00 0.  1.
         23    2    1    2    0    0  0.10619727116E+04 -0.13504385143E+04 -0.10626315637E+04  0.20220573893E+04  0.89777638936E+02 0.  0.
         13    1    3    3    0    0  0.10117985561E+04 -0.12928462344E+04 -0.10355385022E+04  0.19410120282E+04  0.00000000000E+00 0. -1.
        -13    1    3    3    0    0  0.50174155496E+02 -0.57592279926E+02 -0.27093061504E+02  0.81045361178E+02  0.00000000000E+00 0.  1.
         22    1    1    2    0    0 -0.10619727116E+04  0.13504385143E+04  0.10047275636E+04  0.19902129781E+04  0.00000000000E+00 0. -1.
<mgrwt>
<rscale>  0 0.40118525E+04</rscale>
<asrwt>0</asrwt>
<pdfrwt beam="1">  1        2 0.30418203E+00 0.40118525E+04</pdfrwt>
<pdfrwt beam="2">  1       -2 0.31309034E+00 0.40118525E+04</pdfrwt>
<totfact> 0.14320345E-01</totfact>
</mgrwt>
</event>
<event>
 6    1  0.9988873E-007  0.1848210E+04  0.7818608E-02  0.8681074E-01
         -1   -1    0    0    0  501 -0.00000000000E+00  0.00000000000E+00  0.10890990019E+04  0.10890990019E+04  0.00000000000E+00 0.  1.
          1   -1    0    0  501    0  0.00000000000E+00 -0.00000000000E+00 -0.78410693304E+03  0.78410693304E+03  0.00000000000E+00 0. -1.
         23    2    1    2    0    0  0.42848303442E+03 -0.80926465245E+03  0.44910008126E+02  0.92128699576E+03  0.90806559406E+02 0.  0.
         13    1    3    3    0    0  0.17986243707E+03 -0.41296080693E+03  0.51825370600E+02  0.45340158069E+03  0.00000000000E+00 0. -1.
        -13    1    3    3    0    0  0.24862059735E+03 -0.39630384552E+03 -0.69153624738E+01  0.46788541507E+03  0.00000000000E+00 0.  1.
         22    1    1    2    0    0 -0.42848303442E+03  0.80926465245E+03  0.26008206075E+03  0.95191893921E+03  0.00000000000E+00 0.  1.
<mgrwt>
<rscale>  0 0.18482100E+04</rscale>
<asrwt>0</asrwt>
<pdfrwt beam="1">  1        1 0.12063184E+00 0.18482100E+04</pdfrwt>
<pdfrwt beam="2">  1       -1 0.16755369E+00 0.18482100E+04</pdfrwt>
<totfact> 0.55036727E+00</totfact>
</mgrwt>
</event>
<event>
 6    1  0.9988873E-007  0.1966473E+04  0.7818608E-02  0.8622458E-01
         -2   -1    0    0    0  501 -0.00000000000E+00  0.00000000000E+00  0.28657718895E+03  0.28657718895E+03  0.00000000000E+00 0.  1.
          2   -1    0    0  501    0  0.00000000000E+00 -0.00000000000E+00 -0.33734508228E+04  0.33734508228E+04  0.00000000000E+00 0. -1.
         23    2    1    2    0    0 -0.54782860565E+03  0.59486605316E+03 -0.25807638590E+04  0.27060212473E+04  0.90703323268E+02 0.  0.
         11    1    3    3    0    0 -0.24747620440E+03  0.33562908926E+03 -0.13186333640E+04  0.13829986645E+04  0.00000000000E+00 0.  1.
        -11    1    3    3    0    0 -0.30035240125E+03  0.25923696390E+03 -0.12621304950E+04  0.13230225829E+04  0.00000000000E+00 0. -1.
         22    1    1    2    0    0  0.54782860565E+03 -0.59486605316E+03 -0.50610977494E+03  0.95400676448E+03  0.00000000000E+00 0.  1.
<mgrwt>
<rscale>  0 0.19664730E+04</rscale>
<asrwt>0</asrwt>
<pdfrwt beam="1">  1        2 0.51899240E+00 0.19664730E+04</pdfrwt>
<pdfrwt beam="2">  1       -2 0.44088801E-01 0.19664730E+04</pdfrwt>
<totfact> 0.45401064E+00</totfact>
</mgrwt>
</event>
<event>
 6    1  0.9988873E-007  0.1503759E+04  0.7818608E-02  0.8881957E-01
         -2   -1    0    0    0  501 -0.00000000000E+00  0.00000000000E+00  0.40873174276E+03  0.40873174276E+03  0.00000000000E+00 0.  1.
          2   -1    0    0  501    0  0.00000000000E+00 -0.00000000000E+00 -0.13831137827E+04  0.13831137827E+04  0.00000000000E+00 0. -1.
         23    2    1    2    0    0  0.23436793891E+02 -0.25487427839E+03 -0.13278073422E+04  0.13554745532E+04  0.93427754750E+02 0.  0.
         11    1    3    3    0    0  0.35615529956E+02 -0.25648282030E+03 -0.12896216899E+04  0.13153615496E+04  0.00000000000E+00 0. -1.
        -11    1    3    3    0    0 -0.12178736066E+02  0.16085419163E+01 -0.38185652356E+02  0.40113003691E+02  0.00000000000E+00 0.  1.
         22    1    1    2    0    0 -0.23436793891E+02  0.25487427839E+03  0.35342530228E+03  0.43637097221E+03  0.00000000000E+00 0.  1.
<mgrwt>
<rscale>  0 0.15037586E+04</rscale>
<asrwt>0</asrwt>
<pdfrwt beam="1">  1        2 0.21278674E+00 0.15037586E+04</pdfrwt>
<pdfrwt beam="2">  1       -2 0.62881806E-01 0.15037586E+04</pdfrwt>
<totfact> 0.33499230E+01</totfact>
</mgrwt>
</event>
<event>
 6    1  0.9988873E-007  0.1879370E+04  0.7818608E-02  0.8665194E-01
          1   -1    0    0  501    0  0.00000000000E+00  0.00000000000E+00  0.11916586147E+04  0.11916586147E+04  0.00000000000E+00 0. -1.
         -1   -1    0    0    0  501 -0.00000000000E+00 -0.00000000000E+00 -0.74099104408E+03  0.74099104408E+03  0.00000000000E+00 0.  1.
         23    2    1    2    0    0 -0.87587390214E+02  0.90853939922E+03  0.58592654054E+01  0.91728281907E+03  0.90873804284E+02 0.  0.
         13    1    3    3    0    0 -0.80050593256E+02  0.63319574839E+03  0.41272468250E+02  0.63956889378E+03  0.00000000000E+00 0. -1.
        -13    1    3    3    0    0 -0.75367969587E+01  0.27534365083E+03 -0.35413202845E+02  0.27771392529E+03  0.00000000000E+00 0.  1.
         22    1    1    2    0    0  0.87587390214E+02 -0.90853939922E+03  0.44480830526E+03  0.10153668398E+04  0.00000000000E+00 0. -1.
<mgrwt>
<rscale>  0 0.18793705E+04</rscale>
<asrwt>0</asrwt>
<pdfrwt beam="1">  1        1 0.18333209E+00 0.18793705E+04</pdfrwt>
<pdfrwt beam="2">  1       -1 0.11399862E+00 0.18793705E+04</pdfrwt>
<totfact> 0.71205700E+00</totfact>
</mgrwt>
</event>
<event>
 6    1  0.9988873E-007  0.4221458E+04  0.7818608E-02  0.7961303E-01
         -2   -1    0    0    0  501 -0.00000000000E+00  0.00000000000E+00  0.14932571901E+04  0.14932571901E+04  0.00000000000E+00 0.  1.
          2   -1    0    0  501    0  0.00000000000E+00 -0.00000000000E+00 -0.29835296876E+04  0.29835296876E+04  0.00000000000E+00 0. -1.
         23    2    1    2    0    0  0.20389033449E+04 -0.15659315525E+03 -0.12955018002E+04  0.24226243012E+04  0.95578891117E+02 0.  0.
         13    1    3    3    0    0  0.95869357701E+03 -0.34930329408E+02 -0.57417784292E+03  0.11180311703E+04  0.00000000000E+00 0.  1.
        -13    1    3    3    0    0  0.10802097679E+04 -0.12166282584E+03 -0.72132395732E+03  0.13045931309E+04  0.00000000000E+00 0. -1.
         22    1    1    2    0    0 -0.20389033449E+04  0.15659315525E+03 -0.19477069733E+03  0.20541625765E+04  0.00000000000E+00 0.  1.
<mgrwt>
<rscale>  0 0.42214581E+04</rscale>
<asrwt>0</asrwt>
<pdfrwt beam="1">  1        2 0.45900456E+00 0.42214581E+04</pdfrwt>
<pdfrwt beam="2">  1       -2 0.22973188E+00 0.42214581E+04</pdfrwt>
<totfact> 0.11852780E-01</totfact>
</mgrwt>
</event>
<event>
 6    1  0.9988873E-007  0.2697982E+04  0.7818608E-02  0.8335660E-01
         -1   -1    0    0    0  501 -0.00000000000E+00  0.00000000000E+00  0.10834809288E+04  0.10834809288E+04  0.00000000000E+00 0.  1.
          1   -1    0    0  501    0  0.00000000000E+00 -0.00000000000E+00 -0.16795653825E+04  0.16795653825E+04  0.00000000000E+00 0. -1.
         23    2    1    2    0    0  0.26270844915E+03 -0.80927249947E+03 -0.13683890209E+04  0.16139631759E+04  0.91928847941E+02 0.  0.
         11    1    3    3    0    0  0.81207466717E+02 -0.26446317923E+03 -0.52847984561E+03  0.59651183813E+03  0.00000000000E+00 0.  1.
        -11    1    3    3    0    0  0.18150098243E+03 -0.54480932024E+03 -0.83990917529E+03  0.10174513378E+04  0.00000000000E+00 0. -1.
         22    1    1    2    0    0 -0.26270844915E+03  0.80927249947E+03  0.77230456715E+03  0.11490831354E+04  0.00000000000E+00 0.  1.
<mgrwt>
<rscale>  0 0.26979823E+04</rscale>
<asrwt>0</asrwt>
<pdfrwt beam="1">  1        1 0.25839467E+00 0.26979823E+04</pdfrwt>
<pdfrwt beam="2">  1       -1 0.16668937E+00 0.26979823E+04</pdfrwt>
<totfact> 0.11189725E+00</totfact>
</mgrwt>
</event>
<event>
 6    1  0.9988873E-007  0.3630966E+04  0.7818608E-02  0.8083435E-01
          1   -1    0    0  501    0  0.00000000000E+00  0.00000000000E+00  0.22095988329E+04  0.22095988329E+04  0.00000000000E+00 0. -1.
         -1   -1    0    0    0  501 -0.00000000000E+00 -0.00000000000E+00 -0.14916637823E+04  0.14916637823E+04  0.00000000000E+00 0.  1.
         23    2    1    2    0    0 -0.10484767689E+04  0.81963840481E+03  0.16162542675E+04  0.20956200445E+04  0.90746151532E+02 0.  0.
         11    1    3    3    0    0 -0.95184955137E+03  0.74506742977E+03  0.15062894419E+04  0.19313339758E+04  0.00000000000E+00 0. -1.
        -11    1    3    3    0    0 -0.96627217554E+02  0.74570975040E+02  0.10996482561E+03  0.16428606868E+03  0.00000000000E+00 0.  1.
         22    1    1    2    0    0  0.10484767689E+04 -0.81963840481E+03 -0.89831921692E+03  0.16056425708E+04  0.00000000000E+00 0.  1.
<mgrwt>
<rscale>  0 0.36309660E+04</rscale>
<asrwt>0</asrwt>
<pdfrwt beam="1">  1        1 0.33993828E+00 0.36309660E+04</pdfrwt>
<pdfrwt beam="2">  1       -1 0.22948674E+00 0.36309660E+04</pdfrwt>
<totfact> 0.16475568E-01</totfact>
</mgrwt>
</event>
<event>
 6    1  0.9988873E-007  0.2259147E+04  0.7818608E-02  0.8494205E-01
          2   -1    0    0  501    0  0.00000000000E+00  0.00000000000E+00  0.10840928543E+04  0.10840928543E+04  0.00000000000E+00 0. -1.
         -2   -1    0    0    0  501 -0.00000000000E+00 -0.00000000000E+00 -0.11769624542E+04  0.11769624542E+04  0.00000000000E+00 0.  1.
         23    2    1    2    0    0 -0.56780938378E+02  0.10099078571E+04  0.45231367139E+03  0.11119849215E+04  0.93727549869E+02 0.  0.
         13    1    3    3    0    0 -0.20349800333E+02  0.87250591255E+03  0.40530155876E+03  0.96226297619E+03  0.00000000000E+00 0. -1.
        -13    1    3    3    0    0 -0.36431138045E+02  0.13740194453E+03  0.47012112630E+02  0.14972194533E+03  0.00000000000E+00 0.  1.
         22    1    1    2    0    0  0.56780938378E+02 -0.10099078571E+04 -0.54518327131E+03  0.11490703869E+04  0.00000000000E+00 0. -1.
<mgrwt>
<rscale>  0 0.22591473E+04</rscale>
<asrwt>0</asrwt>
<pdfrwt beam="1">  1        2 0.16678352E+00 0.22591473E+04</pdfrwt>
<pdfrwt beam="2">  1       -2 0.18107115E+00 0.22591473E+04</pdfrwt>
<totfact> 0.36135160E+00</totfact>
</mgrwt>
</event>
<event>
 6    1  0.9988873E-007  0.4077249E+04  0.7818608E-02  0.7989142E-01
         -2   -1    0    0    0  501 -0.00000000000E+00  0.00000000000E+00  0.92361631389E+03  0.92361631389E+03  0.00000000000E+00 0.  1.
          2   -1    0    0  501    0  0.00000000000E+00 -0.00000000000E+00 -0.44996940195E+04  0.44996940195E+04  0.00000000000E+00 0. -1.
         23    2    1    2    0    0  0.14429909485E+04 -0.13968889334E+04 -0.13306093176E+04  0.24107284090E+04  0.86998483903E+02 0.  0.
         11    1    3    3    0    0  0.59219741318E+03 -0.53752849833E+03 -0.57059304204E+03  0.98245156742E+03  0.00000000000E+00 0.  1.
        -11    1    3    3    0    0  0.85079353529E+03 -0.85936043508E+03 -0.76001627554E+03  0.14282768416E+04  0.00000000000E+00 0. -1.
         22    1    1    2    0    0 -0.14429909485E+04  0.13968889334E+04 -0.22454683880E+04  0.30125819244E+04  0.00000000000E+00 0. -1.
<mgrwt>
<rscale>  0 0.40772495E+04</rscale>
<asrwt>0</asrwt>
<pdfrwt beam="1">  1        2 0.69226062E+00 0.40772495E+04</pdfrwt>
<pdfrwt beam="2">  1       -2 0.14209482E+00 0.40772495E+04</pdfrwt>
<totfact> 0.33116509E-02</totfact>
</mgrwt>
</event>
<event>
 6    1  0.9988873E-007  0.2594773E+04  0.7818608E-02  0.8369979E-01
          1   -1    0    0  501    0  0.00000000000E+00  0.00000000000E+00  0.16255815049E+04  0.16255815049E+04  0.00000000000E+00 0. -1.
         -1   -1    0    0    0  501 -0.00000000000E+00 -0.00000000000E+00 -0.10354517114E+04  0.10354517114E+04  0.00000000000E+00 0.  1.
         23    2    1    2    0    0  0.19774509019E+03  0.76269885674E+03  0.13502656140E+04  0.15662185598E+04  0.94924611964E+02 0.  0.
         13    1    3    3    0    0  0.73100410655E+02  0.29523220692E+03  0.43239484858E+03  0.52865019731E+03  0.00000000000E+00 0. -1.
        -13    1    3    3    0    0  0.12464467954E+03  0.46746664982E+03  0.91787076539E+03  0.10375683625E+04  0.00000000000E+00 0.  1.
         22    1    1    2    0    0 -0.19774509019E+03 -0.76269885674E+03 -0.76013582046E+03  0.10948146566E+04  0.00000000000E+00 0.  1.
<mgrwt>
<rscale>  0 0.25947726E+04</rscale>
<asrwt>0</asrwt>
<pdfrwt beam="1">  1        1 0.25008946E+00 0.25947726E+04</pdfrwt>
<pdfrwt beam="2">  1       -1 0.15930026E+00 0.25947726E+04</pdfrwt>
<totfact> 0.13969712E+00</totfact>
</mgrwt>
</event>
<event>
 6    1  0.9988873E-007  0.1863756E+04  0.7818608E-02  0.8673111E-01
          4   -1    0    0  501    0  0.00000000000E+00  0.00000000000E+00  0.37971654213E+03  0.37971654213E+03  0.00000000000E+00 0. -1.
         -4   -1    0    0    0  501 -0.00000000000E+00 -0.00000000000E+00 -0.22869605489E+04  0.22869605489E+04  0.00000000000E+00 0.  1.
         23    2    1    2    0    0  0.68579300371E+03 -0.62284984452E+03 -0.84413338202E+03  0.12565500850E+04  0.90016535453E+02 0.  0.
         13    1    3    3    0    0  0.39025328108E+03 -0.30503516407E+03 -0.48502606776E+03  0.69324913352E+03  0.00000000000E+00 0. -1.
        -13    1    3    3    0    0  0.29553972263E+03 -0.31781468044E+03 -0.35910731426E+03  0.56330095146E+03  0.00000000000E+00 0.  1.
         22    1    1    2    0    0 -0.68579300371E+03  0.62284984452E+03 -0.10631106248E+04  0.14101270061E+04  0.00000000000E+00 0.  1.
<mgrwt>
<rscale>  0 0.18637562E+04</rscale>
<asrwt>0</asrwt>
<pdfrwt beam="1">  1        4 0.58417930E-01 0.18637562E+04</pdfrwt>
<pdfrwt beam="2">  1       -4 0.35184008E+00 0.18637562E+04</pdfrwt>
<totfact> 0.75639054E-02</totfact>
</mgrwt>
</event>
<event>
 6    1  0.9988873E-007  0.1744837E+04  0.7818608E-02  0.8736197E-01
          2   -1    0    0  501    0  0.00000000000E+00  0.00000000000E+00  0.13670860437E+04  0.13670860437E+04  0.00000000000E+00 0. -1.
         -2   -1    0    0    0  501 -0.00000000000E+00 -0.00000000000E+00 -0.55674203883E+03  0.55674203883E+03  0.00000000000E+00 0.  1.
         23    2    1    2    0    0  0.25932284173E+03  0.47649720213E+03  0.11560056906E+04  0.12805708083E+04  0.95992283341E+02 0.  0.
         11    1    3    3    0    0  0.24048601839E+03  0.37036328338E+03  0.88922104582E+03  0.99283259165E+03  0.00000000000E+00 0. -1.
        -11    1    3    3    0    0  0.18836823339E+02  0.10613391876E+03  0.26678464479E+03  0.28773821664E+03  0.00000000000E+00 0.  1.
         22    1    1    2    0    0 -0.25932284173E+03 -0.47649720213E+03 -0.34566168573E+03  0.64325727424E+03  0.00000000000E+00 0.  1.
<mgrwt>
<rscale>  0 0.17448373E+04</rscale>
<asrwt>0</asrwt>
<pdfrwt beam="1">  1        2 0.21032093E+00 0.17448373E+04</pdfrwt>
<pdfrwt beam="2">  1       -2 0.85652622E-01 0.17448373E+04</pdfrwt>
<totfact> 0.16971188E+01</totfact>
</mgrwt>
</event>
<event>
 6    1  0.9988873E-007  0.1597059E+04  0.7818608E-02  0.8822357E-01
         -2   -1    0    0    0  501 -0.00000000000E+00  0.00000000000E+00  0.40698426712E+03  0.40698426712E+03  0.00000000000E+00 0.  1.
          2   -1    0    0  501    0  0.00000000000E+00 -0.00000000000E+00 -0.15667669496E+04  0.15667669496E+04  0.00000000000E+00 0. -1.
         23    2    1    2    0    0  0.18717977995E+03 -0.16888773274E+03 -0.15147861191E+04  0.15383355805E+04  0.91323793846E+02 0.  0.
         13    1    3    3    0    0  0.27969709972E+02 -0.79613222932E+02 -0.54978645757E+03  0.55622452200E+03  0.00000000000E+00 0.  1.
        -13    1    3    3    0    0  0.15921006998E+03 -0.89274509803E+02 -0.96499966150E+03  0.98211105847E+03  0.00000000000E+00 0. -1.
         22    1    1    2    0    0 -0.18717977995E+03  0.16888773274E+03  0.35500343660E+03  0.43541563625E+03  0.00000000000E+00 0.  1.
<mgrwt>
<rscale>  0 0.15970592E+04</rscale>
<asrwt>0</asrwt>
<pdfrwt beam="1">  1        2 0.24104107E+00 0.15970592E+04</pdfrwt>
<pdfrwt beam="2">  1       -2 0.62612964E-01 0.15970592E+04</pdfrwt>
<totfact> 0.26408269E+01</totfact>
</mgrwt>
</event>
<event>
 6    1  0.9988873E-007  0.2301951E+04  0.7818608E-02  0.8477152E-01
          1   -1    0    0  501    0  0.00000000000E+00  0.00000000000E+00  0.13061311670E+04  0.13061311670E+04  0.00000000000E+00 0. -1.
         -1   -1    0    0    0  501 -0.00000000000E+00 -0.00000000000E+00 -0.10142510909E+04  0.10142510909E+04  0.00000000000E+00 0.  1.
         23    2    1    2    0    0 -0.89611937366E+03  0.39058422211E+03  0.75519433697E+03  0.12386031350E+04  0.90737384999E+02 0.  0.
         11    1    3    3    0    0 -0.39018610989E+03  0.12796791357E+03  0.28774555598E+03  0.50141648581E+03  0.00000000000E+00 0.  1.
        -11    1    3    3    0    0 -0.50593326377E+03  0.26261630854E+03  0.46744878099E+03  0.73718664919E+03  0.00000000000E+00 0. -1.
         22    1    1    2    0    0  0.89611937366E+03 -0.39058422211E+03 -0.46331426080E+03  0.10817791229E+04  0.00000000000E+00 0.  1.
<mgrwt>
<rscale>  0 0.23019513E+04</rscale>
<asrwt>0</asrwt>
<pdfrwt beam="1">  1        1 0.20094326E+00 0.23019513E+04</pdfrwt>
<pdfrwt beam="2">  1       -1 0.15603863E+00 0.23019513E+04</pdfrwt>
<totfact> 0.25357112E+00</totfact>
</mgrwt>
</event>
<event>
 6    1  0.9988873E-007  0.2053541E+04  0.7818608E-02  0.8581990E-01
          2   -1    0    0  501    0  0.00000000000E+00  0.00000000000E+00  0.53172288227E+03  0.53172288227E+03  0.00000000000E+00 0. -1.
         -2   -1    0    0    0  501 -0.00000000000E+00 -0.00000000000E+00 -0.19827196181E+04  0.19827196181E+04  0.00000000000E+00 0.  1.
         23    2    1    2    0    0  0.59925420826E+03 -0.12239111471E+03 -0.17336411766E+04  0.18406672626E+04  0.91973100265E+02 0.  0.
         13    1    3    3    0    0  0.35454095422E+03 -0.10770415891E+03 -0.11275370889E+04  0.11868611380E+04  0.00000000000E+00 0.  1.
        -13    1    3    3    0    0  0.24471325404E+03 -0.14686955801E+02 -0.60610408768E+03  0.65380612454E+03  0.00000000000E+00 0. -1.
         22    1    1    2    0    0 -0.59925420826E+03  0.12239111471E+03  0.28264444083E+03  0.67377523775E+03  0.00000000000E+00 0. -1.
<mgrwt>
<rscale>  0 0.20535407E+04</rscale>
<asrwt>0</asrwt>
<pdfrwt beam="1">  1        2 0.81803524E-01 0.20535407E+04</pdfrwt>
<pdfrwt beam="2">  1       -2 0.30503377E+00 0.20535407E+04</pdfrwt>
<totfact> 0.15706623E+00</totfact>
</mgrwt>
</event>
<event>
 6    1  0.9988873E-007  0.9850360E+03  0.7818608E-02  0.9325111E-01
         -2   -1    0    0    0  501 -0.00000000000E+00  0.00000000000E+00  0.41573432584E+03  0.41573432584E+03  0.00000000000E+00 0.  1.
          2   -1    0    0  501    0  0.00000000000E+00 -0.00000000000E+00 -0.58348322210E+03  0.58348322210E+03  0.00000000000E+00 0. -1.
         23    2    1    2    0    0 -0.17497034295E+03  0.37171079708E+03 -0.35265560350E+03  0.54869115808E+03  0.88952092125E+02 0.  0.
         13    1    3    3    0    0 -0.11050166298E+03  0.20277822307E+03 -0.14209000968E+03  0.27114423491E+03  0.00000000000E+00 0.  1.
        -13    1    3    3    0    0 -0.64468679967E+02  0.16893257401E+03 -0.21056559382E+03  0.27754692317E+03  0.00000000000E+00 0. -1.
         22    1    1    2    0    0  0.17497034295E+03 -0.37171079708E+03  0.18490670724E+03  0.45052638986E+03  0.00000000000E+00 0.  1.
<mgrwt>
<rscale>  0 0.98503605E+03</rscale>
<asrwt>0</asrwt>
<pdfrwt beam="1">  1        2 0.89766649E-01 0.98503605E+03</pdfrwt>
<pdfrwt beam="2">  1       -2 0.63959127E-01 0.98503605E+03</pdfrwt>
<totfact> 0.11592746E+02</totfact>
</mgrwt>
</event>
<event>
 6    1  0.9988873E-007  0.2681033E+04  0.7818608E-02  0.8341185E-01
          2   -1    0    0  501    0  0.00000000000E+00  0.00000000000E+00  0.25513542101E+04  0.25513542101E+04  0.00000000000E+00 0. -1.
         -2   -1    0    0    0  501 -0.00000000000E+00 -0.00000000000E+00 -0.70432597337E+03  0.70432597337E+03  0.00000000000E+00 0.  1.
         23    2    1    2    0    0  0.12184547681E+04  0.45771638607E+03  0.13058391073E+04  0.18460625098E+04  0.92707626551E+02 0.  0.
         13    1    3    3    0    0  0.10915890240E+04  0.39545051724E+03  0.11261221855E+04  0.16174358985E+04  0.00000000000E+00 0.  1.
        -13    1    3    3    0    0  0.12686574408E+03  0.62265868831E+02  0.17971692176E+03  0.22862661133E+03  0.00000000000E+00 0. -1.
         22    1    1    2    0    0 -0.12184547681E+04 -0.45771638607E+03  0.54118912941E+03  0.14096176736E+04  0.00000000000E+00 0. -1.
<mgrwt>
<rscale>  0 0.26810334E+04</rscale>
<asrwt>0</asrwt>
<pdfrwt beam="1">  1        2 0.39251603E+00 0.26810334E+04</pdfrwt>
<pdfrwt beam="2">  1       -2 0.10835784E+00 0.26810334E+04</pdfrwt>
<totfact> 0.19450288E+00</totfact>
</mgrwt>
</event>
<event>
 6    1  0.9988873E-007  0.2857809E+04  0.7818608E-02  0.8285542E-01
         -2   -1    0    0    0  501 -0.00000000000E+00  0.00000000000E+00  0.28563574743E+04  0.28563574743E+04  0.00000000000E+00 0.  1.
          2   -1    0    0  501    0  0.00000000000E+00 -0.00000000000E+00 -0.71481537996E+03  0.71481537996E+03  0.00000000000E+00 0. -1.
         23    2    1    2    0    0 -0.12506226757E+04 -0.47186503086E+03  0.44585389214E+03  0.14119896375E+04  0.90638618491E+02 0.  0.
         13    1    3    3    0    0 -0.87958294798E+03 -0.35530669122E+03  0.27918584795E+03  0.98886487696E+03  0.00000000000E+00 0. -1.
        -13    1    3    3    0    0 -0.37103972769E+03 -0.11655833964E+03  0.16666804419E+03  0.42312476059E+03  0.00000000000E+00 0.  1.
         22    1    1    2    0    0  0.12506226757E+04  0.47186503086E+03  0.16956882022E+04  0.21591832167E+04  0.00000000000E+00 0.  1.
<mgrwt>
<rscale>  0 0.28578091E+04</rscale>
<asrwt>0</asrwt>
<pdfrwt beam="1">  1        2 0.10997160E+00 0.28578091E+04</pdfrwt>
<pdfrwt beam="2">  1       -2 0.43943961E+00 0.28578091E+04</pdfrwt>
<totfact> 0.14069694E-01</totfact>
</mgrwt>
</event>
<event>
 6    1  0.9988873E-007  0.3604829E+03  0.7818608E-02  0.1058393E+00
          3   -1    0    0  501    0  0.00000000000E+00  0.00000000000E+00  0.24022136154E+03  0.24022136154E+03  0.00000000000E+00 0. -1.
         -3   -1    0    0    0  501 -0.00000000000E+00 -0.00000000000E+00 -0.13523765597E+03  0.13523765597E+03  0.00000000000E+00 0.  1.
         23    2    1    2    0    0  0.12155914829E+03 -0.39909409916E+02 -0.60400348852E+02  0.16636269285E+03  0.87515460903E+02 0.  0.
         11    1    3    3    0    0  0.31742688698E+02 -0.40215400435E+02 -0.56772927498E+02  0.76472491882E+02  0.00000000000E+00 0. -1.
        -11    1    3    3    0    0  0.89816459592E+02  0.30599051972E+00 -0.36274213543E+01  0.89890200965E+02  0.00000000000E+00 0.  1.
         22    1    1    2    0    0 -0.12155914829E+03  0.39909409916E+02  0.16538405442E+03  0.20909632467E+03  0.00000000000E+00 0. -1.
<mgrwt>
<rscale>  0 0.36048286E+03</rscale>
<asrwt>0</asrwt>
<pdfrwt beam="1">  1        3 0.36957132E-01 0.36048286E+03</pdfrwt>
<pdfrwt beam="2">  1       -3 0.20805793E-01 0.36048286E+03</pdfrwt>
<totfact> 0.39282692E+02</totfact>
</mgrwt>
</event>
<event>
 6    1  0.9988873E-007  0.7192679E+03  0.7818608E-02  0.9684837E-01
          1   -1    0    0  501    0  0.00000000000E+00  0.00000000000E+00  0.10965328573E+04  0.10965328573E+04  0.00000000000E+00 0. -1.
         -1   -1    0    0    0  501 -0.00000000000E+00 -0.00000000000E+00 -0.11795048365E+03  0.11795048365E+03  0.00000000000E+00 0.  1.
         23    2    1    2    0    0  0.21637894371E+03  0.63317782030E+02  0.35868704948E+02  0.24518563129E+03  0.89445184319E+02 0.  0.
         13    1    3    3    0    0  0.86399265990E+02  0.71732409400E+02  0.16489619202E+02  0.11350012891E+03  0.00000000000E+00 0.  1.
        -13    1    3    3    0    0  0.12997967772E+03 -0.84146273693E+01  0.19379085746E+02  0.13168550238E+03  0.00000000000E+00 0. -1.
         22    1    1    2    0    0 -0.21637894371E+03 -0.63317782030E+02  0.94271366865E+03  0.96929770961E+03  0.00000000000E+00 0. -1.
<mgrwt>
<rscale>  0 0.71926791E+03</rscale>
<asrwt>0</asrwt>
<pdfrwt beam="1">  1        1 0.16869736E+00 0.71926791E+03</pdfrwt>
<pdfrwt beam="2">  1       -1 0.18146229E-01 0.71926791E+03</pdfrwt>
<totfact> 0.31085342E+02</totfact>
</mgrwt>
</event>
<event>
 6    1  0.9988873E-007  0.1886394E+04  0.7818608E-02  0.8661659E-01
          2   -1    0    0  501    0  0.00000000000E+00  0.00000000000E+00  0.12517593811E+04  0.12517593811E+04  0.00000000000E+00 0. -1.
         -2   -1    0    0    0  501 -0.00000000000E+00 -0.00000000000E+00 -0.71069642185E+03  0.71069642185E+03  0.00000000000E+00 0.  1.
         23    2    1    2    0    0  0.77505022910E+03  0.53040348984E+03  0.21008392535E+03  0.96667578683E+03  0.91082937463E+02 0.  0.
         13    1    3    3    0    0  0.31083097046E+03  0.18620622705E+03  0.41624641373E+02  0.36472080001E+03  0.00000000000E+00 0. -1.
        -13    1    3    3    0    0  0.46421925863E+03  0.34419726279E+03  0.16845928398E+03  0.60195498682E+03  0.00000000000E+00 0.  1.
         22    1    1    2    0    0 -0.77505022910E+03 -0.53040348984E+03  0.33097903391E+03  0.99578001614E+03  0.00000000000E+00 0. -1.
<mgrwt>
<rscale>  0 0.18863944E+04</rscale>
<asrwt>0</asrwt>
<pdfrwt beam="1">  1        2 0.19257837E+00 0.18863944E+04</pdfrwt>
<pdfrwt beam="2">  1       -2 0.10933791E+00 0.18863944E+04</pdfrwt>
<totfact> 0.11031857E+01</totfact>
</mgrwt>
</event>
<event>
 6    1  0.9988873E-007  0.1975809E+04  0.7818608E-02  0.8618015E-01
          2   -1    0    0  501    0  0.00000000000E+00  0.00000000000E+00  0.14334038368E+04  0.14334038368E+04  0.00000000000E+00 0. -1.
         -2   -1    0    0    0  501 -0.00000000000E+00 -0.00000000000E+00 -0.68086568999E+03  0.68086568999E+03  0.00000000000E+00 0.  1.
         23    2    1    2    0    0  0.45433395166E+03  0.80127824926E+03  0.75272355609E+03  0.11931472728E+04  0.92420184139E+02 0.  0.
         11    1    3    3    0    0  0.40850426846E+03  0.67236905591E+03  0.61071593922E+03  0.99595674761E+03  0.00000000000E+00 0.  1.
        -11    1    3    3    0    0  0.45829683196E+02  0.12890919334E+03  0.14200761687E+03  0.19719052523E+03  0.00000000000E+00 0. -1.
         22    1    1    2    0    0 -0.45433395166E+03 -0.80127824926E+03 -0.18540926218E+00  0.92112225396E+03  0.00000000000E+00 0.  1.
<mgrwt>
<rscale>  0 0.19758092E+04</rscale>
<asrwt>0</asrwt>
<pdfrwt beam="1">  1        2 0.22052367E+00 0.19758092E+04</pdfrwt>
<pdfrwt beam="2">  1       -2 0.10474857E+00 0.19758092E+04</pdfrwt>
<totfact> 0.95320636E+00</totfact>
</mgrwt>
</event>
<event>
 6    1  0.9988873E-007  0.3780719E+04  0.7818608E-02  0.8050305E-01
          1   -1    0    0  501    0  0.00000000000E+00  0.00000000000E+00  0.44352191210E+04  0.44352191210E+04  0.00000000000E+00 0. -1.
         -1   -1    0    0    0  501 -0.00000000000E+00 -0.00000000000E+00 -0.80570051390E+03  0.80570051390E+03  0.00000000000E+00 0.  1.
         23    2    1    2    0    0  0.88630481175E+03 -0.80868866450E+03 -0.20715395316E+03  0.12210228812E+04  0.92035540855E+02 0.  0.
         11    1    3    3    0    0  0.54074485925E+03 -0.43210714012E+03 -0.12369775439E+03  0.70315198769E+03  0.00000000000E+00 0. -1.
        -11    1    3    3    0    0  0.34555995250E+03 -0.37658152438E+03 -0.83456198770E+02  0.51787089355E+03  0.00000000000E+00 0.  1.
         22    1    1    2    0    0 -0.88630481175E+03  0.80868866450E+03  0.38366725603E+04  0.40198967536E+04  0.00000000000E+00 0.  1.
<mgrwt>
<rscale>  0 0.37807186E+04</rscale>
<asrwt>0</asrwt>
<pdfrwt beam="1">  1        1 0.68234139E+00 0.37807186E+04</pdfrwt>
<pdfrwt beam="2">  1       -1 0.12395393E+00 0.37807186E+04</pdfrwt>
<totfact> 0.16988150E-02</totfact>
</mgrwt>
</event>
<event>
 6    1  0.9988873E-007  0.2412237E+04  0.7818608E-02  0.8434936E-01
          2   -1    0    0  501    0  0.00000000000E+00  0.00000000000E+00  0.13590999258E+04  0.13590999258E+04  0.00000000000E+00 0. -1.
         -2   -1    0    0    0  501 -0.00000000000E+00 -0.00000000000E+00 -0.10703566003E+04  0.10703566003E+04  0.00000000000E+00 0.  1.
         23    2    1    2    0    0 -0.11037206614E+04  0.29617068060E+03 -0.23856562388E+03  0.11708973902E+04  0.90392317985E+02 0.  0.
         11    1    3    3    0    0 -0.78693975197E+03  0.23109528132E+03 -0.13419173406E+03  0.83107558246E+03  0.00000000000E+00 0. -1.
        -11    1    3    3    0    0 -0.31678090942E+03  0.65075399277E+02 -0.10437388982E+03  0.33982180777E+03  0.00000000000E+00 0.  1.
         22    1    1    2    0    0  0.11037206614E+04 -0.29617068060E+03  0.52730894936E+03  0.12585591359E+04  0.00000000000E+00 0.  1.
<mgrwt>
<rscale>  0 0.24122368E+04</rscale>
<asrwt>0</asrwt>
<pdfrwt beam="1">  1        2 0.20909230E+00 0.24122368E+04</pdfrwt>
<pdfrwt beam="2">  1       -2 0.16467025E+00 0.24122368E+04</pdfrwt>
<totfact> 0.31950228E+00</totfact>
</mgrwt>
</event>
<event>
 6    1  0.9988873E-007  0.1415271E+04  0.7818608E-02  0.8942838E-01
          2   -1    0    0  501    0  0.00000000000E+00  0.00000000000E+00  0.94879267558E+03  0.94879267558E+03  0.00000000000E+00 0. -1.
         -2   -1    0    0    0  501 -0.00000000000E+00 -0.00000000000E+00 -0.52777419035E+03  0.52777419035E+03  0.00000000000E+00 0.  1.
         23    2    1    2    0    0 -0.47552059747E+03 -0.21118041906E+03 -0.28406222383E+03  0.60029304211E+03  0.94569452690E+02 0.  0.
         13    1    3    3    0    0 -0.25201814161E+03 -0.15895982687E+03 -0.13915044494E+03  0.32885287985E+03  0.00000000000E+00 0. -1.
        -13    1    3    3    0    0 -0.22350245586E+03 -0.52220592187E+02 -0.14491177889E+03  0.27144016226E+03  0.00000000000E+00 0.  1.
         22    1    1    2    0    0  0.47552059747E+03  0.21118041906E+03  0.70508070907E+03  0.87627382382E+03  0.00000000000E+00 0. -1.
<mgrwt>
<rscale>  0 0.14152714E+04</rscale>
<asrwt>0</asrwt>
<pdfrwt beam="1">  1        2 0.14596810E+00 0.14152714E+04</pdfrwt>
<pdfrwt beam="2">  1       -2 0.81196029E-01 0.14152714E+04</pdfrwt>
<totfact> 0.35361656E+01</totfact>
</mgrwt>
</event>
<event>
 6    1  0.9988873E-007  0.2458988E+04  0.7818608E-02  0.8417744E-01
          1   -1    0    0  501    0  0.00000000000E+00  0.00000000000E+00  0.20244414480E+04  0.20244414480E+04  0.00000000000E+00 0. -1.
         -1   -1    0    0    0  501 -0.00000000000E+00 -0.00000000000E+00 -0.74670257225E+03  0.74670257225E+03  0.00000000000E+00 0.  1.
         23    2    1    2    0    0  0.39429210521E+03  0.41987581515E+03  0.18617299061E+04  0.19508955897E+04  0.90517370798E+02 0.  0.
         11    1    3    3    0    0  0.34591465373E+03  0.34919119732E+03  0.16715329424E+04  0.17423012993E+04  0.00000000000E+00 0. -1.
        -11    1    3    3    0    0  0.48377451487E+02  0.70684617834E+02  0.19019696366E+03  0.20859429042E+03  0.00000000000E+00 0.  1.
         22    1    1    2    0    0 -0.39429210521E+03 -0.41987581515E+03 -0.58399103030E+03  0.82024843057E+03  0.00000000000E+00 0.  1.
<mgrwt>
<rscale>  0 0.24589881E+04</rscale>
<asrwt>0</asrwt>
<pdfrwt beam="1">  1        1 0.31145253E+00 0.24589881E+04</pdfrwt>
<pdfrwt beam="2">  1       -1 0.11487732E+00 0.24589881E+04</pdfrwt>
<totfact> 0.17594700E+00</totfact>
</mgrwt>
</event>
<event>
 6    1  0.9988873E-007  0.2205758E+04  0.7818608E-02  0.8516035E-01
         -2   -1    0    0    0  501 -0.00000000000E+00  0.00000000000E+00  0.13630598407E+04  0.13630598407E+04  0.00000000000E+00 0.  1.
          2   -1    0    0  501    0  0.00000000000E+00 -0.00000000000E+00 -0.89236155012E+03  0.89236155012E+03  0.00000000000E+00 0. -1.
         23    2    1    2    0    0 -0.10547710638E+04  0.29839498824E+01  0.55865537859E+03  0.11969851149E+04  0.90147835480E+02 0.  0.
         13    1    3    3    0    0 -0.67255439910E+03 -0.23283128220E+02  0.39551183575E+03  0.78057743756E+03  0.00000000000E+00 0.  1.
        -13    1    3    3    0    0 -0.38221666466E+03  0.26267078102E+02  0.16314354284E+03  0.41640767729E+03  0.00000000000E+00 0. -1.
         22    1    1    2    0    0  0.10547710638E+04 -0.29839498824E+01 -0.87957088026E+02  0.10584362760E+04  0.00000000000E+00 0. -1.
<mgrwt>
<rscale>  0 0.22057581E+04</rscale>
<asrwt>0</asrwt>
<pdfrwt beam="1">  1        2 0.13728639E+00 0.22057581E+04</pdfrwt>
<pdfrwt beam="2">  1       -2 0.20970151E+00 0.22057581E+04</pdfrwt>
<totfact> 0.31170857E+00</totfact>
</mgrwt>
</event>
<event>
 6    1  0.1065711E-006  0.3946412E+04  0.7818608E-02  0.8015445E-01
          1   -1    0    0  501    0  0.00000000000E+00  0.00000000000E+00  0.22146665256E+04  0.22146665256E+04  0.00000000000E+00 0. -1.
         -1   -1    0    0    0  501 -0.00000000000E+00 -0.00000000000E+00 -0.17580711866E+04  0.17580711866E+04  0.00000000000E+00 0.  1.
         23    2    1    2    0    0  0.16030634767E+04  0.31806432803E+03  0.13397604002E+04  0.21150622959E+04  0.86908910760E+02 0.  0.
         13    1    3    3    0    0  0.11753077093E+04  0.24139120891E+03  0.93414734109E+03  0.15206081620E+04  0.00000000000E+00 0. -1.
        -13    1    3    3    0    0  0.42775576733E+03  0.76673119121E+02  0.40561305911E+03  0.59445413397E+03  0.00000000000E+00 0.  1.
         22    1    1    2    0    0 -0.16030634767E+04 -0.31806432803E+03 -0.88316506120E+03  0.18576754163E+04  0.00000000000E+00 0.  1.
<mgrwt>
<rscale>  0 0.39464117E+04</rscale>
<asrwt>0</asrwt>
<pdfrwt beam="1">  1        1 0.34071793E+00 0.39464117E+04</pdfrwt>
<pdfrwt beam="2">  1       -1 0.27047249E+00 0.39464117E+04</pdfrwt>
<totfact> 0.85864430E-02</totfact>
</mgrwt>
</event>
<event>
 6    1  0.9988873E-007  0.2899058E+04  0.7818608E-02  0.8273158E-01
          1   -1    0    0  501    0  0.00000000000E+00  0.00000000000E+00  0.33348549944E+04  0.33348549944E+04  0.00000000000E+00 0. -1.
         -1   -1    0    0    0  501 -0.00000000000E+00 -0.00000000000E+00 -0.63005256371E+03  0.63005256371E+03  0.00000000000E+00 0.  1.
         23    2    1    2    0    0 -0.43140211257E+03 -0.79400141511E+02  0.32412964939E+04  0.32719154621E+04  0.83759565012E+02 0.  0.
         13    1    3    3    0    0 -0.39488239689E+03 -0.57836915918E+02  0.27525260856E+04  0.27813085172E+04  0.00000000000E+00 0.  1.
        -13    1    3    3    0    0 -0.36519715679E+02 -0.21563225593E+02  0.48877040834E+03  0.49060694491E+03  0.00000000000E+00 0. -1.
         22    1    1    2    0    0  0.43140211257E+03  0.79400141511E+02 -0.53649406322E+03  0.69299209596E+03  0.00000000000E+00 0.  1.
<mgrwt>
<rscale>  0 0.28990577E+04</rscale>
<asrwt>0</asrwt>
<pdfrwt beam="1">  1        1 0.51305460E+00 0.28990577E+04</pdfrwt>
<pdfrwt beam="2">  1       -1 0.96931166E-01 0.28990577E+04</pdfrwt>
<totfact> 0.29481650E-01</totfact>
</mgrwt>
</event>
<event>
 6    1  0.9988873E-007  0.1715013E+04  0.7818608E-02  0.8752848E-01
          3   -1    0    0  501    0  0.00000000000E+00  0.00000000000E+00  0.16312760022E+04  0.16312760022E+04  0.00000000000E+00 0. -1.
         -3   -1    0    0    0  501 -0.00000000000E+00 -0.00000000000E+00 -0.45076219229E+03  0.45076219229E+03  0.00000000000E+00 0.  1.
         23    2    1    2    0    0 -0.38611191242E+03 -0.41402756643E+03 -0.18602697826E+03  0.60287121257E+03  0.91358785129E+02 0.  0.
         13    1    3    3    0    0 -0.29796689965E+03 -0.32155034432E+03 -0.10241365644E+03  0.45018602182E+03  0.00000000000E+00 0. -1.
        -13    1    3    3    0    0 -0.88145012768E+02 -0.92477222112E+02 -0.83613321822E+02  0.15268519074E+03  0.00000000000E+00 0.  1.
         22    1    1    2    0    0  0.38611191242E+03  0.41402756643E+03  0.13665407882E+04  0.14791669819E+04  0.00000000000E+00 0. -1.
<mgrwt>
<rscale>  0 0.17150132E+04</rscale>
<asrwt>0</asrwt>
<pdfrwt beam="1">  1        3 0.25096554E+00 0.17150132E+04</pdfrwt>
<pdfrwt beam="2">  1       -3 0.69348030E-01 0.17150132E+04</pdfrwt>
<totfact> 0.36166785E-01</totfact>
</mgrwt>
</event>
<event>
 6    1  0.9988873E-007  0.2098723E+04  0.7818608E-02  0.8561806E-01
         -2   -1    0    0    0  501 -0.00000000000E+00  0.00000000000E+00  0.22225955996E+04  0.22225955996E+04  0.00000000000E+00 0.  1.
          2   -1    0    0  501    0  0.00000000000E+00 -0.00000000000E+00 -0.49543873840E+03  0.49543873840E+03  0.00000000000E+00 0. -1.
         23    2    1    2    0    0  0.40997100017E+03 -0.24104908580E+03  0.20737795629E+04  0.21295377958E+04  0.90491244648E+02 0.  0.
         11    1    3    3    0    0  0.21539190284E+03 -0.10757460208E+03  0.12324359401E+04  0.12557325803E+04  0.00000000000E+00 0.  1.
        -11    1    3    3    0    0  0.19457909733E+03 -0.13347448373E+03  0.84134362284E+03  0.87380521549E+03  0.00000000000E+00 0. -1.
         22    1    1    2    0    0 -0.40997100017E+03  0.24104908580E+03 -0.34662270177E+03  0.58849654216E+03  0.00000000000E+00 0. -1.
<mgrwt>
<rscale>  0 0.20987234E+04</rscale>
<asrwt>0</asrwt>
<pdfrwt beam="1">  1        2 0.76221346E-01 0.20987234E+04</pdfrwt>
<pdfrwt beam="2">  1       -2 0.34193778E+00 0.20987234E+04</pdfrwt>
<totfact> 0.10047325E+00</totfact>
</mgrwt>
</event>
<event>
 6    1  0.1121587E-006  0.2681927E+04  0.7818608E-02  0.8340893E-01
         -1   -1    0    0    0  501 -0.00000000000E+00  0.00000000000E+00  0.14128732510E+04  0.14128732510E+04  0.00000000000E+00 0.  1.
          1   -1    0    0  501    0  0.00000000000E+00 -0.00000000000E+00 -0.12727136155E+04  0.12727136155E+04  0.00000000000E+00 0. -1.
         23    2    1    2    0    0  0.12016912100E+04 -0.54632816437E+03 -0.15715923293E+03  0.13324664961E+04  0.90728779965E+02 0.  0.
         11    1    3    3    0    0  0.58690501543E+03 -0.25158006592E+03 -0.32550289406E+02  0.63938216119E+03  0.00000000000E+00 0. -1.
        -11    1    3    3    0    0  0.61478619452E+03 -0.29474809845E+03 -0.12460894352E+03  0.69308433493E+03  0.00000000000E+00 0.  1.
         22    1    1    2    0    0 -0.12016912100E+04  0.54632816437E+03  0.29731886848E+03  0.13531203704E+04  0.00000000000E+00 0. -1.
<mgrwt>
<rscale>  0 0.26819269E+04</rscale>
<asrwt>0</asrwt>
<pdfrwt beam="1">  1        1 0.19580210E+00 0.26819269E+04</pdfrwt>
<pdfrwt beam="2">  1       -1 0.21736511E+00 0.26819269E+04</pdfrwt>
<totfact> 0.94859741E-01</totfact>
</mgrwt>
</event>
<event>
 6    1  0.1318658E-006  0.3199755E+04  0.7818608E-02  0.8188882E-01
         -2   -1    0    0    0  501 -0.00000000000E+00  0.00000000000E+00  0.13169548368E+04  0.13169548368E+04  0.00000000000E+00 0.  1.
          2   -1    0    0  501    0  0.00000000000E+00 -0.00000000000E+00 -0.19435807342E+04  0.19435807342E+04  0.00000000000E+00 0. -1.
         23    2    1    2    0    0 -0.70324805253E+03  0.67762300916E+03  0.97564257735E+03  0.13841041092E+04  0.10067263984E+03 0.  0.
         13    1    3    3    0    0 -0.48761084389E+03  0.47827573942E+03  0.74486044827E+03  0.10106082848E+04  0.00000000000E+00 0.  1.
        -13    1    3    3    0    0 -0.21563720864E+03  0.19934726974E+03  0.23078212908E+03  0.37349582435E+03  0.00000000000E+00 0. -1.
         22    1    1    2    0    0  0.70324805253E+03 -0.67762300916E+03 -0.16022684747E+04  0.18764314618E+04  0.00000000000E+00 0. -1.
<mgrwt>
<rscale>  0 0.31997550E+04</rscale>
<asrwt>0</asrwt>
<pdfrwt beam="1">  1        2 0.29901242E+00 0.31997550E+04</pdfrwt>
<pdfrwt beam="2">  1       -2 0.20260844E+00 0.31997550E+04</pdfrwt>
<totfact> 0.77335775E-01</totfact>
</mgrwt>
</event>
<event>
 6    1  0.1204445E-006  0.2921380E+04  0.7818608E-02  0.8266545E-01
          2   -1    0    0  501    0  0.00000000000E+00  0.00000000000E+00  0.17550481557E+04  0.17550481557E+04  0.00000000000E+00 0. -1.
         -2   -1    0    0    0  501 -0.00000000000E+00 -0.00000000000E+00 -0.12157020285E+04  0.12157020285E+04  0.00000000000E+00 0.  1.
         23    2    1    2    0    0 -0.49010983050E+03  0.81664449009E+03 -0.85433842196E+03  0.12827121242E+04  0.91325709952E+02 0.  0.
         11    1    3    3    0    0 -0.30815294120E+03  0.44116473925E+03 -0.44642002697E+03  0.69919625485E+03  0.00000000000E+00 0.  1.
        -11    1    3    3    0    0 -0.18195688931E+03  0.37547975084E+03 -0.40791839500E+03  0.58351586939E+03  0.00000000000E+00 0. -1.
         22    1    1    2    0    0  0.49010983050E+03 -0.81664449009E+03  0.13936845492E+04  0.16880380600E+04  0.00000000000E+00 0. -1.
<mgrwt>
<rscale>  0 0.29213802E+04</rscale>
<asrwt>0</asrwt>
<pdfrwt beam="1">  1        2 0.27000741E+00 0.29213802E+04</pdfrwt>
<pdfrwt beam="2">  1       -2 0.18703108E+00 0.29213802E+04</pdfrwt>
<totfact> 0.12782380E+00</totfact>
</mgrwt>
</event>
<event>
 6    1  0.9988873E-007  0.1899148E+04  0.7818608E-02  0.8655281E-01
          1   -1    0    0  501    0  0.00000000000E+00  0.00000000000E+00  0.99695324471E+03  0.99695324471E+03  0.00000000000E+00 0. -1.
         -1   -1    0    0    0  501 -0.00000000000E+00 -0.00000000000E+00 -0.90444594901E+03  0.90444594901E+03  0.00000000000E+00 0.  1.
         23    2    1    2    0    0 -0.56365098671E+03  0.57319905338E+03  0.54822534958E+03  0.97731124648E+03  0.91250473829E+02 0.  0.
         13    1    3    3    0    0 -0.12700242993E+03  0.99091449322E+02  0.14706480570E+03  0.21812104349E+03  0.00000000000E+00 0. -1.
        -13    1    3    3    0    0 -0.43664855678E+03  0.47410760406E+03  0.40116054388E+03  0.75919020300E+03  0.00000000000E+00 0.  1.
         22    1    1    2    0    0  0.56365098671E+03 -0.57319905338E+03 -0.45571805387E+03  0.92408794724E+03  0.00000000000E+00 0.  1.
<mgrwt>
<rscale>  0 0.18991475E+04</rscale>
<asrwt>0</asrwt>
<pdfrwt beam="1">  1        1 0.15337742E+00 0.18991475E+04</pdfrwt>
<pdfrwt beam="2">  1       -1 0.13914553E+00 0.18991475E+04</pdfrwt>
<totfact> 0.60641433E+00</totfact>
</mgrwt>
</event>
<event>
 6    1  0.9988873E-007  0.2350040E+04  0.7818608E-02  0.8458448E-01
         -2   -1    0    0    0  501 -0.00000000000E+00  0.00000000000E+00  0.91545003575E+03  0.91545003575E+03  0.00000000000E+00 0.  1.
          2   -1    0    0  501    0  0.00000000000E+00 -0.00000000000E+00 -0.15081893422E+04  0.15081893422E+04  0.00000000000E+00 0. -1.
         23    2    1    2    0    0  0.97325460056E+03  0.65258905130E+03 -0.23251358405E+03  0.11977276525E+04  0.85976598401E+02 0.  0.
         13    1    3    3    0    0  0.26247796744E+03  0.20035286299E+03 -0.99279842895E+02  0.34480783098E+03  0.00000000000E+00 0. -1.
        -13    1    3    3    0    0  0.71077663311E+03  0.45223618831E+03 -0.13323374115E+03  0.85291982154E+03  0.00000000000E+00 0.  1.
         22    1    1    2    0    0 -0.97325460056E+03 -0.65258905130E+03 -0.36022572237E+03  0.12259117254E+04  0.00000000000E+00 0. -1.
<mgrwt>
<rscale>  0 0.23500400E+04</rscale>
<asrwt>0</asrwt>
<pdfrwt beam="1">  1        2 0.23202913E+00 0.23500400E+04</pdfrwt>
<pdfrwt beam="2">  1       -2 0.14083847E+00 0.23500400E+04</pdfrwt>
<totfact> 0.40107553E+00</totfact>
</mgrwt>
</event>
<event>
 6    1  0.9988873E-007  0.1404756E+04  0.7818608E-02  0.8950383E-01
         -2   -1    0    0    0  501 -0.00000000000E+00  0.00000000000E+00  0.12202404134E+04  0.12202404134E+04  0.00000000000E+00 0.  1.
          2   -1    0    0  501    0  0.00000000000E+00 -0.00000000000E+00 -0.40429288953E+03  0.40429288953E+03  0.00000000000E+00 0. -1.
         23    2    1    2    0    0 -0.20951241913E+03 -0.27283544288E+02  0.11807835821E+04  0.12029349218E+04  0.90347731837E+02 0.  0.
         11    1    3    3    0    0 -0.16990594908E+03  0.13540173876E+02  0.80267482231E+03  0.82057189704E+03  0.00000000000E+00 0.  1.
        -11    1    3    3    0    0 -0.39606470050E+02 -0.40823718164E+02  0.37810875984E+03  0.38236302476E+03  0.00000000000E+00 0. -1.
         22    1    1    2    0    0  0.20951241913E+03  0.27283544288E+02 -0.36483605827E+03  0.42159838113E+03  0.00000000000E+00 0. -1.
<mgrwt>
<rscale>  0 0.14047555E+04</rscale>
<asrwt>0</asrwt>
<pdfrwt beam="1">  1        2 0.62198907E-01 0.14047555E+04</pdfrwt>
<pdfrwt beam="2">  1       -2 0.18772929E+00 0.14047555E+04</pdfrwt>
<totfact> 0.12259410E+01</totfact>
</mgrwt>
</event>
<event>
 6    1  0.9988873E-007  0.4092953E+04  0.7818608E-02  0.7986053E-01
         -2   -1    0    0    0  501 -0.00000000000E+00  0.00000000000E+00  0.13516138059E+04  0.13516138059E+04  0.00000000000E+00 0.  1.
          2   -1    0    0  501    0  0.00000000000E+00 -0.00000000000E+00 -0.30985673797E+04  0.30985673797E+04  0.00000000000E+00 0. -1.
         23    2    1    2    0    0  0.12704494947E+04 -0.13982798764E+04 -0.21463890845E+02  0.18915598425E+04  0.91155954003E+02 0.  0.
         13    1    3    3    0    0  0.11861980915E+04 -0.12719867945E+04 -0.96468306692E+01  0.17392841571E+04  0.00000000000E+00 0.  1.
        -13    1    3    3    0    0  0.84251403215E+02 -0.12629308186E+03 -0.11817060176E+02  0.15227568545E+03  0.00000000000E+00 0. -1.
         22    1    1    2    0    0 -0.12704494947E+04  0.13982798764E+04 -0.17254896830E+04  0.25586213431E+04  0.00000000000E+00 0. -1.
<mgrwt>
<rscale>  0 0.40929532E+04</rscale>
<asrwt>0</asrwt>
<pdfrwt beam="1">  1        2 0.47670267E+00 0.40929532E+04</pdfrwt>
<pdfrwt beam="2">  1       -2 0.20794059E+00 0.40929532E+04</pdfrwt>
<totfact> 0.13929990E-01</totfact>
</mgrwt>
</event>
<event>
 6    1  0.9988873E-007  0.1915314E+04  0.7818608E-02  0.8647271E-01
          1   -1    0    0  501    0  0.00000000000E+00  0.00000000000E+00  0.15772193501E+04  0.15772193501E+04  0.00000000000E+00 0. -1.
         -1   -1    0    0    0  501 -0.00000000000E+00 -0.00000000000E+00 -0.58147057393E+03  0.58147057393E+03  0.00000000000E+00 0.  1.
         23    2    1    2    0    0  0.66562114456E+03 -0.57017171370E+03  0.92812420218E+03  0.12796447749E+04  0.89044505575E+02 0.  0.
         11    1    3    3    0    0  0.50229671430E+03 -0.37948558240E+03  0.67961873157E+03  0.92638702319E+03  0.00000000000E+00 0. -1.
        -11    1    3    3    0    0  0.16332443026E+03 -0.19068613129E+03  0.24850547061E+03  0.35325775167E+03  0.00000000000E+00 0.  1.
         22    1    1    2    0    0 -0.66562114456E+03  0.57017171370E+03  0.67624573952E+02  0.87904514912E+03  0.00000000000E+00 0.  1.
<mgrwt>
<rscale>  0 0.19153137E+04</rscale>
<asrwt>0</asrwt>
<pdfrwt beam="1">  1        1 0.24264913E+00 0.19153137E+04</pdfrwt>
<pdfrwt beam="2">  1       -1 0.89457012E-01 0.19153137E+04</pdfrwt>
<totfact> 0.66170988E+00</totfact>
</mgrwt>
</event>
<event>
 6    1  0.9988873E-007  0.1154596E+04  0.7818608E-02  0.9153554E-01
         -2   -1    0    0    0  501 -0.00000000000E+00  0.00000000000E+00  0.25288215397E+03  0.25288215397E+03  0.00000000000E+00 0.  1.
          2   -1    0    0  501    0  0.00000000000E+00 -0.00000000000E+00 -0.13178984675E+04  0.13178984675E+04  0.00000000000E+00 0. -1.
         23    2    1    2    0    0 -0.54165228326E+02  0.56234603926E+03 -0.40018748155E+03  0.69833330749E+03  0.91391729030E+02 0.  0.
         11    1    3    3    0    0 -0.41033127675E+02  0.23359976467E+03 -0.11810878003E+03  0.26495707490E+03  0.00000000000E+00 0. -1.
        -11    1    3    3    0    0 -0.13132100651E+02  0.32874627459E+03 -0.28207870152E+03  0.43337623259E+03  0.00000000000E+00 0.  1.
         22    1    1    2    0    0  0.54165228326E+02 -0.56234603926E+03 -0.66482883201E+03  0.87244731400E+03  0.00000000000E+00 0.  1.
<mgrwt>
<rscale>  0 0.11545960E+04</rscale>
<asrwt>0</asrwt>
<pdfrwt beam="1">  1        2 0.20275361E+00 0.11545960E+04</pdfrwt>
<pdfrwt beam="2">  1       -2 0.38904947E-01 0.11545960E+04</pdfrwt>
<totfact> 0.99653071E+01</totfact>
</mgrwt>
</event>
<event>
 6    1  0.9988873E-007  0.2617002E+04  0.7818608E-02  0.8362449E-01
         -2   -1    0    0    0  501 -0.00000000000E+00  0.00000000000E+00  0.96313447333E+03  0.96313447333E+03  0.00000000000E+00 0.  1.
          2   -1    0    0  501    0  0.00000000000E+00 -0.00000000000E+00 -0.17777105292E+04  0.17777105292E+04  0.00000000000E+00 0. -1.
         23    2    1    2    0    0  0.30342311390E+03  0.11611183198E+04  0.13347420785E+03  0.12114462183E+04  0.97597321427E+02 0.  0.
         11    1    3    3    0    0  0.13477999153E+03  0.68351475724E+03  0.10027584132E+03  0.70385603204E+03  0.00000000000E+00 0. -1.
        -11    1    3    3    0    0  0.16864312237E+03  0.47760356254E+03  0.33198366524E+02  0.50759018628E+03  0.00000000000E+00 0.  1.
         22    1    1    2    0    0 -0.30342311390E+03 -0.11611183198E+04 -0.94805026371E+03  0.15293987842E+04  0.00000000000E+00 0. -1.
<mgrwt>
<rscale>  0 0.26170016E+04</rscale>
<asrwt>0</asrwt>
<pdfrwt beam="1">  1        2 0.27349392E+00 0.26170016E+04</pdfrwt>
<pdfrwt beam="2">  1       -2 0.14817454E+00 0.26170016E+04</pdfrwt>
<totfact> 0.24275180E+00</totfact>
</mgrwt>
</event>
<event>
 6    1  0.9988873E-007  0.3152506E+04  0.7818608E-02  0.8201474E-01
         -2   -1    0    0    0  501 -0.00000000000E+00  0.00000000000E+00  0.83902608245E+03  0.83902608245E+03  0.00000000000E+00 0.  1.
          2   -1    0    0  501    0  0.00000000000E+00 -0.00000000000E+00 -0.29612594246E+04  0.29612594246E+04  0.00000000000E+00 0. -1.
         23    2    1    2    0    0 -0.57516064873E+03 -0.13743793708E+04 -0.44609011649E+03  0.15577011631E+04  0.87795756951E+02 0.  0.
         11    1    3    3    0    0 -0.49320495597E+03 -0.10924131474E+04 -0.36925184076E+03  0.12541788290E+04  0.00000000000E+00 0.  1.
        -11    1    3    3    0    0 -0.81955692752E+02 -0.28196622339E+03 -0.76838275725E+02  0.30352233414E+03  0.00000000000E+00 0. -1.
         22    1    1    2    0    0  0.57516064873E+03  0.13743793708E+04 -0.16761432257E+04  0.22425843440E+04  0.00000000000E+00 0. -1.
<mgrwt>
<rscale>  0 0.31525062E+04</rscale>
<asrwt>0</asrwt>
<pdfrwt beam="1">  1        2 0.45557837E+00 0.31525062E+04</pdfrwt>
<pdfrwt beam="2">  1       -2 0.12908094E+00 0.31525062E+04</pdfrwt>
<totfact> 0.68770875E-01</totfact>
</mgrwt>
</event>
<event>
 6    1  0.9988873E-007  0.1962227E+04  0.7818608E-02  0.8624487E-01
          2   -1    0    0  501    0  0.00000000000E+00  0.00000000000E+00  0.21999949142E+04  0.21999949142E+04  0.00000000000E+00 0. -1.
         -2   -1    0    0    0  501 -0.00000000000E+00 -0.00000000000E+00 -0.43753884414E+03  0.43753884414E+03  0.00000000000E+00 0.  1.
         23    2    1    2    0    0 -0.12858096606E+03  0.58218248741E+03  0.19262362989E+04  0.20192349012E+04  0.10702239771E+03 0.  0.
         13    1    3    3    0    0 -0.10261208839E+03  0.53168410873E+03  0.16295544078E+04  0.17171676680E+04  0.00000000000E+00 0.  1.
        -13    1    3    3    0    0 -0.25968877666E+02  0.50498378678E+02  0.29668189105E+03  0.30206723314E+03  0.00000000000E+00 0. -1.
         22    1    1    2    0    0  0.12858096606E+03 -0.58218248741E+03 -0.16378022877E+03  0.61829885720E+03  0.00000000000E+00 0.  1.
<mgrwt>
<rscale>  0 0.19622265E+04</rscale>
<asrwt>0</asrwt>
<pdfrwt beam="1">  1        2 0.33846075E+00 0.19622265E+04</pdfrwt>
<pdfrwt beam="2">  1       -2 0.67313670E-01 0.19622265E+04</pdfrwt>
<totfact> 0.97417370E+00</totfact>
</mgrwt>
</event>
<event>
 6    1  0.9988873E-007  0.4119903E+04  0.7818608E-02  0.7980786E-01
          2   -1    0    0  501    0  0.00000000000E+00  0.00000000000E+00  0.15283869204E+04  0.15283869204E+04  0.00000000000E+00 0. -1.
         -2   -1    0    0    0  501 -0.00000000000E+00 -0.00000000000E+00 -0.27763919639E+04  0.27763919639E+04  0.00000000000E+00 0.  1.
         23    2    1    2    0    0  0.19177423727E+04 -0.23171832221E+03 -0.13688721553E+04  0.23693104532E+04  0.91607080001E+02 0.  0.
         11    1    3    3    0    0  0.13425019996E+04 -0.20434472345E+03 -0.95862373461E+03  0.16622357984E+04  0.00000000000E+00 0.  1.
        -11    1    3    3    0    0  0.57524037317E+03 -0.27373598759E+02 -0.41024842068E+03  0.70707465483E+03  0.00000000000E+00 0. -1.
         22    1    1    2    0    0 -0.19177423727E+04  0.23171832221E+03  0.12086711187E+03  0.19354684311E+04  0.00000000000E+00 0.  1.
<mgrwt>
<rscale>  0 0.41199035E+04</rscale>
<asrwt>0</asrwt>
<pdfrwt beam="1">  1        2 0.23513645E+00 0.41199035E+04</pdfrwt>
<pdfrwt beam="2">  1       -2 0.42713722E+00 0.41199035E+04</pdfrwt>
<totfact> 0.47006092E-02</totfact>
</mgrwt>
</event>
<event>
 6    1  0.9988873E-007  0.2975687E+04  0.7818608E-02  0.8250708E-01
          1   -1    0    0  501    0  0.00000000000E+00  0.00000000000E+00  0.20799875817E+04  0.20799875817E+04  0.00000000000E+00 0. -1.
         -1   -1    0    0    0  501 -0.00000000000E+00 -0.00000000000E+00 -0.10642748578E+04  0.10642748578E+04  0.00000000000E+00 0.  1.
         23    2    1    2    0    0 -0.74013125259E+03 -0.95430368733E+03  0.14239796274E+04  0.18694402310E+04  0.92730789113E+02 0.  0.
         13    1    3    3    0    0 -0.48570332788E+03 -0.55267302531E+03  0.85874841337E+03  0.11308421787E+04  0.00000000000E+00 0. -1.
        -13    1    3    3    0    0 -0.25442792470E+03 -0.40163066202E+03  0.56523121407E+03  0.73859805233E+03  0.00000000000E+00 0.  1.
         22    1    1    2    0    0  0.74013125259E+03  0.95430368733E+03 -0.40826690356E+03  0.12748222085E+04  0.00000000000E+00 0.  1.
<mgrwt>
<rscale>  0 0.29756871E+04</rscale>
<asrwt>0</asrwt>
<pdfrwt beam="1">  1        1 0.31999809E+00 0.29756871E+04</pdfrwt>
<pdfrwt beam="2">  1       -1 0.16373459E+00 0.29756871E+04</pdfrwt>
<totfact> 0.61417396E-01</totfact>
</mgrwt>
</event>
<event>
 6    1  0.9988873E-007  0.1869457E+04  0.7818608E-02  0.8670211E-01
         -3   -1    0    0    0  501 -0.00000000000E+00  0.00000000000E+00  0.67941561436E+03  0.67941561436E+03  0.00000000000E+00 0.  1.
          3   -1    0    0  501    0  0.00000000000E+00 -0.00000000000E+00 -0.12859838295E+04  0.12859838295E+04  0.00000000000E+00 0. -1.
         23    2    1    2    0    0 -0.33728943985E+03 -0.32210893983E+03  0.54588559402E+03  0.72215042712E+03  0.77406861922E+02 0.  0.
         11    1    3    3    0    0 -0.13813197417E+03 -0.17524764964E+03  0.29353143818E+03  0.36871789514E+03  0.00000000000E+00 0.  1.
        -11    1    3    3    0    0 -0.19915746569E+03 -0.14686129018E+03  0.25235415584E+03  0.35343253198E+03  0.00000000000E+00 0. -1.
         22    1    1    2    0    0  0.33728943985E+03  0.32210893983E+03 -0.11524538091E+04  0.12432490167E+04  0.00000000000E+00 0. -1.
<mgrwt>
<rscale>  0 0.18694571E+04</rscale>
<asrwt>0</asrwt>
<pdfrwt beam="1">  1        3 0.19784367E+00 0.18694571E+04</pdfrwt>
<pdfrwt beam="2">  1       -3 0.10452548E+00 0.18694571E+04</pdfrwt>
<totfact> 0.29379329E-01</totfact>
</mgrwt>
</event>
<event>
 6    1  0.9988873E-007  0.1598001E+04  0.7818608E-02  0.8821777E-01
          2   -1    0    0  501    0  0.00000000000E+00  0.00000000000E+00  0.18841014375E+04  0.18841014375E+04  0.00000000000E+00 0. -1.
         -2   -1    0    0    0  501 -0.00000000000E+00 -0.00000000000E+00 -0.33883630303E+03  0.33883630303E+03  0.00000000000E+00 0.  1.
         23    2    1    2    0    0  0.32559291488E+03 -0.29417095859E+03  0.16996632285E+04  0.17577645786E+04  0.91290329768E+02 0.  0.
         13    1    3    3    0    0  0.96290340944E+02 -0.11016837323E+03  0.72963696993E+03  0.74416329398E+03  0.00000000000E+00 0.  1.
        -13    1    3    3    0    0  0.22930257394E+03 -0.18400258536E+03  0.97002625858E+03  0.10136012846E+04  0.00000000000E+00 0. -1.
         22    1    1    2    0    0 -0.32559291488E+03  0.29417095859E+03 -0.15439809407E+03  0.46517316190E+03  0.00000000000E+00 0.  1.
<mgrwt>
<rscale>  0 0.15980012E+04</rscale>
<asrwt>0</asrwt>
<pdfrwt beam="1">  1        2 0.28986175E+00 0.15980012E+04</pdfrwt>
<pdfrwt beam="2">  1       -2 0.52128663E-01 0.15980012E+04</pdfrwt>
<totfact> 0.25820774E+01</totfact>
</mgrwt>
</event>
<event>
 6    1  0.9988873E-007  0.1813888E+04  0.7818608E-02  0.8698949E-01
         -2   -1    0    0    0  501 -0.00000000000E+00  0.00000000000E+00  0.40501304191E+03  0.40501304191E+03  0.00000000000E+00 0.  1.
          2   -1    0    0  501    0  0.00000000000E+00 -0.00000000000E+00 -0.20309150219E+04  0.20309150219E+04  0.00000000000E+00 0. -1.
         23    2    1    2    0    0  0.20690422560E+03  0.47708547470E+03 -0.18098058883E+04  0.18843480095E+04  0.70357365966E+02 0.  0.
         11    1    3    3    0    0  0.35344822099E+02  0.12622624339E+03 -0.54926756311E+03  0.56469210802E+03  0.00000000000E+00 0. -1.
        -11    1    3    3    0    0  0.17155940350E+03  0.35085923131E+03 -0.12605383252E+04  0.13196559015E+04  0.00000000000E+00 0.  1.
         22    1    1    2    0    0 -0.20690422560E+03 -0.47708547470E+03  0.18390390834E+03  0.55158005425E+03  0.00000000000E+00 0.  1.
<mgrwt>
<rscale>  0 0.18138876E+04</rscale>
<asrwt>0</asrwt>
<pdfrwt beam="1">  1        2 0.31244846E+00 0.18138876E+04</pdfrwt>
<pdfrwt beam="2">  1       -2 0.62309699E-01 0.18138876E+04</pdfrwt>
<totfact> 0.14474068E+01</totfact>
</mgrwt>
</event>
<event>
 6    1  0.9988873E-007  0.3275167E+04  0.7818608E-02  0.8169243E-01
          2   -1    0    0  501    0  0.00000000000E+00  0.00000000000E+00  0.29875092740E+04  0.29875092740E+04  0.00000000000E+00 0. -1.
         -2   -1    0    0    0  501 -0.00000000000E+00 -0.00000000000E+00 -0.89763058068E+03  0.89763058068E+03  0.00000000000E+00 0.  1.
         23    2    1    2    0    0  0.15531847487E+04 -0.83501111082E+01  0.43473988741E+03  0.16153519671E+04  0.88941665605E+02 0.  0.
         13    1    3    3    0    0  0.10071709674E+04  0.27519877044E+02  0.25379805218E+03  0.10390207662E+04  0.00000000000E+00 0. -1.
        -13    1    3    3    0    0  0.54601378125E+03 -0.35869988152E+02  0.18094183524E+03  0.57633120088E+03  0.00000000000E+00 0.  1.
         22    1    1    2    0    0 -0.15531847487E+04  0.83501111082E+01  0.16551388059E+04  0.22697878876E+04  0.00000000000E+00 0. -1.
<mgrwt>
<rscale>  0 0.32751670E+04</rscale>
<asrwt>0</asrwt>
<pdfrwt beam="1">  1        2 0.45961681E+00 0.32751670E+04</pdfrwt>
<pdfrwt beam="2">  1       -2 0.13809701E+00 0.32751670E+04</pdfrwt>
<totfact> 0.55175427E-01</totfact>
</mgrwt>
</event>
<event>
 6    1  0.9988873E-007  0.2504927E+04  0.7818608E-02  0.8401233E-01
         -1   -1    0    0    0  501 -0.00000000000E+00  0.00000000000E+00  0.13548319150E+04  0.13548319150E+04  0.00000000000E+00 0.  1.
          1   -1    0    0  501    0  0.00000000000E+00 -0.00000000000E+00 -0.11578293858E+04  0.11578293858E+04  0.00000000000E+00 0. -1.
         23    2    1    2    0    0  0.10896897040E+04  0.44237866467E+03 -0.32868593328E+03  0.12244567775E+04  0.90207667664E+02 0.  0.
         11    1    3    3    0    0  0.73956975996E+03  0.25870396372E+03 -0.19948490907E+03  0.80850813208E+03  0.00000000000E+00 0.  1.
        -11    1    3    3    0    0  0.35011994408E+03  0.18367470095E+03 -0.12920102421E+03  0.41594864547E+03  0.00000000000E+00 0. -1.
         22    1    1    2    0    0 -0.10896897040E+04 -0.44237866467E+03  0.52568846255E+03  0.12882045232E+04  0.00000000000E+00 0.  1.
<mgrwt>
<rscale>  0 0.25049265E+04</rscale>
<asrwt>0</asrwt>
<pdfrwt beam="1">  1        1 0.17812760E+00 0.25049265E+04</pdfrwt>
<pdfrwt beam="2">  1       -1 0.20843568E+00 0.25049265E+04</pdfrwt>
<totfact> 0.13428390E+00</totfact>
</mgrwt>
</event>
<event>
 6    1  0.9988873E-007  0.3016823E+04  0.7818608E-02  0.8238943E-01
          1   -1    0    0  501    0  0.00000000000E+00  0.00000000000E+00  0.28564587772E+04  0.28564587772E+04  0.00000000000E+00 0. -1.
         -1   -1    0    0    0  501 -0.00000000000E+00 -0.00000000000E+00 -0.79654757507E+03  0.79654757507E+03  0.00000000000E+00 0.  1.
         23    2    1    2    0    0 -0.11739272754E+04  0.93924111076E+03  0.90447396487E+03  0.17568749430E+04  0.90869686883E+02 0.  0.
         13    1    3    3    0    0 -0.61382310659E+03  0.53243489353E+03  0.52540031115E+03  0.96763175278E+03  0.00000000000E+00 0.  1.
        -13    1    3    3    0    0 -0.56010416883E+03  0.40680621723E+03  0.37907365372E+03  0.78924319019E+03  0.00000000000E+00 0. -1.
         22    1    1    2    0    0  0.11739272754E+04 -0.93924111076E+03  0.11554372373E+04  0.18961314093E+04  0.00000000000E+00 0.  1.
<mgrwt>
<rscale>  0 0.30168230E+04</rscale>
<asrwt>0</asrwt>
<pdfrwt beam="1">  1        1 0.43945519E+00 0.30168230E+04</pdfrwt>
<pdfrwt beam="2">  1       -1 0.12254578E+00 0.30168230E+04</pdfrwt>
<totfact> 0.37911197E-01</totfact>
</mgrwt>
</event>
<event>
 6    1  0.9988873E-007  0.1806881E+04  0.7818608E-02  0.8702649E-01
          3   -1    0    0  501    0  0.00000000000E+00  0.00000000000E+00  0.70630575359E+03  0.70630575359E+03  0.00000000000E+00 0. -1.
         -3   -1    0    0    0  501 -0.00000000000E+00 -0.00000000000E+00 -0.11555972410E+04  0.11555972410E+04  0.00000000000E+00 0.  1.
         23    2    1    2    0    0  0.31200258122E+03  0.28617886752E+03 -0.10448965722E+04  0.11311572304E+04  0.91999338382E+02 0.  0.
         13    1    3    3    0    0 -0.12722926886E+01  0.25983406555E+02 -0.62855013025E+02  0.68025795161E+02  0.00000000000E+00 0.  1.
        -13    1    3    3    0    0  0.31327487391E+03  0.26019546096E+03 -0.98204155918E+03  0.10631314352E+04  0.00000000000E+00 0. -1.
         22    1    1    2    0    0 -0.31200258122E+03 -0.28617886752E+03  0.59560508480E+03  0.73074576423E+03  0.00000000000E+00 0. -1.
<mgrwt>
<rscale>  0 0.18068813E+04</rscale>
<asrwt>0</asrwt>
<pdfrwt beam="1">  1        3 0.10866242E+00 0.18068813E+04</pdfrwt>
<pdfrwt beam="2">  1       -3 0.17778419E+00 0.18068813E+04</pdfrwt>
<totfact> 0.36300598E-01</totfact>
</mgrwt>
</event>
<event>
 6    1  0.9988873E-007  0.1454299E+04  0.7818608E-02  0.8915425E-01
         -1   -1    0    0    0  501 -0.00000000000E+00  0.00000000000E+00  0.10240674828E+04  0.10240674828E+04  0.00000000000E+00 0.  1.
          1   -1    0    0  501    0  0.00000000000E+00 -0.00000000000E+00 -0.51632018615E+03  0.51632018615E+03  0.00000000000E+00 0. -1.
         23    2    1    2    0    0 -0.68052997766E+03 -0.32834961619E+02  0.51578076018E+03  0.85901866342E+03  0.87658920481E+02 0.  0.
         13    1    3    3    0    0 -0.51033402794E+03  0.10532537461E+02  0.36465946263E+03  0.62731832279E+03  0.00000000000E+00 0.  1.
        -13    1    3    3    0    0 -0.17019594971E+03 -0.43367499080E+02  0.15112129756E+03  0.23170034064E+03  0.00000000000E+00 0. -1.
         22    1    1    2    0    0  0.68052997766E+03  0.32834961619E+02 -0.80334634952E+01  0.68136900556E+03  0.00000000000E+00 0. -1.
<mgrwt>
<rscale>  0 0.14542994E+04</rscale>
<asrwt>0</asrwt>
<pdfrwt beam="1">  1        1 0.79433875E-01 0.14542994E+04</pdfrwt>
<pdfrwt beam="2">  1       -1 0.15754884E+00 0.14542994E+04</pdfrwt>
<totfact> 0.12555484E+01</totfact>
</mgrwt>
</event>
<event>
 6    1  0.9988873E-007  0.2809749E+04  0.7818608E-02  0.8300248E-01
          2   -1    0    0  501    0  0.00000000000E+00  0.00000000000E+00  0.20501958613E+04  0.20501958613E+04  0.00000000000E+00 0. -1.
         -2   -1    0    0    0  501 -0.00000000000E+00 -0.00000000000E+00 -0.96267530481E+03  0.96267530481E+03  0.00000000000E+00 0.  1.
         23    2    1    2    0    0 -0.12685974258E+04 -0.43554364113E+03  0.98702148649E+03  0.16678292503E+04  0.91680430812E+02 0.  0.
         13    1    3    3    0    0 -0.70444408434E+03 -0.21893965380E+03  0.59217398204E+03  0.94596303573E+03  0.00000000000E+00 0. -1.
        -13    1    3    3    0    0 -0.56415334148E+03 -0.21660398733E+03  0.39484750445E+03  0.72186621461E+03  0.00000000000E+00 0.  1.
         22    1    1    2    0    0  0.12685974258E+04  0.43554364113E+03  0.10049907001E+03  0.13450419158E+04  0.00000000000E+00 0.  1.
<mgrwt>
<rscale>  0 0.28097494E+04</rscale>
<asrwt>0</asrwt>
<pdfrwt beam="1">  1        2 0.31541475E+00 0.28097494E+04</pdfrwt>
<pdfrwt beam="2">  1       -2 0.14810389E+00 0.28097494E+04</pdfrwt>
<totfact> 0.16879509E+00</totfact>
</mgrwt>
</event>
<event>
 6    1  0.9988873E-007  0.1674477E+04  0.7818608E-02  0.8776057E-01
         -1   -1    0    0    0  501 -0.00000000000E+00  0.00000000000E+00  0.25557086488E+03  0.25557086488E+03  0.00000000000E+00 0.  1.
          1   -1    0    0  501    0  0.00000000000E+00 -0.00000000000E+00 -0.27427536113E+04  0.27427536113E+04  0.00000000000E+00 0. -1.
         23    2    1    2    0    0  0.41076502214E+03  0.29374420840E+03 -0.24379069901E+04  0.24909373818E+04  0.79780851025E+02 0.  0.
         11    1    3    3    0    0  0.28080716382E+03  0.20944545907E+03 -0.15030691291E+04  0.15433524777E+04  0.00000000000E+00 0.  1.
        -11    1    3    3    0    0  0.12995785832E+03  0.84298749327E+02 -0.93483786097E+03  0.94758490405E+03  0.00000000000E+00 0. -1.
         22    1    1    2    0    0 -0.41076502214E+03 -0.29374420840E+03 -0.49275756300E+02  0.50738709438E+03  0.00000000000E+00 0.  1.
<mgrwt>
<rscale>  0 0.16744765E+04</rscale>
<asrwt>0</asrwt>
<pdfrwt beam="1">  1        1 0.42196211E+00 0.16744765E+04</pdfrwt>
<pdfrwt beam="2">  1       -1 0.39318593E-01 0.16744765E+04</pdfrwt>
<totfact> 0.55016859E+00</totfact>
</mgrwt>
</event>
<event>
 6    1  0.9988873E-007  0.3854183E+04  0.7818608E-02  0.8034626E-01
         -1   -1    0    0    0  501 -0.00000000000E+00  0.00000000000E+00  0.13856592458E+04  0.13856592458E+04  0.00000000000E+00 0.  1.
          1   -1    0    0  501    0  0.00000000000E+00 -0.00000000000E+00 -0.26800827853E+04  0.26800827853E+04  0.00000000000E+00 0. -1.
         23    2    1    2    0    0 -0.34711091697E+03  0.59301624043E+03  0.12505809666E+04  0.14296080842E+04  0.87591495424E+02 0.  0.
         13    1    3    3    0    0 -0.31603610161E+03  0.48527536020E+03  0.10118023400E+04  0.11658108628E+04  0.00000000000E+00 0. -1.
        -13    1    3    3    0    0 -0.31074815361E+02  0.10774088023E+03  0.23877862665E+03  0.26379722131E+03  0.00000000000E+00 0.  1.
         22    1    1    2    0    0  0.34711091697E+03 -0.59301624043E+03 -0.25450045061E+04  0.26361339470E+04  0.00000000000E+00 0. -1.
<mgrwt>
<rscale>  0 0.38541829E+04</rscale>
<asrwt>0</asrwt>
<pdfrwt beam="1">  1        1 0.41232043E+00 0.38541829E+04</pdfrwt>
<pdfrwt beam="2">  1       -1 0.21317835E+00 0.38541829E+04</pdfrwt>
<totfact> 0.98206176E-02</totfact>
</mgrwt>
</event>
<event>
 6    1  0.9988873E-007  0.1081667E+04  0.7818608E-02  0.9223247E-01
          2   -1    0    0  501    0  0.00000000000E+00  0.00000000000E+00  0.13144349554E+04  0.13144349554E+04  0.00000000000E+00 0. -1.
         -2   -1    0    0    0  501 -0.00000000000E+00 -0.00000000000E+00 -0.22252991412E+03  0.22252991412E+03  0.00000000000E+00 0.  1.
         23    2    1    2    0    0  0.22305884065E+03 -0.28934435490E+03  0.11091631032E+04  0.11712146231E+04  0.89585164287E+02 0.  0.
         11    1    3    3    0    0  0.19600255567E+03 -0.20600469279E+03  0.76705322185E+03  0.81806208837E+03  0.00000000000E+00 0. -1.
        -11    1    3    3    0    0  0.27056284973E+02 -0.83339662105E+02  0.34210988134E+03  0.35315253468E+03  0.00000000000E+00 0.  1.
         22    1    1    2    0    0 -0.22305884065E+03  0.28934435490E+03 -0.17258061899E+02  0.36575024648E+03  0.00000000000E+00 0.  1.
<mgrwt>
<rscale>  0 0.10816674E+04</rscale>
<asrwt>0</asrwt>
<pdfrwt beam="1">  1        2 0.20222076E+00 0.10816674E+04</pdfrwt>
<pdfrwt beam="2">  1       -2 0.34235372E-01 0.10816674E+04</pdfrwt>
<totfact> 0.12865260E+02</totfact>
</mgrwt>
</event>
<event>
 6    1  0.9988873E-007  0.1762243E+04  0.7818608E-02  0.8726640E-01
         -2   -1    0    0    0  501 -0.00000000000E+00  0.00000000000E+00  0.90177888954E+03  0.90177888954E+03  0.00000000000E+00 0.  1.
          2   -1    0    0  501    0  0.00000000000E+00 -0.00000000000E+00 -0.86093748799E+03  0.86093748799E+03  0.00000000000E+00 0. -1.
         23    2    1    2    0    0 -0.64550756035E+03 -0.51226209285E+03  0.32557980027E+03  0.89083999985E+03  0.92202151485E+02 0.  0.
         13    1    3    3    0    0 -0.37617947421E+03 -0.25252944902E+03  0.20877658593E+03  0.49886850198E+03  0.00000000000E+00 0. -1.
        -13    1    3    3    0    0 -0.26932808615E+03 -0.25973264383E+03  0.11680321434E+03  0.39197149786E+03  0.00000000000E+00 0.  1.
         22    1    1    2    0    0  0.64550756035E+03  0.51226209285E+03 -0.28473839873E+03  0.87187637768E+03  0.00000000000E+00 0. -1.
<mgrwt>
<rscale>  0 0.17622432E+04</rscale>
<asrwt>0</asrwt>
<pdfrwt beam="1">  1        2 0.13245192E+00 0.17622432E+04</pdfrwt>
<pdfrwt beam="2">  1       -2 0.13873521E+00 0.17622432E+04</pdfrwt>
<totfact> 0.10857093E+01</totfact>
</mgrwt>
</event>
<event>
 6    1  0.9988873E-007  0.3339930E+04  0.7818608E-02  0.8152809E-01
          1   -1    0    0  501    0  0.00000000000E+00  0.00000000000E+00  0.20566364884E+04  0.20566364884E+04  0.00000000000E+00 0. -1.
         -1   -1    0    0    0  501 -0.00000000000E+00 -0.00000000000E+00 -0.13559919216E+04  0.13559919216E+04  0.00000000000E+00 0.  1.
         23    2    1    2    0    0 -0.20205413766E+03  0.15908201832E+04 -0.12152074615E+03  0.16105489080E+04  0.86981397239E+02 0.  0.
         11    1    3    3    0    0 -0.29287208412E+02  0.34730508297E+03 -0.59319130692E+02  0.35354960119E+03  0.00000000000E+00 0. -1.
        -11    1    3    3    0    0 -0.17276692925E+03  0.12435151002E+04 -0.62201615461E+02  0.12569993068E+04  0.00000000000E+00 0.  1.
         22    1    1    2    0    0  0.20205413766E+03 -0.15908201832E+04  0.82216531293E+03  0.18020795020E+04  0.00000000000E+00 0.  1.
<mgrwt>
<rscale>  0 0.33399296E+04</rscale>
<asrwt>0</asrwt>
<pdfrwt beam="1">  1        1 0.31640561E+00 0.33399296E+04</pdfrwt>
<pdfrwt beam="2">  1       -1 0.20861414E+00 0.33399296E+04</pdfrwt>
<totfact> 0.29629439E-01</totfact>
</mgrwt>
</event>
<event>
 6    1  0.9988873E-007  0.3641692E+04  0.7818608E-02  0.8081008E-01
          2   -1    0    0  501    0  0.00000000000E+00  0.00000000000E+00  0.25166333073E+04  0.25166333073E+04  0.00000000000E+00 0. -1.
         -2   -1    0    0    0  501 -0.00000000000E+00 -0.00000000000E+00 -0.13174265925E+04  0.13174265925E+04  0.00000000000E+00 0.  1.
         23    2    1    2    0    0 -0.23141320248E+03  0.16991646678E+04 -0.40964157210E+02  0.17177573623E+04  0.91102442341E+02 0.  0.
         13    1    3    3    0    0 -0.18366515355E+03  0.10895366799E+04 -0.25320369248E+00  0.11049086521E+04  0.00000000000E+00 0.  1.
        -13    1    3    3    0    0 -0.47748048923E+02  0.60962798793E+03 -0.40710953518E+02  0.61284871019E+03  0.00000000000E+00 0. -1.
         22    1    1    2    0    0  0.23141320248E+03 -0.16991646678E+04  0.12401708720E+04  0.21163025375E+04  0.00000000000E+00 0. -1.
<mgrwt>
<rscale>  0 0.36416917E+04</rscale>
<asrwt>0</asrwt>
<pdfrwt beam="1">  1        2 0.38717435E+00 0.36416917E+04</pdfrwt>
<pdfrwt beam="2">  1       -2 0.20268102E+00 0.36416917E+04</pdfrwt>
<totfact> 0.35318375E-01</totfact>
</mgrwt>
</event>
<event>
 6    1  0.9988873E-007  0.1926566E+04  0.7818608E-02  0.8641745E-01
          2   -1    0    0  501    0  0.00000000000E+00  0.00000000000E+00  0.58336363967E+03  0.58336363967E+03  0.00000000000E+00 0. -1.
         -2   -1    0    0    0  501 -0.00000000000E+00 -0.00000000000E+00 -0.15906267019E+04  0.15906267019E+04  0.00000000000E+00 0.  1.
         23    2    1    2    0    0 -0.45696088518E+03 -0.84452789954E+03 -0.55465180926E+03  0.11124360236E+04  0.88513577253E+02 0.  0.
         11    1    3    3    0    0 -0.43588409907E+03 -0.75454792498E+03 -0.51164186989E+03  0.10105023117E+04  0.00000000000E+00 0.  1.
        -11    1    3    3    0    0 -0.21076786109E+02 -0.89979974556E+02 -0.43009939375E+02  0.10193371189E+03  0.00000000000E+00 0. -1.
         22    1    1    2    0    0  0.45696088518E+03  0.84452789954E+03 -0.45261125294E+03  0.10615543180E+04  0.00000000000E+00 0.  1.
<mgrwt>
<rscale>  0 0.19265656E+04</rscale>
<asrwt>0</asrwt>
<pdfrwt beam="1">  1        2 0.89748253E-01 0.19265656E+04</pdfrwt>
<pdfrwt beam="2">  1       -2 0.24471180E+00 0.19265656E+04</pdfrwt>
<totfact> 0.33207849E+00</totfact>
</mgrwt>
</event>
<event>
 6    1  0.9988873E-007  0.1073969E+04  0.7818608E-02  0.9230942E-01
          2   -1    0    0  501    0  0.00000000000E+00  0.00000000000E+00  0.30118563769E+04  0.30118563769E+04  0.00000000000E+00 0. -1.
         -2   -1    0    0    0  501 -0.00000000000E+00 -0.00000000000E+00 -0.95739070095E+02  0.95739070095E+02  0.00000000000E+00 0.  1.
         23    2    1    2    0    0 -0.20719023034E+03  0.22157275621E+03  0.27376318116E+04  0.27556304632E+04  0.82758900699E+02 0.  0.
         13    1    3    3    0    0 -0.20436550357E+02  0.65700773888E+02  0.47445188831E+03  0.47941510052E+03  0.00000000000E+00 0. -1.
        -13    1    3    3    0    0 -0.18675367998E+03  0.15587198232E+03  0.22631799233E+04  0.22762153627E+04  0.00000000000E+00 0.  1.
         22    1    1    2    0    0  0.20719023034E+03 -0.22157275621E+03  0.17848549514E+03  0.35196498379E+03  0.00000000000E+00 0.  1.
<mgrwt>
<rscale>  0 0.10739690E+04</rscale>
<asrwt>0</asrwt>
<pdfrwt beam="1">  1        2 0.46336245E+00 0.10739690E+04</pdfrwt>
<pdfrwt beam="2">  1       -2 0.14729090E-01 0.10739690E+04</pdfrwt>
<totfact> 0.62902185E+01</totfact>
</mgrwt>
</event>
<event>
 6    1  0.9988873E-007  0.1872317E+04  0.7818608E-02  0.8668760E-01
         -2   -1    0    0    0  501 -0.00000000000E+00  0.00000000000E+00  0.33121088682E+03  0.33121088682E+03  0.00000000000E+00 0.  1.
          2   -1    0    0  501    0  0.00000000000E+00 -0.00000000000E+00 -0.26460251500E+04  0.26460251500E+04  0.00000000000E+00 0. -1.
         23    2    1    2    0    0 -0.58364570062E+03  0.66222287640E+03 -0.16444413936E+04  0.18688222034E+04  0.95537893695E+02 0.  0.
         11    1    3    3    0    0 -0.17991420443E+03  0.20624328383E+03 -0.42042314671E+03  0.50165828546E+03  0.00000000000E+00 0. -1.
        -11    1    3    3    0    0 -0.40373149619E+03  0.45597959257E+03 -0.12240182469E+04  0.13671639179E+04  0.00000000000E+00 0.  1.
         22    1    1    2    0    0  0.58364570062E+03 -0.66222287640E+03 -0.67037286963E+03  0.11084138335E+04  0.00000000000E+00 0.  1.
<mgrwt>
<rscale>  0 0.18723166E+04</rscale>
<asrwt>0</asrwt>
<pdfrwt beam="1">  1        2 0.40708080E+00 0.18723166E+04</pdfrwt>
<pdfrwt beam="2">  1       -2 0.50955520E-01 0.18723166E+04</pdfrwt>
<totfact> 0.97831550E+00</totfact>
</mgrwt>
</event>
<event>
 6    1  0.9988873E-007  0.1314485E+04  0.7818608E-02  0.9018157E-01
         -2   -1    0    0    0  501 -0.00000000000E+00  0.00000000000E+00  0.30971446493E+03  0.30971446493E+03  0.00000000000E+00 0.  1.
          2   -1    0    0  501    0  0.00000000000E+00 -0.00000000000E+00 -0.13947278318E+04  0.13947278318E+04  0.00000000000E+00 0. -1.
         23    2    1    2    0    0  0.60713827108E+03  0.22694507110E+03 -0.66559886749E+03  0.93241284922E+03  0.79062781921E+02 0.  0.
         11    1    3    3    0    0  0.23794367997E+03  0.95992295863E+02 -0.31882241431E+03  0.40924252903E+03  0.00000000000E+00 0. -1.
        -11    1    3    3    0    0  0.36919459111E+03  0.13095277523E+03 -0.34677645317E+03  0.52317032019E+03  0.00000000000E+00 0.  1.
         22    1    1    2    0    0 -0.60713827108E+03 -0.22694507110E+03 -0.41941449934E+03  0.77202944747E+03  0.00000000000E+00 0.  1.
<mgrwt>
<rscale>  0 0.13144845E+04</rscale>
<asrwt>0</asrwt>
<pdfrwt beam="1">  1        2 0.21457351E+00 0.13144845E+04</pdfrwt>
<pdfrwt beam="2">  1       -2 0.47648379E-01 0.13144845E+04</pdfrwt>
<totfact> 0.59534963E+01</totfact>
</mgrwt>
</event>
<event>
 6    1  0.9988873E-007  0.1055657E+04  0.7818608E-02  0.9249523E-01
          2   -1    0    0  501    0  0.00000000000E+00  0.00000000000E+00  0.94259046510E+03  0.94259046510E+03  0.00000000000E+00 0. -1.
         -2   -1    0    0    0  501 -0.00000000000E+00 -0.00000000000E+00 -0.29557156152E+03  0.29557156152E+03  0.00000000000E+00 0.  1.
         23    2    1    2    0    0  0.19831933908E+03  0.18755471166E+03  0.85041719754E+03  0.89775316054E+03  0.90796460700E+02 0.  0.
         13    1    3    3    0    0  0.12163808090E+03  0.53704831545E+02  0.36903020424E+03  0.39225415651E+03  0.00000000000E+00 0. -1.
        -13    1    3    3    0    0  0.76681258176E+02  0.13384988011E+03  0.48138699330E+03  0.50549900403E+03  0.00000000000E+00 0.  1.
         22    1    1    2    0    0 -0.19831933908E+03 -0.18755471166E+03 -0.20339829396E+03  0.34040886608E+03  0.00000000000E+00 0.  1.
<mgrwt>
<rscale>  0 0.10556570E+04</rscale>
<asrwt>0</asrwt>
<pdfrwt beam="1">  1        2 0.14501392E+00 0.10556570E+04</pdfrwt>
<pdfrwt beam="2">  1       -2 0.45472548E-01 0.10556570E+04</pdfrwt>
<totfact> 0.12529298E+02</totfact>
</mgrwt>
</event>
<event>
 6    1  0.9988873E-007  0.1782700E+04  0.7818608E-02  0.8715554E-01
         -2   -1    0    0    0  501 -0.00000000000E+00  0.00000000000E+00  0.80513554849E+03  0.80513554849E+03  0.00000000000E+00 0.  1.
          2   -1    0    0  501    0  0.00000000000E+00 -0.00000000000E+00 -0.98679676849E+03  0.98679676849E+03  0.00000000000E+00 0. -1.
         23    2    1    2    0    0  0.38971523085E+03  0.13971984080E+03  0.69978223342E+03  0.81810370955E+03  0.90547834318E+02 0.  0.
         13    1    3    3    0    0  0.10731196141E+03 -0.22298669582E+00  0.20673315434E+03  0.23292596225E+03  0.00000000000E+00 0. -1.
        -13    1    3    3    0    0  0.28240326944E+03  0.13994282750E+03  0.49304907908E+03  0.58517774730E+03  0.00000000000E+00 0.  1.
         22    1    1    2    0    0 -0.38971523085E+03 -0.13971984080E+03 -0.88144345342E+03  0.97382860743E+03  0.00000000000E+00 0. -1.
<mgrwt>
<rscale>  0 0.17827004E+04</rscale>
<asrwt>0</asrwt>
<pdfrwt beam="1">  1        2 0.15181489E+00 0.17827004E+04</pdfrwt>
<pdfrwt beam="2">  1       -2 0.12386701E+00 0.17827004E+04</pdfrwt>
<totfact> 0.11913404E+01</totfact>
</mgrwt>
</event>
<event>
 6    1  0.9988873E-007  0.6757092E+03  0.7818608E-02  0.9759699E-01
         -2   -1    0    0    0  501 -0.00000000000E+00  0.00000000000E+00  0.32309253045E+02  0.32309253045E+02  0.00000000000E+00 0.  1.
          2   -1    0    0  501    0  0.00000000000E+00 -0.00000000000E+00 -0.35329116601E+04  0.35329116601E+04  0.00000000000E+00 0. -1.
         23    2    1    2    0    0  0.29408874294E+03  0.14786772253E+03 -0.15997954185E+04  0.16361226109E+04  0.95910190654E+02 0.  0.
         11    1    3    3    0    0  0.12324136343E+03  0.66940500848E+02 -0.91607240016E+03  0.92674597741E+03  0.00000000000E+00 0.  1.
        -11    1    3    3    0    0  0.17084737951E+03  0.80927221679E+02 -0.68372301833E+03  0.70937663346E+03  0.00000000000E+00 0. -1.
         22    1    1    2    0    0 -0.29408874294E+03 -0.14786772253E+03 -0.19008069886E+04  0.19290983023E+04  0.00000000000E+00 0.  1.
<mgrwt>
<rscale>  0 0.67570922E+03</rscale>
<asrwt>0</asrwt>
<pdfrwt beam="1">  1        2 0.54352497E+00 0.67570922E+03</pdfrwt>
<pdfrwt beam="2">  1       -2 0.49706534E-02 0.67570922E+03</pdfrwt>
<totfact> 0.17486636E+02</totfact>
</mgrwt>
</event>
<event>
 6    1  0.9988873E-007  0.2675926E+04  0.7818608E-02  0.8342859E-01
         -1   -1    0    0    0  501 -0.00000000000E+00  0.00000000000E+00  0.50935425088E+03  0.50935425088E+03  0.00000000000E+00 0.  1.
          1   -1    0    0  501    0  0.00000000000E+00 -0.00000000000E+00 -0.35145390966E+04  0.35145390966E+04  0.00000000000E+00 0. -1.
         23    2    1    2    0    0  0.59061467824E+03 -0.14101183714E+03  0.28635696069E+03  0.67681140946E+03  0.85809898463E+02 0.  0.
         11    1    3    3    0    0  0.26203119355E+03 -0.10413629101E+03  0.14718665062E+03  0.31807015518E+03  0.00000000000E+00 0.  1.
        -11    1    3    3    0    0  0.32858348470E+03 -0.36875546122E+02  0.13917031008E+03  0.35874125428E+03  0.00000000000E+00 0. -1.
         22    1    1    2    0    0 -0.59061467824E+03  0.14101183714E+03 -0.32915418064E+04  0.33470819380E+04  0.00000000000E+00 0. -1.
<mgrwt>
<rscale>  0 0.26759263E+04</rscale>
<asrwt>0</asrwt>
<pdfrwt beam="1">  1        1 0.54069831E+00 0.26759263E+04</pdfrwt>
<pdfrwt beam="2">  1       -1 0.78362194E-01 0.26759263E+04</pdfrwt>
<totfact> 0.34714321E-01</totfact>
</mgrwt>
</event>
<event>
 6    1  0.9988873E-007  0.2014940E+04  0.7818608E-02  0.8599667E-01
         -1   -1    0    0    0  501 -0.00000000000E+00  0.00000000000E+00  0.57586356078E+03  0.57586356078E+03  0.00000000000E+00 0.  1.
          1   -1    0    0  501    0  0.00000000000E+00 -0.00000000000E+00 -0.17625631849E+04  0.17625631849E+04  0.00000000000E+00 0. -1.
         23    2    1    2    0    0 -0.18804618466E+03  0.79392501639E+03 -0.12764237201E+04  0.15176169549E+04  0.90694042855E+02 0.  0.
         11    1    3    3    0    0 -0.60093455441E+02  0.28223421758E+03 -0.53288137596E+03  0.60599499816E+03  0.00000000000E+00 0. -1.
        -11    1    3    3    0    0 -0.12795272922E+03  0.51169079882E+03 -0.74354234415E+03  0.91162195676E+03  0.00000000000E+00 0.  1.
         22    1    1    2    0    0  0.18804618466E+03 -0.79392501639E+03  0.89724095964E+02  0.82080979077E+03  0.00000000000E+00 0. -1.
<mgrwt>
<rscale>  0 0.20149401E+04</rscale>
<asrwt>0</asrwt>
<pdfrwt beam="1">  1        1 0.27116357E+00 0.20149401E+04</pdfrwt>
<pdfrwt beam="2">  1       -1 0.88594394E-01 0.20149401E+04</pdfrwt>
<totfact> 0.50049002E+00</totfact>
</mgrwt>
</event>
<event>
 6    1  0.1019273E-006  0.4010662E+04  0.7818608E-02  0.8002399E-01
         -2   -1    0    0    0  501 -0.00000000000E+00  0.00000000000E+00  0.15424400235E+04  0.15424400235E+04  0.00000000000E+00 0.  1.
          2   -1    0    0  501    0  0.00000000000E+00 -0.00000000000E+00 -0.26071363833E+04  0.26071363833E+04  0.00000000000E+00 0. -1.
         23    2    1    2    0    0  0.13949294006E+04 -0.11852425124E+04 -0.13772878081E+04  0.22926054164E+04  0.92141432376E+02 0.  0.
         13    1    3    3    0    0  0.80180612878E+03 -0.72461619005E+03 -0.77364898862E+03  0.13290953497E+04  0.00000000000E+00 0. -1.
        -13    1    3    3    0    0  0.59312327178E+03 -0.46062632230E+03 -0.60363881945E+03  0.96351006672E+03  0.00000000000E+00 0.  1.
         22    1    1    2    0    0 -0.13949294006E+04  0.11852425124E+04  0.31259144823E+03  0.18569709904E+04  0.00000000000E+00 0.  1.
<mgrwt>
<rscale>  0 0.40106615E+04</rscale>
<asrwt>0</asrwt>
<pdfrwt beam="1">  1        2 0.40109790E+00 0.40106615E+04</pdfrwt>
<pdfrwt beam="2">  1       -2 0.23729847E+00 0.40106615E+04</pdfrwt>
<totfact> 0.18288660E-01</totfact>
</mgrwt>
</event>
<event>
 6    1  0.9988873E-007  0.2173161E+04  0.7818608E-02  0.8529683E-01
         -1   -1    0    0    0  501 -0.00000000000E+00  0.00000000000E+00  0.80480960126E+03  0.80480960126E+03  0.00000000000E+00 0.  1.
          1   -1    0    0  501    0  0.00000000000E+00 -0.00000000000E+00 -0.14670023638E+04  0.14670023638E+04  0.00000000000E+00 0. -1.
         23    2    1    2    0    0 -0.76676981394E+01 -0.62464462237E+03 -0.12586527470E+04  0.14080966122E+04  0.91047426250E+02 0.  0.
         13    1    3    3    0    0 -0.48118214227E+02 -0.35281488091E+03 -0.68581251488E+03  0.77274349451E+03  0.00000000000E+00 0. -1.
        -13    1    3    3    0    0  0.40450516088E+02 -0.27182974145E+03 -0.57284023213E+03  0.63535311768E+03  0.00000000000E+00 0.  1.
         22    1    1    2    0    0  0.76676981394E+01  0.62464462237E+03  0.59645998443E+03  0.86371535292E+03  0.00000000000E+00 0.  1.
<mgrwt>
<rscale>  0 0.21731614E+04</rscale>
<asrwt>0</asrwt>
<pdfrwt beam="1">  1        1 0.22569267E+00 0.21731614E+04</pdfrwt>
<pdfrwt beam="2">  1       -1 0.12381686E+00 0.21731614E+04</pdfrwt>
<totfact> 0.36115220E+00</totfact>
</mgrwt>
</event>
<event>
 6    1  0.9988873E-007  0.1845231E+04  0.7818608E-02  0.8682609E-01
         -2   -1    0    0    0  501 -0.00000000000E+00  0.00000000000E+00  0.51003532067E+03  0.51003532067E+03  0.00000000000E+00 0.  1.
          2   -1    0    0  501    0  0.00000000000E+00 -0.00000000000E+00 -0.16689418982E+04  0.16689418982E+04  0.00000000000E+00 0. -1.
         23    2    1    2    0    0 -0.63607359984E+03 -0.33740900366E+03 -0.12577453529E+04  0.14522010747E+04  0.92358695596E+02 0.  0.
         11    1    3    3    0    0 -0.40670836621E+03 -0.16645800606E+03 -0.78538596086E+03  0.89997281650E+03  0.00000000000E+00 0. -1.
        -11    1    3    3    0    0 -0.22936523363E+03 -0.17095099760E+03 -0.47235939199E+03  0.55222825822E+03  0.00000000000E+00 0.  1.
         22    1    1    2    0    0  0.63607359984E+03  0.33740900366E+03  0.98838775336E+02  0.72677614413E+03  0.00000000000E+00 0.  1.
<mgrwt>
<rscale>  0 0.18452310E+04</rscale>
<asrwt>0</asrwt>
<pdfrwt beam="1">  1        2 0.25676029E+00 0.18452310E+04</pdfrwt>
<pdfrwt beam="2">  1       -2 0.78466973E-01 0.18452310E+04</pdfrwt>
<totfact> 0.13858477E+01</totfact>
</mgrwt>
</event>
<event>
 6    1  0.9988873E-007  0.1637336E+04  0.7818608E-02  0.8797933E-01
         -1   -1    0    0    0  501 -0.00000000000E+00  0.00000000000E+00  0.36101698932E+03  0.36101698932E+03  0.00000000000E+00 0.  1.
          1   -1    0    0  501    0  0.00000000000E+00 -0.00000000000E+00 -0.18564713166E+04  0.18564713166E+04  0.00000000000E+00 0. -1.
         23    2    1    2    0    0  0.41991170983E+03 -0.73850668195E+02 -0.16925294836E+04  0.17477879946E+04  0.91252703826E+02 0.  0.
         13    1    3    3    0    0  0.22730052495E+03 -0.84212815653E+02 -0.89219884060E+03  0.92454102025E+03  0.00000000000E+00 0.  1.
        -13    1    3    3    0    0  0.19261118489E+03  0.10362147458E+02 -0.80033064302E+03  0.82324697436E+03  0.00000000000E+00 0. -1.
         22    1    1    2    0    0 -0.41991170983E+03  0.73850668195E+02  0.19707515630E+03  0.46970031135E+03  0.00000000000E+00 0.  1.
<mgrwt>
<rscale>  0 0.16373365E+04</rscale>
<asrwt>0</asrwt>
<pdfrwt beam="1">  1        1 0.28561098E+00 0.16373365E+04</pdfrwt>
<pdfrwt beam="2">  1       -1 0.55541075E-01 0.16373365E+04</pdfrwt>
<totfact> 0.11696342E+01</totfact>
</mgrwt>
</event>
<event>
 6    1  0.9988873E-007  0.4562000E+04  0.7818608E-02  0.7899872E-01
         -2   -1    0    0    0  501 -0.00000000000E+00  0.00000000000E+00  0.30757486045E+04  0.30757486045E+04  0.00000000000E+00 0.  1.
          2   -1    0    0  501    0  0.00000000000E+00 -0.00000000000E+00 -0.16916077471E+04  0.16916077471E+04  0.00000000000E+00 0. -1.
         23    2    1    2    0    0  0.72171926642E+03  0.15194735137E+04 -0.91609988469E+03  0.19176570816E+04  0.92147844978E+02 0.  0.
         11    1    3    3    0    0  0.34083727399E+03  0.75532514282E+03 -0.50031518621E+03  0.96798832858E+03  0.00000000000E+00 0. -1.
        -11    1    3    3    0    0  0.38088199243E+03  0.76414837090E+03 -0.41578469848E+03  0.94966875299E+03  0.00000000000E+00 0.  1.
         22    1    1    2    0    0 -0.72171926642E+03 -0.15194735137E+04  0.23002407421E+04  0.28496992701E+04  0.00000000000E+00 0.  1.
<mgrwt>
<rscale>  0 0.45619996E+04</rscale>
<asrwt>0</asrwt>
<pdfrwt beam="1">  1        2 0.26024735E+00 0.45619996E+04</pdfrwt>
<pdfrwt beam="2">  1       -2 0.47319209E+00 0.45619996E+04</pdfrwt>
<totfact> 0.18315439E-02</totfact>
</mgrwt>
</event>
<event>
 6    1  0.1396633E-006  0.2535618E+04  0.7818608E-02  0.8390405E-01
          1   -1    0    0  501    0  0.00000000000E+00  0.00000000000E+00  0.15492324130E+04  0.15492324130E+04  0.00000000000E+00 0. -1.
         -1   -1    0    0    0  501 -0.00000000000E+00 -0.00000000000E+00 -0.10375071005E+04  0.10375071005E+04  0.00000000000E+00 0.  1.
         23    2    1    2    0    0 -0.65788519720E+03 -0.29913231146E+03  0.13167772235E+04  0.15048884833E+04  0.92162999170E+02 0.  0.
         13    1    3    3    0    0 -0.24986757723E+03 -0.12669320562E+03  0.42290258103E+03  0.50727858967E+03  0.00000000000E+00 0.  1.
        -13    1    3    3    0    0 -0.40801761997E+03 -0.17243910585E+03  0.89387464243E+03  0.99760989360E+03  0.00000000000E+00 0. -1.
         22    1    1    2    0    0  0.65788519720E+03  0.29913231146E+03 -0.80505191096E+03  0.10818510303E+04  0.00000000000E+00 0.  1.
<mgrwt>
<rscale>  0 0.25356180E+04</rscale>
<asrwt>0</asrwt>
<pdfrwt beam="1">  1        1 0.23834345E+00 0.25356180E+04</pdfrwt>
<pdfrwt beam="2">  1       -1 0.15961648E+00 0.25356180E+04</pdfrwt>
<totfact> 0.15759848E+00</totfact>
</mgrwt>
</event>
<event>
 6    1  0.9988873E-007  0.1509710E+04  0.7818608E-02  0.8878021E-01
          2   -1    0    0  501    0  0.00000000000E+00  0.00000000000E+00  0.55187697967E+03  0.55187697967E+03  0.00000000000E+00 0. -1.
         -2   -1    0    0    0  501 -0.00000000000E+00 -0.00000000000E+00 -0.10324880509E+04  0.10324880509E+04  0.00000000000E+00 0.  1.
         23    2    1    2    0    0 -0.63501081899E+02  0.22008532366E+03  0.51107477618E+03  0.56656801885E+03  0.85626841869E+02 0.  0.
         13    1    3    3    0    0 -0.36554162295E+02  0.18691189959E+03  0.33473668094E+03  0.38512453902E+03  0.00000000000E+00 0.  1.
        -13    1    3    3    0    0 -0.26946919604E+02  0.33173424065E+02  0.17633809524E+03  0.18144347983E+03  0.00000000000E+00 0. -1.
         22    1    1    2    0    0  0.63501081899E+02 -0.22008532366E+03 -0.99168584740E+03  0.10177970117E+04  0.00000000000E+00 0.  1.
<mgrwt>
<rscale>  0 0.15097104E+04</rscale>
<asrwt>0</asrwt>
<pdfrwt beam="1">  1        2 0.84904150E-01 0.15097104E+04</pdfrwt>
<pdfrwt beam="2">  1       -2 0.15884432E+00 0.15097104E+04</pdfrwt>
<totfact> 0.13587913E+01</totfact>
</mgrwt>
</event>
<event>
 6    1  0.9988873E-007  0.2813580E+04  0.7818608E-02  0.8299065E-01
         -2   -1    0    0    0  501 -0.00000000000E+00  0.00000000000E+00  0.82534059585E+03  0.82534059585E+03  0.00000000000E+00 0.  1.
          2   -1    0    0  501    0  0.00000000000E+00 -0.00000000000E+00 -0.23978678959E+04  0.23978678959E+04  0.00000000000E+00 0. -1.
         23    2    1    2    0    0  0.89674931241E+03 -0.68585362689E+03 -0.17458342114E+04  0.20810220742E+04  0.90339652466E+02 0.  0.
         11    1    3    3    0    0  0.30736040547E+03 -0.23229512698E+03 -0.67616036310E+03  0.77821865918E+03  0.00000000000E+00 0.  1.
        -11    1    3    3    0    0  0.58938890694E+03 -0.45355849991E+03 -0.10696738483E+04  0.13028034151E+04  0.00000000000E+00 0. -1.
         22    1    1    2    0    0 -0.89674931241E+03  0.68585362689E+03  0.17330691138E+03  0.11421864175E+04  0.00000000000E+00 0.  1.
<mgrwt>
<rscale>  0 0.28135797E+04</rscale>
<asrwt>0</asrwt>
<pdfrwt beam="1">  1        2 0.36890275E+00 0.28135797E+04</pdfrwt>
<pdfrwt beam="2">  1       -2 0.12697548E+00 0.28135797E+04</pdfrwt>
<totfact> 0.15969415E+00</totfact>
</mgrwt>
</event>
<event>
 6    1  0.9988873E-007  0.2619317E+04  0.7818608E-02  0.8361669E-01
         -1   -1    0    0    0  501 -0.00000000000E+00  0.00000000000E+00  0.23485470357E+04  0.23485470357E+04  0.00000000000E+00 0.  1.
          1   -1    0    0  501    0  0.00000000000E+00 -0.00000000000E+00 -0.73032618551E+03  0.73032618551E+03  0.00000000000E+00 0. -1.
         23    2    1    2    0    0 -0.10673217402E+04  0.90432730362E+02 -0.72024266164E+02  0.10778029253E+04  0.95487563963E+02 0.  0.
         13    1    3    3    0    0 -0.15783890988E+03  0.68936857902E+01 -0.44250217544E+02  0.16406927235E+03  0.00000000000E+00 0.  1.
        -13    1    3    3    0    0 -0.90948283036E+03  0.83539044572E+02 -0.27774048620E+02  0.91373365291E+03  0.00000000000E+00 0. -1.
         22    1    1    2    0    0  0.10673217402E+04 -0.90432730362E+02  0.16902451163E+04  0.20010702959E+04  0.00000000000E+00 0.  1.
<mgrwt>
<rscale>  0 0.26193170E+04</rscale>
<asrwt>0</asrwt>
<pdfrwt beam="1">  1        1 0.11235788E+00 0.26193170E+04</pdfrwt>
<pdfrwt beam="2">  1       -1 0.36131492E+00 0.26193170E+04</pdfrwt>
<totfact> 0.29323627E-01</totfact>
</mgrwt>
</event>
<event>
 6    1  0.9988873E-007  0.2339951E+04  0.7818608E-02  0.8462333E-01
         -1   -1    0    0    0  501 -0.00000000000E+00  0.00000000000E+00  0.42926083124E+03  0.42926083124E+03  0.00000000000E+00 0.  1.
          1   -1    0    0  501    0  0.00000000000E+00 -0.00000000000E+00 -0.31888373257E+04  0.31888373257E+04  0.00000000000E+00 0. -1.
         23    2    1    2    0    0  0.54451567765E+03 -0.36222695055E+03  0.11525520745E+03  0.66981679295E+03  0.87550478967E+02 0.  0.
         13    1    3    3    0    0  0.28538447939E+02 -0.13925610917E+01 -0.44257643318E+01  0.28913139350E+02  0.00000000000E+00 0. -1.
        -13    1    3    3    0    0  0.51597722971E+03 -0.36083438946E+03  0.11968097178E+03  0.64090365360E+03  0.00000000000E+00 0.  1.
         22    1    1    2    0    0 -0.54451567765E+03  0.36222695055E+03 -0.28748317019E+04  0.29482813640E+04  0.00000000000E+00 0. -1.
<mgrwt>
<rscale>  0 0.23399512E+04</rscale>
<asrwt>0</asrwt>
<pdfrwt beam="1">  1        1 0.49059037E+00 0.23399512E+04</pdfrwt>
<pdfrwt beam="2">  1       -1 0.66040127E-01 0.23399512E+04</pdfrwt>
<totfact> 0.90788151E-01</totfact>
</mgrwt>
</event>
<event>
 6    1  0.9988873E-007  0.3549132E+03  0.7818608E-02  0.1060616E+00
          1   -1    0    0  501    0  0.00000000000E+00  0.00000000000E+00  0.74515750677E+03  0.74515750677E+03  0.00000000000E+00 0. -1.
         -1   -1    0    0    0  501 -0.00000000000E+00 -0.00000000000E+00 -0.42260661711E+02  0.42260661711E+02  0.00000000000E+00 0.  1.
         23    2    1    2    0    0 -0.15258782476E+03  0.53624941609E+02  0.45644273409E+03  0.49263297984E+03  0.90490909460E+02 0.  0.
         11    1    3    3    0    0 -0.54939133179E+02  0.60033673201E+02  0.27098840652E+03  0.28294357519E+03  0.00000000000E+00 0.  1.
        -11    1    3    3    0    0 -0.97648691584E+02 -0.64087315915E+01  0.18545432756E+03  0.20968940464E+03  0.00000000000E+00 0. -1.
         22    1    1    2    0    0  0.15258782476E+03 -0.53624941609E+02  0.24645411098E+03  0.29478518865E+03  0.00000000000E+00 0.  1.
<mgrwt>
<rscale>  0 0.35491322E+03</rscale>
<asrwt>0</asrwt>
<pdfrwt beam="1">  1        1 0.11463961E+00 0.35491322E+03</pdfrwt>
<pdfrwt beam="2">  1       -1 0.65016408E-02 0.35491322E+03</pdfrwt>
<totfact> 0.30466692E+03</totfact>
</mgrwt>
</event>
<event>
 6    1  0.9988873E-007  0.5545206E+04  0.7818608E-02  0.7749499E-01
         -2   -1    0    0    0  501 -0.00000000000E+00  0.00000000000E+00  0.35870676042E+04  0.35870676042E+04  0.00000000000E+00 0.  1.
          2   -1    0    0  501    0  0.00000000000E+00 -0.00000000000E+00 -0.21430669733E+04  0.21430669733E+04  0.00000000000E+00 0. -1.
         23    2    1    2    0    0  0.40491054185E+03  0.14904187606E+04  0.31006697034E+04  0.34652166883E+04  0.90958551414E+02 0.  0.
         11    1    3    3    0    0  0.94780382192E+02  0.46243211412E+03  0.10139062444E+04  0.11184063007E+04  0.00000000000E+00 0.  1.
        -11    1    3    3    0    0  0.31013015966E+03  0.10279866465E+04  0.20867634590E+04  0.23468103876E+04  0.00000000000E+00 0. -1.
         22    1    1    2    0    0 -0.40491054185E+03 -0.14904187606E+04 -0.16566690725E+04  0.22649178892E+04  0.00000000000E+00 0. -1.
<mgrwt>
<rscale>  0 0.55452055E+04</rscale>
<asrwt>0</asrwt>
<pdfrwt beam="1">  1        2 0.32970261E+00 0.55452055E+04</pdfrwt>
<pdfrwt beam="2">  1       -2 0.55185655E+00 0.55452055E+04</pdfrwt>
<totfact> 0.32857154E-03</totfact>
</mgrwt>
</event>
<event>
 6    1  0.9988873E-007  0.2403146E+04  0.7818608E-02  0.8438327E-01
         -1   -1    0    0    0  501 -0.00000000000E+00  0.00000000000E+00  0.11354135763E+04  0.11354135763E+04  0.00000000000E+00 0.  1.
          1   -1    0    0  501    0  0.00000000000E+00 -0.00000000000E+00 -0.12715878136E+04  0.12715878136E+04  0.00000000000E+00 0. -1.
         23    2    1    2    0    0 -0.90570947531E+02  0.61863138735E+03  0.95760411248E+03  0.11471367272E+04  0.89493824903E+02 0.  0.
         11    1    3    3    0    0 -0.36153722927E+02  0.13075285288E+03  0.15187890645E+03  0.20364332163E+03  0.00000000000E+00 0.  1.
        -11    1    3    3    0    0 -0.54417224604E+02  0.48787853448E+03  0.80572520602E+03  0.94349340557E+03  0.00000000000E+00 0. -1.
         22    1    1    2    0    0  0.90570947531E+02 -0.61863138735E+03 -0.10937783497E+04  0.12598646627E+04  0.00000000000E+00 0. -1.
<mgrwt>
<rscale>  0 0.24031463E+04</rscale>
<asrwt>0</asrwt>
<pdfrwt beam="1">  1        1 0.19562889E+00 0.24031463E+04</pdfrwt>
<pdfrwt beam="2">  1       -1 0.17467901E+00 0.24031463E+04</pdfrwt>
<totfact> 0.19315965E+00</totfact>
</mgrwt>
</event>
<event>
 6    1  0.9988873E-007  0.2521728E+04  0.7818608E-02  0.8395286E-01
          1   -1    0    0  501    0  0.00000000000E+00  0.00000000000E+00  0.11617726814E+04  0.11617726814E+04  0.00000000000E+00 0. -1.
         -1   -1    0    0    0  501 -0.00000000000E+00 -0.00000000000E+00 -0.13684068326E+04  0.13684068326E+04  0.00000000000E+00 0.  1.
         23    2    1    2    0    0 -0.18317611018E+03 -0.72416158103E+03 -0.11205624003E+04  0.13498285800E+04  0.91725785434E+02 0.  0.
         13    1    3    3    0    0 -0.16882119061E+03 -0.49564743581E+03 -0.78214833523E+03  0.94123482369E+03  0.00000000000E+00 0. -1.
        -13    1    3    3    0    0 -0.14354919575E+02 -0.22851414522E+03 -0.33841406505E+03  0.40859375632E+03  0.00000000000E+00 0.  1.
         22    1    1    2    0    0  0.18317611018E+03  0.72416158103E+03  0.91392824908E+03  0.11803509339E+04  0.00000000000E+00 0. -1.
<mgrwt>
<rscale>  0 0.25217277E+04</rscale>
<asrwt>0</asrwt>
<pdfrwt beam="1">  1        1 0.17873426E+00 0.25217277E+04</pdfrwt>
<pdfrwt beam="2">  1       -1 0.21052413E+00 0.25217277E+04</pdfrwt>
<totfact> 0.12890819E+00</totfact>
</mgrwt>
</event>
<event>
 6    1  0.9988873E-007  0.2840597E+04  0.7818608E-02  0.8290774E-01
         -2   -1    0    0    0  501 -0.00000000000E+00  0.00000000000E+00  0.15774186156E+04  0.15774186156E+04  0.00000000000E+00 0.  1.
          2   -1    0    0  501    0  0.00000000000E+00 -0.00000000000E+00 -0.12788281692E+04  0.12788281692E+04  0.00000000000E+00 0. -1.
         23    2    1    2    0    0  0.53120088943E+03  0.43905293531E+03  0.13965634881E+04  0.15599109235E+04  0.89390425911E+02 0.  0.
         11    1    3    3    0    0  0.47364605514E+03  0.41426184724E+03  0.12230756114E+04  0.13754517130E+04  0.00000000000E+00 0. -1.
        -11    1    3    3    0    0  0.57554834288E+02  0.24791088062E+02  0.17348787666E+03  0.18445921052E+03  0.00000000000E+00 0.  1.
         22    1    1    2    0    0 -0.53120088943E+03 -0.43905293531E+03 -0.10979730416E+04  0.12963358612E+04  0.00000000000E+00 0. -1.
<mgrwt>
<rscale>  0 0.28405967E+04</rscale>
<asrwt>0</asrwt>
<pdfrwt beam="1">  1        2 0.19674279E+00 0.28405967E+04</pdfrwt>
<pdfrwt beam="2">  1       -2 0.24267979E+00 0.28405967E+04</pdfrwt>
<totfact> 0.10518390E+00</totfact>
</mgrwt>
</event>
<event>
 6    1  0.9988873E-007  0.2314637E+04  0.7818608E-02  0.8472172E-01
          2   -1    0    0  501    0  0.00000000000E+00  0.00000000000E+00  0.24663648511E+04  0.24663648511E+04  0.00000000000E+00 0. -1.
         -2   -1    0    0    0  501 -0.00000000000E+00 -0.00000000000E+00 -0.54306091971E+03  0.54306091971E+03  0.00000000000E+00 0.  1.
         23    2    1    2    0    0  0.11050536468E+04  0.63319215076E+02  0.53191010347E+03  0.12314691713E+04  0.91842672938E+02 0.  0.
         11    1    3    3    0    0  0.22222710777E+03 -0.23628479563E+02  0.11343269272E+03  0.25061956878E+03  0.00000000000E+00 0.  1.
        -11    1    3    3    0    0  0.88282653899E+03  0.86947694638E+02  0.41847741075E+03  0.98084960257E+03  0.00000000000E+00 0. -1.
         22    1    1    2    0    0 -0.11050536468E+04 -0.63319215076E+02  0.13913938279E+04  0.17779565995E+04  0.00000000000E+00 0. -1.
<mgrwt>
<rscale>  0 0.23146372E+04</rscale>
<asrwt>0</asrwt>
<pdfrwt beam="1">  1        2 0.37944074E+00 0.23146372E+04</pdfrwt>
<pdfrwt beam="2">  1       -2 0.83547835E-01 0.23146372E+04</pdfrwt>
<totfact> 0.41309364E+00</totfact>
</mgrwt>
</event>
<event>
 6    1  0.9988873E-007  0.1639885E+04  0.7818608E-02  0.8796413E-01
          2   -1    0    0  501    0  0.00000000000E+00  0.00000000000E+00  0.70878162134E+03  0.70878162134E+03  0.00000000000E+00 0. -1.
         -2   -1    0    0    0  501 -0.00000000000E+00 -0.00000000000E+00 -0.94853675780E+03  0.94853675780E+03  0.00000000000E+00 0.  1.
         23    2    1    2    0    0 -0.22291553166E+03 -0.65462722921E+03  0.31978732610E+03  0.76775898771E+03  0.94666709001E+02 0.  0.
         13    1    3    3    0    0 -0.21842290814E+03 -0.54883435545E+03  0.25324359950E+03  0.64269746943E+03  0.00000000000E+00 0.  1.
        -13    1    3    3    0    0 -0.44926235201E+01 -0.10579287377E+03  0.66543726598E+02  0.12506151828E+03  0.00000000000E+00 0. -1.
         22    1    1    2    0    0  0.22291553166E+03  0.65462722921E+03 -0.55954246256E+03  0.88955939143E+03  0.00000000000E+00 0.  1.
<mgrwt>
<rscale>  0 0.16398847E+04</rscale>
<asrwt>0</asrwt>
<pdfrwt beam="1">  1        2 0.10904333E+00 0.16398847E+04</pdfrwt>
<pdfrwt beam="2">  1       -2 0.14592873E+00 0.16398847E+04</pdfrwt>
<totfact> 0.12416806E+01</totfact>
</mgrwt>
</event>
<event>
 6    1  0.9988873E-007  0.3728973E+04  0.7818608E-02  0.8061571E-01
         -2   -1    0    0    0  501 -0.00000000000E+00  0.00000000000E+00  0.83623850830E+03  0.83623850830E+03  0.00000000000E+00 0.  1.
          2   -1    0    0  501    0  0.00000000000E+00 -0.00000000000E+00 -0.41570801235E+04  0.41570801235E+04  0.00000000000E+00 0. -1.
         23    2    1    2    0    0  0.72337356940E+03 -0.40524298275E+03  0.57318596227E+03  0.10119944840E+04  0.89997179396E+02 0.  0.
         11    1    3    3    0    0  0.32553654985E+03 -0.17045421429E+03  0.30706526456E+03  0.47887134092E+03  0.00000000000E+00 0. -1.
        -11    1    3    3    0    0  0.39783701955E+03 -0.23478876846E+03  0.26612069770E+03  0.53312314306E+03  0.00000000000E+00 0.  1.
         22    1    1    2    0    0 -0.72337356940E+03  0.40524298275E+03 -0.38940275774E+04  0.39813241478E+04  0.00000000000E+00 0. -1.
<mgrwt>
<rscale>  0 0.37289733E+04</rscale>
<asrwt>0</asrwt>
<pdfrwt beam="1">  1        2 0.63955080E+00 0.37289733E+04</pdfrwt>
<pdfrwt beam="2">  1       -2 0.12865208E+00 0.37289733E+04</pdfrwt>
<totfact> 0.90700493E-02</totfact>
</mgrwt>
</event>
<event>
 6    1  0.9988873E-007  0.6625091E+03  0.7818608E-02  0.9783586E-01
         -1   -1    0    0    0  501 -0.00000000000E+00  0.00000000000E+00  0.22444691788E+03  0.22444691788E+03  0.00000000000E+00 0.  1.
          1   -1    0    0  501    0  0.00000000000E+00 -0.00000000000E+00 -0.48888883193E+03  0.48888883193E+03  0.00000000000E+00 0. -1.
         23    2    1    2    0    0 -0.10720001260E+03  0.14898133791E+03 -0.42550445772E+03  0.46914642834E+03  0.73191843353E+02 0.  0.
         13    1    3    3    0    0 -0.95158103459E+01  0.63620505477E+02 -0.18532956863E+03  0.19617637058E+03  0.00000000000E+00 0. -1.
        -13    1    3    3    0    0 -0.97684202258E+02  0.85360832434E+02 -0.24017488909E+03  0.27297005776E+03  0.00000000000E+00 0.  1.
         22    1    1    2    0    0  0.10720001260E+03 -0.14898133791E+03  0.16106254368E+03  0.24418932148E+03  0.00000000000E+00 0.  1.
<mgrwt>
<rscale>  0 0.66250914E+03</rscale>
<asrwt>0</asrwt>
<pdfrwt beam="1">  1        1 0.75213667E-01 0.66250914E+03</pdfrwt>
<pdfrwt beam="2">  1       -1 0.34530295E-01 0.66250914E+03</pdfrwt>
<totfact> 0.36784230E+02</totfact>
</mgrwt>
</event>
<event>
 6    1  0.9988873E-007  0.6259070E+03  0.7818608E-02  0.9853069E-01
          2   -1    0    0  501    0  0.00000000000E+00  0.00000000000E+00  0.22781906657E+04  0.22781906657E+04  0.00000000000E+00 0. -1.
         -2   -1    0    0    0  501 -0.00000000000E+00 -0.00000000000E+00 -0.42990215611E+02  0.42990215611E+02  0.00000000000E+00 0.  1.
         23    2    1    2    0    0 -0.18926014373E+03 -0.17357844365E+03  0.17612734161E+04  0.17821486823E+04  0.89560042179E+02 0.  0.
         11    1    3    3    0    0 -0.68984049574E+02 -0.11625410915E+03  0.74324240527E+03  0.75543569546E+03  0.00000000000E+00 0.  1.
        -11    1    3    3    0    0 -0.12027609416E+03 -0.57324334503E+02  0.10180310109E+04  0.10267129868E+04  0.00000000000E+00 0. -1.
         22    1    1    2    0    0  0.18926014373E+03  0.17357844365E+03  0.47392703389E+03  0.53903219900E+03  0.00000000000E+00 0.  1.
<mgrwt>
<rscale>  0 0.62590705E+03</rscale>
<asrwt>0</asrwt>
<pdfrwt beam="1">  1        2 0.35049078E+00 0.62590705E+03</pdfrwt>
<pdfrwt beam="2">  1       -2 0.66138811E-02 0.62590705E+03</pdfrwt>
<totfact> 0.64664385E+02</totfact>
</mgrwt>
</event>
<event>
 6    1  0.9988873E-007  0.2783723E+04  0.7818608E-02  0.8308340E-01
          2   -1    0    0  501    0  0.00000000000E+00  0.00000000000E+00  0.25851125420E+04  0.25851125420E+04  0.00000000000E+00 0. -1.
         -2   -1    0    0    0  501 -0.00000000000E+00 -0.00000000000E+00 -0.74939785969E+03  0.74939785969E+03  0.00000000000E+00 0.  1.
         23    2    1    2    0    0 -0.35358739829E+03  0.66321938013E+03  0.23199402938E+04  0.24404419271E+04  0.93540569722E+02 0.  0.
         11    1    3    3    0    0 -0.11820148481E+03  0.30518332996E+03  0.10846063199E+04  0.11329074653E+04  0.00000000000E+00 0. -1.
        -11    1    3    3    0    0 -0.23538591349E+03  0.35803605017E+03  0.12353339739E+04  0.13075344617E+04  0.00000000000E+00 0.  1.
         22    1    1    2    0    0  0.35358739829E+03 -0.66321938013E+03 -0.48422561152E+03  0.89406847459E+03  0.00000000000E+00 0.  1.
<mgrwt>
<rscale>  0 0.27837225E+04</rscale>
<asrwt>0</asrwt>
<pdfrwt beam="1">  1        2 0.39770962E+00 0.27837225E+04</pdfrwt>
<pdfrwt beam="2">  1       -2 0.11529198E+00 0.27837225E+04</pdfrwt>
<totfact> 0.15850099E+00</totfact>
</mgrwt>
</event>
<event>
 6    1  0.9988873E-007  0.1211442E+04  0.7818608E-02  0.9102900E-01
         -2   -1    0    0    0  501 -0.00000000000E+00  0.00000000000E+00  0.69880866380E+03  0.69880866380E+03  0.00000000000E+00 0.  1.
          2   -1    0    0  501    0  0.00000000000E+00 -0.00000000000E+00 -0.52503320350E+03  0.52503320350E+03  0.00000000000E+00 0. -1.
         23    2    1    2    0    0 -0.38496359501E+03 -0.27548714219E+03 -0.28894463521E+03  0.56187508431E+03  0.90135859446E+02 0.  0.
         13    1    3    3    0    0 -0.27990373914E+03 -0.20254722856E+03 -0.25539953532E+03  0.42965149322E+03  0.00000000000E+00 0.  1.
        -13    1    3    3    0    0 -0.10505985586E+03 -0.72939913629E+02 -0.33545099893E+02  0.13222359109E+03  0.00000000000E+00 0. -1.
         22    1    1    2    0    0  0.38496359501E+03  0.27548714219E+03  0.46272009551E+03  0.66196678299E+03  0.00000000000E+00 0.  1.
<mgrwt>
<rscale>  0 0.12114417E+04</rscale>
<asrwt>0</asrwt>
<pdfrwt beam="1">  1        2 0.80774339E-01 0.12114417E+04</pdfrwt>
<pdfrwt beam="2">  1       -2 0.10750903E+00 0.12114417E+04</pdfrwt>
<totfact> 0.39824694E+01</totfact>
</mgrwt>
</event>
<event>
 6    1  0.9988873E-007  0.2218805E+04  0.7818608E-02  0.8510642E-01
         -1   -1    0    0    0  501 -0.00000000000E+00  0.00000000000E+00  0.98621928065E+03  0.98621928065E+03  0.00000000000E+00 0.  1.
          1   -1    0    0  501    0  0.00000000000E+00 -0.00000000000E+00 -0.12479719307E+04  0.12479719307E+04  0.00000000000E+00 0. -1.
         23    2    1    2    0    0  0.96336010210E+02  0.13326997673E+03 -0.12339755115E+04  0.12481593630E+04  0.90358833235E+02 0.  0.
         13    1    3    3    0    0  0.51617268076E+02  0.33260425456E+02 -0.72132849368E+03  0.72393742413E+03  0.00000000000E+00 0. -1.
        -13    1    3    3    0    0  0.44718742134E+02  0.10000955127E+03 -0.51264701786E+03  0.52422193884E+03  0.00000000000E+00 0.  1.
         22    1    1    2    0    0 -0.96336010210E+02 -0.13326997673E+03  0.97222286150E+03  0.98603184836E+03  0.00000000000E+00 0.  1.
<mgrwt>
<rscale>  0 0.22188051E+04</rscale>
<asrwt>0</asrwt>
<pdfrwt beam="1">  1        1 0.19199568E+00 0.22188051E+04</pdfrwt>
<pdfrwt beam="2">  1       -1 0.15172604E+00 0.22188051E+04</pdfrwt>
<totfact> 0.30361113E+00</totfact>
</mgrwt>
</event>
<event>
 6    1  0.9988873E-007  0.2406929E+04  0.7818608E-02  0.8436914E-01
         -2   -1    0    0    0  501 -0.00000000000E+00  0.00000000000E+00  0.13965015389E+04  0.13965015389E+04  0.00000000000E+00 0.  1.
          2   -1    0    0  501    0  0.00000000000E+00 -0.00000000000E+00 -0.10371107966E+04  0.10371107966E+04  0.00000000000E+00 0. -1.
         23    2    1    2    0    0  0.14379773397E+03 -0.99715791662E+03 -0.48241807054E+03  0.11207361890E+04  0.91217934088E+02 0.  0.
         11    1    3    3    0    0 -0.37826345696E+01 -0.24845838673E+03 -0.11793552007E+03  0.27505393136E+03  0.00000000000E+00 0. -1.
        -11    1    3    3    0    0  0.14758036854E+03 -0.74869952989E+03 -0.36448255048E+03  0.84568225761E+03  0.00000000000E+00 0.  1.
         22    1    1    2    0    0 -0.14379773397E+03  0.99715791662E+03  0.84180881285E+03  0.13128761466E+04  0.00000000000E+00 0.  1.
<mgrwt>
<rscale>  0 0.24069290E+04</rscale>
<asrwt>0</asrwt>
<pdfrwt beam="1">  1        2 0.15955551E+00 0.24069290E+04</pdfrwt>
<pdfrwt beam="2">  1       -2 0.21484639E+00 0.24069290E+04</pdfrwt>
<totfact> 0.22844599E+00</totfact>
</mgrwt>
</event>
<event>
 6    1  0.9988873E-007  0.3195623E+04  0.7818608E-02  0.8189974E-01
         -2   -1    0    0    0  501 -0.00000000000E+00  0.00000000000E+00  0.14278814813E+04  0.14278814813E+04  0.00000000000E+00 0.  1.
          2   -1    0    0  501    0  0.00000000000E+00 -0.00000000000E+00 -0.17879644544E+04  0.17879644544E+04  0.00000000000E+00 0. -1.
         23    2    1    2    0    0 -0.96420859213E+03  0.12545090353E+04  0.34877383568E+02  0.15850532412E+04  0.87671071226E+02 0.  0.
         13    1    3    3    0    0 -0.68971595614E+03  0.94351291119E+03  0.52104757486E+02  0.11698887210E+04  0.00000000000E+00 0. -1.
        -13    1    3    3    0    0 -0.27449263598E+03  0.31099612413E+03 -0.17227373919E+02  0.41516452021E+03  0.00000000000E+00 0.  1.
         22    1    1    2    0    0  0.96420859213E+03 -0.12545090353E+04 -0.39496035667E+03  0.16307926944E+04  0.00000000000E+00 0.  1.
<mgrwt>
<rscale>  0 0.31956228E+04</rscale>
<asrwt>0</asrwt>
<pdfrwt beam="1">  1        2 0.27507145E+00 0.31956228E+04</pdfrwt>
<pdfrwt beam="2">  1       -2 0.21967408E+00 0.31956228E+04</pdfrwt>
<totfact> 0.73307611E-01</totfact>
</mgrwt>
</event>
<event>
 6    1  0.9988873E-007  0.2138035E+04  0.7818608E-02  0.8544671E-01
          2   -1    0    0  501    0  0.00000000000E+00  0.00000000000E+00  0.16887846570E+04  0.16887846570E+04  0.00000000000E+00 0. -1.
         -2   -1    0    0    0  501 -0.00000000000E+00 -0.00000000000E+00 -0.67669857707E+03  0.67669857707E+03  0.00000000000E+00 0.  1.
         23    2    1    2    0    0 -0.46339786098E+02  0.84024118505E+03  0.12335242250E+04  0.14953180331E+04  0.79002415481E+02 0.  0.
         13    1    3    3    0    0 -0.21781289449E+02  0.23860392081E+03  0.41456250698E+03  0.47881972368E+03  0.00000000000E+00 0. -1.
        -13    1    3    3    0    0 -0.24558496648E+02  0.60163726425E+03  0.81896171800E+03  0.10164983094E+04  0.00000000000E+00 0.  1.
         22    1    1    2    0    0  0.46339786098E+02 -0.84024118505E+03 -0.22143814508E+03  0.87016520094E+03  0.00000000000E+00 0.  1.
<mgrwt>
<rscale>  0 0.21380348E+04</rscale>
<asrwt>0</asrwt>
<pdfrwt beam="1">  1        2 0.25981302E+00 0.21380348E+04</pdfrwt>
<pdfrwt beam="2">  1       -2 0.10410747E+00 0.21380348E+04</pdfrwt>
<totfact> 0.68582254E+00</totfact>
</mgrwt>
</event>
<event>
 6    1  0.9988873E-007  0.1104092E+04  0.7818608E-02  0.9201213E-01
         -1   -1    0    0    0  501 -0.00000000000E+00  0.00000000000E+00  0.71145958997E+03  0.71145958997E+03  0.00000000000E+00 0.  1.
          1   -1    0    0  501    0  0.00000000000E+00 -0.00000000000E+00 -0.42835149474E+03  0.42835149474E+03  0.00000000000E+00 0. -1.
         23    2    1    2    0    0  0.52603334579E+03 -0.15036500753E+03  0.17121970805E+03  0.58138496824E+03  0.96806903158E+02 0.  0.
         13    1    3    3    0    0  0.23531161317E+03 -0.83340884380E+02  0.30416092462E+02  0.25148041074E+03  0.00000000000E+00 0. -1.
        -13    1    3    3    0    0  0.29072173261E+03 -0.67024123154E+02  0.14080361559E+03  0.32990455750E+03  0.00000000000E+00 0.  1.
         22    1    1    2    0    0 -0.52603334579E+03  0.15036500753E+03  0.11188838718E+03  0.55842611647E+03  0.00000000000E+00 0.  1.
<mgrwt>
<rscale>  0 0.11040920E+04</rscale>
<asrwt>0</asrwt>
<pdfrwt beam="1">  1        1 0.65900230E-01 0.11040920E+04</pdfrwt>
<pdfrwt beam="2">  1       -1 0.10945532E+00 0.11040920E+04</pdfrwt>
<totfact> 0.42126389E+01</totfact>
</mgrwt>
</event>
<event>
 6    1  0.9988873E-007  0.1162459E+04  0.7818608E-02  0.9146365E-01
         -3   -1    0    0    0  501 -0.00000000000E+00  0.00000000000E+00  0.12186699273E+04  0.12186699273E+04  0.00000000000E+00 0.  1.
          3   -1    0    0  501    0  0.00000000000E+00 -0.00000000000E+00 -0.27721043483E+03  0.27721043483E+03  0.00000000000E+00 0. -1.
         23    2    1    2    0    0 -0.22243938869E+03 -0.44343418844E+03  0.85443317114E+03  0.99220711315E+03  0.91135889286E+02 0.  0.
         13    1    3    3    0    0 -0.95749553050E+02 -0.28749416571E+03  0.53442899006E+03  0.61435756498E+03  0.00000000000E+00 0. -1.
        -13    1    3    3    0    0 -0.12668983564E+03 -0.15594002272E+03  0.32000418108E+03  0.37784954817E+03  0.00000000000E+00 0.  1.
         22    1    1    2    0    0  0.22243938869E+03  0.44343418844E+03  0.87026321294E+02  0.50367324896E+03  0.00000000000E+00 0. -1.
<mgrwt>
<rscale>  0 0.11624595E+04</rscale>
<asrwt>0</asrwt>
<pdfrwt beam="1">  1        3 0.42647760E-01 0.11624595E+04</pdfrwt>
<pdfrwt beam="2">  1       -3 0.18748768E+00 0.11624595E+04</pdfrwt>
<totfact> 0.25031436E+00</totfact>
</mgrwt>
</event>
<event>
 6    1  0.9988873E-007  0.2414005E+04  0.7818608E-02  0.8434279E-01
          2   -1    0    0  501    0  0.00000000000E+00  0.00000000000E+00  0.51862697042E+03  0.51862697042E+03  0.00000000000E+00 0. -1.
         -2   -1    0    0    0  501 -0.00000000000E+00 -0.00000000000E+00 -0.28090616883E+04  0.28090616883E+04  0.00000000000E+00 0.  1.
         23    2    1    2    0    0 -0.51241274389E+03 -0.33689722325E+03 -0.25772018905E+04  0.26507086218E+04  0.90664514748E+02 0.  0.
         13    1    3    3    0    0 -0.31564505797E+03 -0.19436361920E+03 -0.17351631511E+04  0.17743168207E+04  0.00000000000E+00 0. -1.
        -13    1    3    3    0    0 -0.19676768592E+03 -0.14253360405E+03 -0.84203873933E+03  0.87639180111E+03  0.00000000000E+00 0.  1.
         22    1    1    2    0    0  0.51241274389E+03  0.33689722325E+03  0.28676717259E+03  0.67698003694E+03  0.00000000000E+00 0. -1.
<mgrwt>
<rscale>  0 0.24140051E+04</rscale>
<asrwt>0</asrwt>
<pdfrwt beam="1">  1        2 0.79788767E-01 0.24140051E+04</pdfrwt>
<pdfrwt beam="2">  1       -2 0.43216333E+00 0.24140051E+04</pdfrwt>
<totfact> 0.24143992E-01</totfact>
</mgrwt>
</event>
<event>
 6    1  0.9988873E-007  0.4863819E+04  0.7818608E-02  0.7849865E-01
          2   -1    0    0  501    0  0.00000000000E+00  0.00000000000E+00  0.26994519177E+04  0.26994519177E+04  0.00000000000E+00 0. -1.
         -2   -1    0    0    0  501 -0.00000000000E+00 -0.00000000000E+00 -0.21908827638E+04  0.21908827638E+04  0.00000000000E+00 0.  1.
         23    2    1    2    0    0  0.19042593974E+04  0.28981220178E+03  0.17455951674E+04  0.26011364981E+04  0.92809636273E+02 0.  0.
         11    1    3    3    0    0  0.10207704960E+04  0.17833091761E+03  0.88432485337E+03  0.13622792547E+04  0.00000000000E+00 0. -1.
        -11    1    3    3    0    0  0.88348890145E+03  0.11148128417E+03  0.86127031402E+03  0.12388572434E+04  0.00000000000E+00 0.  1.
         22    1    1    2    0    0 -0.19042593974E+04 -0.28981220178E+03 -0.12370260135E+04  0.22891981834E+04  0.00000000000E+00 0.  1.
<mgrwt>
<rscale>  0 0.48638185E+04</rscale>
<asrwt>0</asrwt>
<pdfrwt beam="1">  1        2 0.41530030E+00 0.48638185E+04</pdfrwt>
<pdfrwt beam="2">  1       -2 0.33705889E+00 0.48638185E+04</pdfrwt>
<totfact> 0.36684964E-02</totfact>
</mgrwt>
</event>
<event>
 6    1  0.9988873E-007  0.1857786E+04  0.7818608E-02  0.8676159E-01
          1   -1    0    0  501    0  0.00000000000E+00  0.00000000000E+00  0.18378546856E+04  0.18378546856E+04  0.00000000000E+00 0. -1.
         -1   -1    0    0    0  501 -0.00000000000E+00 -0.00000000000E+00 -0.46948358564E+03  0.46948358564E+03  0.00000000000E+00 0.  1.
         23    2    1    2    0    0  0.37852160693E+03 -0.62168359070E+03  0.13968561727E+04  0.15789287071E+04  0.10972511497E+03 0.  0.
         11    1    3    3    0    0  0.21561890497E+03 -0.26522912213E+03  0.71387971804E+03  0.79149368364E+03  0.00000000000E+00 0.  1.
        -11    1    3    3    0    0  0.16290270196E+03 -0.35645446856E+03  0.68297645467E+03  0.78743502341E+03  0.00000000000E+00 0. -1.
         22    1    1    2    0    0 -0.37852160693E+03  0.62168359070E+03 -0.28485072738E+02  0.72840956420E+03  0.00000000000E+00 0.  1.
<mgrwt>
<rscale>  0 0.18577864E+04</rscale>
<asrwt>0</asrwt>
<pdfrwt beam="1">  1        1 0.28274687E+00 0.18577864E+04</pdfrwt>
<pdfrwt beam="2">  1       -1 0.72228245E-01 0.18577864E+04</pdfrwt>
<totfact> 0.69719769E+00</totfact>
</mgrwt>
</event>
<event>
 6    1  0.9988873E-007  0.2334332E+04  0.7818608E-02  0.8464506E-01
         -2   -1    0    0    0  501 -0.00000000000E+00  0.00000000000E+00  0.57713963961E+03  0.57713963961E+03  0.00000000000E+00 0.  1.
          2   -1    0    0  501    0  0.00000000000E+00 -0.00000000000E+00 -0.23603940861E+04  0.23603940861E+04  0.00000000000E+00 0. -1.
         23    2    1    2    0    0  0.54314892000E+03  0.87497640547E+03 -0.20666378236E+03  0.10543893920E+04  0.91829252295E+02 0.  0.
         11    1    3    3    0    0  0.28345906843E+03  0.44255491208E+03 -0.59240222218E+02  0.52887928454E+03  0.00000000000E+00 0. -1.
        -11    1    3    3    0    0  0.25968985157E+03  0.43242149338E+03 -0.14742356014E+03  0.52551010745E+03  0.00000000000E+00 0.  1.
         22    1    1    2    0    0 -0.54314892000E+03 -0.87497640547E+03 -0.15765906642E+04  0.18831443338E+04  0.00000000000E+00 0. -1.
<mgrwt>
<rscale>  0 0.23343324E+04</rscale>
<asrwt>0</asrwt>
<pdfrwt beam="1">  1        2 0.36313755E+00 0.23343324E+04</pdfrwt>
<pdfrwt beam="2">  1       -2 0.88790713E-01 0.23343324E+04</pdfrwt>
<totfact> 0.41281161E+00</totfact>
</mgrwt>
</event>
<event>
 6    1  0.9988873E-007  0.4807409E+04  0.7818608E-02  0.7858923E-01
          2   -1    0    0  501    0  0.00000000000E+00  0.00000000000E+00  0.46231890987E+04  0.46231890987E+04  0.00000000000E+00 0. -1.
         -2   -1    0    0    0  501 -0.00000000000E+00 -0.00000000000E+00 -0.12497426154E+04  0.12497426154E+04  0.00000000000E+00 0.  1.
         23    2    1    2    0    0 -0.14882185301E+03  0.23658583395E+04  0.12074793037E+04  0.26618808814E+04  0.90387672600E+02 0.  0.
         13    1    3    3    0    0 -0.11728107500E+03  0.11510485298E+04  0.58225156012E+03  0.12952545880E+04  0.00000000000E+00 0.  1.
        -13    1    3    3    0    0 -0.31540778012E+02  0.12148098098E+04  0.62522774354E+03  0.13666262934E+04  0.00000000000E+00 0. -1.
         22    1    1    2    0    0  0.14882185301E+03 -0.23658583395E+04  0.21659671796E+04  0.32110508327E+04  0.00000000000E+00 0. -1.
<mgrwt>
<rscale>  0 0.48074095E+04</rscale>
<asrwt>0</asrwt>
<pdfrwt beam="1">  1        2 0.71125985E+00 0.48074095E+04</pdfrwt>
<pdfrwt beam="2">  1       -2 0.19226810E+00 0.48074095E+04</pdfrwt>
<totfact> 0.10122242E-02</totfact>
</mgrwt>
</event>
<event>
 6    1  0.9988873E-007  0.2360436E+04  0.7818608E-02  0.8454466E-01
          1   -1    0    0  501    0  0.00000000000E+00  0.00000000000E+00  0.93603772427E+03  0.93603772427E+03  0.00000000000E+00 0. -1.
         -1   -1    0    0    0  501 -0.00000000000E+00 -0.00000000000E+00 -0.14880959794E+04  0.14880959794E+04  0.00000000000E+00 0.  1.
         23    2    1    2    0    0 -0.27039323776E+03 -0.10289555724E+04 -0.79701466632E+03  0.13324076774E+04  0.90640871301E+02 0.  0.
         13    1    3    3    0    0 -0.10886237191E+03 -0.25945187327E+03 -0.20187438476E+03  0.34629403371E+03  0.00000000000E+00 0.  1.
        -13    1    3    3    0    0 -0.16153086585E+03 -0.76950369909E+03 -0.59514028157E+03  0.98611364370E+03  0.00000000000E+00 0. -1.
         22    1    1    2    0    0  0.27039323776E+03  0.10289555724E+04  0.24495641123E+03  0.10917260262E+04  0.00000000000E+00 0. -1.
<mgrwt>
<rscale>  0 0.23604355E+04</rscale>
<asrwt>0</asrwt>
<pdfrwt beam="1">  1        1 0.14400580E+00 0.23604355E+04</pdfrwt>
<pdfrwt beam="2">  1       -1 0.22893784E+00 0.23604355E+04</pdfrwt>
<totfact> 0.14671681E+00</totfact>
</mgrwt>
</event>
<event>
 6    1  0.9988873E-007  0.4465081E+04  0.7818608E-02  0.7916779E-01
         -1   -1    0    0    0  501 -0.00000000000E+00  0.00000000000E+00  0.14082842409E+04  0.14082842409E+04  0.00000000000E+00 0.  1.
          1   -1    0    0  501    0  0.00000000000E+00 -0.00000000000E+00 -0.35392263385E+04  0.35392263385E+04  0.00000000000E+00 0. -1.
         23    2    1    2    0    0  0.55140401333E+02 -0.19108187821E+04 -0.23417583904E+04  0.30243069003E+04  0.91274235469E+02 0.  0.
         11    1    3    3    0    0  0.70685428634E+02 -0.11692260850E+04 -0.13944717085E+04  0.18211637525E+04  0.00000000000E+00 0.  1.
        -11    1    3    3    0    0 -0.15545027301E+02 -0.74159269717E+03 -0.94728668184E+03  0.12031431477E+04  0.00000000000E+00 0. -1.
         22    1    1    2    0    0 -0.55140401333E+02  0.19108187821E+04  0.21081629277E+03  0.19232036791E+04  0.00000000000E+00 0.  1.
<mgrwt>
<rscale>  0 0.44650808E+04</rscale>
<asrwt>0</asrwt>
<pdfrwt beam="1">  1        1 0.54449636E+00 0.44650808E+04</pdfrwt>
<pdfrwt beam="2">  1       -1 0.21665912E+00 0.44650808E+04</pdfrwt>
<totfact> 0.20286457E-02</totfact>
</mgrwt>
</event>
<event>
 6    1  0.9988873E-007  0.1403816E+04  0.7818608E-02  0.8951061E-01
         -2   -1    0    0    0  501 -0.00000000000E+00  0.00000000000E+00  0.33864007335E+03  0.33864007335E+03  0.00000000000E+00 0.  1.
          2   -1    0    0  501    0  0.00000000000E+00 -0.00000000000E+00 -0.14548619915E+04  0.14548619915E+04  0.00000000000E+00 0. -1.
         23    2    1    2    0    0 -0.45893980678E+03 -0.11615221474E+03 -0.12172220073E+04  0.13094379150E+04  0.94239880139E+02 0.  0.
         11    1    3    3    0    0 -0.69495115413E+02 -0.51551727611E+02 -0.25950546113E+03  0.27355115800E+03  0.00000000000E+00 0.  1.
        -11    1    3    3    0    0 -0.38944469136E+03 -0.64600487127E+02 -0.95771654613E+03  0.10358867570E+04  0.00000000000E+00 0. -1.
         22    1    1    2    0    0  0.45893980678E+03  0.11615221474E+03  0.10100008906E+03  0.48406414991E+03  0.00000000000E+00 0.  1.
<mgrwt>
<rscale>  0 0.14038156E+04</rscale>
<asrwt>0</asrwt>
<pdfrwt beam="1">  1        2 0.22382493E+00 0.14038156E+04</pdfrwt>
<pdfrwt beam="2">  1       -2 0.52098472E-01 0.14038156E+04</pdfrwt>
<totfact> 0.45558687E+01</totfact>
</mgrwt>
</event>
<event>
 6    1  0.9988873E-007  0.3514523E+04  0.7818608E-02  0.8110357E-01
         -2   -1    0    0    0  501 -0.00000000000E+00  0.00000000000E+00  0.19101122682E+04  0.19101122682E+04  0.00000000000E+00 0.  1.
          2   -1    0    0  501    0  0.00000000000E+00 -0.00000000000E+00 -0.16166418942E+04  0.16166418942E+04  0.00000000000E+00 0. -1.
         23    2    1    2    0    0  0.78721544630E+03 -0.35417133779E+03  0.16814701402E+04  0.18922240016E+04  0.89578705501E+02 0.  0.
         13    1    3    3    0    0  0.29994481465E+03 -0.12151520231E+03  0.54146356820E+03  0.63080554208E+03  0.00000000000E+00 0.  1.
        -13    1    3    3    0    0  0.48727063165E+03 -0.23265613549E+03  0.11400065720E+04  0.12614184596E+04  0.00000000000E+00 0. -1.
         22    1    1    2    0    0 -0.78721544630E+03  0.35417133779E+03 -0.13879997663E+04  0.16345301608E+04  0.00000000000E+00 0. -1.
<mgrwt>
<rscale>  0 0.35145227E+04</rscale>
<asrwt>0</asrwt>
<pdfrwt beam="1">  1        2 0.24871414E+00 0.35145227E+04</pdfrwt>
<pdfrwt beam="2">  1       -2 0.29386343E+00 0.35145227E+04</pdfrwt>
<totfact> 0.31042728E-01</totfact>
</mgrwt>
</event>
<event>
 6    1  0.9988873E-007  0.1176663E+04  0.7818608E-02  0.9133532E-01
         -2   -1    0    0    0  501 -0.00000000000E+00  0.00000000000E+00  0.21686649287E+03  0.21686649287E+03  0.00000000000E+00 0.  1.
          2   -1    0    0  501    0  0.00000000000E+00 -0.00000000000E+00 -0.15960683880E+04  0.15960683880E+04  0.00000000000E+00 0. -1.
         23    2    1    2    0    0  0.19532130074E+03 -0.27291883515E+03 -0.14316147195E+04  0.14732553183E+04  0.91243775024E+02 0.  0.
         13    1    3    3    0    0  0.13621714184E+03 -0.15710238631E+03 -0.70210264369E+03  0.73224612788E+03  0.00000000000E+00 0. -1.
        -13    1    3    3    0    0  0.59104158891E+02 -0.11581644883E+03 -0.72951207585E+03  0.74100919039E+03  0.00000000000E+00 0.  1.
         22    1    1    2    0    0 -0.19532130074E+03  0.27291883515E+03  0.52412824407E+02  0.33967956262E+03  0.00000000000E+00 0.  1.
<mgrwt>
<rscale>  0 0.11766627E+04</rscale>
<asrwt>0</asrwt>
<pdfrwt beam="1">  1        2 0.24554899E+00 0.11766627E+04</pdfrwt>
<pdfrwt beam="2">  1       -2 0.33364075E-01 0.11766627E+04</pdfrwt>
<totfact> 0.92929197E+01</totfact>
</mgrwt>
</event>
<event>
 6    1  0.9988873E-007  0.1975743E+04  0.7818608E-02  0.8618046E-01
          1   -1    0    0  501    0  0.00000000000E+00  0.00000000000E+00  0.11537764162E+04  0.11537764162E+04  0.00000000000E+00 0. -1.
         -1   -1    0    0    0  501 -0.00000000000E+00 -0.00000000000E+00 -0.84582262160E+03  0.84582262160E+03  0.00000000000E+00 0.  1.
         23    2    1    2    0    0  0.65825272684E+03  0.68870458318E+03  0.41057340966E+03  0.10414020639E+04  0.91307604915E+02 0.  0.
         13    1    3    3    0    0  0.24735957931E+02  0.57779826673E+02  0.30781486415E+02  0.69984826149E+02  0.00000000000E+00 0.  1.
        -13    1    3    3    0    0  0.63351676891E+03  0.63092475651E+03  0.37979192324E+03  0.97141723777E+03  0.00000000000E+00 0. -1.
         22    1    1    2    0    0 -0.65825272684E+03 -0.68870458318E+03 -0.10261961509E+03  0.95819697385E+03  0.00000000000E+00 0.  1.
<mgrwt>
<rscale>  0 0.19757431E+04</rscale>
<asrwt>0</asrwt>
<pdfrwt beam="1">  1        1 0.17750406E+00 0.19757431E+04</pdfrwt>
<pdfrwt beam="2">  1       -1 0.13012656E+00 0.19757431E+04</pdfrwt>
<totfact> 0.54357459E+00</totfact>
</mgrwt>
</event>
<event>
 6    1  0.9988873E-007  0.1700005E+04  0.7818608E-02  0.8761361E-01
          1   -1    0    0  501    0  0.00000000000E+00  0.00000000000E+00  0.13986832900E+04  0.13986832900E+04  0.00000000000E+00 0. -1.
         -1   -1    0    0    0  501 -0.00000000000E+00 -0.00000000000E+00 -0.51656052435E+03  0.51656052435E+03  0.00000000000E+00 0.  1.
         23    2    1    2    0    0 -0.29271190606E+03 -0.99737402692E+02  0.13311755832E+04  0.13700133655E+04  0.96334723361E+02 0.  0.
         13    1    3    3    0    0 -0.18327582738E+03 -0.10590792839E+03  0.95600074905E+03  0.97915471218E+03  0.00000000000E+00 0. -1.
        -13    1    3    3    0    0 -0.10943607868E+03  0.61705257026E+01  0.37517483416E+03  0.39085865334E+03  0.00000000000E+00 0.  1.
         22    1    1    2    0    0  0.29271190606E+03  0.99737402692E+02 -0.44905281753E+03  0.54523044887E+03  0.00000000000E+00 0.  1.
<mgrwt>
<rscale>  0 0.17000054E+04</rscale>
<asrwt>0</asrwt>
<pdfrwt beam="1">  1        1 0.21518204E+00 0.17000054E+04</pdfrwt>
<pdfrwt beam="2">  1       -1 0.79470850E-01 0.17000054E+04</pdfrwt>
<totfact> 0.11591617E+01</totfact>
</mgrwt>
</event>
<event>
 6    1  0.9988873E-007  0.2364435E+04  0.7818608E-02  0.8452940E-01
         -3   -1    0    0    0  501 -0.00000000000E+00  0.00000000000E+00  0.20561749110E+04  0.20561749110E+04  0.00000000000E+00 0.  1.
          3   -1    0    0  501    0  0.00000000000E+00 -0.00000000000E+00 -0.67972748568E+03  0.67972748568E+03  0.00000000000E+00 0. -1.
         23    2    1    2    0    0  0.96991036836E+03  0.63847629684E+03  0.93531780658E+03  0.14937375748E+04  0.89746524708E+02 0.  0.
         11    1    3    3    0    0  0.60253235470E+03  0.39484357591E+03  0.63541631429E+03  0.96057304791E+03  0.00000000000E+00 0. -1.
        -11    1    3    3    0    0  0.36737801366E+03  0.24363272093E+03  0.29990149229E+03  0.53316452686E+03  0.00000000000E+00 0.  1.
         22    1    1    2    0    0 -0.96991036836E+03 -0.63847629684E+03  0.44112961874E+03  0.12421648219E+04  0.00000000000E+00 0. -1.
<mgrwt>
<rscale>  0 0.23644353E+04</rscale>
<asrwt>0</asrwt>
<pdfrwt beam="1">  1        3 0.10457346E+00 0.23644353E+04</pdfrwt>
<pdfrwt beam="2">  1       -3 0.31633460E+00 0.23644353E+04</pdfrwt>
<totfact> 0.57040043E-02</totfact>
</mgrwt>
</event>
<event>
 6    1  0.9988873E-007  0.3232172E+04  0.7818608E-02  0.8180372E-01
          1   -1    0    0  501    0  0.00000000000E+00  0.00000000000E+00  0.25718448378E+04  0.25718448378E+04  0.00000000000E+00 0. -1.
         -1   -1    0    0    0  501 -0.00000000000E+00 -0.00000000000E+00 -0.10155096894E+04  0.10155096894E+04  0.00000000000E+00 0.  1.
         23    2    1    2    0    0 -0.59872522586E+03 -0.80294470657E+03  0.21845704970E+04  0.24050382619E+04  0.93105783093E+02 0.  0.
         13    1    3    3    0    0 -0.28042056486E+03 -0.35516658288E+03  0.10942097482E+04  0.11840920437E+04  0.00000000000E+00 0. -1.
        -13    1    3    3    0    0 -0.31830466100E+03 -0.44777812369E+03  0.10903607488E+04  0.12209462182E+04  0.00000000000E+00 0.  1.
         22    1    1    2    0    0  0.59872522586E+03  0.80294470657E+03 -0.62823534867E+03  0.11823162653E+04  0.00000000000E+00 0.  1.
<mgrwt>
<rscale>  0 0.32321716E+04</rscale>
<asrwt>0</asrwt>
<pdfrwt beam="1">  1        1 0.39566843E+00 0.32321716E+04</pdfrwt>
<pdfrwt beam="2">  1       -1 0.15623226E+00 0.32321716E+04</pdfrwt>
<totfact> 0.31441789E-01</totfact>
</mgrwt>
</event>
<event>
 6    1  0.9988873E-007  0.1996658E+04  0.7818608E-02  0.8608185E-01
         -2   -1    0    0    0  501 -0.00000000000E+00  0.00000000000E+00  0.66298144039E+03  0.66298144039E+03  0.00000000000E+00 0.  1.
          2   -1    0    0  501    0  0.00000000000E+00 -0.00000000000E+00 -0.15033004600E+04  0.15033004600E+04  0.00000000000E+00 0. -1.
         23    2    1    2    0    0 -0.70241772552E+03 -0.69340891963E+03 -0.56816093027E+03  0.11424280942E+04  0.90158286988E+02 0.  0.
         13    1    3    3    0    0 -0.36525684708E+03 -0.37577700723E+03 -0.25110664548E+03  0.58109850361E+03  0.00000000000E+00 0. -1.
        -13    1    3    3    0    0 -0.33716087845E+03 -0.31763191240E+03 -0.31705428479E+03  0.56132959056E+03  0.00000000000E+00 0.  1.
         22    1    1    2    0    0  0.70241772552E+03  0.69340891963E+03 -0.27215808937E+03  0.10238538062E+04  0.00000000000E+00 0.  1.
<mgrwt>
<rscale>  0 0.19966575E+04</rscale>
<asrwt>0</asrwt>
<pdfrwt beam="1">  1        2 0.23127699E+00 0.19966575E+04</pdfrwt>
<pdfrwt beam="2">  1       -2 0.10199715E+00 0.19966575E+04</pdfrwt>
<totfact> 0.92568350E+00</totfact>
</mgrwt>
</event>
<event>
 6    1  0.9988873E-007  0.2868424E+04  0.7818608E-02  0.8282335E-01
          2   -1    0    0  501    0  0.00000000000E+00  0.00000000000E+00  0.20633752745E+04  0.20633752745E+04  0.00000000000E+00 0. -1.
         -2   -1    0    0    0  501 -0.00000000000E+00 -0.00000000000E+00 -0.99689267311E+03  0.99689267311E+03  0.00000000000E+00 0.  1.
         23    2    1    2    0    0  0.39855166626E+01  0.55523601417E+03 -0.87536466177E+03  0.10405962641E+04  0.90963607848E+02 0.  0.
         13    1    3    3    0    0 -0.18424893449E+02  0.52337203642E+03 -0.81456161157E+03  0.96838441966E+03  0.00000000000E+00 0. -1.
        -13    1    3    3    0    0  0.22410410111E+02  0.31863977758E+02 -0.60803050203E+02  0.72211844416E+02  0.00000000000E+00 0.  1.
         22    1    1    2    0    0 -0.39855166626E+01 -0.55523601417E+03  0.19418472632E+04  0.20196716835E+04  0.00000000000E+00 0. -1.
<mgrwt>
<rscale>  0 0.28684237E+04</rscale>
<asrwt>0</asrwt>
<pdfrwt beam="1">  1        2 0.31744235E+00 0.28684237E+04</pdfrwt>
<pdfrwt beam="2">  1       -2 0.15336810E+00 0.28684237E+04</pdfrwt>
<totfact> 0.15052394E+00</totfact>
</mgrwt>
</event>
<event>
 6    1  0.9988873E-007  0.2040807E+04  0.7818608E-02  0.8587776E-01
          2   -1    0    0  501    0  0.00000000000E+00  0.00000000000E+00  0.20913639782E+04  0.20913639782E+04  0.00000000000E+00 0. -1.
         -2   -1    0    0    0  501 -0.00000000000E+00 -0.00000000000E+00 -0.49786786652E+03  0.49786786652E+03  0.00000000000E+00 0.  1.
         23    2    1    2    0    0 -0.19888729455E+03  0.49768806354E+03  0.18969418145E+04  0.19733350522E+04  0.91724674510E+02 0.  0.
         11    1    3    3    0    0 -0.13879983376E+03  0.43563762534E+03  0.15777310376E+04  0.16426444415E+04  0.00000000000E+00 0. -1.
        -11    1    3    3    0    0 -0.60087460794E+02  0.62050438200E+02  0.31921077696E+03  0.33069061062E+03  0.00000000000E+00 0.  1.
         22    1    1    2    0    0  0.19888729455E+03 -0.49768806354E+03 -0.30344570282E+03  0.61589679256E+03  0.00000000000E+00 0.  1.
<mgrwt>
<rscale>  0 0.20408066E+04</rscale>
<asrwt>0</asrwt>
<pdfrwt beam="1">  1        2 0.32174830E+00 0.20408066E+04</pdfrwt>
<pdfrwt beam="2">  1       -2 0.76595058E-01 0.20408066E+04</pdfrwt>
<totfact> 0.83829918E+00</totfact>
</mgrwt>
</event>
<event>
 6    1  0.9988873E-007  0.2250010E+04  0.7818608E-02  0.8497897E-01
         -1   -1    0    0    0  501 -0.00000000000E+00  0.00000000000E+00  0.95378381818E+03  0.95378381818E+03  0.00000000000E+00 0.  1.
          1   -1    0    0  501    0  0.00000000000E+00 -0.00000000000E+00 -0.13269632407E+04  0.13269632407E+04  0.00000000000E+00 0. -1.
         23    2    1    2    0    0 -0.28782504440E+03  0.79637317929E+03 -0.93495577111E+03  0.12645550678E+04  0.88902917620E+02 0.  0.
         13    1    3    3    0    0 -0.19205651070E+03  0.41209342934E+03 -0.47297590904E+03  0.65605861655E+03  0.00000000000E+00 0. -1.
        -13    1    3    3    0    0 -0.95768533696E+02  0.38427974995E+03 -0.46197986207E+03  0.60849645129E+03  0.00000000000E+00 0.  1.
         22    1    1    2    0    0  0.28782504440E+03 -0.79637317929E+03  0.56177634857E+03  0.10161919911E+04  0.00000000000E+00 0.  1.
<mgrwt>
<rscale>  0 0.22500098E+04</rscale>
<asrwt>0</asrwt>
<pdfrwt beam="1">  1        1 0.20414819E+00 0.22500098E+04</pdfrwt>
<pdfrwt beam="2">  1       -1 0.14673597E+00 0.22500098E+04</pdfrwt>
<totfact> 0.29078876E+00</totfact>
</mgrwt>
</event>
<event>
 6    1  0.9988873E-007  0.1672718E+04  0.7818608E-02  0.8777079E-01
         -2   -1    0    0    0  501 -0.00000000000E+00  0.00000000000E+00  0.13537680496E+04  0.13537680496E+04  0.00000000000E+00 0.  1.
          2   -1    0    0  501    0  0.00000000000E+00 -0.00000000000E+00 -0.51670334873E+03  0.51670334873E+03  0.00000000000E+00 0. -1.
         23    2    1    2    0    0 -0.78423943938E+03  0.50581739497E+02  0.10740863928E+03  0.79809647374E+03  0.88494943116E+02 0.  0.
         11    1    3    3    0    0 -0.41444768835E+03  0.40756679331E+02  0.99125008489E+02  0.42808148827E+03  0.00000000000E+00 0.  1.
        -11    1    3    3    0    0 -0.36979175103E+03  0.98250601653E+01  0.82836307944E+01  0.37001498547E+03  0.00000000000E+00 0. -1.
         22    1    1    2    0    0  0.78423943938E+03 -0.50581739497E+02  0.72965606157E+03  0.10723749246E+04  0.00000000000E+00 0.  1.
<mgrwt>
<rscale>  0 0.16727181E+04</rscale>
<asrwt>0</asrwt>
<pdfrwt beam="1">  1        2 0.79492824E-01 0.16727181E+04</pdfrwt>
<pdfrwt beam="2">  1       -2 0.20827201E+00 0.16727181E+04</pdfrwt>
<totfact> 0.66331017E+00</totfact>
</mgrwt>
</event>
<event>
 6    1  0.9988873E-007  0.2348868E+04  0.7818608E-02  0.8458899E-01
         -2   -1    0    0    0  501 -0.00000000000E+00  0.00000000000E+00  0.34206264166E+03  0.34206264166E+03  0.00000000000E+00 0.  1.
          2   -1    0    0  501    0  0.00000000000E+00 -0.00000000000E+00 -0.40322873587E+04  0.40322873587E+04  0.00000000000E+00 0. -1.
         23    2    1    2    0    0  0.73362520936E+03 -0.54465666754E+03 -0.47881208486E+03  0.10354837366E+04  0.90048447058E+02 0.  0.
         11    1    3    3    0    0  0.64933166245E+03 -0.50498154354E+03 -0.40644778755E+03  0.91751717759E+03  0.00000000000E+00 0.  1.
        -11    1    3    3    0    0  0.84293546913E+02 -0.39675124006E+02 -0.72364297309E+02  0.11796655899E+03  0.00000000000E+00 0. -1.
         22    1    1    2    0    0 -0.73362520936E+03  0.54465666754E+03 -0.32114126322E+04  0.33388662638E+04  0.00000000000E+00 0. -1.
<mgrwt>
<rscale>  0 0.23488677E+04</rscale>
<asrwt>0</asrwt>
<pdfrwt beam="1">  1        2 0.62035189E+00 0.23488677E+04</pdfrwt>
<pdfrwt beam="2">  1       -2 0.52625023E-01 0.23488677E+04</pdfrwt>
<totfact> 0.99602300E-01</totfact>
</mgrwt>
</event>
<event>
 6    1  0.9988873E-007  0.7579108E+03  0.7818608E-02  0.9623021E-01
         -2   -1    0    0    0  501 -0.00000000000E+00  0.00000000000E+00  0.26014566584E+03  0.26014566584E+03  0.00000000000E+00 0.  1.
          2   -1    0    0  501    0  0.00000000000E+00 -0.00000000000E+00 -0.55202602022E+03  0.55202602022E+03  0.00000000000E+00 0. -1.
         23    2    1    2    0    0  0.87989069067E+02 -0.35757879447E+03 -0.84654624532E+02  0.38962325850E+03  0.95053708912E+02 0.  0.
         11    1    3    3    0    0  0.86060103313E+02 -0.15159792857E+03 -0.39608463583E+02  0.17876549924E+03  0.00000000000E+00 0. -1.
        -11    1    3    3    0    0  0.19289657539E+01 -0.20598086590E+03 -0.45046160949E+02  0.21085775926E+03  0.00000000000E+00 0.  1.
         22    1    1    2    0    0 -0.87989069067E+02  0.35757879447E+03 -0.20722572985E+03  0.42254842757E+03  0.00000000000E+00 0. -1.
<mgrwt>
<rscale>  0 0.75791075E+03</rscale>
<asrwt>0</asrwt>
<pdfrwt beam="1">  1        2 0.84927080E-01 0.75791075E+03</pdfrwt>
<pdfrwt beam="2">  1       -2 0.40022410E-01 0.75791075E+03</pdfrwt>
<totfact> 0.32608786E+02</totfact>
</mgrwt>
</event>
<event>
 6    1  0.9988873E-007  0.3144236E+03  0.7818608E-02  0.1078245E+00
          1   -1    0    0  501    0  0.00000000000E+00  0.00000000000E+00  0.26863414510E+03  0.26863414510E+03  0.00000000000E+00 0. -1.
         -1   -1    0    0    0  501 -0.00000000000E+00 -0.00000000000E+00 -0.92004518317E+02  0.92004518317E+02  0.00000000000E+00 0.  1.
         23    2    1    2    0    0  0.74146191647E+02  0.79164365868E+02  0.20300848215E+03  0.24901206009E+03  0.95025826411E+02 0.  0.
         11    1    3    3    0    0  0.93876070892E+02  0.71223490361E+02  0.14270553044E+03  0.18506855671E+03  0.00000000000E+00 0. -1.
        -11    1    3    3    0    0 -0.19729879246E+02  0.79408755079E+01  0.60302951714E+02  0.63943503378E+02  0.00000000000E+00 0.  1.
         22    1    1    2    0    0 -0.74146191647E+02 -0.79164365868E+02 -0.26378855372E+02  0.11162660332E+03  0.00000000000E+00 0.  1.
<mgrwt>
<rscale>  0 0.31442363E+03</rscale>
<asrwt>0</asrwt>
<pdfrwt beam="1">  1        1 0.41328330E-01 0.31442363E+03</pdfrwt>
<pdfrwt beam="2">  1       -1 0.14154541E-01 0.31442363E+03</pdfrwt>
<totfact> 0.35534261E+03</totfact>
</mgrwt>
</event>
<event>
 6    1  0.9988873E-007  0.2960710E+04  0.7818608E-02  0.8255040E-01
         -2   -1    0    0    0  501 -0.00000000000E+00  0.00000000000E+00  0.10292726156E+04  0.10292726156E+04  0.00000000000E+00 0.  1.
          2   -1    0    0  501    0  0.00000000000E+00 -0.00000000000E+00 -0.21291260562E+04  0.21291260562E+04  0.00000000000E+00 0. -1.
         23    2    1    2    0    0 -0.11433378683E+04 -0.49263022478E+03  0.30112752595E+03  0.12841911892E+04  0.92537581142E+02 0.  0.
         11    1    3    3    0    0 -0.65192844658E+03 -0.30646069706E+03  0.13368562480E+03  0.73266684420E+03  0.00000000000E+00 0. -1.
        -11    1    3    3    0    0 -0.49140942176E+03 -0.18616952772E+03  0.16744190115E+03  0.55152434498E+03  0.00000000000E+00 0.  1.
         22    1    1    2    0    0  0.11433378683E+04  0.49263022478E+03 -0.14009809665E+04  0.18742074827E+04  0.00000000000E+00 0. -1.
<mgrwt>
<rscale>  0 0.29607101E+04</rscale>
<asrwt>0</asrwt>
<pdfrwt beam="1">  1        2 0.32755786E+00 0.29607101E+04</pdfrwt>
<pdfrwt beam="2">  1       -2 0.15834963E+00 0.29607101E+04</pdfrwt>
<totfact> 0.12592899E+00</totfact>
</mgrwt>
</event>
<event>
 6    1  0.9988873E-007  0.3717599E+04  0.7818608E-02  0.8064073E-01
          2   -1    0    0  501    0  0.00000000000E+00  0.00000000000E+00  0.25103893109E+04  0.25103893109E+04  0.00000000000E+00 0. -1.
         -2   -1    0    0    0  501 -0.00000000000E+00 -0.00000000000E+00 -0.13763344881E+04  0.13763344881E+04  0.00000000000E+00 0.  1.
         23    2    1    2    0    0  0.25486418478E+03 -0.18167998234E+04  0.26181710959E+03  0.18553410238E+04  0.89581049689E+02 0.  0.
         13    1    3    3    0    0  0.57243584243E+02 -0.46381903449E+03  0.10549351601E+03  0.47909686558E+03  0.00000000000E+00 0. -1.
        -13    1    3    3    0    0  0.19762060053E+03 -0.13529807889E+04  0.15632359358E+03  0.13762441582E+04  0.00000000000E+00 0.  1.
         22    1    1    2    0    0 -0.25486418478E+03  0.18167998234E+04  0.87223771319E+03  0.20313827752E+04  0.00000000000E+00 0. -1.
<mgrwt>
<rscale>  0 0.37175989E+04</rscale>
<asrwt>0</asrwt>
<pdfrwt beam="1">  1        2 0.38621374E+00 0.37175989E+04</pdfrwt>
<pdfrwt beam="2">  1       -2 0.21174377E+00 0.37175989E+04</pdfrwt>
<totfact> 0.30922690E-01</totfact>
</mgrwt>
</event>
<event>
 6    1  0.9988873E-007  0.3150122E+04  0.7818608E-02  0.8202115E-01
          2   -1    0    0  501    0  0.00000000000E+00  0.00000000000E+00  0.19719693296E+04  0.19719693296E+04  0.00000000000E+00 0. -1.
         -2   -1    0    0    0  501 -0.00000000000E+00 -0.00000000000E+00 -0.12580406795E+04  0.12580406795E+04  0.00000000000E+00 0.  1.
         23    2    1    2    0    0  0.77863022840E+03 -0.30966773636E+03  0.17232270824E+04  0.19182011567E+04  0.88458807516E+02 0.  0.
         11    1    3    3    0    0  0.45538595238E+03 -0.21417545463E+03  0.11007171822E+04  0.12102998828E+04  0.00000000000E+00 0.  1.
        -11    1    3    3    0    0  0.32324427602E+03 -0.95492281721E+02  0.62250990016E+03  0.70790127394E+03  0.00000000000E+00 0. -1.
         22    1    1    2    0    0 -0.77863022840E+03  0.30966773636E+03 -0.10092984324E+04  0.13118088523E+04  0.00000000000E+00 0.  1.
<mgrwt>
<rscale>  0 0.31501223E+04</rscale>
<asrwt>0</asrwt>
<pdfrwt beam="1">  1        2 0.30337990E+00 0.31501223E+04</pdfrwt>
<pdfrwt beam="2">  1       -2 0.19354472E+00 0.31501223E+04</pdfrwt>
<totfact> 0.85944364E-01</totfact>
</mgrwt>
</event>
<event>
 6    1  0.9988873E-007  0.1685444E+04  0.7818608E-02  0.8769710E-01
          2   -1    0    0  501    0  0.00000000000E+00  0.00000000000E+00  0.36005758436E+04  0.36005758436E+04  0.00000000000E+00 0. -1.
         -2   -1    0    0    0  501 -0.00000000000E+00 -0.00000000000E+00 -0.19724077886E+03  0.19724077886E+03  0.00000000000E+00 0.  1.
         23    2    1    2    0    0 -0.16732184485E+03 -0.71172485352E+03  0.26421361409E+04  0.27423675860E+04  0.71747633409E+02 0.  0.
         11    1    3    3    0    0 -0.12501029585E+03 -0.37546743542E+03  0.14231553391E+04  0.14771508008E+04  0.00000000000E+00 0.  1.
        -11    1    3    3    0    0 -0.42311548997E+02 -0.33625741811E+03  0.12189808017E+04  0.12652167851E+04  0.00000000000E+00 0. -1.
         22    1    1    2    0    0  0.16732184485E+03  0.71172485352E+03  0.76119892385E+03  0.10554490365E+04  0.00000000000E+00 0.  1.
<mgrwt>
<rscale>  0 0.16854440E+04</rscale>
<asrwt>0</asrwt>
<pdfrwt beam="1">  1        2 0.55393470E+00 0.16854440E+04</pdfrwt>
<pdfrwt beam="2">  1       -2 0.30344738E-01 0.16854440E+04</pdfrwt>
<totfact> 0.66719169E+00</totfact>
</mgrwt>
</event>
<event>
 6    1  0.9988873E-007  0.1448855E+04  0.7818608E-02  0.8919195E-01
         -2   -1    0    0    0  501 -0.00000000000E+00  0.00000000000E+00  0.45561495066E+03  0.45561495066E+03  0.00000000000E+00 0.  1.
          2   -1    0    0  501    0  0.00000000000E+00 -0.00000000000E+00 -0.11518389100E+04  0.11518389100E+04  0.00000000000E+00 0. -1.
         23    2    1    2    0    0 -0.48404636788E+03  0.47622319781E+03 -0.61731740159E+03  0.92384895635E+03  0.10642696769E+03 0.  0.
         11    1    3    3    0    0 -0.25589822841E+03  0.17758209552E+03 -0.27550221649E+03  0.41583743849E+03  0.00000000000E+00 0. -1.
        -11    1    3    3    0    0 -0.22814813946E+03  0.29864110229E+03 -0.34181518510E+03  0.50801151786E+03  0.00000000000E+00 0.  1.
         22    1    1    2    0    0  0.48404636788E+03 -0.47622319781E+03 -0.78906557779E+02  0.68360490435E+03  0.00000000000E+00 0. -1.
<mgrwt>
<rscale>  0 0.14488548E+04</rscale>
<asrwt>0</asrwt>
<pdfrwt beam="1">  1        2 0.17720598E+00 0.14488548E+04</pdfrwt>
<pdfrwt beam="2">  1       -2 0.70094608E-01 0.14488548E+04</pdfrwt>
<totfact> 0.36405697E+01</totfact>
</mgrwt>
</event>
<event>
 6    1  0.9988873E-007  0.1360134E+04  0.7818608E-02  0.8983192E-01
         -2   -1    0    0    0  501 -0.00000000000E+00  0.00000000000E+00  0.86503984561E+03  0.86503984561E+03  0.00000000000E+00 0.  1.
          2   -1    0    0  501    0  0.00000000000E+00 -0.00000000000E+00 -0.53464709676E+03  0.53464709676E+03  0.00000000000E+00 0. -1.
         23    2    1    2    0    0 -0.33551710438E+03 -0.30165707046E+02  0.77021986355E+03  0.84567467892E+03  0.91898460985E+02 0.  0.
         13    1    3    3    0    0 -0.18957802705E+03 -0.58852636995E+02  0.48381610765E+03  0.52295457474E+03  0.00000000000E+00 0.  1.
        -13    1    3    3    0    0 -0.14593907733E+03  0.28686929949E+02  0.28640375590E+03  0.32272010417E+03  0.00000000000E+00 0. -1.
         22    1    1    2    0    0  0.33551710438E+03  0.30165707046E+02 -0.43982711470E+03  0.55401226344E+03  0.00000000000E+00 0. -1.
<mgrwt>
<rscale>  0 0.13601339E+04</rscale>
<asrwt>0</asrwt>
<pdfrwt beam="1">  1        2 0.82253399E-01 0.13601339E+04</pdfrwt>
<pdfrwt beam="2">  1       -2 0.13308305E+00 0.13601339E+04</pdfrwt>
<totfact> 0.22724171E+01</totfact>
</mgrwt>
</event>
<event>
 6    1  0.9988873E-007  0.5688431E+04  0.7818608E-02  0.7730280E-01
         -2   -1    0    0    0  501 -0.00000000000E+00  0.00000000000E+00  0.24684722134E+04  0.24684722134E+04  0.00000000000E+00 0.  1.
          2   -1    0    0  501    0  0.00000000000E+00 -0.00000000000E+00 -0.32771534184E+04  0.32771534184E+04  0.00000000000E+00 0. -1.
         23    2    1    2    0    0  0.26381281715E+04 -0.10330620189E+04 -0.64884617534E+03  0.29079356168E+04  0.90281825528E+02 0.  0.
         13    1    3    3    0    0  0.12280488311E+04 -0.52929127422E+03 -0.30596230476E+03  0.13718112539E+04  0.00000000000E+00 0. -1.
        -13    1    3    3    0    0  0.14100793405E+04 -0.50377074467E+03 -0.34288387058E+03  0.15361243629E+04  0.00000000000E+00 0.  1.
         22    1    1    2    0    0 -0.26381281715E+04  0.10330620189E+04 -0.15983502969E+03  0.28376900149E+04  0.00000000000E+00 0.  1.
<mgrwt>
<rscale>  0 0.56884311E+04</rscale>
<asrwt>0</asrwt>
<pdfrwt beam="1">  1        2 0.50417745E+00 0.56884311E+04</pdfrwt>
<pdfrwt beam="2">  1       -2 0.37976496E+00 0.56884311E+04</pdfrwt>
<totfact> 0.79862732E-03</totfact>
</mgrwt>
</event>
<event>
 6    1  0.9988873E-007  0.2782678E+04  0.7818608E-02  0.8308666E-01
         -1   -1    0    0    0  501 -0.00000000000E+00  0.00000000000E+00  0.13690536561E+04  0.13690536561E+04  0.00000000000E+00 0.  1.
          1   -1    0    0  501    0  0.00000000000E+00 -0.00000000000E+00 -0.14139870910E+04  0.14139870910E+04  0.00000000000E+00 0. -1.
         23    2    1    2    0    0  0.84068103304E+03 -0.10404533312E+04  0.35520013636E+03  0.13868335244E+04  0.88613508208E+02 0.  0.
         13    1    3    3    0    0  0.16380146494E+03 -0.18667907459E+03  0.10050775015E+03  0.26792126576E+03  0.00000000000E+00 0. -1.
        -13    1    3    3    0    0  0.67687956810E+03 -0.85377425665E+03  0.25469238621E+03  0.11189122587E+04  0.00000000000E+00 0.  1.
         22    1    1    2    0    0 -0.84068103304E+03  0.10404533312E+04 -0.40013357127E+03  0.13962072227E+04  0.00000000000E+00 0. -1.
<mgrwt>
<rscale>  0 0.27826780E+04</rscale>
<asrwt>0</asrwt>
<pdfrwt beam="1">  1        1 0.21753647E+00 0.27826780E+04</pdfrwt>
<pdfrwt beam="2">  1       -1 0.21062364E+00 0.27826780E+04</pdfrwt>
<totfact> 0.82909823E-01</totfact>
</mgrwt>
</event>
<event>
 6    1  0.9988873E-007  0.1589497E+04  0.7818608E-02  0.8827027E-01
         -2   -1    0    0    0  501 -0.00000000000E+00  0.00000000000E+00  0.89710004047E+03  0.89710004047E+03  0.00000000000E+00 0.  1.
          2   -1    0    0  501    0  0.00000000000E+00 -0.00000000000E+00 -0.70407406208E+03  0.70407406208E+03  0.00000000000E+00 0. -1.
         23    2    1    2    0    0 -0.41381884209E+03  0.54636201047E+03  0.49753874062E+03  0.85118376734E+03  0.84920709012E+02 0.  0.
         13    1    3    3    0    0 -0.25831183311E+03  0.28038625380E+03  0.30094662789E+03  0.48570600910E+03  0.00000000000E+00 0. -1.
        -13    1    3    3    0    0 -0.15550700899E+03  0.26597575668E+03  0.19659211273E+03  0.36547775824E+03  0.00000000000E+00 0.  1.
         22    1    1    2    0    0  0.41381884209E+03 -0.54636201047E+03 -0.30451276223E+03  0.74999033521E+03  0.00000000000E+00 0. -1.
<mgrwt>
<rscale>  0 0.15894966E+04</rscale>
<asrwt>0</asrwt>
<pdfrwt beam="1">  1        2 0.10831909E+00 0.15894966E+04</pdfrwt>
<pdfrwt beam="2">  1       -2 0.13801539E+00 0.15894966E+04</pdfrwt>
<totfact> 0.14542439E+01</totfact>
</mgrwt>
</event>
<event>
 6    1  0.9988873E-007  0.1164994E+04  0.7818608E-02  0.9144061E-01
          2   -1    0    0  501    0  0.00000000000E+00  0.00000000000E+00  0.39090239135E+04  0.39090239135E+04  0.00000000000E+00 0. -1.
         -2   -1    0    0    0  501 -0.00000000000E+00 -0.00000000000E+00 -0.86799923376E+02  0.86799923376E+02  0.00000000000E+00 0.  1.
         23    2    1    2    0    0  0.56467893551E+03 -0.12479467598E+03  0.18593617048E+04  0.19495432201E+04  0.95167255351E+02 0.  0.
         13    1    3    3    0    0  0.44807428577E+03 -0.11470439426E+03  0.15887270386E+04  0.16546846428E+04  0.00000000000E+00 0. -1.
        -13    1    3    3    0    0  0.11660464974E+03 -0.10090281718E+02  0.27063466618E+03  0.29485857739E+03  0.00000000000E+00 0.  1.
         22    1    1    2    0    0 -0.56467893551E+03  0.12479467598E+03  0.19628622853E+04  0.20462806167E+04  0.00000000000E+00 0.  1.
<mgrwt>
<rscale>  0 0.11649944E+04</rscale>
<asrwt>0</asrwt>
<pdfrwt beam="1">  1        2 0.60138816E+00 0.11649944E+04</pdfrwt>
<pdfrwt beam="2">  1       -2 0.13353837E-01 0.11649944E+04</pdfrwt>
<totfact> 0.17774468E+01</totfact>
</mgrwt>
</event>
<event>
 6    1  0.1165352E-006  0.4160358E+04  0.7818608E-02  0.7972956E-01
         -2   -1    0    0    0  501 -0.00000000000E+00  0.00000000000E+00  0.15803700335E+04  0.15803700335E+04  0.00000000000E+00 0.  1.
          2   -1    0    0  501    0  0.00000000000E+00 -0.00000000000E+00 -0.27380574106E+04  0.27380574106E+04  0.00000000000E+00 0. -1.
         23    2    1    2    0    0  0.36350483102E+03  0.72629351893E+03 -0.25658535593E+04  0.26928290822E+04  0.89921855447E+02 0.  0.
         13    1    3    3    0    0  0.16557477923E+03  0.26606589870E+03 -0.10973983035E+04  0.11412664485E+04  0.00000000000E+00 0.  1.
        -13    1    3    3    0    0  0.19793005179E+03  0.46022762023E+03 -0.14684552558E+04  0.15515626337E+04  0.00000000000E+00 0. -1.
         22    1    1    2    0    0 -0.36350483102E+03 -0.72629351893E+03  0.14081661822E+04  0.16255983620E+04  0.00000000000E+00 0.  1.
<mgrwt>
<rscale>  0 0.41603576E+04</rscale>
<asrwt>0</asrwt>
<pdfrwt beam="1">  1        2 0.42123960E+00 0.41603576E+04</pdfrwt>
<pdfrwt beam="2">  1       -2 0.24313386E+00 0.41603576E+04</pdfrwt>
<totfact> 0.13899484E-01</totfact>
</mgrwt>
</event>
<event>
 6    1  0.9988873E-007  0.3716964E+04  0.7818608E-02  0.8064213E-01
         -2   -1    0    0    0  501 -0.00000000000E+00  0.00000000000E+00  0.21309427447E+04  0.21309427447E+04  0.00000000000E+00 0.  1.
          2   -1    0    0  501    0  0.00000000000E+00 -0.00000000000E+00 -0.16208582355E+04  0.16208582355E+04  0.00000000000E+00 0. -1.
         23    2    1    2    0    0  0.10746143831E+04 -0.30208444940E+03 -0.12431863779E+04  0.16733376319E+04  0.92170348644E+02 0.  0.
         11    1    3    3    0    0  0.64415495467E+03 -0.14693024901E+03 -0.78074521648E+03  0.10227840421E+04  0.00000000000E+00 0. -1.
        -11    1    3    3    0    0  0.43045942847E+03 -0.15515420039E+03 -0.46244116141E+03  0.65055358982E+03  0.00000000000E+00 0.  1.
         22    1    1    2    0    0 -0.10746143831E+04  0.30208444940E+03  0.17532708871E+04  0.20784633483E+04  0.00000000000E+00 0.  1.
<mgrwt>
<rscale>  0 0.37169644E+04</rscale>
<asrwt>0</asrwt>
<pdfrwt beam="1">  1        2 0.24936281E+00 0.37169644E+04</pdfrwt>
<pdfrwt beam="2">  1       -2 0.32783734E+00 0.37169644E+04</pdfrwt>
<totfact> 0.18760667E-01</totfact>
</mgrwt>
</event>
<event>
 6    1  0.9988873E-007  0.2560991E+04  0.7818608E-02  0.8381574E-01
          2   -1    0    0  501    0  0.00000000000E+00  0.00000000000E+00  0.12795374833E+04  0.12795374833E+04  0.00000000000E+00 0. -1.
         -2   -1    0    0    0  501 -0.00000000000E+00 -0.00000000000E+00 -0.12814544316E+04  0.12814544316E+04  0.00000000000E+00 0.  1.
         23    2    1    2    0    0 -0.37649494339E+02  0.54761160222E+03  0.11541800395E+04  0.12812043558E+04  0.89761273897E+02 0.  0.
         11    1    3    3    0    0  0.11141450186E+02  0.40345968997E+03  0.81620663515E+03  0.91054770583E+03  0.00000000000E+00 0. -1.
        -11    1    3    3    0    0 -0.48790944525E+02  0.14415191225E+03  0.33797340439E+03  0.37065664994E+03  0.00000000000E+00 0.  1.
         22    1    1    2    0    0  0.37649494339E+02 -0.54761160222E+03 -0.11560969878E+04  0.12797875592E+04  0.00000000000E+00 0.  1.
<mgrwt>
<rscale>  0 0.25609912E+04</rscale>
<asrwt>0</asrwt>
<pdfrwt beam="1">  1        2 0.19685192E+00 0.25609912E+04</pdfrwt>
<pdfrwt beam="2">  1       -2 0.19714684E+00 0.25609912E+04</pdfrwt>
<totfact> 0.20945407E+00</totfact>
</mgrwt>
</event>
<event>
 6    1  0.9988873E-007  0.2096091E+04  0.7818608E-02  0.8562967E-01
         -1   -1    0    0    0  501 -0.00000000000E+00  0.00000000000E+00  0.75733842202E+03  0.75733842202E+03  0.00000000000E+00 0.  1.
          1   -1    0    0  501    0  0.00000000000E+00 -0.00000000000E+00 -0.14503419605E+04  0.14503419605E+04  0.00000000000E+00 0. -1.
         23    2    1    2    0    0  0.56208879840E+03  0.85947101679E+03 -0.55709737620E+03  0.11717726980E+04  0.89774846779E+02 0.  0.
         13    1    3    3    0    0  0.16668459095E+03  0.22835734992E+03 -0.11160009552E+03  0.30394968900E+03  0.00000000000E+00 0. -1.
        -13    1    3    3    0    0  0.39540420745E+03  0.63111366687E+03 -0.44549728068E+03  0.86782300896E+03  0.00000000000E+00 0.  1.
         22    1    1    2    0    0 -0.56208879840E+03 -0.85947101679E+03 -0.13590616228E+03  0.10359076846E+04  0.00000000000E+00 0. -1.
<mgrwt>
<rscale>  0 0.20960913E+04</rscale>
<asrwt>0</asrwt>
<pdfrwt beam="1">  1        1 0.22312953E+00 0.20960913E+04</pdfrwt>
<pdfrwt beam="2">  1       -1 0.11651361E+00 0.20960913E+04</pdfrwt>
<totfact> 0.43345189E+00</totfact>
</mgrwt>
</event>
<event>
 6    1  0.9988873E-007  0.1451500E+04  0.7818608E-02  0.8917361E-01
          1   -1    0    0  501    0  0.00000000000E+00  0.00000000000E+00  0.11815754443E+04  0.11815754443E+04  0.00000000000E+00 0. -1.
         -1   -1    0    0    0  501 -0.00000000000E+00 -0.00000000000E+00 -0.44577213068E+03  0.44577213068E+03  0.00000000000E+00 0.  1.
         23    2    1    2    0    0 -0.74075190955E+02 -0.14301384458E+03  0.11593770153E+04  0.11741867046E+04  0.92839969185E+02 0.  0.
         11    1    3    3    0    0 -0.24285856910E+02 -0.12824181215E+03  0.92216595222E+03  0.93135697166E+03  0.00000000000E+00 0.  1.
        -11    1    3    3    0    0 -0.49789334044E+02 -0.14772032429E+02  0.23721106308E+03  0.24282973289E+03  0.00000000000E+00 0. -1.
         22    1    1    2    0    0  0.74075190955E+02  0.14301384458E+03 -0.42357370172E+03  0.45316087038E+03  0.00000000000E+00 0.  1.
<mgrwt>
<rscale>  0 0.14515005E+04</rscale>
<asrwt>0</asrwt>
<pdfrwt beam="1">  1        1 0.18178084E+00 0.14515005E+04</pdfrwt>
<pdfrwt beam="2">  1       -1 0.68580329E-01 0.14515005E+04</pdfrwt>
<totfact> 0.23037153E+01</totfact>
</mgrwt>
</event>
<event>
 6    1  0.9988873E-007  0.3638976E+04  0.7818608E-02  0.8081622E-01
          2   -1    0    0  501    0  0.00000000000E+00  0.00000000000E+00  0.17750336589E+04  0.17750336589E+04  0.00000000000E+00 0. -1.
         -2   -1    0    0    0  501 -0.00000000000E+00 -0.00000000000E+00 -0.18650560490E+04  0.18650560490E+04  0.00000000000E+00 0.  1.
         23    2    1    2    0    0  0.15004786328E+04  0.39607180045E+03 -0.99301153167E+03  0.18446236435E+04  0.90859701688E+02 0.  0.
         13    1    3    3    0    0  0.51351698464E+03  0.11236221440E+03 -0.38014638423E+03  0.64871891770E+03  0.00000000000E+00 0. -1.
        -13    1    3    3    0    0  0.98696164815E+03  0.28370958605E+03 -0.61286514744E+03  0.11959047258E+04  0.00000000000E+00 0.  1.
         22    1    1    2    0    0 -0.15004786328E+04 -0.39607180045E+03  0.90298914158E+03  0.17954660644E+04  0.00000000000E+00 0. -1.
<mgrwt>
<rscale>  0 0.36389764E+04</rscale>
<asrwt>0</asrwt>
<pdfrwt beam="1">  1        2 0.27308210E+00 0.36389764E+04</pdfrwt>
<pdfrwt beam="2">  1       -2 0.28693170E+00 0.36389764E+04</pdfrwt>
<totfact> 0.27650758E-01</totfact>
</mgrwt>
</event>
<event>
 6    1  0.9988873E-007  0.1885698E+04  0.7818608E-02  0.8662008E-01
          1   -1    0    0  501    0  0.00000000000E+00  0.00000000000E+00  0.31267119937E+03  0.31267119937E+03  0.00000000000E+00 0. -1.
         -1   -1    0    0    0  501 -0.00000000000E+00 -0.00000000000E+00 -0.28431275479E+04  0.28431275479E+04  0.00000000000E+00 0.  1.
         23    2    1    2    0    0 -0.61567095020E+03 -0.41757749223E+03 -0.30520520697E+03  0.80949008813E+03  0.93286137691E+02 0.  0.
         13    1    3    3    0    0 -0.10564721190E+03 -0.99236588321E+02 -0.91542457164E+02  0.17143294697E+03  0.00000000000E+00 0. -1.
        -13    1    3    3    0    0 -0.51002373830E+03 -0.31834090391E+03 -0.21366274981E+03  0.63805714116E+03  0.00000000000E+00 0.  1.
         22    1    1    2    0    0  0.61567095020E+03  0.41757749223E+03 -0.22252511415E+04  0.23463086591E+04  0.00000000000E+00 0.  1.
<mgrwt>
<rscale>  0 0.18856979E+04</rscale>
<asrwt>0</asrwt>
<pdfrwt beam="1">  1        1 0.48103261E-01 0.18856979E+04</pdfrwt>
<pdfrwt beam="2">  1       -1 0.43740424E+00 0.18856979E+04</pdfrwt>
<totfact> 0.30815543E-01</totfact>
</mgrwt>
</event>
<event>
 6    1  0.9988873E-007  0.2439880E+04  0.7818608E-02  0.8424722E-01
         -1   -1    0    0    0  501 -0.00000000000E+00  0.00000000000E+00  0.56111305414E+03  0.56111305414E+03  0.00000000000E+00 0.  1.
          1   -1    0    0  501    0  0.00000000000E+00 -0.00000000000E+00 -0.26523249081E+04  0.26523249081E+04  0.00000000000E+00 0. -1.
         23    2    1    2    0    0 -0.93170769884E+03  0.15713805252E+03 -0.33699163449E+02  0.94934209959E+03  0.85692384757E+02 0.  0.
         11    1    3    3    0    0 -0.23776766486E+03  0.17582422280E+02  0.21350645561E+02  0.23937095499E+03  0.00000000000E+00 0. -1.
        -11    1    3    3    0    0 -0.69394003398E+03  0.13955563024E+03 -0.55049809011E+02  0.70997114460E+03  0.00000000000E+00 0.  1.
         22    1    1    2    0    0  0.93170769884E+03 -0.15713805252E+03 -0.20575126905E+04  0.22640958627E+04  0.00000000000E+00 0. -1.
<mgrwt>
<rscale>  0 0.24398804E+04</rscale>
<asrwt>0</asrwt>
<pdfrwt beam="1">  1        1 0.40804999E+00 0.24398804E+04</pdfrwt>
<pdfrwt beam="2">  1       -1 0.86325084E-01 0.24398804E+04</pdfrwt>
<totfact> 0.12532205E+00</totfact>
</mgrwt>
</event>
<event>
 6    1  0.9988873E-007  0.3531493E+04  0.7818608E-02  0.8106367E-01
          2   -1    0    0  501    0  0.00000000000E+00  0.00000000000E+00  0.24377480649E+04  0.24377480649E+04  0.00000000000E+00 0. -1.
         -2   -1    0    0    0  501 -0.00000000000E+00 -0.00000000000E+00 -0.12789922015E+04  0.12789922015E+04  0.00000000000E+00 0.  1.
         23    2    1    2    0    0  0.10111672944E+04 -0.28583844598E+02  0.21013716590E+04  0.23340613913E+04  0.93826411906E+02 0.  0.
         11    1    3    3    0    0  0.44143526139E+03 -0.49704175842E+02  0.85642144586E+03  0.96477628910E+03  0.00000000000E+00 0.  1.
        -11    1    3    3    0    0  0.56973203299E+03  0.21120331243E+02  0.12449502131E+04  0.13692851022E+04  0.00000000000E+00 0. -1.
         22    1    1    2    0    0 -0.10111672944E+04  0.28583844598E+02 -0.94261579569E+03  0.13826788751E+04  0.00000000000E+00 0.  1.
<mgrwt>
<rscale>  0 0.35314930E+04</rscale>
<asrwt>0</asrwt>
<pdfrwt beam="1">  1        2 0.37503816E+00 0.35314930E+04</pdfrwt>
<pdfrwt beam="2">  1       -2 0.19676803E+00 0.35314930E+04</pdfrwt>
<totfact> 0.43295880E-01</totfact>
</mgrwt>
</event>
<event>
 6    1  0.9988873E-007  0.4202287E+04  0.7818608E-02  0.7964937E-01
         -2   -1    0    0    0  501 -0.00000000000E+00  0.00000000000E+00  0.13440099455E+04  0.13440099455E+04  0.00000000000E+00 0.  1.
          2   -1    0    0  501    0  0.00000000000E+00 -0.00000000000E+00 -0.32848005791E+04  0.32848005791E+04  0.00000000000E+00 0. -1.
         23    2    1    2    0    0 -0.10473488371E+04  0.16536500752E+04 -0.18090995275E+04  0.26669642754E+04  0.91428594786E+02 0.  0.
         13    1    3    3    0    0 -0.47534836627E+03  0.72328802514E+03 -0.85856894519E+03  0.12191153638E+04  0.00000000000E+00 0.  1.
        -13    1    3    3    0    0 -0.57200047088E+03  0.93036205008E+03 -0.95053058232E+03  0.14478489116E+04  0.00000000000E+00 0. -1.
         22    1    1    2    0    0  0.10473488371E+04 -0.16536500752E+04 -0.13169110603E+03  0.19618462492E+04  0.00000000000E+00 0.  1.
<mgrwt>
<rscale>  0 0.42022873E+04</rscale>
<asrwt>0</asrwt>
<pdfrwt beam="1">  1        2 0.50535392E+00 0.42022873E+04</pdfrwt>
<pdfrwt beam="2">  1       -2 0.20677077E+00 0.42022873E+04</pdfrwt>
<totfact> 0.10618191E-01</totfact>
</mgrwt>
</event>
<event>
 6    1  0.9988873E-007  0.2976118E+04  0.7818608E-02  0.8250583E-01
          1   -1    0    0  501    0  0.00000000000E+00  0.00000000000E+00  0.10351948895E+04  0.10351948895E+04  0.00000000000E+00 0. -1.
         -1   -1    0    0    0  501 -0.00000000000E+00 -0.00000000000E+00 -0.21390368944E+04  0.21390368944E+04  0.00000000000E+00 0.  1.
         23    2    1    2    0    0  0.10470355666E+04 -0.87981974470E+03 -0.11742299978E+04  0.18048082810E+04  0.90280575868E+02 0.  0.
         13    1    3    3    0    0  0.54809838668E+03 -0.50906645026E+03 -0.60788577689E+03  0.96389087038E+03  0.00000000000E+00 0. -1.
        -13    1    3    3    0    0  0.49893717988E+03 -0.37075329444E+03 -0.56634422095E+03  0.84091741057E+03  0.00000000000E+00 0.  1.
         22    1    1    2    0    0 -0.10470355666E+04  0.87981974470E+03  0.70387992976E+02  0.13694235029E+04  0.00000000000E+00 0. -1.
<mgrwt>
<rscale>  0 0.29761183E+04</rscale>
<asrwt>0</asrwt>
<pdfrwt beam="1">  1        1 0.15926076E+00 0.29761183E+04</pdfrwt>
<pdfrwt beam="2">  1       -1 0.32908259E+00 0.29761183E+04</pdfrwt>
<totfact> 0.25856459E-01</totfact>
</mgrwt>
</event>
<event>
 6    1  0.9988873E-007  0.2709529E+04  0.7818608E-02  0.8331920E-01
         -1   -1    0    0    0  501 -0.00000000000E+00  0.00000000000E+00  0.17513671915E+04  0.17513671915E+04  0.00000000000E+00 0.  1.
          1   -1    0    0  501    0  0.00000000000E+00 -0.00000000000E+00 -0.10479734764E+04  0.10479734764E+04  0.00000000000E+00 0. -1.
         23    2    1    2    0    0  0.38417938273E+03 -0.47904061492E+03  0.15980017888E+04  0.17142612632E+04  0.89488839264E+02 0.  0.
         13    1    3    3    0    0  0.14414998612E+03 -0.13218064996E+03  0.42876536893E+03  0.47126498312E+03  0.00000000000E+00 0. -1.
        -13    1    3    3    0    0  0.24002939661E+03 -0.34685996496E+03  0.11692364199E+04  0.12429962800E+04  0.00000000000E+00 0.  1.
         22    1    1    2    0    0 -0.38417938273E+03  0.47904061492E+03 -0.89460807383E+03  0.10850794048E+04  0.00000000000E+00 0. -1.
<mgrwt>
<rscale>  0 0.27095286E+04</rscale>
<asrwt>0</asrwt>
<pdfrwt beam="1">  1        1 0.16122669E+00 0.27095286E+04</pdfrwt>
<pdfrwt beam="2">  1       -1 0.26944111E+00 0.27095286E+04</pdfrwt>
<totfact> 0.63129999E-01</totfact>
</mgrwt>
</event>
<event>
 6    1  0.1038135E-006  0.3055012E+04  0.7818608E-02  0.8228194E-01
          1   -1    0    0  501    0  0.00000000000E+00  0.00000000000E+00  0.11886050752E+04  0.11886050752E+04  0.00000000000E+00 0. -1.
         -1   -1    0    0    0  501 -0.00000000000E+00 -0.00000000000E+00 -0.19630354471E+04  0.19630354471E+04  0.00000000000E+00 0.  1.
         23    2    1    2    0    0 -0.10031852071E+04 -0.50230249919E+03  0.67973176043E+03  0.13149925245E+04  0.92096215985E+02 0.  0.
         13    1    3    3    0    0 -0.32329921501E+03 -0.16255333008E+03  0.16974011903E+03  0.39969697966E+03  0.00000000000E+00 0. -1.
        -13    1    3    3    0    0 -0.67988599207E+03 -0.33974916912E+03  0.50999164140E+03  0.91529554485E+03  0.00000000000E+00 0.  1.
         22    1    1    2    0    0  0.10031852071E+04  0.50230249919E+03 -0.14541621324E+04  0.18366479978E+04  0.00000000000E+00 0.  1.
<mgrwt>
<rscale>  0 0.30550116E+04</rscale>
<asrwt>0</asrwt>
<pdfrwt beam="1">  1        1 0.18286232E+00 0.30550116E+04</pdfrwt>
<pdfrwt beam="2">  1       -1 0.30200545E+00 0.30550116E+04</pdfrwt>
<totfact> 0.29570322E-01</totfact>
</mgrwt>
</event>
<event>
 6    1  0.9988873E-007  0.2858453E+04  0.7818608E-02  0.8285347E-01
         -2   -1    0    0    0  501 -0.00000000000E+00  0.00000000000E+00  0.17417601537E+04  0.17417601537E+04  0.00000000000E+00 0.  1.
          2   -1    0    0  501    0  0.00000000000E+00 -0.00000000000E+00 -0.11727727957E+04  0.11727727957E+04  0.00000000000E+00 0. -1.
         23    2    1    2    0    0 -0.28617447193E+03 -0.76461299877E+03 -0.90945810488E+03  0.12256487458E+04  0.92584757610E+02 0.  0.
         13    1    3    3    0    0 -0.21090712940E+03 -0.52327808790E+03 -0.68641538099E+03  0.88852003341E+03  0.00000000000E+00 0. -1.
        -13    1    3    3    0    0 -0.75267342527E+02 -0.24133491088E+03 -0.22304272389E+03  0.33712871242E+03  0.00000000000E+00 0.  1.
         22    1    1    2    0    0  0.28617447193E+03  0.76461299877E+03  0.14784454629E+04  0.16888842035E+04  0.00000000000E+00 0.  1.
<mgrwt>
<rscale>  0 0.28584534E+04</rscale>
<asrwt>0</asrwt>
<pdfrwt beam="1">  1        2 0.18042658E+00 0.28584534E+04</pdfrwt>
<pdfrwt beam="2">  1       -2 0.26796310E+00 0.28584534E+04</pdfrwt>
<totfact> 0.84949489E-01</totfact>
</mgrwt>
</event>
<event>
 6    1  0.9988873E-007  0.1422538E+04  0.7818608E-02  0.8937664E-01
         -1   -1    0    0    0  501 -0.00000000000E+00  0.00000000000E+00  0.14462300286E+03  0.14462300286E+03  0.00000000000E+00 0.  1.
          1   -1    0    0  501    0  0.00000000000E+00 -0.00000000000E+00 -0.34980829110E+04  0.34980829110E+04  0.00000000000E+00 0. -1.
         23    2    1    2    0    0 -0.68479934050E+03 -0.17520332665E+02 -0.21451775055E+04  0.22537482243E+04  0.91309527052E+02 0.  0.
         13    1    3    3    0    0 -0.37362595901E+03 -0.52613692777E+02 -0.11244235270E+04  0.11860408197E+04  0.00000000000E+00 0. -1.
        -13    1    3    3    0    0 -0.31117338149E+03  0.35093360112E+02 -0.10207539785E+04  0.10677074046E+04  0.00000000000E+00 0.  1.
         22    1    1    2    0    0  0.68479934050E+03  0.17520332665E+02 -0.12082824026E+04  0.13889576895E+04  0.00000000000E+00 0. -1.
<mgrwt>
<rscale>  0 0.14225375E+04</rscale>
<asrwt>0</asrwt>
<pdfrwt beam="1">  1        1 0.53816654E+00 0.14225375E+04</pdfrwt>
<pdfrwt beam="2">  1       -1 0.22249695E-01 0.14225375E+04</pdfrwt>
<totfact> 0.42292193E+00</totfact>
</mgrwt>
</event>
<event>
 6    1  0.9988873E-007  0.1507527E+04  0.7818608E-02  0.8879463E-01
         -2   -1    0    0    0  501 -0.00000000000E+00  0.00000000000E+00  0.16683996522E+04  0.16683996522E+04  0.00000000000E+00 0.  1.
          2   -1    0    0  501    0  0.00000000000E+00 -0.00000000000E+00 -0.34054155505E+03  0.34054155505E+03  0.00000000000E+00 0. -1.
         23    2    1    2    0    0  0.46544290727E+03  0.50398013475E+03  0.10723663951E+04  0.12768830907E+04  0.99134584918E+02 0.  0.
         11    1    3    3    0    0  0.44039792425E+03  0.43447400739E+03  0.94036863101E+03  0.11256159012E+04  0.00000000000E+00 0.  1.
        -11    1    3    3    0    0  0.25044983015E+02  0.69506127366E+02  0.13199776407E+03  0.15126718955E+03  0.00000000000E+00 0. -1.
         22    1    1    2    0    0 -0.46544290727E+03 -0.50398013475E+03  0.25549170208E+03  0.73205811653E+03  0.00000000000E+00 0. -1.
<mgrwt>
<rscale>  0 0.15075270E+04</rscale>
<asrwt>0</asrwt>
<pdfrwt beam="1">  1        2 0.52391009E-01 0.15075270E+04</pdfrwt>
<pdfrwt beam="2">  1       -2 0.25667687E+00 0.15075270E+04</pdfrwt>
<totfact> 0.53852768E+00</totfact>
</mgrwt>
</event>
<event>
 6    1  0.9988873E-007  0.1398302E+04  0.7818608E-02  0.8955049E-01
          1   -1    0    0  501    0  0.00000000000E+00  0.00000000000E+00  0.90063618984E+03  0.90063618984E+03  0.00000000000E+00 0. -1.
         -1   -1    0    0    0  501 -0.00000000000E+00 -0.00000000000E+00 -0.54274056513E+03  0.54274056513E+03  0.00000000000E+00 0.  1.
         23    2    1    2    0    0  0.20551128814E+03 -0.35620484552E+03 -0.40010061334E+03  0.58101077790E+03  0.91521810026E+02 0.  0.
         13    1    3    3    0    0  0.19739398083E+03 -0.27546013506E+03 -0.30428438072E+03  0.45544665332E+03  0.00000000000E+00 0. -1.
        -13    1    3    3    0    0  0.81173073096E+01 -0.80744710462E+02 -0.95816232628E+02  0.12556412458E+03  0.00000000000E+00 0.  1.
         22    1    1    2    0    0 -0.20551128814E+03  0.35620484552E+03  0.75799623805E+03  0.86236597708E+03  0.00000000000E+00 0. -1.
<mgrwt>
<rscale>  0 0.13983015E+04</rscale>
<asrwt>0</asrwt>
<pdfrwt beam="1">  1        1 0.13855941E+00 0.13983015E+04</pdfrwt>
<pdfrwt beam="2">  1       -1 0.83498549E-01 0.13983015E+04</pdfrwt>
<totfact> 0.25228780E+01</totfact>
</mgrwt>
</event>
<event>
 6    1  0.9988873E-007  0.3485033E+04  0.7818608E-02  0.8117346E-01
         -2   -1    0    0    0  501 -0.00000000000E+00  0.00000000000E+00  0.10447027518E+04  0.10447027518E+04  0.00000000000E+00 0.  1.
          2   -1    0    0  501    0  0.00000000000E+00 -0.00000000000E+00 -0.29064384994E+04  0.29064384994E+04  0.00000000000E+00 0. -1.
         23    2    1    2    0    0  0.77096182269E+03  0.13491491503E+04 -0.40552713539E+02  0.15571293035E+04  0.91769186385E+02 0.  0.
         11    1    3    3    0    0  0.61298279251E+03  0.11170956861E+04 -0.56042726294E+01  0.12742378442E+04  0.00000000000E+00 0. -1.
        -11    1    3    3    0    0  0.15797903018E+03  0.23205346417E+03 -0.34948440909E+02  0.28289145928E+03  0.00000000000E+00 0.  1.
         22    1    1    2    0    0 -0.77096182269E+03 -0.13491491503E+04 -0.18211830341E+04  0.23940119477E+04  0.00000000000E+00 0. -1.
<mgrwt>
<rscale>  0 0.34850333E+04</rscale>
<asrwt>0</asrwt>
<pdfrwt beam="1">  1        2 0.44714438E+00 0.34850333E+04</pdfrwt>
<pdfrwt beam="2">  1       -2 0.16072350E+00 0.34850333E+04</pdfrwt>
<totfact> 0.40728110E-01</totfact>
</mgrwt>
</event>
<event>
 6    1  0.9988873E-007  0.1392437E+04  0.7818608E-02  0.8959311E-01
         -2   -1    0    0    0  501 -0.00000000000E+00  0.00000000000E+00  0.10697001499E+04  0.10697001499E+04  0.00000000000E+00 0.  1.
          2   -1    0    0  501    0  0.00000000000E+00 -0.00000000000E+00 -0.45313653020E+03  0.45313653020E+03  0.00000000000E+00 0. -1.
         23    2    1    2    0    0  0.46621494301E+01 -0.32360769750E+03 -0.36068869504E+03  0.49338742725E+03  0.92688408754E+02 0.  0.
         11    1    3    3    0    0 -0.96805577107E+01 -0.14362793127E+03 -0.96163538551E+02  0.17311880887E+03  0.00000000000E+00 0. -1.
        -11    1    3    3    0    0  0.14342707141E+02 -0.17997976623E+03 -0.26452515649E+03  0.32026861838E+03  0.00000000000E+00 0.  1.
         22    1    1    2    0    0 -0.46621494301E+01  0.32360769750E+03  0.97725231470E+03  0.10294492528E+04  0.00000000000E+00 0.  1.
<mgrwt>
<rscale>  0 0.13924370E+04</rscale>
<asrwt>0</asrwt>
<pdfrwt beam="1">  1        2 0.69713313E-01 0.13924370E+04</pdfrwt>
<pdfrwt beam="2">  1       -2 0.16456925E+00 0.13924370E+04</pdfrwt>
<totfact> 0.15651072E+01</totfact>
</mgrwt>
</event>
<event>
 6    1  0.9988873E-007  0.4132420E+04  0.7818608E-02  0.7978353E-01
         -2   -1    0    0    0  501 -0.00000000000E+00  0.00000000000E+00  0.13046297113E+04  0.13046297113E+04  0.00000000000E+00 0.  1.
          2   -1    0    0  501    0  0.00000000000E+00 -0.00000000000E+00 -0.32723642291E+04  0.32723642291E+04  0.00000000000E+00 0. -1.
         23    2    1    2    0    0  0.70774370632E+03 -0.16398602595E+04 -0.21325379649E+04  0.27833376186E+04  0.95954690726E+02 0.  0.
         13    1    3    3    0    0  0.89530941943E+02 -0.14374689791E+03 -0.18340264385E+03  0.24963070723E+03  0.00000000000E+00 0.  1.
        -13    1    3    3    0    0  0.61821276438E+03 -0.14961133616E+04 -0.19491353210E+04  0.25337069113E+04  0.00000000000E+00 0. -1.
         22    1    1    2    0    0 -0.70774370632E+03  0.16398602595E+04  0.16480344714E+03  0.17936563218E+04  0.00000000000E+00 0.  1.
<mgrwt>
<rscale>  0 0.41324199E+04</rscale>
<asrwt>0</asrwt>
<pdfrwt beam="1">  1        2 0.50344065E+00 0.41324199E+04</pdfrwt>
<pdfrwt beam="2">  1       -2 0.20071227E+00 0.41324199E+04</pdfrwt>
<totfact> 0.11919586E-01</totfact>
</mgrwt>
</event>
<event>
 6    1  0.9988873E-007  0.2038302E+04  0.7818608E-02  0.8588920E-01
         -1   -1    0    0    0  501 -0.00000000000E+00  0.00000000000E+00  0.85984461625E+03  0.85984461625E+03  0.00000000000E+00 0.  1.
          1   -1    0    0  501    0  0.00000000000E+00 -0.00000000000E+00 -0.12079726489E+04  0.12079726489E+04  0.00000000000E+00 0. -1.
         23    2    1    2    0    0  0.71443989158E+03  0.20598943195E+03 -0.87952826823E+03  0.11539013965E+04  0.71150919962E+02 0.  0.
         11    1    3    3    0    0  0.12596117690E+03  0.21317527270E+02 -0.18780244465E+03  0.22713523124E+03  0.00000000000E+00 0.  1.
        -11    1    3    3    0    0  0.58847871468E+03  0.18467190468E+03 -0.69172582358E+03  0.92676616523E+03  0.00000000000E+00 0. -1.
         22    1    1    2    0    0 -0.71443989158E+03 -0.20598943195E+03  0.53140023554E+03  0.91391586872E+03  0.00000000000E+00 0.  1.
<mgrwt>
<rscale>  0 0.20383020E+04</rscale>
<asrwt>0</asrwt>
<pdfrwt beam="1">  1        1 0.18584195E+00 0.20383020E+04</pdfrwt>
<pdfrwt beam="2">  1       -1 0.13228379E+00 0.20383020E+04</pdfrwt>
<totfact> 0.47303610E+00</totfact>
</mgrwt>
</event>
<event>
 6    1  0.9988873E-007  0.2696126E+04  0.7818608E-02  0.8336263E-01
         -1   -1    0    0    0  501 -0.00000000000E+00  0.00000000000E+00  0.56999980684E+03  0.56999980684E+03  0.00000000000E+00 0.  1.
          1   -1    0    0  501    0  0.00000000000E+00 -0.00000000000E+00 -0.31882003408E+04  0.31882003408E+04  0.00000000000E+00 0. -1.
         23    2    1    2    0    0  0.92300557667E+03 -0.95247014028E+03 -0.16368792154E+04  0.21083122142E+04  0.80424896599E+02 0.  0.
         13    1    3    3    0    0  0.66595428872E+03 -0.65964867061E+03 -0.11058303418E+04  0.14496524508E+04  0.00000000000E+00 0. -1.
        -13    1    3    3    0    0  0.25705128795E+03 -0.29282146966E+03 -0.53104887359E+03  0.65865976336E+03  0.00000000000E+00 0.  1.
         22    1    1    2    0    0 -0.92300557667E+03  0.95247014028E+03 -0.98132131852E+03  0.16498879334E+04  0.00000000000E+00 0.  1.
<mgrwt>
<rscale>  0 0.26961258E+04</rscale>
<asrwt>0</asrwt>
<pdfrwt beam="1">  1        1 0.49049237E+00 0.26961258E+04</pdfrwt>
<pdfrwt beam="2">  1       -1 0.87692276E-01 0.26961258E+04</pdfrwt>
<totfact> 0.48448897E-01</totfact>
</mgrwt>
</event>
<event>
 6    1  0.9988873E-007  0.3704051E+04  0.7818608E-02  0.8067065E-01
         -2   -1    0    0    0  501 -0.00000000000E+00  0.00000000000E+00  0.14006530146E+04  0.14006530146E+04  0.00000000000E+00 0.  1.
          2   -1    0    0  501    0  0.00000000000E+00 -0.00000000000E+00 -0.24488565782E+04  0.24488565782E+04  0.00000000000E+00 0. -1.
         23    2    1    2    0    0 -0.88440604734E+03  0.54828121652E+02 -0.22132090144E+04  0.23858095279E+04  0.92805080275E+02 0.  0.
         11    1    3    3    0    0 -0.32561035774E+03  0.16729277623E+02 -0.93700779428E+03  0.99211167736E+03  0.00000000000E+00 0. -1.
        -11    1    3    3    0    0 -0.55879568959E+03  0.38098844029E+02 -0.12762012201E+04  0.13936978506E+04  0.00000000000E+00 0.  1.
         22    1    1    2    0    0  0.88440604734E+03 -0.54828121652E+02  0.11650054507E+04  0.14637000648E+04  0.00000000000E+00 0.  1.
<mgrwt>
<rscale>  0 0.37040509E+04</rscale>
<asrwt>0</asrwt>
<pdfrwt beam="1">  1        2 0.37674716E+00 0.37040509E+04</pdfrwt>
<pdfrwt beam="2">  1       -2 0.21548508E+00 0.37040509E+04</pdfrwt>
<totfact> 0.31798587E-01</totfact>
</mgrwt>
</event>
<event>
 6    1  0.9988873E-007  0.2596277E+04  0.7818608E-02  0.8369467E-01
          2   -1    0    0  501    0  0.00000000000E+00  0.00000000000E+00  0.16837900563E+04  0.16837900563E+04  0.00000000000E+00 0. -1.
         -2   -1    0    0    0  501 -0.00000000000E+00 -0.00000000000E+00 -0.10008158200E+04  0.10008158200E+04  0.00000000000E+00 0.  1.
         23    2    1    2    0    0  0.75344182417E+03 -0.10539086349E+04  0.39811009390E+03  0.13581272400E+04  0.87292382582E+02 0.  0.
         13    1    3    3    0    0  0.22477894515E+03 -0.34023162535E+03  0.16495382979E+03  0.43987827752E+03  0.00000000000E+00 0. -1.
        -13    1    3    3    0    0  0.52866287902E+03 -0.71367700951E+03  0.23315626411E+03  0.91824896245E+03  0.00000000000E+00 0.  1.
         22    1    1    2    0    0 -0.75344182417E+03  0.10539086349E+04  0.28486414232E+03  0.13264786363E+04  0.00000000000E+00 0. -1.
<mgrwt>
<rscale>  0 0.25962771E+04</rscale>
<asrwt>0</asrwt>
<pdfrwt beam="1">  1        2 0.25904462E+00 0.25962771E+04</pdfrwt>
<pdfrwt beam="2">  1       -2 0.15397167E+00 0.25962771E+04</pdfrwt>
<totfact> 0.24763786E+00</totfact>
</mgrwt>
</event>
<event>
 6    1  0.9988873E-007  0.1289577E+04  0.7818608E-02  0.9037872E-01
          1   -1    0    0  501    0  0.00000000000E+00  0.00000000000E+00  0.13877760853E+04  0.13877760853E+04  0.00000000000E+00 0. -1.
         -1   -1    0    0    0  501 -0.00000000000E+00 -0.00000000000E+00 -0.29958140902E+03  0.29958140902E+03  0.00000000000E+00 0.  1.
         23    2    1    2    0    0  0.22230178542E+03 -0.49918725029E+03  0.98667699957E+03  0.11315591196E+04  0.91041446781E+02 0.  0.
         13    1    3    3    0    0  0.15181030926E+03 -0.23703178697E+03  0.46768728543E+03  0.54585880499E+03  0.00000000000E+00 0. -1.
        -13    1    3    3    0    0  0.70491476162E+02 -0.26215546332E+03  0.51898971414E+03  0.58570031462E+03  0.00000000000E+00 0.  1.
         22    1    1    2    0    0 -0.22230178542E+03  0.49918725029E+03  0.10151767670E+03  0.55579837472E+03  0.00000000000E+00 0. -1.
<mgrwt>
<rscale>  0 0.12895765E+04</rscale>
<asrwt>0</asrwt>
<pdfrwt beam="1">  1        1 0.21350401E+00 0.12895765E+04</pdfrwt>
<pdfrwt beam="2">  1       -1 0.46089448E-01 0.12895765E+04</pdfrwt>
<totfact> 0.36074745E+01</totfact>
</mgrwt>
</event>
<event>
 6    1  0.9988873E-007  0.2430743E+04  0.7818608E-02  0.8428083E-01
          2   -1    0    0  501    0  0.00000000000E+00  0.00000000000E+00  0.14945273479E+04  0.14945273479E+04  0.00000000000E+00 0. -1.
         -2   -1    0    0    0  501 -0.00000000000E+00 -0.00000000000E+00 -0.98835817505E+03  0.98835817505E+03  0.00000000000E+00 0.  1.
         23    2    1    2    0    0 -0.96476868557E+03  0.71871372650E+03  0.89409673293E+02  0.12096940535E+04  0.89652529690E+02 0.  0.
         11    1    3    3    0    0 -0.13640087166E+03  0.13435416336E+03  0.33890872656E+02  0.19443464262E+03  0.00000000000E+00 0.  1.
        -11    1    3    3    0    0 -0.82836781391E+03  0.58435956314E+03  0.55518800636E+02  0.10152594109E+04  0.00000000000E+00 0. -1.
         22    1    1    2    0    0  0.96476868557E+03 -0.71871372650E+03  0.41675949951E+03  0.12731914694E+04  0.00000000000E+00 0. -1.
<mgrwt>
<rscale>  0 0.24307434E+04</rscale>
<asrwt>0</asrwt>
<pdfrwt beam="1">  1        2 0.22992729E+00 0.24307434E+04</pdfrwt>
<pdfrwt beam="2">  1       -2 0.15205510E+00 0.24307434E+04</pdfrwt>
<totfact> 0.33142664E+00</totfact>
</mgrwt>
</event>
<event>
 6    1  0.9988873E-007  0.1799688E+04  0.7818608E-02  0.8706465E-01
          2   -1    0    0  501    0  0.00000000000E+00  0.00000000000E+00  0.21211348926E+04  0.21211348926E+04  0.00000000000E+00 0. -1.
         -2   -1    0    0    0  501 -0.00000000000E+00 -0.00000000000E+00 -0.38173878398E+03  0.38173878398E+03  0.00000000000E+00 0.  1.
         23    2    1    2    0    0 -0.58921873587E+03 -0.13023280268E+03  0.17959666413E+04  0.18967882645E+04  0.90389391560E+02 0.  0.
         13    1    3    3    0    0 -0.13456913729E+03  0.30008251025E+01  0.33980002914E+03  0.36548860101E+03  0.00000000000E+00 0.  1.
        -13    1    3    3    0    0 -0.45464959858E+03 -0.13323362778E+03  0.14561666121E+04  0.15312996635E+04  0.00000000000E+00 0. -1.
         22    1    1    2    0    0  0.58921873587E+03  0.13023280268E+03 -0.56570532662E+02  0.60608541210E+03  0.00000000000E+00 0.  1.
<mgrwt>
<rscale>  0 0.17996883E+04</rscale>
<asrwt>0</asrwt>
<pdfrwt beam="1">  1        2 0.32632844E+00 0.17996883E+04</pdfrwt>
<pdfrwt beam="2">  1       -2 0.58729045E-01 0.17996883E+04</pdfrwt>
<totfact> 0.14630500E+01</totfact>
</mgrwt>
</event>
<event>
 6    1  0.9988873E-007  0.1797541E+04  0.7818608E-02  0.8707608E-01
         -2   -1    0    0    0  501 -0.00000000000E+00  0.00000000000E+00  0.21505986509E+03  0.21505986509E+03  0.00000000000E+00 0.  1.
          2   -1    0    0  501    0  0.00000000000E+00 -0.00000000000E+00 -0.37561098571E+04  0.37561098571E+04  0.00000000000E+00 0. -1.
         23    2    1    2    0    0  0.32317849978E+03 -0.52444997708E+03 -0.33665952152E+03  0.70810208444E+03  0.92611054306E+02 0.  0.
         11    1    3    3    0    0  0.13961397038E+03 -0.31433746190E+03 -0.18579510668E+03  0.39092188778E+03  0.00000000000E+00 0. -1.
        -11    1    3    3    0    0  0.18356452940E+03 -0.21011251518E+03 -0.15086441484E+03  0.31718019666E+03  0.00000000000E+00 0.  1.
         22    1    1    2    0    0 -0.32317849978E+03  0.52444997708E+03 -0.32043904705E+04  0.32630676378E+04  0.00000000000E+00 0. -1.
<mgrwt>
<rscale>  0 0.17975411E+04</rscale>
<asrwt>0</asrwt>
<pdfrwt beam="1">  1        2 0.57786299E+00 0.17975411E+04</pdfrwt>
<pdfrwt beam="2">  1       -2 0.33086137E-01 0.17975411E+04</pdfrwt>
<totfact> 0.43173854E+00</totfact>
</mgrwt>
</event>
<event>
 6    1  0.9988873E-007  0.4372349E+03  0.7818608E-02  0.1031599E+00
          1   -1    0    0  501    0  0.00000000000E+00  0.00000000000E+00  0.33762969656E+03  0.33762969656E+03  0.00000000000E+00 0. -1.
         -1   -1    0    0    0  501 -0.00000000000E+00 -0.00000000000E+00 -0.14155623605E+03  0.14155623605E+03  0.00000000000E+00 0.  1.
         23    2    1    2    0    0  0.54504260499E+02 -0.19712495197E+03  0.14987385274E+03  0.26951150674E+03  0.91352719871E+02 0.  0.
         13    1    3    3    0    0  0.50072423050E+02 -0.48995104712E+02  0.21047901784E+02  0.73149039675E+02  0.00000000000E+00 0. -1.
        -13    1    3    3    0    0  0.44318374489E+01 -0.14812984726E+03  0.12882595095E+03  0.19636246706E+03  0.00000000000E+00 0.  1.
         22    1    1    2    0    0 -0.54504260499E+02  0.19712495197E+03  0.46199607772E+02  0.20967442586E+03  0.00000000000E+00 0.  1.
<mgrwt>
<rscale>  0 0.43723490E+03</rscale>
<asrwt>0</asrwt>
<pdfrwt beam="1">  1        1 0.51943030E-01 0.43723490E+03</pdfrwt>
<pdfrwt beam="2">  1       -1 0.21777883E-01 0.43723490E+03</pdfrwt>
<totfact> 0.13266770E+03</totfact>
</mgrwt>
</event>
<event>
 6    1  0.9988873E-007  0.3960016E+04  0.7818608E-02  0.8012662E-01
         -2   -1    0    0    0  501 -0.00000000000E+00  0.00000000000E+00  0.13065829612E+04  0.13065829612E+04  0.00000000000E+00 0.  1.
          2   -1    0    0  501    0  0.00000000000E+00 -0.00000000000E+00 -0.30005224049E+04  0.30005224049E+04  0.00000000000E+00 0. -1.
         23    2    1    2    0    0 -0.80286367209E+03  0.31033162717E+03  0.10909560874E+04  0.13922230506E+04  0.84876634769E+02 0.  0.
         11    1    3    3    0    0 -0.20959477678E+03  0.12145778653E+03  0.29735262457E+03  0.38353689223E+03  0.00000000000E+00 0.  1.
        -11    1    3    3    0    0 -0.59326889531E+03  0.18887384064E+03  0.79360346281E+03  0.10086861583E+04  0.00000000000E+00 0. -1.
         22    1    1    2    0    0  0.80286367209E+03 -0.31033162717E+03 -0.27848955310E+04  0.29148823155E+04  0.00000000000E+00 0. -1.
<mgrwt>
<rscale>  0 0.39600159E+04</rscale>
<asrwt>0</asrwt>
<pdfrwt beam="1">  1        2 0.46161882E+00 0.39600159E+04</pdfrwt>
<pdfrwt beam="2">  1       -2 0.20101277E+00 0.39600159E+04</pdfrwt>
<totfact> 0.18024326E-01</totfact>
</mgrwt>
</event>
<event>
 6    1  0.9988873E-007  0.2223708E+04  0.7818608E-02  0.8508624E-01
         -2   -1    0    0    0  501 -0.00000000000E+00  0.00000000000E+00  0.94683895367E+03  0.94683895367E+03  0.00000000000E+00 0.  1.
          2   -1    0    0  501    0  0.00000000000E+00 -0.00000000000E+00 -0.13056283461E+04  0.13056283461E+04  0.00000000000E+00 0. -1.
         23    2    1    2    0    0 -0.29728463697E+03  0.87164939165E+03  0.44890904622E+03  0.10275070616E+04  0.78106417810E+02 0.  0.
         13    1    3    3    0    0 -0.10201777941E+03  0.30163835032E+03  0.19701038593E+03  0.37444146921E+03  0.00000000000E+00 0.  1.
        -13    1    3    3    0    0 -0.19526685756E+03  0.57001104133E+03  0.25189866029E+03  0.65306559238E+03  0.00000000000E+00 0. -1.
         22    1    1    2    0    0  0.29728463697E+03 -0.87164939165E+03 -0.80769843867E+03  0.12249602382E+04  0.00000000000E+00 0.  1.
<mgrwt>
<rscale>  0 0.22237084E+04</rscale>
<asrwt>0</asrwt>
<pdfrwt beam="1">  1        2 0.20086590E+00 0.22237084E+04</pdfrwt>
<pdfrwt beam="2">  1       -2 0.14566753E+00 0.22237084E+04</pdfrwt>
<totfact> 0.48463084E+00</totfact>
</mgrwt>
</event>
<event>
 6    1  0.9988873E-007  0.2134650E+04  0.7818608E-02  0.8546131E-01
          2   -1    0    0  501    0  0.00000000000E+00  0.00000000000E+00  0.22020019924E+04  0.22020019924E+04  0.00000000000E+00 0. -1.
         -2   -1    0    0    0  501 -0.00000000000E+00 -0.00000000000E+00 -0.51733973863E+03  0.51733973863E+03  0.00000000000E+00 0.  1.
         23    2    1    2    0    0  0.51037276022E+03  0.42307834203E+03 -0.21736152139E+03  0.70509991856E+03  0.10219699748E+03 0.  0.
         11    1    3    3    0    0  0.15818348584E+03  0.14485917249E+03 -0.12021765626E+03  0.24588306148E+03  0.00000000000E+00 0.  1.
        -11    1    3    3    0    0  0.35218927438E+03  0.27821916954E+03 -0.97143865133E+02  0.45921685708E+03  0.00000000000E+00 0. -1.
         22    1    1    2    0    0 -0.51037276022E+03 -0.42307834203E+03  0.19020237752E+04  0.20142418125E+04  0.00000000000E+00 0. -1.
<mgrwt>
<rscale>  0 0.21346504E+04</rscale>
<asrwt>0</asrwt>
<pdfrwt beam="1">  1        2 0.33876953E+00 0.21346504E+04</pdfrwt>
<pdfrwt beam="2">  1       -2 0.79590730E-01 0.21346504E+04</pdfrwt>
<totfact> 0.66177845E+00</totfact>
</mgrwt>
</event>
<event>
 6    1  0.9988873E-007  0.5158274E+04  0.7818608E-02  0.7804545E-01
          2   -1    0    0  501    0  0.00000000000E+00  0.00000000000E+00  0.14613623300E+04  0.14613623300E+04  0.00000000000E+00 0. -1.
         -2   -1    0    0    0  501 -0.00000000000E+00 -0.00000000000E+00 -0.45518815762E+04  0.45518815762E+04  0.00000000000E+00 0.  1.
         23    2    1    2    0    0 -0.87980810642E+03 -0.24082058837E+04 -0.12283892441E+04  0.28444829454E+04  0.92872005085E+02 0.  0.
         13    1    3    3    0    0 -0.31649939178E+03 -0.85175534181E+03 -0.38663331260E+03  0.98749397249E+03  0.00000000000E+00 0. -1.
        -13    1    3    3    0    0 -0.56330871464E+03 -0.15564505418E+04 -0.84175593147E+03  0.18569889729E+04  0.00000000000E+00 0.  1.
         22    1    1    2    0    0  0.87980810642E+03  0.24082058837E+04 -0.18621300021E+04  0.31687609608E+04  0.00000000000E+00 0. -1.
<mgrwt>
<rscale>  0 0.51582742E+04</rscale>
<asrwt>0</asrwt>
<pdfrwt beam="1">  1        2 0.22482497E+00 0.51582742E+04</pdfrwt>
<pdfrwt beam="2">  1       -2 0.70028947E+00 0.51582742E+04</pdfrwt>
<totfact> 0.22010213E-03</totfact>
</mgrwt>
</event>
<event>
 6    1  0.9988873E-007  0.9423898E+03  0.7818608E-02  0.9374090E-01
          1   -1    0    0  501    0  0.00000000000E+00  0.00000000000E+00  0.19154833581E+03  0.19154833581E+03  0.00000000000E+00 0. -1.
         -1   -1    0    0    0  501 -0.00000000000E+00 -0.00000000000E+00 -0.11591048904E+04  0.11591048904E+04  0.00000000000E+00 0.  1.
         23    2    1    2    0    0 -0.45810304029E+03  0.89315527657E+02 -0.47692011343E+03  0.67348280718E+03  0.91052940501E+02 0.  0.
         13    1    3    3    0    0 -0.45426862833E+03  0.89579115987E+02 -0.44788220974E+03  0.64419164734E+03  0.00000000000E+00 0. -1.
        -13    1    3    3    0    0 -0.38344119568E+01 -0.26358833019E+00 -0.29037903693E+02  0.29291159840E+02  0.00000000000E+00 0.  1.
         22    1    1    2    0    0  0.45810304029E+03 -0.89315527657E+02 -0.49063644111E+03  0.67717041898E+03  0.00000000000E+00 0. -1.
<mgrwt>
<rscale>  0 0.94238976E+03</rscale>
<asrwt>0</asrwt>
<pdfrwt beam="1">  1        1 0.29468975E-01 0.94238976E+03</pdfrwt>
<pdfrwt beam="2">  1       -1 0.17832383E+00 0.94238976E+03</pdfrwt>
<totfact> 0.33932353E+01</totfact>
</mgrwt>
</event>
<event>
 6    1  0.9988873E-007  0.2456067E+04  0.7818608E-02  0.8418806E-01
          2   -1    0    0  501    0  0.00000000000E+00  0.00000000000E+00  0.17358147360E+04  0.17358147360E+04  0.00000000000E+00 0. -1.
         -2   -1    0    0    0  501 -0.00000000000E+00 -0.00000000000E+00 -0.86879428147E+03  0.86879428147E+03  0.00000000000E+00 0.  1.
         23    2    1    2    0    0 -0.10176137068E+04 -0.62440099009E+03  0.13608953779E+03  0.12047253588E+04  0.86189182204E+02 0.  0.
         13    1    3    3    0    0 -0.47403500497E+03 -0.24887135052E+03  0.37204959527E+02  0.53668458527E+03  0.00000000000E+00 0.  1.
        -13    1    3    3    0    0 -0.54357870183E+03 -0.37552963957E+03  0.98884578260E+02  0.66804077353E+03  0.00000000000E+00 0. -1.
         22    1    1    2    0    0  0.10176137068E+04  0.62440099009E+03  0.73093091671E+03  0.13998836586E+04  0.00000000000E+00 0. -1.
<mgrwt>
<rscale>  0 0.24560667E+04</rscale>
<asrwt>0</asrwt>
<pdfrwt beam="1">  1        2 0.26704842E+00 0.24560667E+04</pdfrwt>
<pdfrwt beam="2">  1       -2 0.13366066E+00 0.24560667E+04</pdfrwt>
<totfact> 0.33936187E+00</totfact>
</mgrwt>
</event>
<event>
 6    1  0.9988873E-007  0.3459637E+04  0.7818608E-02  0.8123423E-01
          2   -1    0    0  501    0  0.00000000000E+00  0.00000000000E+00  0.18005387258E+04  0.18005387258E+04  0.00000000000E+00 0. -1.
         -2   -1    0    0    0  501 -0.00000000000E+00 -0.00000000000E+00 -0.16618762514E+04  0.16618762514E+04  0.00000000000E+00 0.  1.
         23    2    1    2    0    0 -0.14451632709E+04  0.66190023161E+03  0.74915986392E+03  0.17596772233E+04  0.92815044632E+02 0.  0.
         11    1    3    3    0    0 -0.43529604221E+03  0.17226013957E+03  0.25885584976E+03  0.53494163327E+03  0.00000000000E+00 0. -1.
        -11    1    3    3    0    0 -0.10098672286E+04  0.48964009205E+03  0.49030401416E+03  0.12247355901E+04  0.00000000000E+00 0.  1.
         22    1    1    2    0    0  0.14451632709E+04 -0.66190023161E+03 -0.61049738950E+03  0.17027377539E+04  0.00000000000E+00 0.  1.
<mgrwt>
<rscale>  0 0.34596373E+04</rscale>
<asrwt>0</asrwt>
<pdfrwt beam="1">  1        2 0.27700596E+00 0.34596373E+04</pdfrwt>
<pdfrwt beam="2">  1       -2 0.25567327E+00 0.34596373E+04</pdfrwt>
<totfact> 0.42160930E-01</totfact>
</mgrwt>
</event>
<event>
 6    1  0.9988873E-007  0.3138129E+04  0.7818608E-02  0.8205351E-01
         -2   -1    0    0    0  501 -0.00000000000E+00  0.00000000000E+00  0.57739554484E+03  0.57739554484E+03  0.00000000000E+00 0.  1.
          2   -1    0    0  501    0  0.00000000000E+00 -0.00000000000E+00 -0.42639122672E+04  0.42639122672E+04  0.00000000000E+00 0. -1.
         23    2    1    2    0    0 -0.44810670639E+03  0.11016603185E+04 -0.34206542955E+04  0.36226454685E+04  0.90715510033E+02 0.  0.
         11    1    3    3    0    0 -0.38204739976E+03  0.83925663572E+03 -0.26308267188E+04  0.27877519869E+04  0.00000000000E+00 0.  1.
        -11    1    3    3    0    0 -0.66059306627E+02  0.26240368273E+03 -0.78982757670E+03  0.83489348160E+03  0.00000000000E+00 0. -1.
         22    1    1    2    0    0  0.44810670639E+03 -0.11016603185E+04 -0.26586242692E+03  0.12186623436E+04  0.00000000000E+00 0.  1.
<mgrwt>
<rscale>  0 0.31381293E+04</rscale>
<asrwt>0</asrwt>
<pdfrwt beam="1">  1        2 0.65598647E+00 0.31381293E+04</pdfrwt>
<pdfrwt beam="2">  1       -2 0.88830088E-01 0.31381293E+04</pdfrwt>
<totfact> 0.18803869E-01</totfact>
</mgrwt>
</event>
<event>
 6    1  0.9988873E-007  0.7911217E+03  0.7818608E-02  0.9572958E-01
          1   -1    0    0  501    0  0.00000000000E+00  0.00000000000E+00  0.77985511746E+03  0.77985511746E+03  0.00000000000E+00 0. -1.
         -1   -1    0    0    0  501 -0.00000000000E+00 -0.00000000000E+00 -0.20063775695E+03  0.20063775695E+03  0.00000000000E+00 0.  1.
         23    2    1    2    0    0 -0.36087007729E+03  0.49114804429E+01  0.47928048244E+03  0.60600827537E+03  0.85351705550E+02 0.  0.
         11    1    3    3    0    0 -0.31097609203E+03 -0.76337874149E+01  0.35799468457E+03  0.47426216242E+03  0.00000000000E+00 0.  1.
        -11    1    3    3    0    0 -0.49893985260E+02  0.12545267858E+02  0.12128579787E+03  0.13174611295E+03  0.00000000000E+00 0. -1.
         22    1    1    2    0    0  0.36087007729E+03 -0.49114804429E+01  0.99936878073E+02  0.37448459904E+03  0.00000000000E+00 0.  1.
<mgrwt>
<rscale>  0 0.79112169E+03</rscale>
<asrwt>0</asrwt>
<pdfrwt beam="1">  1        1 0.11997771E+00 0.79112169E+03</pdfrwt>
<pdfrwt beam="2">  1       -1 0.30867348E-01 0.79112169E+03</pdfrwt>
<totfact> 0.22571892E+02</totfact>
</mgrwt>
</event>
<event>
 6    1  0.9988873E-007  0.3507826E+04  0.7818608E-02  0.8111938E-01
         -2   -1    0    0    0  501 -0.00000000000E+00  0.00000000000E+00  0.10005360301E+04  0.10005360301E+04  0.00000000000E+00 0.  1.
          2   -1    0    0  501    0  0.00000000000E+00 -0.00000000000E+00 -0.30745618980E+04  0.30745618980E+04  0.00000000000E+00 0. -1.
         23    2    1    2    0    0  0.10806846559E+04  0.11296979824E+04 -0.11723899741E+03  0.15704798507E+04  0.92547944676E+02 0.  0.
         13    1    3    3    0    0  0.55485862965E+03  0.51345629023E+03 -0.51964108989E+02  0.75776363696E+03  0.00000000000E+00 0. -1.
        -13    1    3    3    0    0  0.52582602624E+03  0.61624169216E+03 -0.65274888425E+02  0.81271621375E+03  0.00000000000E+00 0.  1.
         22    1    1    2    0    0 -0.10806846559E+04 -0.11296979824E+04 -0.19567868705E+04  0.25046180774E+04  0.00000000000E+00 0. -1.
<mgrwt>
<rscale>  0 0.35078255E+04</rscale>
<asrwt>0</asrwt>
<pdfrwt beam="1">  1        2 0.47300951E+00 0.35078255E+04</pdfrwt>
<pdfrwt beam="2">  1       -2 0.15392862E+00 0.35078255E+04</pdfrwt>
<totfact> 0.35847395E-01</totfact>
</mgrwt>
</event>
<event>
 6    1  0.9988873E-007  0.2895598E+04  0.7818608E-02  0.8274188E-01
         -2   -1    0    0    0  501 -0.00000000000E+00  0.00000000000E+00  0.84343054583E+03  0.84343054583E+03  0.00000000000E+00 0.  1.
          2   -1    0    0  501    0  0.00000000000E+00 -0.00000000000E+00 -0.24852339403E+04  0.24852339403E+04  0.00000000000E+00 0. -1.
         23    2    1    2    0    0  0.10457871900E+04  0.49640719306E+03 -0.18184559912E+04  0.21576405376E+04  0.92409682727E+02 0.  0.
         13    1    3    3    0    0  0.80243462344E+03  0.35827926718E+03 -0.14400578493E+04  0.16870186624E+04  0.00000000000E+00 0.  1.
        -13    1    3    3    0    0  0.24335256655E+03  0.13812792588E+03 -0.37839814197E+03  0.47062187518E+03  0.00000000000E+00 0. -1.
         22    1    1    2    0    0 -0.10457871900E+04 -0.49640719306E+03  0.17665259675E+03  0.11710239485E+04  0.00000000000E+00 0.  1.
<mgrwt>
<rscale>  0 0.28955982E+04</rscale>
<asrwt>0</asrwt>
<pdfrwt beam="1">  1        2 0.38234368E+00 0.28955982E+04</pdfrwt>
<pdfrwt beam="2">  1       -2 0.12975855E+00 0.28955982E+04</pdfrwt>
<totfact> 0.13372751E+00</totfact>
</mgrwt>
</event>
<event>
 6    1  0.9988873E-007  0.1161575E+04  0.7818608E-02  0.9147171E-01
         -2   -1    0    0    0  501 -0.00000000000E+00  0.00000000000E+00  0.66838908414E+03  0.66838908414E+03  0.00000000000E+00 0.  1.
          2   -1    0    0  501    0  0.00000000000E+00 -0.00000000000E+00 -0.50466771691E+03  0.50466771691E+03  0.00000000000E+00 0. -1.
         23    2    1    2    0    0  0.88266582376E+02 -0.56921461216E+03  0.11718428095E+03  0.59516237760E+03  0.93219288483E+02 0.  0.
         13    1    3    3    0    0  0.91680265308E+02 -0.30607812415E+03  0.48361335623E+02  0.32315307195E+03  0.00000000000E+00 0. -1.
        -13    1    3    3    0    0 -0.34136829318E+01 -0.26313648801E+03  0.68822945326E+02  0.27200930564E+03  0.00000000000E+00 0.  1.
         22    1    1    2    0    0 -0.88266582376E+02  0.56921461216E+03  0.46537086283E+02  0.57789442345E+03  0.00000000000E+00 0. -1.
<mgrwt>
<rscale>  0 0.11615755E+04</rscale>
<asrwt>0</asrwt>
<pdfrwt beam="1">  1        2 0.77641187E-01 0.11615755E+04</pdfrwt>
<pdfrwt beam="2">  1       -2 0.10282909E+00 0.11615755E+04</pdfrwt>
<totfact> 0.46575988E+01</totfact>
</mgrwt>
</event>
<event>
 6    1  0.9988873E-007  0.2351028E+04  0.7818608E-02  0.8458069E-01
          2   -1    0    0  501    0  0.00000000000E+00  0.00000000000E+00  0.10234765462E+04  0.10234765462E+04  0.00000000000E+00 0. -1.
         -2   -1    0    0    0  501 -0.00000000000E+00 -0.00000000000E+00 -0.13501367365E+04  0.13501367365E+04  0.00000000000E+00 0.  1.
         23    2    1    2    0    0  0.11381412237E+04  0.17368733117E+03  0.66916626453E+02  0.11568818230E+04  0.91460283344E+02 0.  0.
         13    1    3    3    0    0  0.10444438330E+04  0.14415915312E+03  0.81829221032E+02  0.10575163371E+04  0.00000000000E+00 0.  1.
        -13    1    3    3    0    0  0.93697390676E+02  0.29528178047E+02 -0.14912594578E+02  0.99365485936E+02  0.00000000000E+00 0. -1.
         22    1    1    2    0    0 -0.11381412237E+04 -0.17368733117E+03 -0.39357681672E+03  0.12167314596E+04  0.00000000000E+00 0.  1.
<mgrwt>
<rscale>  0 0.23510281E+04</rscale>
<asrwt>0</asrwt>
<pdfrwt beam="1">  1        2 0.15745793E+00 0.23510281E+04</pdfrwt>
<pdfrwt beam="2">  1       -2 0.20771335E+00 0.23510281E+04</pdfrwt>
<totfact> 0.26018675E+00</totfact>
</mgrwt>
</event>
<event>
 6    1  0.9988873E-007  0.3057799E+04  0.7818608E-02  0.8227416E-01
          2   -1    0    0  501    0  0.00000000000E+00  0.00000000000E+00  0.11006422068E+04  0.11006422068E+04  0.00000000000E+00 0. -1.
         -2   -1    0    0    0  501 -0.00000000000E+00 -0.00000000000E+00 -0.21237907969E+04  0.21237907969E+04  0.00000000000E+00 0.  1.
         23    2    1    2    0    0  0.60616370694E+03 -0.67703312630E+03  0.78268847488E+03  0.12028356651E+04  0.91673850767E+02 0.  0.
         11    1    3    3    0    0  0.22888589578E+03 -0.22948492501E+03  0.33296559864E+03  0.46466996242E+03  0.00000000000E+00 0.  1.
        -11    1    3    3    0    0  0.37727781116E+03 -0.44754820129E+03  0.44972287624E+03  0.73816570273E+03  0.00000000000E+00 0. -1.
         22    1    1    2    0    0 -0.60616370694E+03  0.67703312630E+03 -0.18058370651E+04  0.20215973386E+04  0.00000000000E+00 0.  1.
<mgrwt>
<rscale>  0 0.30577991E+04</rscale>
<asrwt>0</asrwt>
<pdfrwt beam="1">  1        2 0.16932957E+00 0.30577991E+04</pdfrwt>
<pdfrwt beam="2">  1       -2 0.32673704E+00 0.30577991E+04</pdfrwt>
<totfact> 0.40327124E-01</totfact>
</mgrwt>
</event>
<event>
 6    1  0.9988873E-007  0.1514083E+04  0.7818608E-02  0.8875141E-01
         -2   -1    0    0    0  501 -0.00000000000E+00  0.00000000000E+00  0.13211652728E+03  0.13211652728E+03  0.00000000000E+00 0.  1.
          2   -1    0    0  501    0  0.00000000000E+00 -0.00000000000E+00 -0.43379280969E+04  0.43379280969E+04  0.00000000000E+00 0. -1.
         23    2    1    2    0    0 -0.67063483025E+03  0.25229844555E+03 -0.28070551024E+04  0.28984450455E+04  0.89553071413E+02 0.  0.
         13    1    3    3    0    0 -0.32578976707E+03  0.16772945450E+03 -0.14848023485E+04  0.15293495861E+04  0.00000000000E+00 0. -1.
        -13    1    3    3    0    0 -0.34484506318E+03  0.84568991047E+02 -0.13222527539E+04  0.13690954594E+04  0.00000000000E+00 0.  1.
         22    1    1    2    0    0  0.67063483025E+03 -0.25229844555E+03 -0.13987564672E+04  0.15715995787E+04  0.00000000000E+00 0.  1.
<mgrwt>
<rscale>  0 0.15140832E+04</rscale>
<asrwt>0</asrwt>
<pdfrwt beam="1">  1        2 0.66737341E+00 0.15140832E+04</pdfrwt>
<pdfrwt beam="2">  1       -2 0.20325624E-01 0.15140832E+04</pdfrwt>
<totfact> 0.36232479E+00</totfact>
</mgrwt>
</event>
<event>
 6    1  0.9988873E-007  0.1587598E+04  0.7818608E-02  0.8828203E-01
         -1   -1    0    0    0  501 -0.00000000000E+00  0.00000000000E+00  0.26258609033E+03  0.26258609033E+03  0.00000000000E+00 0.  1.
          1   -1    0    0  501    0  0.00000000000E+00 -0.00000000000E+00 -0.23996595856E+04  0.23996595856E+04  0.00000000000E+00 0. -1.
         23    2    1    2    0    0  0.61315908422E+03  0.45568473657E+03 -0.72632354465E+03  0.10579302254E+04  0.89765408509E+02 0.  0.
         13    1    3    3    0    0  0.45852032544E+03  0.38454599123E+03 -0.58188655201E+03  0.83469064187E+03  0.00000000000E+00 0. -1.
        -13    1    3    3    0    0  0.15463875878E+03  0.71138745341E+02 -0.14443699264E+03  0.22323958351E+03  0.00000000000E+00 0.  1.
         22    1    1    2    0    0 -0.61315908422E+03 -0.45568473657E+03 -0.14107499506E+04  0.16043154505E+04  0.00000000000E+00 0. -1.
<mgrwt>
<rscale>  0 0.15875985E+04</rscale>
<asrwt>0</asrwt>
<pdfrwt beam="1">  1        1 0.36917840E+00 0.15875985E+04</pdfrwt>
<pdfrwt beam="2">  1       -1 0.40397860E-01 0.15875985E+04</pdfrwt>
<totfact> 0.91472957E+00</totfact>
</mgrwt>
</event>
<event>
 6    1  0.9988873E-007  0.2911725E+04  0.7818608E-02  0.8269397E-01
         -2   -1    0    0    0  501 -0.00000000000E+00  0.00000000000E+00  0.15661589131E+04  0.15661589131E+04  0.00000000000E+00 0.  1.
          2   -1    0    0  501    0  0.00000000000E+00 -0.00000000000E+00 -0.13533338805E+04  0.13533338805E+04  0.00000000000E+00 0. -1.
         23    2    1    2    0    0  0.14110382497E+04 -0.10597412177E+03 -0.22664131095E+03  0.14378079001E+04  0.11690088601E+03 0.  0.
         13    1    3    3    0    0  0.23583541282E+03 -0.61439429561E+02 -0.44645585025E+02  0.24776273672E+03  0.00000000000E+00 0.  1.
        -13    1    3    3    0    0  0.11752028369E+04 -0.44534692205E+02 -0.18199572592E+03  0.11900451634E+04  0.00000000000E+00 0. -1.
         22    1    1    2    0    0 -0.14110382497E+04  0.10597412177E+03  0.43946634355E+03  0.14816848936E+04  0.00000000000E+00 0.  1.
<mgrwt>
<rscale>  0 0.29117252E+04</rscale>
<asrwt>0</asrwt>
<pdfrwt beam="1">  1        2 0.20820521E+00 0.29117252E+04</pdfrwt>
<pdfrwt beam="2">  1       -2 0.24094753E+00 0.29117252E+04</pdfrwt>
<totfact> 0.97001141E-01</totfact>
</mgrwt>
</event>
<event>
 6    1  0.1097746E-006  0.4841998E+04  0.7818608E-02  0.7853354E-01
          2   -1    0    0  501    0  0.00000000000E+00  0.00000000000E+00  0.18735971522E+04  0.18735971522E+04  0.00000000000E+00 0. -1.
         -2   -1    0    0    0  501 -0.00000000000E+00 -0.00000000000E+00 -0.31283331917E+04  0.31283331917E+04  0.00000000000E+00 0.  1.
         23    2    1    2    0    0  0.52306721451E+03 -0.13472702400E+04 -0.26329922273E+04  0.30048508437E+04  0.88000644782E+02 0.  0.
         13    1    3    3    0    0  0.23483939060E+03 -0.59878918905E+03 -0.12629634061E+04  0.14173124558E+04  0.00000000000E+00 0. -1.
        -13    1    3    3    0    0  0.28822782391E+03 -0.74848105094E+03 -0.13700288213E+04  0.15875383880E+04  0.00000000000E+00 0.  1.
         22    1    1    2    0    0 -0.52306721451E+03  0.13472702400E+04  0.13782561879E+04  0.19970795002E+04  0.00000000000E+00 0. -1.
<mgrwt>
<rscale>  0 0.48419980E+04</rscale>
<asrwt>0</asrwt>
<pdfrwt beam="1">  1        2 0.28824572E+00 0.48419980E+04</pdfrwt>
<pdfrwt beam="2">  1       -2 0.48128203E+00 0.48419980E+04</pdfrwt>
<totfact> 0.12600493E-02</totfact>
</mgrwt>
</event>
<event>
 6    1  0.9988873E-007  0.8014061E+03  0.7818608E-02  0.9557984E-01
          1   -1    0    0  501    0  0.00000000000E+00  0.00000000000E+00  0.18437581336E+03  0.18437581336E+03  0.00000000000E+00 0. -1.
         -1   -1    0    0    0  501 -0.00000000000E+00 -0.00000000000E+00 -0.87084586475E+03  0.87084586475E+03  0.00000000000E+00 0.  1.
         23    2    1    2    0    0 -0.30116098778E+02 -0.29035691068E+03  0.38185559399E+01  0.30574687773E+03  0.90843034328E+02 0.  0.
         11    1    3    3    0    0  0.10887670115E+02 -0.22697059888E+03 -0.15695349506E+02  0.22777299689E+03  0.00000000000E+00 0.  1.
        -11    1    3    3    0    0 -0.41003768893E+02 -0.63386311798E+02  0.19513905446E+02  0.77973880836E+02  0.00000000000E+00 0. -1.
         22    1    1    2    0    0  0.30116098778E+02  0.29035691068E+03 -0.69028860734E+03  0.74947480038E+03  0.00000000000E+00 0.  1.
<mgrwt>
<rscale>  0 0.80140605E+03</rscale>
<asrwt>0</asrwt>
<pdfrwt beam="1">  1        1 0.28365510E-01 0.80140605E+03</pdfrwt>
<pdfrwt beam="2">  1       -1 0.13397629E+00 0.80140605E+03</pdfrwt>
<totfact> 0.78776157E+01</totfact>
</mgrwt>
</event>
<event>
 6    1  0.9988873E-007  0.2497437E+04  0.7818608E-02  0.8403899E-01
          1   -1    0    0  501    0  0.00000000000E+00  0.00000000000E+00  0.21479831688E+04  0.21479831688E+04  0.00000000000E+00 0. -1.
         -1   -1    0    0    0  501 -0.00000000000E+00 -0.00000000000E+00 -0.72593595923E+03  0.72593595923E+03  0.00000000000E+00 0.  1.
         23    2    1    2    0    0 -0.11747999557E+04 -0.27079320591E+03  0.34494099351E+03  0.12572430018E+04  0.90508454620E+02 0.  0.
         11    1    3    3    0    0 -0.45473787587E+03 -0.13016613685E+03  0.17345849461E+03  0.50380314438E+03  0.00000000000E+00 0. -1.
        -11    1    3    3    0    0 -0.72006207984E+03 -0.14062706906E+03  0.17148249890E+03  0.75343985746E+03  0.00000000000E+00 0.  1.
         22    1    1    2    0    0  0.11747999557E+04  0.27079320591E+03  0.10771062160E+04  0.16166761262E+04  0.00000000000E+00 0. -1.
<mgrwt>
<rscale>  0 0.24974373E+04</rscale>
<asrwt>0</asrwt>
<pdfrwt beam="1">  1        1 0.33045895E+00 0.24974373E+04</pdfrwt>
<pdfrwt beam="2">  1       -1 0.11168246E+00 0.24974373E+04</pdfrwt>
<totfact> 0.15459625E+00</totfact>
</mgrwt>
</event>
<event>
 6    1  0.9988873E-007  0.4217261E+03  0.7818608E-02  0.1036506E+00
          1   -1    0    0  501    0  0.00000000000E+00  0.00000000000E+00  0.13405077196E+04  0.13405077196E+04  0.00000000000E+00 0. -1.
         -1   -1    0    0    0  501 -0.00000000000E+00 -0.00000000000E+00 -0.33168948818E+02  0.33168948818E+02  0.00000000000E+00 0.  1.
         23    2    1    2    0    0 -0.10984178436E+03  0.87121575844E+02  0.11543493392E+04  0.11661648549E+04  0.88106102533E+02 0.  0.
         13    1    3    3    0    0 -0.70416494200E+02  0.85686337728E+02  0.10236615797E+04  0.10296522039E+04  0.00000000000E+00 0. -1.
        -13    1    3    3    0    0 -0.39425290161E+02  0.14352381160E+01  0.13068775951E+03  0.13651265105E+03  0.00000000000E+00 0.  1.
         22    1    1    2    0    0  0.10984178436E+03 -0.87121575844E+02  0.15298943151E+03  0.20751181345E+03  0.00000000000E+00 0. -1.
<mgrwt>
<rscale>  0 0.42172613E+03</rscale>
<asrwt>0</asrwt>
<pdfrwt beam="1">  1        1 0.20623191E+00 0.42172613E+03</pdfrwt>
<pdfrwt beam="2">  1       -1 0.51029162E-02 0.42172613E+03</pdfrwt>
<totfact> 0.15575447E+03</totfact>
</mgrwt>
</event>
<event>
 6    1  0.9988873E-007  0.3518684E+04  0.7818608E-02  0.8109376E-01
          2   -1    0    0  501    0  0.00000000000E+00  0.00000000000E+00  0.29813698580E+04  0.29813698580E+04  0.00000000000E+00 0. -1.
         -2   -1    0    0    0  501 -0.00000000000E+00 -0.00000000000E+00 -0.10382088068E+04  0.10382088068E+04  0.00000000000E+00 0.  1.
         23    2    1    2    0    0  0.79212921640E+03  0.92109039581E+03 -0.47960371137E+03  0.13092898780E+04  0.91345782910E+02 0.  0.
         13    1    3    3    0    0  0.14100194029E+03  0.17813262353E+03 -0.53432861951E+02  0.23338348156E+03  0.00000000000E+00 0. -1.
        -13    1    3    3    0    0  0.65112727611E+03  0.74295777228E+03 -0.42617084942E+03  0.10759063965E+04  0.00000000000E+00 0.  1.
         22    1    1    2    0    0 -0.79212921640E+03 -0.92109039581E+03  0.24227647625E+04  0.27102887867E+04  0.00000000000E+00 0. -1.
<mgrwt>
<rscale>  0 0.35186841E+04</rscale>
<asrwt>0</asrwt>
<pdfrwt beam="1">  1        2 0.45867228E+00 0.35186841E+04</pdfrwt>
<pdfrwt beam="2">  1       -2 0.15972443E+00 0.35186841E+04</pdfrwt>
<totfact> 0.37112493E-01</totfact>
</mgrwt>
</event>
<event>
 6    1  0.9988873E-007  0.1325380E+04  0.7818608E-02  0.9009677E-01
         -2   -1    0    0    0  501 -0.00000000000E+00  0.00000000000E+00  0.25016718622E+03  0.25016718622E+03  0.00000000000E+00 0.  1.
          2   -1    0    0  501    0  0.00000000000E+00 -0.00000000000E+00 -0.17554581850E+04  0.17554581850E+04  0.00000000000E+00 0. -1.
         23    2    1    2    0    0  0.48866920025E+03  0.14815562438E+03 -0.12435893685E+03  0.53330711895E+03  0.90574067148E+02 0.  0.
         11    1    3    3    0    0  0.33202915768E+03  0.94188656752E+02 -0.12659647414E+03  0.36761601145E+03  0.00000000000E+00 0.  1.
        -11    1    3    3    0    0  0.15664004257E+03  0.53966967629E+02  0.22375372876E+01  0.16569110750E+03  0.00000000000E+00 0. -1.
         22    1    1    2    0    0 -0.48866920025E+03 -0.14815562438E+03 -0.13809320619E+04  0.14723182522E+04  0.00000000000E+00 0. -1.
<mgrwt>
<rscale>  0 0.13253800E+04</rscale>
<asrwt>0</asrwt>
<pdfrwt beam="1">  1        2 0.27007050E+00 0.13253800E+04</pdfrwt>
<pdfrwt beam="2">  1       -2 0.38487258E-01 0.13253800E+04</pdfrwt>
<totfact> 0.56994055E+01</totfact>
</mgrwt>
</event>
<event>
 6    1  0.9988873E-007  0.3056710E+04  0.7818608E-02  0.8227720E-01
          2   -1    0    0  501    0  0.00000000000E+00  0.00000000000E+00  0.45262796114E+04  0.45262796114E+04  0.00000000000E+00 0. -1.
         -2   -1    0    0    0  501 -0.00000000000E+00 -0.00000000000E+00 -0.51606818277E+03  0.51606818277E+03  0.00000000000E+00 0.  1.
         23    2    1    2    0    0  0.84965505660E+03  0.12459961879E+04  0.24021255128E+04  0.28377252577E+04  0.89763263463E+02 0.  0.
         11    1    3    3    0    0  0.72355855024E+03  0.10807299512E+04  0.20140556227E+04  0.23974849852E+04  0.00000000000E+00 0.  1.
        -11    1    3    3    0    0  0.12609650636E+03  0.16526623673E+03  0.38806989006E+03  0.44024027246E+03  0.00000000000E+00 0. -1.
         22    1    1    2    0    0 -0.84965505660E+03 -0.12459961879E+04  0.16080859158E+04  0.22046225364E+04  0.00000000000E+00 0.  1.
<mgrwt>
<rscale>  0 0.30567099E+04</rscale>
<asrwt>0</asrwt>
<pdfrwt beam="1">  1        2 0.69635068E+00 0.30567099E+04</pdfrwt>
<pdfrwt beam="2">  1       -2 0.79395108E-01 0.30567099E+04</pdfrwt>
<totfact> 0.13872698E-01</totfact>
</mgrwt>
</event>
<event>
 6    1  0.9988873E-007  0.4400186E+04  0.7818608E-02  0.7928348E-01
          2   -1    0    0  501    0  0.00000000000E+00  0.00000000000E+00  0.14449202266E+04  0.14449202266E+04  0.00000000000E+00 0. -1.
         -2   -1    0    0    0  501 -0.00000000000E+00 -0.00000000000E+00 -0.33499491002E+04  0.33499491002E+04  0.00000000000E+00 0.  1.
         23    2    1    2    0    0  0.10229940999E+04  0.19433734827E+04 -0.82890770423E+03  0.23492090493E+04  0.92074717469E+02 0.  0.
         11    1    3    3    0    0  0.70505060498E+03  0.12677492124E+04 -0.57714181892E+03  0.15612101397E+04  0.00000000000E+00 0. -1.
        -11    1    3    3    0    0  0.31794349494E+03  0.67562427026E+03 -0.25176588530E+03  0.78799890961E+03  0.00000000000E+00 0.  1.
         22    1    1    2    0    0 -0.10229940999E+04 -0.19433734827E+04 -0.10761211693E+04  0.24456602775E+04  0.00000000000E+00 0.  1.
<mgrwt>
<rscale>  0 0.44001860E+04</rscale>
<asrwt>0</asrwt>
<pdfrwt beam="1">  1        2 0.22229542E+00 0.44001860E+04</pdfrwt>
<pdfrwt beam="2">  1       -2 0.51537678E+00 0.44001860E+04</pdfrwt>
<totfact> 0.13915130E-02</totfact>
</mgrwt>
</event>
<event>
 6    1  0.9988873E-007  0.1398549E+04  0.7818608E-02  0.8954870E-01
          1   -1    0    0  501    0  0.00000000000E+00  0.00000000000E+00  0.52319608210E+03  0.52319608210E+03  0.00000000000E+00 0. -1.
         -1   -1    0    0    0  501 -0.00000000000E+00 -0.00000000000E+00 -0.93461053163E+03  0.93461053163E+03  0.00000000000E+00 0.  1.
         23    2    1    2    0    0 -0.48603362120E+03  0.70878980452E+02 -0.72102702874E+03  0.87719274891E+03  0.91294204432E+02 0.  0.
         11    1    3    3    0    0 -0.35440393177E+03  0.20009344409E+02 -0.56059839985E+03  0.66353077293E+03  0.00000000000E+00 0.  1.
        -11    1    3    3    0    0 -0.13162968944E+03  0.50869636043E+02 -0.16042862889E+03  0.21366197598E+03  0.00000000000E+00 0. -1.
         22    1    1    2    0    0  0.48603362120E+03 -0.70878980452E+02  0.30961257921E+03  0.58061386482E+03  0.00000000000E+00 0. -1.
<mgrwt>
<rscale>  0 0.13985486E+04</rscale>
<asrwt>0</asrwt>
<pdfrwt beam="1">  1        1 0.80491706E-01 0.13985486E+04</pdfrwt>
<pdfrwt beam="2">  1       -1 0.14378623E+00 0.13985486E+04</pdfrwt>
<totfact> 0.15857121E+01</totfact>
</mgrwt>
</event>
<event>
 6    1  0.9988873E-007  0.2894496E+04  0.7818608E-02  0.8274517E-01
          2   -1    0    0  501    0  0.00000000000E+00  0.00000000000E+00  0.19594381430E+04  0.19594381430E+04  0.00000000000E+00 0. -1.
         -2   -1    0    0    0  501 -0.00000000000E+00 -0.00000000000E+00 -0.10689425953E+04  0.10689425953E+04  0.00000000000E+00 0.  1.
         23    2    1    2    0    0 -0.50086411156E+03  0.68003637027E+03 -0.78202093761E+03  0.11547143548E+04  0.92163828323E+02 0.  0.
         11    1    3    3    0    0 -0.95320644434E+02  0.78495322174E+02 -0.12990818285E+03  0.17923079208E+03  0.00000000000E+00 0. -1.
        -11    1    3    3    0    0 -0.40554346712E+03  0.60154104810E+03 -0.65211275476E+03  0.97548356275E+03  0.00000000000E+00 0.  1.
         22    1    1    2    0    0  0.50086411156E+03 -0.68003637027E+03  0.16725164853E+04  0.18736663835E+04  0.00000000000E+00 0. -1.
<mgrwt>
<rscale>  0 0.28944961E+04</rscale>
<asrwt>0</asrwt>
<pdfrwt beam="1">  1        2 0.30145202E+00 0.28944961E+04</pdfrwt>
<pdfrwt beam="2">  1       -2 0.16445271E+00 0.28944961E+04</pdfrwt>
<totfact> 0.14198986E+00</totfact>
</mgrwt>
</event>
<event>
 6    1  0.9988873E-007  0.3383175E+04  0.7818608E-02  0.8142048E-01
         -2   -1    0    0    0  501 -0.00000000000E+00  0.00000000000E+00  0.16699494295E+04  0.16699494295E+04  0.00000000000E+00 0.  1.
          2   -1    0    0  501    0  0.00000000000E+00 -0.00000000000E+00 -0.17135055310E+04  0.17135055310E+04  0.00000000000E+00 0. -1.
         23    2    1    2    0    0  0.14594818985E+02  0.13812747835E+04 -0.99603317246E+03  0.17055557959E+04  0.93303032845E+02 0.  0.
         11    1    3    3    0    0  0.34062944952E+02  0.39501650560E+03 -0.24935087623E+03  0.46837397813E+03  0.00000000000E+00 0. -1.
        -11    1    3    3    0    0 -0.19468125967E+02  0.98625827787E+03 -0.74668229623E+03  0.12371818177E+04  0.00000000000E+00 0.  1.
         22    1    1    2    0    0 -0.14594818985E+02 -0.13812747835E+04  0.95247707093E+03  0.16778991647E+04  0.00000000000E+00 0.  1.
<mgrwt>
<rscale>  0 0.33831746E+04</rscale>
<asrwt>0</asrwt>
<pdfrwt beam="1">  1        2 0.26361623E+00 0.33831746E+04</pdfrwt>
<pdfrwt beam="2">  1       -2 0.25691530E+00 0.33831746E+04</pdfrwt>
<totfact> 0.46597057E-01</totfact>
</mgrwt>
</event>
<event>
 6    1  0.9988873E-007  0.2082955E+04  0.7818608E-02  0.8568789E-01
          2   -1    0    0  501    0  0.00000000000E+00  0.00000000000E+00  0.23352404621E+04  0.23352404621E+04  0.00000000000E+00 0. -1.
         -2   -1    0    0    0  501 -0.00000000000E+00 -0.00000000000E+00 -0.46448120750E+03  0.46448120750E+03  0.00000000000E+00 0.  1.
         23    2    1    2    0    0 -0.10983062635E+03  0.36047492880E+03  0.22393024013E+04  0.22726268092E+04  0.91391621558E+02 0.  0.
         11    1    3    3    0    0 -0.81206079672E+02  0.24637325601E+03  0.17645799747E+04  0.17835461014E+04  0.00000000000E+00 0. -1.
        -11    1    3    3    0    0 -0.28624546674E+02  0.11410167279E+03  0.47472242659E+03  0.48908070777E+03  0.00000000000E+00 0.  1.
         22    1    1    2    0    0  0.10983062635E+03 -0.36047492880E+03 -0.36854314678E+03  0.52709486036E+03  0.00000000000E+00 0.  1.
<mgrwt>
<rscale>  0 0.20829549E+04</rscale>
<asrwt>0</asrwt>
<pdfrwt beam="1">  1        2 0.35926776E+00 0.20829549E+04</pdfrwt>
<pdfrwt beam="2">  1       -2 0.71458649E-01 0.20829549E+04</pdfrwt>
<totfact> 0.70989178E+00</totfact>
</mgrwt>
</event>
<event>
 6    1  0.9988873E-007  0.3167032E+04  0.7818608E-02  0.8197579E-01
         -2   -1    0    0    0  501 -0.00000000000E+00  0.00000000000E+00  0.22424370373E+04  0.22424370373E+04  0.00000000000E+00 0.  1.
          2   -1    0    0  501    0  0.00000000000E+00 -0.00000000000E+00 -0.11182133515E+04  0.11182133515E+04  0.00000000000E+00 0. -1.
         23    2    1    2    0    0 -0.10031105165E+04 -0.85937310579E+03 -0.36149222401E+03  0.13726602964E+04  0.93631286937E+02 0.  0.
         13    1    3    3    0    0 -0.68560880323E+03 -0.56470817095E+03 -0.28466287482E+03  0.93273131271E+03  0.00000000000E+00 0.  1.
        -13    1    3    3    0    0 -0.31750171327E+03 -0.29466493483E+03 -0.76829349187E+02  0.43992898364E+03  0.00000000000E+00 0. -1.
         22    1    1    2    0    0  0.10031105165E+04  0.85937310579E+03  0.14857159097E+04  0.19879900925E+04  0.00000000000E+00 0.  1.
<mgrwt>
<rscale>  0 0.31670321E+04</rscale>
<asrwt>0</asrwt>
<pdfrwt beam="1">  1        2 0.17203282E+00 0.31670321E+04</pdfrwt>
<pdfrwt beam="2">  1       -2 0.34499031E+00 0.31670321E+04</pdfrwt>
<totfact> 0.29980264E-01</totfact>
</mgrwt>
</event>
<event>
 6    1  0.9988873E-007  0.3869980E+04  0.7818608E-02  0.8031302E-01
          2   -1    0    0  501    0  0.00000000000E+00  0.00000000000E+00  0.18159027301E+04  0.18159027301E+04  0.00000000000E+00 0. -1.
         -2   -1    0    0    0  501 -0.00000000000E+00 -0.00000000000E+00 -0.20618867513E+04  0.20618867513E+04  0.00000000000E+00 0.  1.
         23    2    1    2    0    0  0.35027676462E+03 -0.99405220855E+03 -0.17478868465E+04  0.20429745857E+04  0.88335294647E+02 0.  0.
         13    1    3    3    0    0  0.69061872504E+02 -0.28007689018E+03 -0.53246298712E+03  0.60558190140E+03  0.00000000000E+00 0.  1.
        -13    1    3    3    0    0  0.28121489212E+03 -0.71397531837E+03 -0.12154238594E+04  0.14373926843E+04  0.00000000000E+00 0. -1.
         22    1    1    2    0    0 -0.35027676462E+03  0.99405220855E+03  0.15019028253E+04  0.18348148958E+04  0.00000000000E+00 0. -1.
<mgrwt>
<rscale>  0 0.38699797E+04</rscale>
<asrwt>0</asrwt>
<pdfrwt beam="1">  1        2 0.27936965E+00 0.38699797E+04</pdfrwt>
<pdfrwt beam="2">  1       -2 0.31721335E+00 0.38699797E+04</pdfrwt>
<totfact> 0.16790846E-01</totfact>
</mgrwt>
</event>
<event>
 6    1  0.9988873E-007  0.1338044E+04  0.7818608E-02  0.8999928E-01
         -1   -1    0    0    0  501 -0.00000000000E+00  0.00000000000E+00  0.10659455886E+04  0.10659455886E+04  0.00000000000E+00 0.  1.
          1   -1    0    0  501    0  0.00000000000E+00 -0.00000000000E+00 -0.41989972952E+03  0.41989972952E+03  0.00000000000E+00 0. -1.
         23    2    1    2    0    0 -0.30763074693E+03  0.39989426763E+03  0.80910363846E+03  0.95561900692E+03  0.63299975244E+02 0.  0.
         13    1    3    3    0    0 -0.60137634555E+02  0.87801683968E+02  0.22146365141E+03  0.24570677584E+03  0.00000000000E+00 0.  1.
        -13    1    3    3    0    0 -0.24749311237E+03  0.31209258366E+03  0.58763998706E+03  0.70991223108E+03  0.00000000000E+00 0. -1.
         22    1    1    2    0    0  0.30763074693E+03 -0.39989426763E+03 -0.16305777934E+03  0.53022631125E+03  0.00000000000E+00 0. -1.
<mgrwt>
<rscale>  0 0.13380437E+04</rscale>
<asrwt>0</asrwt>
<pdfrwt beam="1">  1        1 0.64599959E-01 0.13380437E+04</pdfrwt>
<pdfrwt beam="2">  1       -1 0.16399163E+00 0.13380437E+04</pdfrwt>
<totfact> 0.15018654E+01</totfact>
</mgrwt>
</event>
<event>
 6    1  0.9988873E-007  0.1823553E+04  0.7818608E-02  0.8693873E-01
         -2   -1    0    0    0  501 -0.00000000000E+00  0.00000000000E+00  0.50060114494E+03  0.50060114494E+03  0.00000000000E+00 0.  1.
          2   -1    0    0  501    0  0.00000000000E+00 -0.00000000000E+00 -0.16606770563E+04  0.16606770563E+04  0.00000000000E+00 0. -1.
         23    2    1    2    0    0 -0.89464631379E+03 -0.74893782756E+02 -0.75380321326E+03  0.11758551394E+04  0.91732868456E+02 0.  0.
         11    1    3    3    0    0 -0.26761135027E+03  0.13938577189E+02 -0.25200692845E+03  0.36785542094E+03  0.00000000000E+00 0. -1.
        -11    1    3    3    0    0 -0.62703496352E+03 -0.88832359945E+02 -0.50179628481E+03  0.80799971850E+03  0.00000000000E+00 0.  1.
         22    1    1    2    0    0  0.89464631379E+03  0.74893782756E+02 -0.40627269805E+03  0.98542306176E+03  0.00000000000E+00 0. -1.
<mgrwt>
<rscale>  0 0.18235535E+04</rscale>
<asrwt>0</asrwt>
<pdfrwt beam="1">  1        2 0.25548878E+00 0.18235535E+04</pdfrwt>
<pdfrwt beam="2">  1       -2 0.77015560E-01 0.18235535E+04</pdfrwt>
<totfact> 0.14628971E+01</totfact>
</mgrwt>
</event>
<event>
 6    1  0.9988873E-007  0.1305342E+04  0.7818608E-02  0.9025339E-01
          1   -1    0    0  501    0  0.00000000000E+00  0.00000000000E+00  0.78071279975E+03  0.78071279975E+03  0.00000000000E+00 0. -1.
         -1   -1    0    0    0  501 -0.00000000000E+00 -0.00000000000E+00 -0.54562907608E+03  0.54562907608E+03  0.00000000000E+00 0.  1.
         23    2    1    2    0    0 -0.52537543976E+03  0.37417641681E+03  0.19532336236E+03  0.68011573126E+03  0.91536049814E+02 0.  0.
         11    1    3    3    0    0 -0.48239432414E+03  0.35842771505E+03  0.15893459441E+03  0.62163889532E+03  0.00000000000E+00 0. -1.
        -11    1    3    3    0    0 -0.42981115624E+02  0.15748701755E+02  0.36388767957E+02  0.58476835933E+02  0.00000000000E+00 0.  1.
         22    1    1    2    0    0  0.52537543976E+03 -0.37417641681E+03  0.39760361313E+02  0.64622614458E+03  0.00000000000E+00 0. -1.
<mgrwt>
<rscale>  0 0.13053423E+04</rscale>
<asrwt>0</asrwt>
<pdfrwt beam="1">  1        1 0.12010966E+00 0.13053423E+04</pdfrwt>
<pdfrwt beam="2">  1       -1 0.83942934E-01 0.13053423E+04</pdfrwt>
<totfact> 0.31777083E+01</totfact>
</mgrwt>
</event>
<event>
 6    1  0.9988873E-007  0.2338462E+04  0.7818608E-02  0.8462909E-01
          1   -1    0    0  501    0  0.00000000000E+00  0.00000000000E+00  0.15098852619E+04  0.15098852619E+04  0.00000000000E+00 0. -1.
         -1   -1    0    0    0  501 -0.00000000000E+00 -0.00000000000E+00 -0.90543405698E+03  0.90543405698E+03  0.00000000000E+00 0.  1.
         23    2    1    2    0    0  0.52198134257E+03  0.36991749589E+01 -0.77593928413E+03  0.93952932429E+03  0.90307101880E+02 0.  0.
         11    1    3    3    0    0  0.25527878047E+03  0.44920194854E+02 -0.35640360745E+03  0.44069106079E+03  0.00000000000E+00 0. -1.
        -11    1    3    3    0    0  0.26670256210E+03 -0.41221019896E+02 -0.41953567668E+03  0.49883826349E+03  0.00000000000E+00 0.  1.
         22    1    1    2    0    0 -0.52198134257E+03 -0.36991749589E+01  0.13803904891E+04  0.14757899946E+04  0.00000000000E+00 0. -1.
<mgrwt>
<rscale>  0 0.23384623E+04</rscale>
<asrwt>0</asrwt>
<pdfrwt beam="1">  1        1 0.23229004E+00 0.23384623E+04</pdfrwt>
<pdfrwt beam="2">  1       -1 0.13929755E+00 0.23384623E+04</pdfrwt>
<totfact> 0.24638393E+00</totfact>
</mgrwt>
</event>
<event>
 6    1  0.9988873E-007  0.5161776E+04  0.7818608E-02  0.7804025E-01
         -2   -1    0    0    0  501 -0.00000000000E+00  0.00000000000E+00  0.14968630702E+04  0.14968630702E+04  0.00000000000E+00 0.  1.
          2   -1    0    0  501    0  0.00000000000E+00 -0.00000000000E+00 -0.44499607703E+04  0.44499607703E+04  0.00000000000E+00 0. -1.
         23    2    1    2    0    0  0.92951498001E+03 -0.24049328550E+04 -0.13667548531E+04  0.29195835521E+04  0.90824854117E+02 0.  0.
         11    1    3    3    0    0  0.30817571096E+03 -0.81959176850E+03 -0.41658839418E+03  0.96966428519E+03  0.00000000000E+00 0.  1.
        -11    1    3    3    0    0  0.62133926904E+03 -0.15853410865E+04 -0.95016645888E+03  0.19499192669E+04  0.00000000000E+00 0. -1.
         22    1    1    2    0    0 -0.92951498001E+03  0.24049328550E+04 -0.15863428471E+04  0.30272402884E+04  0.00000000000E+00 0. -1.
<mgrwt>
<rscale>  0 0.51617756E+04</rscale>
<asrwt>0</asrwt>
<pdfrwt beam="1">  1        2 0.68460935E+00 0.51617756E+04</pdfrwt>
<pdfrwt beam="2">  1       -2 0.23028663E+00 0.51617756E+04</pdfrwt>
<totfact> 0.83426644E-03</totfact>
</mgrwt>
</event>
<event>
 6    1  0.9988873E-007  0.1436839E+04  0.7818608E-02  0.8927576E-01
          1   -1    0    0  501    0  0.00000000000E+00  0.00000000000E+00  0.15669032530E+04  0.15669032530E+04  0.00000000000E+00 0. -1.
         -1   -1    0    0    0  501 -0.00000000000E+00 -0.00000000000E+00 -0.32939298160E+03  0.32939298160E+03  0.00000000000E+00 0.  1.
         23    2    1    2    0    0  0.68049852133E+03 -0.92686020169E+01  0.91264490952E+03  0.11421731360E+04  0.92057575220E+02 0.  0.
         13    1    3    3    0    0  0.30834534365E+03  0.15823878039E+02  0.48250052184E+03  0.57282981735E+03  0.00000000000E+00 0.  1.
        -13    1    3    3    0    0  0.37215317768E+03 -0.25092480056E+02  0.43014438767E+03  0.56934331862E+03  0.00000000000E+00 0. -1.
         22    1    1    2    0    0 -0.68049852133E+03  0.92686020169E+01  0.32486536188E+03  0.75412309862E+03  0.00000000000E+00 0.  1.
<mgrwt>
<rscale>  0 0.14368395E+04</rscale>
<asrwt>0</asrwt>
<pdfrwt beam="1">  1        1 0.24106203E+00 0.14368395E+04</pdfrwt>
<pdfrwt beam="2">  1       -1 0.50675844E-01 0.14368395E+04</pdfrwt>
<totfact> 0.22367455E+01</totfact>
</mgrwt>
</event>
<event>
 6    1  0.9988873E-007  0.2029038E+04  0.7818608E-02  0.8593164E-01
         -2   -1    0    0    0  501 -0.00000000000E+00  0.00000000000E+00  0.41871543137E+03  0.41871543137E+03  0.00000000000E+00 0.  1.
          2   -1    0    0  501    0  0.00000000000E+00 -0.00000000000E+00 -0.24581095122E+04  0.24581095122E+04  0.00000000000E+00 0. -1.
         23    2    1    2    0    0 -0.21274276944E+03 -0.87850257404E+03 -0.16685333314E+04  0.18998070553E+04  0.90758530493E+02 0.  0.
         13    1    3    3    0    0 -0.15317612818E+03 -0.61742257687E+03 -0.12572914821E+04  0.14090618992E+04  0.00000000000E+00 0. -1.
        -13    1    3    3    0    0 -0.59566641260E+02 -0.26107999718E+03 -0.41124184924E+03  0.49074515610E+03  0.00000000000E+00 0.  1.
         22    1    1    2    0    0  0.21274276944E+03  0.87850257404E+03 -0.37086074946E+03  0.97701788829E+03  0.00000000000E+00 0. -1.
<mgrwt>
<rscale>  0 0.20290376E+04</rscale>
<asrwt>0</asrwt>
<pdfrwt beam="1">  1        2 0.37817069E+00 0.20290376E+04</pdfrwt>
<pdfrwt beam="2">  1       -2 0.64417760E-01 0.20290376E+04</pdfrwt>
<totfact> 0.75969008E+00</totfact>
</mgrwt>
</event>
<event>
 6    1  0.9988873E-007  0.2660283E+04  0.7818608E-02  0.8348008E-01
          1   -1    0    0  501    0  0.00000000000E+00  0.00000000000E+00  0.14380963493E+04  0.14380963493E+04  0.00000000000E+00 0. -1.
         -1   -1    0    0    0  501 -0.00000000000E+00 -0.00000000000E+00 -0.12302903890E+04  0.12302903890E+04  0.00000000000E+00 0.  1.
         23    2    1    2    0    0 -0.41283040803E+03  0.66674400939E+03  0.11796603681E+04  0.14195963197E+04  0.93159041527E+02 0.  0.
         11    1    3    3    0    0 -0.42172211024E+02  0.13492651975E+03  0.22051435185E+03  0.26193556553E+03  0.00000000000E+00 0. -1.
        -11    1    3    3    0    0 -0.37065819701E+03  0.53181748963E+03  0.95914601620E+03  0.11576607541E+04  0.00000000000E+00 0.  1.
         22    1    1    2    0    0  0.41283040803E+03 -0.66674400939E+03 -0.97185440779E+03  0.12487904187E+04  0.00000000000E+00 0.  1.
<mgrwt>
<rscale>  0 0.26602828E+04</rscale>
<asrwt>0</asrwt>
<pdfrwt beam="1">  1        1 0.22124559E+00 0.26602828E+04</pdfrwt>
<pdfrwt beam="2">  1       -1 0.18927544E+00 0.26602828E+04</pdfrwt>
<totfact> 0.11317203E+00</totfact>
</mgrwt>
</event>
<event>
 6    1  0.9988873E-007  0.2718644E+04  0.7818608E-02  0.8328981E-01
          2   -1    0    0  501    0  0.00000000000E+00  0.00000000000E+00  0.15932877918E+04  0.15932877918E+04  0.00000000000E+00 0. -1.
         -2   -1    0    0    0  501 -0.00000000000E+00 -0.00000000000E+00 -0.11597124222E+04  0.11597124222E+04  0.00000000000E+00 0.  1.
         23    2    1    2    0    0 -0.19364035088E+03  0.11520626797E+04 -0.48372689481E+03  0.12676758563E+04  0.90914050204E+02 0.  0.
         11    1    3    3    0    0 -0.14052659130E+03  0.56361593709E+03 -0.24540536190E+03  0.63058261874E+03  0.00000000000E+00 0. -1.
        -11    1    3    3    0    0 -0.53113759586E+02  0.58844674259E+03 -0.23832153292E+03  0.63709323758E+03  0.00000000000E+00 0.  1.
         22    1    1    2    0    0  0.19364035088E+03 -0.11520626797E+04  0.91730226436E+03  0.14853243577E+04  0.00000000000E+00 0. -1.
<mgrwt>
<rscale>  0 0.27186435E+04</rscale>
<asrwt>0</asrwt>
<pdfrwt beam="1">  1        2 0.24512120E+00 0.27186435E+04</pdfrwt>
<pdfrwt beam="2">  1       -2 0.17841730E+00 0.27186435E+04</pdfrwt>
<totfact> 0.18327264E+00</totfact>
</mgrwt>
</event>
<event>
 6    1  0.9988873E-007  0.2193775E+04  0.7818608E-02  0.8521023E-01
         -2   -1    0    0    0  501 -0.00000000000E+00  0.00000000000E+00  0.10229438314E+04  0.10229438314E+04  0.00000000000E+00 0.  1.
          2   -1    0    0  501    0  0.00000000000E+00 -0.00000000000E+00 -0.11761766717E+04  0.11761766717E+04  0.00000000000E+00 0. -1.
         23    2    1    2    0    0 -0.79173176205E+03  0.40324909667E+03 -0.71839828195E+03  0.11460958151E+04  0.89389646356E+02 0.  0.
         11    1    3    3    0    0 -0.56416915376E+03  0.30398197323E+03 -0.56429821077E+03  0.85388778232E+03  0.00000000000E+00 0.  1.
        -11    1    3    3    0    0 -0.22756260829E+03  0.99267123437E+02 -0.15410007117E+03  0.29220803278E+03  0.00000000000E+00 0. -1.
         22    1    1    2    0    0  0.79173176205E+03 -0.40324909667E+03  0.56516544169E+03  0.10530246880E+04  0.00000000000E+00 0. -1.
<mgrwt>
<rscale>  0 0.21937754E+04</rscale>
<asrwt>0</asrwt>
<pdfrwt beam="1">  1        2 0.18095026E+00 0.21937754E+04</pdfrwt>
<pdfrwt beam="2">  1       -2 0.15737597E+00 0.21937754E+04</pdfrwt>
<totfact> 0.47167842E+00</totfact>
</mgrwt>
</event>
<event>
 6    1  0.9988873E-007  0.1441223E+04  0.7818608E-02  0.8924508E-01
          1   -1    0    0  501    0  0.00000000000E+00  0.00000000000E+00  0.17826944620E+04  0.17826944620E+04  0.00000000000E+00 0. -1.
         -1   -1    0    0    0  501 -0.00000000000E+00 -0.00000000000E+00 -0.29128993477E+03  0.29128993477E+03  0.00000000000E+00 0.  1.
         23    2    1    2    0    0  0.52204328447E+03  0.25613453826E+03  0.14525856469E+03  0.60761369159E+03  0.99801077343E+02 0.  0.
         11    1    3    3    0    0  0.32284170989E+03  0.21013016816E+03  0.84946551293E+02  0.39445832960E+03  0.00000000000E+00 0. -1.
        -11    1    3    3    0    0  0.19920157458E+03  0.46004370101E+02  0.60312013393E+02  0.21315536199E+03  0.00000000000E+00 0.  1.
         22    1    1    2    0    0 -0.52204328447E+03 -0.25613453826E+03  0.13461459626E+04  0.14663707052E+04  0.00000000000E+00 0. -1.
<mgrwt>
<rscale>  0 0.14412230E+04</rscale>
<asrwt>0</asrwt>
<pdfrwt beam="1">  1        1 0.27426068E+00 0.14412230E+04</pdfrwt>
<pdfrwt beam="2">  1       -1 0.44813837E-01 0.14412230E+04</pdfrwt>
<totfact> 0.20084540E+01</totfact>
</mgrwt>
</event>
<event>
 6    1  0.9988873E-007  0.1344517E+04  0.7818608E-02  0.8994989E-01
          2   -1    0    0  501    0  0.00000000000E+00  0.00000000000E+00  0.51408278210E+03  0.51408278210E+03  0.00000000000E+00 0. -1.
         -2   -1    0    0    0  501 -0.00000000000E+00 -0.00000000000E+00 -0.87910241756E+03  0.87910241756E+03  0.00000000000E+00 0.  1.
         23    2    1    2    0    0  0.18232696566E+03  0.58850652296E+03  0.88217043326E+02  0.62832799928E+03  0.86201960340E+02 0.  0.
         13    1    3    3    0    0  0.10290888203E+03  0.40127068487E+03  0.94301850713E+02  0.42485437457E+03  0.00000000000E+00 0. -1.
        -13    1    3    3    0    0  0.79418083633E+02  0.18723583809E+03 -0.60848073871E+01  0.20347362471E+03  0.00000000000E+00 0.  1.
         22    1    1    2    0    0 -0.18232696566E+03 -0.58850652296E+03 -0.45323667878E+03  0.76485720038E+03  0.00000000000E+00 0.  1.
<mgrwt>
<rscale>  0 0.13445169E+04</rscale>
<asrwt>0</asrwt>
<pdfrwt beam="1">  1        2 0.79089660E-01 0.13445169E+04</pdfrwt>
<pdfrwt beam="2">  1       -2 0.13524652E+00 0.13445169E+04</pdfrwt>
<totfact> 0.22859843E+01</totfact>
</mgrwt>
</event>
<event>
 6    1  0.9988873E-007  0.1266628E+04  0.7818608E-02  0.9056457E-01
         -1   -1    0    0    0  501 -0.00000000000E+00  0.00000000000E+00  0.46425933118E+03  0.46425933118E+03  0.00000000000E+00 0.  1.
          1   -1    0    0  501    0  0.00000000000E+00 -0.00000000000E+00 -0.86392742582E+03  0.86392742582E+03  0.00000000000E+00 0. -1.
         23    2    1    2    0    0  0.31142171813E+03  0.87498715621E+02  0.36602589411E+03  0.49696669217E+03  0.91440834463E+02 0.  0.
         13    1    3    3    0    0  0.16375540884E+03  0.89575391356E+02  0.22977461931E+03  0.29603371487E+03  0.00000000000E+00 0. -1.
        -13    1    3    3    0    0  0.14766630929E+03 -0.20766757343E+01  0.13625127480E+03  0.20093297730E+03  0.00000000000E+00 0.  1.
         22    1    1    2    0    0 -0.31142171813E+03 -0.87498715621E+02 -0.76569398875E+03  0.83122006483E+03  0.00000000000E+00 0. -1.
<mgrwt>
<rscale>  0 0.12666276E+04</rscale>
<asrwt>0</asrwt>
<pdfrwt beam="1">  1        1 0.13291191E+00 0.12666276E+04</pdfrwt>
<pdfrwt beam="2">  1       -1 0.71424513E-01 0.12666276E+04</pdfrwt>
<totfact> 0.38014638E+01</totfact>
</mgrwt>
</event>
<event>
 6    1  0.9988873E-007  0.1271720E+04  0.7818608E-02  0.9052297E-01
          2   -1    0    0  501    0  0.00000000000E+00  0.00000000000E+00  0.31067944538E+03  0.31067944538E+03  0.00000000000E+00 0. -1.
         -2   -1    0    0    0  501 -0.00000000000E+00 -0.00000000000E+00 -0.13013982268E+04  0.13013982268E+04  0.00000000000E+00 0.  1.
         23    2    1    2    0    0 -0.40335034065E+03 -0.81209962724E+02 -0.11072059540E+04  0.11844612358E+04  0.88072919725E+02 0.  0.
         13    1    3    3    0    0 -0.27364884374E+03 -0.82382751542E+02 -0.66953812351E+03  0.72797795726E+03  0.00000000000E+00 0. -1.
        -13    1    3    3    0    0 -0.12970149691E+03  0.11727888177E+01 -0.43766783048E+03  0.45648327853E+03  0.00000000000E+00 0.  1.
         22    1    1    2    0    0  0.40335034065E+03  0.81209962724E+02  0.11648717253E+03  0.42761643643E+03  0.00000000000E+00 0. -1.
<mgrwt>
<rscale>  0 0.12717196E+04</rscale>
<asrwt>0</asrwt>
<pdfrwt beam="1">  1        2 0.47796838E-01 0.12717196E+04</pdfrwt>
<pdfrwt beam="2">  1       -2 0.20021511E+00 0.12717196E+04</pdfrwt>
<totfact> 0.13735650E+01</totfact>
</mgrwt>
</event>
<event>
 6    1  0.9988873E-007  0.4215526E+04  0.7818608E-02  0.7962425E-01
          1   -1    0    0  501    0  0.00000000000E+00  0.00000000000E+00  0.27869946359E+04  0.27869946359E+04  0.00000000000E+00 0. -1.
         -1   -1    0    0    0  501 -0.00000000000E+00 -0.00000000000E+00 -0.15940704464E+04  0.15940704464E+04  0.00000000000E+00 0.  1.
         23    2    1    2    0    0 -0.91834943654E+03 -0.14977379511E+04  0.18050755357E+04  0.25206044059E+04  0.92543092469E+02 0.  0.
         11    1    3    3    0    0 -0.57012024117E+03 -0.89516484276E+03  0.11491749576E+04  0.15642762762E+04  0.00000000000E+00 0.  1.
        -11    1    3    3    0    0 -0.34822919538E+03 -0.60257310833E+03  0.65590057806E+03  0.95632812972E+03  0.00000000000E+00 0. -1.
         22    1    1    2    0    0  0.91834943654E+03  0.14977379511E+04 -0.61215134612E+03  0.18604606764E+04  0.00000000000E+00 0.  1.
<mgrwt>
<rscale>  0 0.42155264E+04</rscale>
<asrwt>0</asrwt>
<pdfrwt beam="1">  1        1 0.42876840E+00 0.42155264E+04</pdfrwt>
<pdfrwt beam="2">  1       -1 0.24524161E+00 0.42155264E+04</pdfrwt>
<totfact> 0.49033126E-02</totfact>
</mgrwt>
</event>
<event>
 6    1  0.9988873E-007  0.3228122E+04  0.7818608E-02  0.8181429E-01
          2   -1    0    0  501    0  0.00000000000E+00  0.00000000000E+00  0.17269722637E+04  0.17269722637E+04  0.00000000000E+00 0. -1.
         -2   -1    0    0    0  501 -0.00000000000E+00 -0.00000000000E+00 -0.15085322588E+04  0.15085322588E+04  0.00000000000E+00 0.  1.
         23    2    1    2    0    0  0.10468834845E+04 -0.36579130532E+03  0.12825697731E+04  0.16985788663E+04  0.10206190701E+03 0.  0.
         11    1    3    3    0    0  0.62734008041E+03 -0.24603605959E+03  0.71216853805E+03  0.98044548328E+03  0.00000000000E+00 0.  1.
        -11    1    3    3    0    0  0.41954340411E+03 -0.11975524573E+03  0.57040123503E+03  0.71813338297E+03  0.00000000000E+00 0. -1.
         22    1    1    2    0    0 -0.10468834845E+04  0.36579130532E+03 -0.10641297682E+04  0.15369256562E+04  0.00000000000E+00 0.  1.
<mgrwt>
<rscale>  0 0.32281223E+04</rscale>
<asrwt>0</asrwt>
<pdfrwt beam="1">  1        2 0.26568804E+00 0.32281223E+04</pdfrwt>
<pdfrwt beam="2">  1       -2 0.23208189E+00 0.32281223E+04</pdfrwt>
<totfact> 0.66043183E-01</totfact>
</mgrwt>
</event>
<event>
 6    1  0.9988873E-007  0.8213982E+03  0.7818608E-02  0.9529550E-01
          2   -1    0    0  501    0  0.00000000000E+00  0.00000000000E+00  0.59620401715E+03  0.59620401715E+03  0.00000000000E+00 0. -1.
         -2   -1    0    0    0  501 -0.00000000000E+00 -0.00000000000E+00 -0.28291277668E+03  0.28291277668E+03  0.00000000000E+00 0.  1.
         23    2    1    2    0    0 -0.13987584974E+03 -0.91382062857E+02 -0.23734972136E+03  0.30368530044E+03  0.89296902075E+02 0.  0.
         11    1    3    3    0    0 -0.12975157715E+03 -0.48026193658E+02 -0.20985189462E+03  0.25135593234E+03  0.00000000000E+00 0.  1.
        -11    1    3    3    0    0 -0.10124272589E+02 -0.43355869199E+02 -0.27497826741E+02  0.52329368092E+02  0.00000000000E+00 0. -1.
         22    1    1    2    0    0  0.13987584974E+03  0.91382062857E+02  0.55064096183E+03  0.57543149340E+03  0.00000000000E+00 0. -1.
<mgrwt>
<rscale>  0 0.82139816E+03</rscale>
<asrwt>0</asrwt>
<pdfrwt beam="1">  1        2 0.91723695E-01 0.82139816E+03</pdfrwt>
<pdfrwt beam="2">  1       -2 0.43525043E-01 0.82139816E+03</pdfrwt>
<totfact> 0.25159920E+02</totfact>
</mgrwt>
</event>
<event>
 6    1  0.9988873E-007  0.2705414E+04  0.7818608E-02  0.8333250E-01
         -1   -1    0    0    0  501 -0.00000000000E+00  0.00000000000E+00  0.18216564235E+04  0.18216564235E+04  0.00000000000E+00 0.  1.
          1   -1    0    0  501    0  0.00000000000E+00 -0.00000000000E+00 -0.10044794913E+04  0.10044794913E+04  0.00000000000E+00 0. -1.
         23    2    1    2    0    0 -0.85273843572E+03  0.20655353669E+03 -0.66364857010E+03  0.11048946849E+04  0.10264325019E+03 0.  0.
         13    1    3    3    0    0 -0.38008548942E+03  0.75291203028E+02 -0.35374612358E+03  0.52466185726E+03  0.00000000000E+00 0. -1.
        -13    1    3    3    0    0 -0.47265294630E+03  0.13126233366E+03 -0.30990244652E+03  0.58023282762E+03  0.00000000000E+00 0.  1.
         22    1    1    2    0    0  0.85273843572E+03 -0.20655353669E+03  0.14808255023E+04  0.17212412299E+04  0.00000000000E+00 0.  1.
<mgrwt>
<rscale>  0 0.27054142E+04</rscale>
<asrwt>0</asrwt>
<pdfrwt beam="1">  1        1 0.15453531E+00 0.27054142E+04</pdfrwt>
<pdfrwt beam="2">  1       -1 0.28025483E+00 0.27054142E+04</pdfrwt>
<totfact> 0.58077686E-01</totfact>
</mgrwt>
</event>
<event>
 6    1  0.9988873E-007  0.2659423E+04  0.7818608E-02  0.8348292E-01
         -2   -1    0    0    0  501 -0.00000000000E+00  0.00000000000E+00  0.16078308721E+04  0.16078308721E+04  0.00000000000E+00 0.  1.
          2   -1    0    0  501    0  0.00000000000E+00 -0.00000000000E+00 -0.10997008474E+04  0.10997008474E+04  0.00000000000E+00 0. -1.
         23    2    1    2    0    0 -0.22483322144E+03 -0.69185983829E+03  0.13856396921E+04  0.15676882085E+04  0.91809310335E+02 0.  0.
         11    1    3    3    0    0 -0.10928337260E+03 -0.47614022838E+03  0.92647216097E+03  0.10473791280E+04  0.00000000000E+00 0.  1.
        -11    1    3    3    0    0 -0.11554984884E+03 -0.21571960990E+03  0.45916753108E+03  0.52030908051E+03  0.00000000000E+00 0. -1.
         22    1    1    2    0    0  0.22483322144E+03  0.69185983829E+03 -0.87750966742E+03  0.11398435111E+04  0.00000000000E+00 0. -1.
<mgrwt>
<rscale>  0 0.26594232E+04</rscale>
<asrwt>0</asrwt>
<pdfrwt beam="1">  1        2 0.16918475E+00 0.26594232E+04</pdfrwt>
<pdfrwt beam="2">  1       -2 0.24735860E+00 0.26594232E+04</pdfrwt>
<totfact> 0.12798572E+00</totfact>
</mgrwt>
</event>
<event>
 6    1  0.9988873E-007  0.2711496E+04  0.7818608E-02  0.8331285E-01
          1   -1    0    0  501    0  0.00000000000E+00  0.00000000000E+00  0.18370918289E+04  0.18370918289E+04  0.00000000000E+00 0. -1.
         -1   -1    0    0    0  501 -0.00000000000E+00 -0.00000000000E+00 -0.10005229104E+04  0.10005229104E+04  0.00000000000E+00 0.  1.
         23    2    1    2    0    0 -0.24393555123E+03 -0.13198028583E+04  0.60154084337E+03  0.14750354448E+04  0.11177673790E+03 0.  0.
         13    1    3    3    0    0 -0.21844949925E+03 -0.11171104494E+04  0.46653231405E+03  0.12301659806E+04  0.00000000000E+00 0.  1.
        -13    1    3    3    0    0 -0.25486051976E+02 -0.20269240896E+03  0.13500852932E+03  0.24486946417E+03  0.00000000000E+00 0. -1.
         22    1    1    2    0    0  0.24393555123E+03  0.13198028583E+04  0.23502807515E+03  0.13625792946E+04  0.00000000000E+00 0.  1.
<mgrwt>
<rscale>  0 0.27114959E+04</rscale>
<asrwt>0</asrwt>
<pdfrwt beam="1">  1        1 0.28262951E+00 0.27114959E+04</pdfrwt>
<pdfrwt beam="2">  1       -1 0.15392660E+00 0.27114959E+04</pdfrwt>
<totfact> 0.10906436E+00</totfact>
</mgrwt>
</event>
<event>
 6    1  0.9988873E-007  0.4509706E+04  0.7818608E-02  0.7908940E-01
          1   -1    0    0  501    0  0.00000000000E+00  0.00000000000E+00  0.17755009319E+04  0.17755009319E+04  0.00000000000E+00 0. -1.
         -1   -1    0    0    0  501 -0.00000000000E+00 -0.00000000000E+00 -0.28636216765E+04  0.28636216765E+04  0.00000000000E+00 0.  1.
         23    2    1    2    0    0  0.11772234355E+03  0.14218713416E+04 -0.23390959259E+04  0.27416201535E+04  0.97645547834E+02 0.  0.
         11    1    3    3    0    0  0.29862674319E+02  0.79145033425E+03 -0.13599366436E+04  0.15737576324E+04  0.00000000000E+00 0. -1.
        -11    1    3    3    0    0  0.87859669231E+02  0.63042100735E+03 -0.97915928234E+03  0.11678625211E+04  0.00000000000E+00 0.  1.
         22    1    1    2    0    0 -0.11772234355E+03 -0.14218713416E+04  0.12509751813E+04  0.18975024549E+04  0.00000000000E+00 0. -1.
<mgrwt>
<rscale>  0 0.45097064E+04</rscale>
<asrwt>0</asrwt>
<pdfrwt beam="1">  1        1 0.27315399E+00 0.45097064E+04</pdfrwt>
<pdfrwt beam="2">  1       -1 0.44055718E+00 0.45097064E+04</pdfrwt>
<totfact> 0.11958677E-02</totfact>
</mgrwt>
</event>
<event>
 6    1  0.9988873E-007  0.2166976E+04  0.7818608E-02  0.8532300E-01
          1   -1    0    0  501    0  0.00000000000E+00  0.00000000000E+00  0.22953341126E+04  0.22953341126E+04  0.00000000000E+00 0. -1.
         -1   -1    0    0    0  501 -0.00000000000E+00 -0.00000000000E+00 -0.51144905963E+03  0.51144905963E+03  0.00000000000E+00 0.  1.
         23    2    1    2    0    0 -0.43320065186E+03 -0.55899225196E+03 -0.16638875753E+03  0.73224633755E+03  0.91456753170E+02 0.  0.
         13    1    3    3    0    0 -0.33493694503E+03 -0.42615752759E+03 -0.16647810663E+03  0.56701671533E+03  0.00000000000E+00 0. -1.
        -13    1    3    3    0    0 -0.98263706824E+02 -0.13283472437E+03  0.89349100036E-01  0.16522962222E+03  0.00000000000E+00 0.  1.
         22    1    1    2    0    0  0.43320065186E+03  0.55899225196E+03  0.19502738105E+04  0.20745368347E+04  0.00000000000E+00 0. -1.
<mgrwt>
<rscale>  0 0.21669762E+04</rscale>
<asrwt>0</asrwt>
<pdfrwt beam="1">  1        1 0.35312832E+00 0.21669762E+04</pdfrwt>
<pdfrwt beam="2">  1       -1 0.78684472E-01 0.21669762E+04</pdfrwt>
<totfact> 0.27699921E+00</totfact>
</mgrwt>
</event>
<event>
 6    1  0.9988873E-007  0.3008597E+04  0.7818608E-02  0.8241280E-01
          2   -1    0    0  501    0  0.00000000000E+00  0.00000000000E+00  0.22298007921E+04  0.22298007921E+04  0.00000000000E+00 0. -1.
         -2   -1    0    0    0  501 -0.00000000000E+00 -0.00000000000E+00 -0.10148502317E+04  0.10148502317E+04  0.00000000000E+00 0.  1.
         23    2    1    2    0    0 -0.13719138357E+03 -0.13333509356E+04  0.13411742841E+04  0.18983306230E+04  0.90909298954E+02 0.  0.
         13    1    3    3    0    0 -0.68855135643E+02 -0.72970213093E+03  0.79640423416E+03  0.10823427986E+04  0.00000000000E+00 0.  1.
        -13    1    3    3    0    0 -0.68336247928E+02 -0.60364880464E+03  0.54477004992E+03  0.81598782431E+03  0.00000000000E+00 0. -1.
         22    1    1    2    0    0  0.13719138357E+03  0.13333509356E+04 -0.12622372368E+03  0.13463204008E+04  0.00000000000E+00 0.  1.
<mgrwt>
<rscale>  0 0.30085969E+04</rscale>
<asrwt>0</asrwt>
<pdfrwt beam="1">  1        2 0.34304627E+00 0.30085969E+04</pdfrwt>
<pdfrwt beam="2">  1       -2 0.15613081E+00 0.30085969E+04</pdfrwt>
<totfact> 0.11439380E+00</totfact>
</mgrwt>
</event>
<event>
 6    1  0.9988873E-007  0.6744342E+03  0.7818608E-02  0.9761980E-01
          2   -1    0    0  501    0  0.00000000000E+00  0.00000000000E+00  0.40358032493E+03  0.40358032493E+03  0.00000000000E+00 0. -1.
         -2   -1    0    0    0  501 -0.00000000000E+00 -0.00000000000E+00 -0.28176636949E+03  0.28176636949E+03  0.00000000000E+00 0.  1.
         23    2    1    2    0    0  0.20262021712E+03  0.23103259426E+03  0.18586474167E+03  0.37144620825E+03  0.94844986345E+02 0.  0.
         13    1    3    3    0    0  0.14648466971E+03  0.10925116747E+03  0.13826368404E+03  0.22915152711E+03  0.00000000000E+00 0.  1.
        -13    1    3    3    0    0  0.56135547414E+02  0.12178142679E+03  0.47601057629E+02  0.14229468114E+03  0.00000000000E+00 0. -1.
         22    1    1    2    0    0 -0.20262021712E+03 -0.23103259426E+03 -0.64050786238E+02  0.31390048616E+03  0.00000000000E+00 0.  1.
<mgrwt>
<rscale>  0 0.67443417E+03</rscale>
<asrwt>0</asrwt>
<pdfrwt beam="1">  1        2 0.62089281E-01 0.67443417E+03</pdfrwt>
<pdfrwt beam="2">  1       -2 0.43348672E-01 0.67443417E+03</pdfrwt>
<totfact> 0.40066296E+02</totfact>
</mgrwt>
</event>
<event>
 6    1  0.9988873E-007  0.1546576E+04  0.7818608E-02  0.8854058E-01
         -1   -1    0    0    0  501 -0.00000000000E+00  0.00000000000E+00  0.41126751588E+03  0.41126751588E+03  0.00000000000E+00 0.  1.
          1   -1    0    0  501    0  0.00000000000E+00 -0.00000000000E+00 -0.14539782255E+04  0.14539782255E+04  0.00000000000E+00 0. -1.
         23    2    1    2    0    0  0.30880308183E+03 -0.52725724228E+03  0.42952498088E+02  0.61944313123E+03  0.92224361453E+02 0.  0.
         11    1    3    3    0    0  0.32603072660E+02 -0.69513624909E+02  0.35951950190E+02  0.84779992435E+02  0.00000000000E+00 0.  1.
        -11    1    3    3    0    0  0.27620000917E+03 -0.45774361738E+03  0.70005478980E+01  0.53466313880E+03  0.00000000000E+00 0. -1.
         22    1    1    2    0    0 -0.30880308183E+03  0.52725724228E+03 -0.10856632077E+04  0.12458026101E+04  0.00000000000E+00 0. -1.
<mgrwt>
<rscale>  0 0.15465756E+04</rscale>
<asrwt>0</asrwt>
<pdfrwt beam="1">  1        1 0.22368896E+00 0.15465756E+04</pdfrwt>
<pdfrwt beam="2">  1       -1 0.63271926E-01 0.15465756E+04</pdfrwt>
<totfact> 0.17193123E+01</totfact>
</mgrwt>
</event>
<event>
 6    1  0.9988873E-007  0.2422751E+04  0.7818608E-02  0.8431035E-01
         -2   -1    0    0    0  501 -0.00000000000E+00  0.00000000000E+00  0.20634977590E+04  0.20634977590E+04  0.00000000000E+00 0.  1.
          2   -1    0    0  501    0  0.00000000000E+00 -0.00000000000E+00 -0.71113768625E+03  0.71113768625E+03  0.00000000000E+00 0. -1.
         23    2    1    2    0    0 -0.47267183662E+03  0.22110456848E+03 -0.57280254585E+03  0.78000339813E+03  0.89423985796E+02 0.  0.
         13    1    3    3    0    0 -0.42631283506E+03  0.16638474004E+03 -0.49996996596E+03  0.67778793285E+03  0.00000000000E+00 0. -1.
        -13    1    3    3    0    0 -0.46359001560E+02  0.54719828443E+02 -0.72832579887E+02  0.10221546529E+03  0.00000000000E+00 0.  1.
         22    1    1    2    0    0  0.47267183662E+03 -0.22110456848E+03  0.19251626186E+04  0.19946320471E+04  0.00000000000E+00 0.  1.
<mgrwt>
<rscale>  0 0.24227513E+04</rscale>
<asrwt>0</asrwt>
<pdfrwt beam="1">  1        2 0.10940580E+00 0.24227513E+04</pdfrwt>
<pdfrwt beam="2">  1       -2 0.31746119E+00 0.24227513E+04</pdfrwt>
<totfact> 0.89516088E-01</totfact>
</mgrwt>
</event>
<event>
 6    1  0.9988873E-007  0.1553559E+04  0.7818608E-02  0.8849598E-01
         -2   -1    0    0    0  501 -0.00000000000E+00  0.00000000000E+00  0.55106853782E+03  0.55106853782E+03  0.00000000000E+00 0.  1.
          2   -1    0    0  501    0  0.00000000000E+00 -0.00000000000E+00 -0.10949383800E+04  0.10949383800E+04  0.00000000000E+00 0. -1.
         23    2    1    2    0    0  0.14030711229E+03  0.44885808406E+02 -0.10778176196E+04  0.10921106725E+04  0.96509472050E+02 0.  0.
         11    1    3    3    0    0  0.74643380405E+02  0.15811735200E+02 -0.84578065261E+03  0.84921525984E+03  0.00000000000E+00 0. -1.
        -11    1    3    3    0    0  0.65663731884E+02  0.29074073206E+02 -0.23203696702E+03  0.24289541264E+03  0.00000000000E+00 0.  1.
         22    1    1    2    0    0 -0.14030711229E+03 -0.44885808406E+02  0.53394777745E+03  0.55389624534E+03  0.00000000000E+00 0.  1.
<mgrwt>
<rscale>  0 0.15535586E+04</rscale>
<asrwt>0</asrwt>
<pdfrwt beam="1">  1        2 0.16845205E+00 0.15535586E+04</pdfrwt>
<pdfrwt beam="2">  1       -2 0.84779777E-01 0.15535586E+04</pdfrwt>
<totfact> 0.25599838E+01</totfact>
</mgrwt>
</event>
<event>
 6    1  0.9988873E-007  0.4110339E+04  0.7818608E-02  0.7982650E-01
         -1   -1    0    0    0  501 -0.00000000000E+00  0.00000000000E+00  0.21433982520E+04  0.21433982520E+04  0.00000000000E+00 0.  1.
          1   -1    0    0  501    0  0.00000000000E+00 -0.00000000000E+00 -0.19705727700E+04  0.19705727700E+04  0.00000000000E+00 0. -1.
         23    2    1    2    0    0 -0.11270528129E+04 -0.59109708074E+03  0.17002806267E+04  0.21258153388E+04  0.92156622347E+02 0.  0.
         13    1    3    3    0    0 -0.94211257773E+03 -0.51906387621E+03  0.14754866629E+04  0.18259420334E+04  0.00000000000E+00 0.  1.
        -13    1    3    3    0    0 -0.18494023521E+03 -0.72033204534E+02  0.22479396372E+03  0.29987330538E+03  0.00000000000E+00 0. -1.
         22    1    1    2    0    0  0.11270528129E+04  0.59109708074E+03 -0.15274551446E+04  0.19881556832E+04  0.00000000000E+00 0. -1.
<mgrwt>
<rscale>  0 0.41103393E+04</rscale>
<asrwt>0</asrwt>
<pdfrwt beam="1">  1        1 0.30316504E+00 0.41103393E+04</pdfrwt>
<pdfrwt beam="2">  1       -1 0.32975358E+00 0.41103393E+04</pdfrwt>
<totfact> 0.51130132E-02</totfact>
</mgrwt>
</event>
<event>
 6    1  0.9988873E-007  0.3334771E+04  0.7818608E-02  0.8154104E-01
          1   -1    0    0  501    0  0.00000000000E+00  0.00000000000E+00  0.30347560459E+04  0.30347560459E+04  0.00000000000E+00 0. -1.
         -1   -1    0    0    0  501 -0.00000000000E+00 -0.00000000000E+00 -0.91611122329E+03  0.91611122329E+03  0.00000000000E+00 0.  1.
         23    2    1    2    0    0  0.75668070314E+03 -0.92653049057E+02 -0.69444565206E+03  0.10363127076E+04  0.10265958407E+03 0.  0.
         13    1    3    3    0    0  0.38590973919E+03 -0.32475404894E+01 -0.31294139676E+03  0.49685932730E+03  0.00000000000E+00 0. -1.
        -13    1    3    3    0    0  0.37077096395E+03 -0.89405508568E+02 -0.38150425530E+03  0.53945338027E+03  0.00000000000E+00 0.  1.
         22    1    1    2    0    0 -0.75668070314E+03  0.92653049057E+02  0.28130904746E+04  0.29145545616E+04  0.00000000000E+00 0. -1.
<mgrwt>
<rscale>  0 0.33347708E+04</rscale>
<asrwt>0</asrwt>
<pdfrwt beam="1">  1        1 0.46688554E+00 0.33347708E+04</pdfrwt>
<pdfrwt beam="2">  1       -1 0.14094019E+00 0.33347708E+04</pdfrwt>
<totfact> 0.19189742E-01</totfact>
</mgrwt>
</event>
<event>
 6    1  0.9988873E-007  0.3599944E+04  0.7818608E-02  0.8090504E-01
         -2   -1    0    0    0  501 -0.00000000000E+00  0.00000000000E+00  0.16899001326E+04  0.16899001326E+04  0.00000000000E+00 0.  1.
          2   -1    0    0  501    0  0.00000000000E+00 -0.00000000000E+00 -0.19172136772E+04  0.19172136772E+04  0.00000000000E+00 0. -1.
         23    2    1    2    0    0  0.42765424392E+03  0.20631329434E+03 -0.18514014932E+04  0.19150396410E+04  0.11931475097E+03 0.  0.
         13    1    3    3    0    0  0.10668268562E+03  0.10752167752E+03 -0.66429586896E+03  0.68134507268E+03  0.00000000000E+00 0.  1.
        -13    1    3    3    0    0  0.32097155830E+03  0.98791616825E+02 -0.11871056243E+04  0.12336945683E+04  0.00000000000E+00 0. -1.
         22    1    1    2    0    0 -0.42765424392E+03 -0.20631329434E+03  0.16240879486E+04  0.16920741688E+04  0.00000000000E+00 0.  1.
<mgrwt>
<rscale>  0 0.35999442E+04</rscale>
<asrwt>0</asrwt>
<pdfrwt beam="1">  1        2 0.29495595E+00 0.35999442E+04</pdfrwt>
<pdfrwt beam="2">  1       -2 0.25998464E+00 0.35999442E+04</pdfrwt>
<totfact> 0.33787306E-01</totfact>
</mgrwt>
</event>
<event>
 6    1  0.9988873E-007  0.1345318E+04  0.7818608E-02  0.8994380E-01
          2   -1    0    0  501    0  0.00000000000E+00  0.00000000000E+00  0.55812041647E+03  0.55812041647E+03  0.00000000000E+00 0. -1.
         -2   -1    0    0    0  501 -0.00000000000E+00 -0.00000000000E+00 -0.81070319801E+03  0.81070319801E+03  0.00000000000E+00 0.  1.
         23    2    1    2    0    0 -0.45954290401E+03 -0.48676599640E+03 -0.11083753337E+03  0.68456304185E+03  0.90668536885E+02 0.  0.
         13    1    3    3    0    0 -0.17459589479E+03 -0.12377847563E+03 -0.38575587758E+02  0.21746933917E+03  0.00000000000E+00 0. -1.
        -13    1    3    3    0    0 -0.28494700921E+03 -0.36298752077E+03 -0.72261945615E+02  0.46709370268E+03  0.00000000000E+00 0.  1.
         22    1    1    2    0    0  0.45954290401E+03  0.48676599640E+03 -0.14174524816E+03  0.68426057263E+03  0.00000000000E+00 0. -1.
<mgrwt>
<rscale>  0 0.13453178E+04</rscale>
<asrwt>0</asrwt>
<pdfrwt beam="1">  1        2 0.85864680E-01 0.13453178E+04</pdfrwt>
<pdfrwt beam="2">  1       -2 0.12472357E+00 0.13453178E+04</pdfrwt>
<totfact> 0.25478529E+01</totfact>
</mgrwt>
</event>
<event>
 6    1  0.9988873E-007  0.3460179E+04  0.7818608E-02  0.8123292E-01
         -1   -1    0    0    0  501 -0.00000000000E+00  0.00000000000E+00  0.12944910668E+04  0.12944910668E+04  0.00000000000E+00 0.  1.
          1   -1    0    0  501    0  0.00000000000E+00 -0.00000000000E+00 -0.23122671499E+04  0.23122671499E+04  0.00000000000E+00 0. -1.
         23    2    1    2    0    0  0.15358395112E+04 -0.49827369370E+03 -0.11535486664E+04  0.19864144654E+04  0.89934556708E+02 0.  0.
         11    1    3    3    0    0  0.13092625569E+04 -0.39763599474E+03 -0.10002093098E+04  0.16949045668E+04  0.00000000000E+00 0.  1.
        -11    1    3    3    0    0  0.22657695432E+03 -0.10063769896E+03 -0.15333935661E+03  0.29150989858E+03  0.00000000000E+00 0. -1.
         22    1    1    2    0    0 -0.15358395112E+04  0.49827369370E+03  0.13577258333E+03  0.16203437513E+04  0.00000000000E+00 0.  1.
<mgrwt>
<rscale>  0 0.34601787E+04</rscale>
<asrwt>0</asrwt>
<pdfrwt beam="1">  1        1 0.35573340E+00 0.34601787E+04</pdfrwt>
<pdfrwt beam="2">  1       -1 0.19915248E+00 0.34601787E+04</pdfrwt>
<totfact> 0.22793623E-01</totfact>
</mgrwt>
</event>
<event>
 6    1  0.9988873E-007  0.1604420E+04  0.7818608E-02  0.8817838E-01
          2   -1    0    0  501    0  0.00000000000E+00  0.00000000000E+00  0.11145111503E+04  0.11145111503E+04  0.00000000000E+00 0. -1.
         -2   -1    0    0    0  501 -0.00000000000E+00 -0.00000000000E+00 -0.57741951610E+03  0.57741951610E+03  0.00000000000E+00 0.  1.
         23    2    1    2    0    0  0.77495215874E+03 -0.18819187633E+03  0.33111013883E+03  0.86828304331E+03  0.91183817678E+02 0.  0.
         13    1    3    3    0    0  0.21433508440E+03 -0.14295647061E+02  0.10701274921E+03  0.23999087987E+03  0.00000000000E+00 0.  1.
        -13    1    3    3    0    0  0.56061707434E+03 -0.17389622927E+03  0.22409738962E+03  0.62829216343E+03  0.00000000000E+00 0. -1.
         22    1    1    2    0    0 -0.77495215874E+03  0.18819187633E+03  0.20598149542E+03  0.82364762314E+03  0.00000000000E+00 0.  1.
<mgrwt>
<rscale>  0 0.16044195E+04</rscale>
<asrwt>0</asrwt>
<pdfrwt beam="1">  1        2 0.17146325E+00 0.16044195E+04</pdfrwt>
<pdfrwt beam="2">  1       -2 0.88833772E-01 0.16044195E+04</pdfrwt>
<totfact> 0.22285351E+01</totfact>
</mgrwt>
</event>
<event>
 6    1  0.9988873E-007  0.1862194E+04  0.7818608E-02  0.8673907E-01
         -2   -1    0    0    0  501 -0.00000000000E+00  0.00000000000E+00  0.21370913722E+03  0.21370913722E+03  0.00000000000E+00 0.  1.
          2   -1    0    0  501    0  0.00000000000E+00 -0.00000000000E+00 -0.40566410643E+04  0.40566410643E+04  0.00000000000E+00 0. -1.
         23    2    1    2    0    0  0.15161670950E+03 -0.90635625935E+03 -0.22376284671E+04  0.24206290079E+04  0.89411082714E+02 0.  0.
         11    1    3    3    0    0  0.72712153544E+02 -0.65904534277E+03 -0.16482654048E+04  0.17766278917E+04  0.00000000000E+00 0. -1.
        -11    1    3    3    0    0  0.78904555954E+02 -0.24731091658E+03 -0.58936306230E+03  0.64400111616E+03  0.00000000000E+00 0.  1.
         22    1    1    2    0    0 -0.15161670950E+03  0.90635625935E+03 -0.16053034601E+04  0.18497211937E+04  0.00000000000E+00 0.  1.
<mgrwt>
<rscale>  0 0.18621936E+04</rscale>
<asrwt>0</asrwt>
<pdfrwt beam="1">  1        2 0.62409865E+00 0.18621936E+04</pdfrwt>
<pdfrwt beam="2">  1       -2 0.32878327E-01 0.18621936E+04</pdfrwt>
<totfact> 0.25281517E+00</totfact>
</mgrwt>
</event>
<event>
 6    1  0.9988873E-007  0.5171450E+04  0.7818608E-02  0.7802590E-01
          2   -1    0    0  501    0  0.00000000000E+00  0.00000000000E+00  0.20702017835E+04  0.20702017835E+04  0.00000000000E+00 0. -1.
         -2   -1    0    0    0  501 -0.00000000000E+00 -0.00000000000E+00 -0.32296239877E+04  0.32296239877E+04  0.00000000000E+00 0.  1.
         23    2    1    2    0    0  0.21113990118E+04 -0.96939037653E+03 -0.17412747626E+04  0.29047733941E+04  0.89146974875E+02 0.  0.
         13    1    3    3    0    0  0.16832155784E+04 -0.73296211292E+03 -0.13785529923E+04  0.22958345966E+04  0.00000000000E+00 0.  1.
        -13    1    3    3    0    0  0.42818343342E+03 -0.23642826360E+03 -0.36272177035E+03  0.60893879756E+03  0.00000000000E+00 0. -1.
         22    1    1    2    0    0 -0.21113990118E+04  0.96939037653E+03  0.58185255837E+03  0.23950523771E+04  0.00000000000E+00 0. -1.
<mgrwt>
<rscale>  0 0.51714498E+04</rscale>
<asrwt>0</asrwt>
<pdfrwt beam="1">  1        2 0.31849258E+00 0.51714498E+04</pdfrwt>
<pdfrwt beam="2">  1       -2 0.49686523E+00 0.51714498E+04</pdfrwt>
<totfact> 0.76217045E-03</totfact>
</mgrwt>
</event>
<event>
 6    1  0.9988873E-007  0.2994329E+04  0.7818608E-02  0.8245352E-01
          2   -1    0    0  501    0  0.00000000000E+00  0.00000000000E+00  0.88893757305E+03  0.88893757305E+03  0.00000000000E+00 0. -1.
         -2   -1    0    0    0  501 -0.00000000000E+00 -0.00000000000E+00 -0.25215509291E+04  0.25215509291E+04  0.00000000000E+00 0.  1.
         23    2    1    2    0    0  0.11608007158E+04 -0.93112568647E+03 -0.64373073865E+03  0.16237758289E+04  0.88347794444E+02 0.  0.
         13    1    3    3    0    0  0.71027595334E+03 -0.53399963016E+03 -0.34785188216E+03  0.95427902986E+03  0.00000000000E+00 0. -1.
        -13    1    3    3    0    0  0.45052476246E+03 -0.39712605631E+03 -0.29587885649E+03  0.66949679903E+03  0.00000000000E+00 0.  1.
         22    1    1    2    0    0 -0.11608007158E+04  0.93112568647E+03 -0.98888261737E+03  0.17867126732E+04  0.00000000000E+00 0. -1.
<mgrwt>
<rscale>  0 0.29943289E+04</rscale>
<asrwt>0</asrwt>
<pdfrwt beam="1">  1        2 0.13675963E+00 0.29943289E+04</pdfrwt>
<pdfrwt beam="2">  1       -2 0.38793091E+00 0.29943289E+04</pdfrwt>
<totfact> 0.22716598E-01</totfact>
</mgrwt>
</event>
<event>
 6    1  0.9988873E-007  0.2149242E+04  0.7818608E-02  0.8539857E-01
          2   -1    0    0  501    0  0.00000000000E+00  0.00000000000E+00  0.13672025847E+04  0.13672025847E+04  0.00000000000E+00 0. -1.
         -2   -1    0    0    0  501 -0.00000000000E+00 -0.00000000000E+00 -0.84465176501E+03  0.84465176501E+03  0.00000000000E+00 0.  1.
         23    2    1    2    0    0  0.66025587013E+02 -0.78998834145E+03 -0.48236062157E+03  0.93189811509E+03  0.85565003941E+02 0.  0.
         11    1    3    3    0    0 -0.19126961413E+02 -0.19386181208E+03 -0.10587309473E+03  0.22171458009E+03  0.00000000000E+00 0.  1.
        -11    1    3    3    0    0  0.85152548425E+02 -0.59612652937E+03 -0.37648752684E+03  0.71018353500E+03  0.00000000000E+00 0. -1.
         22    1    1    2    0    0 -0.66025587013E+02  0.78998834145E+03  0.10049114413E+04  0.12799562346E+04  0.00000000000E+00 0. -1.
<mgrwt>
<rscale>  0 0.21492418E+04</rscale>
<asrwt>0</asrwt>
<pdfrwt beam="1">  1        2 0.21033886E+00 0.21492418E+04</pdfrwt>
<pdfrwt beam="2">  1       -2 0.12994643E+00 0.21492418E+04</pdfrwt>
<totfact> 0.60315538E+00</totfact>
</mgrwt>
</event>
<event>
 6    1  0.9988873E-007  0.1443262E+04  0.7818608E-02  0.8923085E-01
          1   -1    0    0  501    0  0.00000000000E+00  0.00000000000E+00  0.20130207407E+04  0.20130207407E+04  0.00000000000E+00 0. -1.
         -1   -1    0    0    0  501 -0.00000000000E+00 -0.00000000000E+00 -0.25869142217E+03  0.25869142217E+03  0.00000000000E+00 0.  1.
         23    2    1    2    0    0 -0.46924440904E+03  0.51696639036E+03  0.61157871209E+03  0.93256186784E+03  0.90545856270E+02 0.  0.
         11    1    3    3    0    0 -0.21948828710E+03  0.29821722543E+03  0.35498734368E+03  0.51295675831E+03  0.00000000000E+00 0. -1.
        -11    1    3    3    0    0 -0.24975612194E+03  0.21874916492E+03  0.25659136841E+03  0.41960510953E+03  0.00000000000E+00 0.  1.
         22    1    1    2    0    0  0.46924440904E+03 -0.51696639036E+03  0.11427506065E+04  0.13391502951E+04  0.00000000000E+00 0.  1.
<mgrwt>
<rscale>  0 0.14432619E+04</rscale>
<asrwt>0</asrwt>
<pdfrwt beam="1">  1        1 0.30969549E+00 0.14432619E+04</pdfrwt>
<pdfrwt beam="2">  1       -1 0.39798682E-01 0.14432619E+04</pdfrwt>
<totfact> 0.17457848E+01</totfact>
</mgrwt>
</event>
<event>
 6    1  0.9988873E-007  0.1490207E+04  0.7818608E-02  0.8890991E-01
         -2   -1    0    0    0  501 -0.00000000000E+00  0.00000000000E+00  0.29407548538E+03  0.29407548538E+03  0.00000000000E+00 0.  1.
          2   -1    0    0  501    0  0.00000000000E+00 -0.00000000000E+00 -0.18878806754E+04  0.18878806754E+04  0.00000000000E+00 0. -1.
         23    2    1    2    0    0  0.27771876758E+03  0.25579600287E+03  0.13602653855E+03  0.41139774093E+03  0.90474157077E+02 0.  0.
         13    1    3    3    0    0  0.28854131367E+02  0.40619834399E+02  0.51638823967E+02  0.71757229491E+02  0.00000000000E+00 0.  1.
        -13    1    3    3    0    0  0.24886463622E+03  0.21517616847E+03  0.84387714587E+02  0.33964051144E+03  0.00000000000E+00 0. -1.
         22    1    1    2    0    0 -0.27771876758E+03 -0.25579600287E+03 -0.17298317286E+04  0.17705584199E+04  0.00000000000E+00 0. -1.
<mgrwt>
<rscale>  0 0.14902073E+04</rscale>
<asrwt>0</asrwt>
<pdfrwt beam="1">  1        2 0.29044318E+00 0.14902073E+04</pdfrwt>
<pdfrwt beam="2">  1       -2 0.45242382E-01 0.14902073E+04</pdfrwt>
<totfact> 0.34551807E+01</totfact>
</mgrwt>
</event>
<event>
 6    1  0.9988873E-007  0.5078256E+04  0.7818608E-02  0.7816548E-01
          2   -1    0    0  501    0  0.00000000000E+00  0.00000000000E+00  0.37068847269E+04  0.37068847269E+04  0.00000000000E+00 0. -1.
         -2   -1    0    0    0  501 -0.00000000000E+00 -0.00000000000E+00 -0.17392426392E+04  0.17392426392E+04  0.00000000000E+00 0.  1.
         23    2    1    2    0    0  0.22526802618E+04 -0.48735384594E+03  0.21245630691E+04  0.31359961301E+04  0.92851283690E+02 0.  0.
         11    1    3    3    0    0  0.45031245034E+03 -0.13215773877E+03  0.45372843643E+03  0.65277596837E+03  0.00000000000E+00 0. -1.
        -11    1    3    3    0    0  0.18023678114E+04 -0.35519610717E+03  0.16708346326E+04  0.24832201618E+04  0.00000000000E+00 0.  1.
         22    1    1    2    0    0 -0.22526802618E+04  0.48735384594E+03 -0.15692098143E+03  0.23101312360E+04  0.00000000000E+00 0.  1.
<mgrwt>
<rscale>  0 0.50782564E+04</rscale>
<asrwt>0</asrwt>
<pdfrwt beam="1">  1        2 0.57028995E+00 0.50782564E+04</pdfrwt>
<pdfrwt beam="2">  1       -2 0.26757579E+00 0.50782564E+04</pdfrwt>
<totfact> 0.20870111E-02</totfact>
</mgrwt>
</event>
<event>
 6    1  0.9988873E-007  0.2620879E+04  0.7818608E-02  0.8361144E-01
          1   -1    0    0  501    0  0.00000000000E+00  0.00000000000E+00  0.29891002080E+04  0.29891002080E+04  0.00000000000E+00 0. -1.
         -1   -1    0    0    0  501 -0.00000000000E+00 -0.00000000000E+00 -0.57450449762E+03  0.57450449762E+03  0.00000000000E+00 0.  1.
         23    2    1    2    0    0  0.12799023731E+04 -0.20678166700E+03  0.96511000977E+03  0.16188894209E+04  0.91961315359E+02 0.  0.
         11    1    3    3    0    0  0.39533494682E+03 -0.80142739049E+02  0.25182869426E+03  0.47553156578E+03  0.00000000000E+00 0. -1.
        -11    1    3    3    0    0  0.88456742629E+03 -0.12663892795E+03  0.71328131551E+03  0.11433578551E+04  0.00000000000E+00 0.  1.
         22    1    1    2    0    0 -0.12799023731E+04  0.20678166700E+03  0.14494857006E+04  0.19447152848E+04  0.00000000000E+00 0.  1.
<mgrwt>
<rscale>  0 0.26208789E+04</rscale>
<asrwt>0</asrwt>
<pdfrwt beam="1">  1        1 0.45986156E+00 0.26208789E+04</pdfrwt>
<pdfrwt beam="2">  1       -1 0.88385309E-01 0.26208789E+04</pdfrwt>
<totfact> 0.67262121E-01</totfact>
</mgrwt>
</event>
<event>
 6    1  0.9988873E-007  0.1712307E+04  0.7818608E-02  0.8754376E-01
          2   -1    0    0  501    0  0.00000000000E+00  0.00000000000E+00  0.14121268968E+04  0.14121268968E+04  0.00000000000E+00 0. -1.
         -2   -1    0    0    0  501 -0.00000000000E+00 -0.00000000000E+00 -0.51907457572E+03  0.51907457572E+03  0.00000000000E+00 0.  1.
         23    2    1    2    0    0 -0.44963906442E+03  0.44842994315E+03 -0.19583839548E+03  0.67066678645E+03  0.90424328235E+02 0.  0.
         11    1    3    3    0    0 -0.13097818245E+03  0.17947434958E+03 -0.95082306669E+02  0.24167534313E+03  0.00000000000E+00 0.  1.
        -11    1    3    3    0    0 -0.31866088196E+03  0.26895559357E+03 -0.10075608881E+03  0.42899144331E+03  0.00000000000E+00 0. -1.
         22    1    1    2    0    0  0.44963906442E+03 -0.44842994315E+03  0.10888907165E+04  0.12605346860E+04  0.00000000000E+00 0. -1.
<mgrwt>
<rscale>  0 0.17123074E+04</rscale>
<asrwt>0</asrwt>
<pdfrwt beam="1">  1        2 0.21725029E+00 0.17123074E+04</pdfrwt>
<pdfrwt beam="2">  1       -2 0.79857628E-01 0.17123074E+04</pdfrwt>
<totfact> 0.18789333E+01</totfact>
</mgrwt>
</event>
<event>
 6    1  0.9988873E-007  0.4481598E+03  0.7818608E-02  0.1028272E+00
          1   -1    0    0  501    0  0.00000000000E+00  0.00000000000E+00  0.76112069955E+02  0.76112069955E+02  0.00000000000E+00 0. -1.
         -1   -1    0    0    0  501 -0.00000000000E+00 -0.00000000000E+00 -0.65970871979E+03  0.65970871979E+03  0.00000000000E+00 0.  1.
         23    2    1    2    0    0 -0.14866574037E+03 -0.48151961925E+02 -0.62102755715E+02  0.19141653241E+03  0.91451751303E+02 0.  0.
         11    1    3    3    0    0 -0.12622374934E+03  0.18623007941E+01 -0.42568559192E+02  0.13322156467E+03  0.00000000000E+00 0.  1.
        -11    1    3    3    0    0 -0.22441991032E+02 -0.50014262719E+02 -0.19534196522E+02  0.58194967743E+02  0.00000000000E+00 0. -1.
         22    1    1    2    0    0  0.14866574037E+03  0.48151961925E+02 -0.52149389412E+03  0.54440425733E+03  0.00000000000E+00 0.  1.
<mgrwt>
<rscale>  0 0.44815978E+03</rscale>
<asrwt>0</asrwt>
<pdfrwt beam="1">  1        1 0.11709549E-01 0.44815978E+03</pdfrwt>
<pdfrwt beam="2">  1       -1 0.10149365E+00 0.44815978E+03</pdfrwt>
<totfact> 0.50517643E+02</totfact>
</mgrwt>
</event>
<event>
 6    1  0.9988873E-007  0.2338034E+04  0.7818608E-02  0.8463074E-01
          1   -1    0    0  501    0  0.00000000000E+00  0.00000000000E+00  0.28853371954E+04  0.28853371954E+04  0.00000000000E+00 0. -1.
         -1   -1    0    0    0  501 -0.00000000000E+00 -0.00000000000E+00 -0.47363658242E+03  0.47363658242E+03  0.00000000000E+00 0.  1.
         23    2    1    2    0    0 -0.54538737403E+03 -0.36893661458E+03  0.25923767662E+04  0.26761813601E+04  0.89262315868E+02 0.  0.
         11    1    3    3    0    0 -0.15363821527E+03 -0.13513931028E+03  0.93773928446E+03  0.95980326109E+03  0.00000000000E+00 0.  1.
        -11    1    3    3    0    0 -0.39174915876E+03 -0.23379730430E+03  0.16546374817E+04  0.17163780990E+04  0.00000000000E+00 0. -1.
         22    1    1    2    0    0  0.54538737403E+03  0.36893661458E+03 -0.18067615321E+03  0.68279241770E+03  0.00000000000E+00 0.  1.
<mgrwt>
<rscale>  0 0.23380344E+04</rscale>
<asrwt>0</asrwt>
<pdfrwt beam="1">  1        1 0.44389802E+00 0.23380344E+04</pdfrwt>
<pdfrwt beam="2">  1       -1 0.72867168E-01 0.23380344E+04</pdfrwt>
<totfact> 0.12386813E+00</totfact>
</mgrwt>
</event>
<event>
 6    1  0.9988873E-007  0.2695724E+04  0.7818608E-02  0.8336394E-01
         -2   -1    0    0    0  501 -0.00000000000E+00  0.00000000000E+00  0.52089815320E+03  0.52089815320E+03  0.00000000000E+00 0.  1.
          2   -1    0    0  501    0  0.00000000000E+00 -0.00000000000E+00 -0.34876904760E+04  0.34876904760E+04  0.00000000000E+00 0. -1.
         23    2    1    2    0    0  0.45746721781E+03  0.16826035982E+03 -0.33512403322E+04  0.33877923051E+04  0.93472641073E+02 0.  0.
         13    1    3    3    0    0  0.12793468879E+03  0.20217664948E+02 -0.11249351972E+04  0.11323670944E+04  0.00000000000E+00 0.  1.
        -13    1    3    3    0    0  0.32953252902E+03  0.14804269487E+03 -0.22263051350E+04  0.22554252107E+04  0.00000000000E+00 0. -1.
         22    1    1    2    0    0 -0.45746721781E+03 -0.16826035982E+03  0.38444800938E+03  0.62079632407E+03  0.00000000000E+00 0.  1.
<mgrwt>
<rscale>  0 0.26957237E+04</rscale>
<asrwt>0</asrwt>
<pdfrwt beam="1">  1        2 0.53656777E+00 0.26957237E+04</pdfrwt>
<pdfrwt beam="2">  1       -2 0.80138177E-01 0.26957237E+04</pdfrwt>
<totfact> 0.10022868E+00</totfact>
</mgrwt>
</event>
<event>
 6    1  0.9988873E-007  0.2585357E+04  0.7818608E-02  0.8373192E-01
         -2   -1    0    0    0  501 -0.00000000000E+00  0.00000000000E+00  0.19658510991E+04  0.19658510991E+04  0.00000000000E+00 0.  1.
          2   -1    0    0  501    0  0.00000000000E+00 -0.00000000000E+00 -0.85002279472E+03  0.85002279472E+03  0.00000000000E+00 0. -1.
         23    2    1    2    0    0  0.53592177882E+03  0.11307342941E+04  0.90497225623E+03  0.15469245371E+04  0.90711311047E+02 0.  0.
         13    1    3    3    0    0  0.76162496349E+02  0.24532629465E+03  0.19115757791E+03  0.32019827652E+03  0.00000000000E+00 0. -1.
        -13    1    3    3    0    0  0.45975928247E+03  0.88540799947E+03  0.71381467832E+03  0.12267262606E+04  0.00000000000E+00 0.  1.
         22    1    1    2    0    0 -0.53592177882E+03 -0.11307342941E+04  0.21085604814E+03  0.12689493567E+04  0.00000000000E+00 0. -1.
<mgrwt>
<rscale>  0 0.25853574E+04</rscale>
<asrwt>0</asrwt>
<pdfrwt beam="1">  1        2 0.13077274E+00 0.25853574E+04</pdfrwt>
<pdfrwt beam="2">  1       -2 0.30243863E+00 0.25853574E+04</pdfrwt>
<totfact> 0.86326340E-01</totfact>
</mgrwt>
</event>
<event>
 6    1  0.9988873E-007  0.1449629E+04  0.7818608E-02  0.8918658E-01
         -2   -1    0    0    0  501 -0.00000000000E+00  0.00000000000E+00  0.14940705800E+04  0.14940705800E+04  0.00000000000E+00 0.  1.
          2   -1    0    0  501    0  0.00000000000E+00 -0.00000000000E+00 -0.35162715882E+03  0.35162715882E+03  0.00000000000E+00 0. -1.
         23    2    1    2    0    0 -0.49118530287E+03 -0.50945898209E+03  0.75835420323E+03  0.10405046045E+04  0.82080925388E+02 0.  0.
         11    1    3    3    0    0 -0.37517301458E+03 -0.37912893872E+03  0.51819899098E+03  0.74365565775E+03  0.00000000000E+00 0.  1.
        -11    1    3    3    0    0 -0.11601228829E+03 -0.13033004337E+03  0.24015521225E+03  0.29684894679E+03  0.00000000000E+00 0. -1.
         22    1    1    2    0    0  0.49118530287E+03  0.50945898209E+03  0.38408921799E+03  0.80519313432E+03  0.00000000000E+00 0. -1.
<mgrwt>
<rscale>  0 0.14496286E+04</rscale>
<asrwt>0</asrwt>
<pdfrwt beam="1">  1        2 0.54096487E-01 0.14496286E+04</pdfrwt>
<pdfrwt beam="2">  1       -2 0.22985701E+00 0.14496286E+04</pdfrwt>
<totfact> 0.76373115E+00</totfact>
</mgrwt>
</event>
<event>
 6    1  0.9988873E-007  0.2372355E+04  0.7818608E-02  0.8449927E-01
          2   -1    0    0  501    0  0.00000000000E+00  0.00000000000E+00  0.26757687341E+04  0.26757687341E+04  0.00000000000E+00 0. -1.
         -2   -1    0    0    0  501 -0.00000000000E+00 -0.00000000000E+00 -0.52583652349E+03  0.52583652349E+03  0.00000000000E+00 0.  1.
         23    2    1    2    0    0  0.44807648738E+03  0.94224615655E+03  0.18334957146E+04  0.21113151979E+04  0.85702810073E+02 0.  0.
         13    1    3    3    0    0  0.20181041048E+03  0.42441466817E+03  0.74045724821E+03  0.87700181799E+03  0.00000000000E+00 0. -1.
        -13    1    3    3    0    0  0.24626607690E+03  0.51783148839E+03  0.10930384664E+04  0.12343133799E+04  0.00000000000E+00 0.  1.
         22    1    1    2    0    0 -0.44807648738E+03 -0.94224615655E+03  0.31643649602E+03  0.10902900596E+04  0.00000000000E+00 0.  1.
<mgrwt>
<rscale>  0 0.23723549E+04</rscale>
<asrwt>0</asrwt>
<pdfrwt beam="1">  1        2 0.41165672E+00 0.23723549E+04</pdfrwt>
<pdfrwt beam="2">  1       -2 0.80897928E-01 0.23723549E+04</pdfrwt>
<totfact> 0.33351712E+00</totfact>
</mgrwt>
</event>
<event>
 6    1  0.9988873E-007  0.1251218E+04  0.7818608E-02  0.9069170E-01
          2   -1    0    0  501    0  0.00000000000E+00  0.00000000000E+00  0.78093989984E+03  0.78093989984E+03  0.00000000000E+00 0. -1.
         -2   -1    0    0    0  501 -0.00000000000E+00 -0.00000000000E+00 -0.50117387381E+03  0.50117387381E+03  0.00000000000E+00 0.  1.
         23    2    1    2    0    0  0.44251653973E+03 -0.31967258792E+02 -0.30436078903E+03  0.54859695064E+03  0.10714630550E+03 0.  0.
         13    1    3    3    0    0  0.41113585547E+03 -0.18084401346E+02 -0.24198627389E+03  0.47740663378E+03  0.00000000000E+00 0. -1.
        -13    1    3    3    0    0  0.31380684260E+02 -0.13882857446E+02 -0.62374515144E+02  0.71190316862E+02  0.00000000000E+00 0.  1.
         22    1    1    2    0    0 -0.44251653973E+03  0.31967258792E+02  0.58412681506E+03  0.73351682301E+03  0.00000000000E+00 0. -1.
<mgrwt>
<rscale>  0 0.12512181E+04</rscale>
<asrwt>0</asrwt>
<pdfrwt beam="1">  1        2 0.12014460E+00 0.12512181E+04</pdfrwt>
<pdfrwt beam="2">  1       -2 0.77103673E-01 0.12512181E+04</pdfrwt>
<totfact> 0.52538702E+01</totfact>
</mgrwt>
</event>
<event>
 6    1  0.9988873E-007  0.2741263E+04  0.7818608E-02  0.8321739E-01
         -1   -1    0    0    0  501 -0.00000000000E+00  0.00000000000E+00  0.16499996217E+04  0.16499996217E+04  0.00000000000E+00 0.  1.
          1   -1    0    0  501    0  0.00000000000E+00 -0.00000000000E+00 -0.11385643400E+04  0.11385643400E+04  0.00000000000E+00 0. -1.
         23    2    1    2    0    0 -0.88645726170E+03 -0.73148423838E+03 -0.50141081900E+03  0.12566589740E+04  0.83086097875E+02 0.  0.
         11    1    3    3    0    0 -0.52950166418E+03 -0.38917921306E+03 -0.26610818425E+03  0.70897534370E+03  0.00000000000E+00 0.  1.
        -11    1    3    3    0    0 -0.35695559752E+03 -0.34230502532E+03 -0.23530263475E+03  0.54768363028E+03  0.00000000000E+00 0. -1.
         22    1    1    2    0    0  0.88645726170E+03  0.73148423838E+03  0.10128461006E+04  0.15319049877E+04  0.00000000000E+00 0.  1.
<mgrwt>
<rscale>  0 0.27412630E+04</rscale>
<asrwt>0</asrwt>
<pdfrwt beam="1">  1        1 0.17516374E+00 0.27412630E+04</pdfrwt>
<pdfrwt beam="2">  1       -1 0.25384610E+00 0.27412630E+04</pdfrwt>
<totfact> 0.67912362E-01</totfact>
</mgrwt>
</event>
<event>
 6    1  0.1492078E-006  0.3524748E+04  0.7818608E-02  0.8107950E-01
         -1   -1    0    0    0  501 -0.00000000000E+00  0.00000000000E+00  0.15442601010E+04  0.15442601010E+04  0.00000000000E+00 0.  1.
          1   -1    0    0  501    0  0.00000000000E+00 -0.00000000000E+00 -0.20112949161E+04  0.20112949161E+04  0.00000000000E+00 0. -1.
         23    2    1    2    0    0  0.75910434403E+03  0.76259021455E+03 -0.16402081309E+04  0.19636634161E+04  0.88927267237E+02 0.  0.
         11    1    3    3    0    0  0.32446107436E+03  0.32868071847E+03 -0.62482117442E+03  0.77698616684E+03  0.00000000000E+00 0. -1.
        -11    1    3    3    0    0  0.43464326967E+03  0.43390949608E+03 -0.10153869564E+04  0.11866772493E+04  0.00000000000E+00 0.  1.
         22    1    1    2    0    0 -0.75910434403E+03 -0.76259021455E+03  0.11731733158E+04  0.15918916010E+04  0.00000000000E+00 0.  1.
<mgrwt>
<rscale>  0 0.35247482E+04</rscale>
<asrwt>0</asrwt>
<pdfrwt beam="1">  1        1 0.30942999E+00 0.35247482E+04</pdfrwt>
<pdfrwt beam="2">  1       -1 0.23757848E+00 0.35247482E+04</pdfrwt>
<totfact> 0.20049749E-01</totfact>
</mgrwt>
</event>
<event>
 6    1  0.9988873E-007  0.2873180E+04  0.7818608E-02  0.8280902E-01
         -1   -1    0    0    0  501 -0.00000000000E+00  0.00000000000E+00  0.54200579425E+03  0.54200579425E+03  0.00000000000E+00 0.  1.
          1   -1    0    0  501    0  0.00000000000E+00 -0.00000000000E+00 -0.38076913602E+04  0.38076913602E+04  0.00000000000E+00 0. -1.
         23    2    1    2    0    0 -0.49719052108E+03 -0.93101935575E+03 -0.16226751997E+03  0.10717101162E+04  0.90754449106E+02 0.  0.
         13    1    3    3    0    0 -0.33614562901E+03 -0.71312670476E+03 -0.11746272031E+03  0.79708285115E+03  0.00000000000E+00 0. -1.
        -13    1    3    3    0    0 -0.16104489207E+03 -0.21789265100E+03 -0.44804799662E+02  0.27462726502E+03  0.00000000000E+00 0.  1.
         22    1    1    2    0    0  0.49719052108E+03  0.93101935575E+03 -0.31034180460E+04  0.32779870383E+04  0.00000000000E+00 0. -1.
<mgrwt>
<rscale>  0 0.28731800E+04</rscale>
<asrwt>0</asrwt>
<pdfrwt beam="1">  1        1 0.58579868E+00 0.28731800E+04</pdfrwt>
<pdfrwt beam="2">  1       -1 0.83385506E-01 0.28731800E+04</pdfrwt>
<totfact> 0.17236194E-01</totfact>
</mgrwt>
</event>
<event>
 6    1  0.9988873E-007  0.4153597E+04  0.7818608E-02  0.7974258E-01
          2   -1    0    0  501    0  0.00000000000E+00  0.00000000000E+00  0.20626128518E+04  0.20626128518E+04  0.00000000000E+00 0. -1.
         -2   -1    0    0    0  501 -0.00000000000E+00 -0.00000000000E+00 -0.20910815200E+04  0.20910815200E+04  0.00000000000E+00 0.  1.
         23    2    1    2    0    0 -0.72940352611E+03 -0.16525761398E+04  0.10083902472E+04  0.20708804549E+04  0.93046042537E+02 0.  0.
         11    1    3    3    0    0 -0.44668012989E+03 -0.10326789524E+04  0.57700527266E+03  0.12644698660E+04  0.00000000000E+00 0.  1.
        -11    1    3    3    0    0 -0.28272339622E+03 -0.61989718739E+03  0.43138497452E+03  0.80641058894E+03  0.00000000000E+00 0. -1.
         22    1    1    2    0    0  0.72940352611E+03  0.16525761398E+04 -0.10368589153E+04  0.20828139168E+04  0.00000000000E+00 0.  1.
<mgrwt>
<rscale>  0 0.41535968E+04</rscale>
<asrwt>0</asrwt>
<pdfrwt beam="1">  1        2 0.31732506E+00 0.41535968E+04</pdfrwt>
<pdfrwt beam="2">  1       -2 0.32170485E+00 0.41535968E+04</pdfrwt>
<totfact> 0.11226280E-01</totfact>
</mgrwt>
</event>
<event>
 6    1  0.9988873E-007  0.7953187E+03  0.7818608E-02  0.9566818E-01
         -1   -1    0    0    0  501 -0.00000000000E+00  0.00000000000E+00  0.14400173322E+03  0.14400173322E+03  0.00000000000E+00 0.  1.
          1   -1    0    0  501    0  0.00000000000E+00 -0.00000000000E+00 -0.10981323673E+04  0.10981323673E+04  0.00000000000E+00 0. -1.
         23    2    1    2    0    0 -0.36108901071E+02  0.36943930156E+03 -0.67913309818E+03  0.78016776515E+03  0.98238110975E+02 0.  0.
         13    1    3    3    0    0 -0.24498238745E+02  0.29799313791E+03 -0.45339621819E+03  0.54310975375E+03  0.00000000000E+00 0. -1.
        -13    1    3    3    0    0 -0.11610662325E+02  0.71446163652E+02 -0.22573687999E+03  0.23705801140E+03  0.00000000000E+00 0.  1.
         22    1    1    2    0    0  0.36108901071E+02 -0.36943930156E+03 -0.27499753591E+03  0.46196633539E+03  0.00000000000E+00 0.  1.
<mgrwt>
<rscale>  0 0.79531871E+03</rscale>
<asrwt>0</asrwt>
<pdfrwt beam="1">  1        1 0.16894344E+00 0.79531871E+03</pdfrwt>
<pdfrwt beam="2">  1       -1 0.22154112E-01 0.79531871E+03</pdfrwt>
<totfact> 0.22126301E+02</totfact>
</mgrwt>
</event>
<event>
 6    1  0.9988873E-007  0.7618811E+03  0.7818608E-02  0.9616893E-01
         -1   -1    0    0    0  501 -0.00000000000E+00  0.00000000000E+00  0.11549020470E+03  0.11549020470E+03  0.00000000000E+00 0.  1.
          1   -1    0    0  501    0  0.00000000000E+00 -0.00000000000E+00 -0.12565196546E+04  0.12565196546E+04  0.00000000000E+00 0. -1.
         23    2    1    2    0    0  0.13837229110E+03 -0.34767506939E+03 -0.52051525078E+03  0.64739774505E+03  0.90348598085E+02 0.  0.
         13    1    3    3    0    0  0.81116911047E+02 -0.14474381783E+03 -0.16462804468E+03  0.23373728661E+03  0.00000000000E+00 0.  1.
        -13    1    3    3    0    0  0.57255380054E+02 -0.20293125156E+03 -0.35588720611E+03  0.41366045844E+03  0.00000000000E+00 0. -1.
         22    1    1    2    0    0 -0.13837229110E+03  0.34767506939E+03 -0.62051419915E+03  0.72461211428E+03  0.00000000000E+00 0. -1.
<mgrwt>
<rscale>  0 0.76188112E+03</rscale>
<asrwt>0</asrwt>
<pdfrwt beam="1">  1        1 0.19331072E+00 0.76188112E+03</pdfrwt>
<pdfrwt beam="2">  1       -1 0.17767723E-01 0.76188112E+03</pdfrwt>
<totfact> 0.24542130E+02</totfact>
</mgrwt>
</event>
<event>
 6    1  0.9988873E-007  0.7761822E+03  0.7818608E-02  0.9595147E-01
         -2   -1    0    0    0  501 -0.00000000000E+00  0.00000000000E+00  0.14215741896E+03  0.14215741896E+03  0.00000000000E+00 0.  1.
          2   -1    0    0  501    0  0.00000000000E+00 -0.00000000000E+00 -0.10594923542E+04  0.10594923542E+04  0.00000000000E+00 0. -1.
         23    2    1    2    0    0  0.20729930614E+02  0.13877310728E+03 -0.10162888146E+04  0.10299536009E+04  0.90960210926E+02 0.  0.
         13    1    3    3    0    0  0.46813950107E+02  0.11569290005E+03 -0.63994235068E+03  0.65199893040E+03  0.00000000000E+00 0.  1.
        -13    1    3    3    0    0 -0.26084019493E+02  0.23080207226E+02 -0.37634646396E+03  0.37795467053E+03  0.00000000000E+00 0. -1.
         22    1    1    2    0    0 -0.20729930614E+02 -0.13877310728E+03  0.98953879374E+02  0.17169617226E+03  0.00000000000E+00 0.  1.
<mgrwt>
<rscale>  0 0.77618219E+03</rscale>
<asrwt>0</asrwt>
<pdfrwt beam="1">  1        2 0.16299882E+00 0.77618219E+03</pdfrwt>
<pdfrwt beam="2">  1       -2 0.21870372E-01 0.77618219E+03</pdfrwt>
<totfact> 0.42311803E+02</totfact>
</mgrwt>
</event>
<event>
 6    1  0.9988873E-007  0.3466194E+04  0.7818608E-02  0.8121849E-01
         -2   -1    0    0    0  501 -0.00000000000E+00  0.00000000000E+00  0.12990474317E+04  0.12990474317E+04  0.00000000000E+00 0.  1.
          2   -1    0    0  501    0  0.00000000000E+00 -0.00000000000E+00 -0.23121746510E+04  0.23121746510E+04  0.00000000000E+00 0. -1.
         23    2    1    2    0    0  0.60857276072E+03 -0.16039159193E+04 -0.25848868324E+03  0.17370859080E+04  0.87999835154E+02 0.  0.
         13    1    3    3    0    0  0.26112506957E+03 -0.58148423407E+03 -0.11552064162E+03  0.64780802332E+03  0.00000000000E+00 0.  1.
        -13    1    3    3    0    0  0.34744769115E+03 -0.10224316853E+04 -0.14296804162E+03  0.10892778847E+04  0.00000000000E+00 0. -1.
         22    1    1    2    0    0 -0.60857276072E+03  0.16039159193E+04 -0.75463853610E+03  0.18741361748E+04  0.00000000000E+00 0.  1.
<mgrwt>
<rscale>  0 0.34661936E+04</rscale>
<asrwt>0</asrwt>
<pdfrwt beam="1">  1        2 0.35571917E+00 0.34661936E+04</pdfrwt>
<pdfrwt beam="2">  1       -2 0.19985345E+00 0.34661936E+04</pdfrwt>
<totfact> 0.49006391E-01</totfact>
</mgrwt>
</event>
<event>
 6    1  0.9988873E-007  0.1416237E+04  0.7818608E-02  0.8942149E-01
         -1   -1    0    0    0  501 -0.00000000000E+00  0.00000000000E+00  0.42518441098E+03  0.42518441098E+03  0.00000000000E+00 0.  1.
          1   -1    0    0  501    0  0.00000000000E+00 -0.00000000000E+00 -0.11793278511E+04  0.11793278511E+04  0.00000000000E+00 0. -1.
         23    2    1    2    0    0 -0.68504053308E+03  0.10664821255E+03 -0.23406159547E+03  0.73782921832E+03  0.94618981884E+02 0.  0.
         13    1    3    3    0    0 -0.60561329205E+03  0.12227053524E+03 -0.21894843811E+03  0.65548147331E+03  0.00000000000E+00 0.  1.
        -13    1    3    3    0    0 -0.79427241031E+02 -0.15622322689E+02 -0.15113157356E+02  0.82347745017E+02  0.00000000000E+00 0. -1.
         22    1    1    2    0    0  0.68504053308E+03 -0.10664821255E+03 -0.52008184464E+03  0.86668304375E+03  0.00000000000E+00 0. -1.
<mgrwt>
<rscale>  0 0.14162370E+04</rscale>
<asrwt>0</asrwt>
<pdfrwt beam="1">  1        1 0.18143506E+00 0.14162370E+04</pdfrwt>
<pdfrwt beam="2">  1       -1 0.65412986E-01 0.14162370E+04</pdfrwt>
<totfact> 0.25530962E+01</totfact>
</mgrwt>
</event>
<event>
 6    1  0.9988873E-007  0.2727626E+04  0.7818608E-02  0.8326096E-01
         -1   -1    0    0    0  501 -0.00000000000E+00  0.00000000000E+00  0.74238726434E+03  0.74238726434E+03  0.00000000000E+00 0.  1.
          1   -1    0    0  501    0  0.00000000000E+00 -0.00000000000E+00 -0.25054126823E+04  0.25054126823E+04  0.00000000000E+00 0. -1.
         23    2    1    2    0    0  0.82407944315E+03  0.32302839956E+03 -0.21156196731E+04  0.22950266345E+04  0.88579775861E+02 0.  0.
         13    1    3    3    0    0  0.59806892590E+03  0.26160811028E+03 -0.14773559636E+04  0.16151488744E+04  0.00000000000E+00 0.  1.
        -13    1    3    3    0    0  0.22601051725E+03  0.61420289286E+02 -0.63826370948E+03  0.67987776010E+03  0.00000000000E+00 0. -1.
         22    1    1    2    0    0 -0.82407944315E+03 -0.32302839956E+03  0.35259425509E+03  0.95277331211E+03  0.00000000000E+00 0.  1.
<mgrwt>
<rscale>  0 0.27276264E+04</rscale>
<asrwt>0</asrwt>
<pdfrwt beam="1">  1        1 0.38544810E+00 0.27276264E+04</pdfrwt>
<pdfrwt beam="2">  1       -1 0.11421343E+00 0.27276264E+04</pdfrwt>
<totfact> 0.81602756E-01</totfact>
</mgrwt>
</event>
<event>
 6    1  0.9988873E-007  0.1744702E+04  0.7818608E-02  0.8736272E-01
          1   -1    0    0  501    0  0.00000000000E+00  0.00000000000E+00  0.19187819967E+04  0.19187819967E+04  0.00000000000E+00 0. -1.
         -1   -1    0    0    0  501 -0.00000000000E+00 -0.00000000000E+00 -0.39660374326E+03  0.39660374326E+03  0.00000000000E+00 0.  1.
         23    2    1    2    0    0  0.70481831971E+03  0.41965269158E+03  0.37882570058E+03  0.90821400008E+03  0.92013657542E+02 0.  0.
         13    1    3    3    0    0  0.20124049666E+03  0.13712445723E+03  0.15650942916E+03  0.28947548374E+03  0.00000000000E+00 0. -1.
        -13    1    3    3    0    0  0.50357782306E+03  0.28252823434E+03  0.22231627141E+03  0.61873851635E+03  0.00000000000E+00 0.  1.
         22    1    1    2    0    0 -0.70481831971E+03 -0.41965269158E+03  0.11433525529E+04  0.14071717399E+04  0.00000000000E+00 0. -1.
<mgrwt>
<rscale>  0 0.17447018E+04</rscale>
<asrwt>0</asrwt>
<pdfrwt beam="1">  1        1 0.29519723E+00 0.17447018E+04</pdfrwt>
<pdfrwt beam="2">  1       -1 0.61015961E-01 0.17447018E+04</pdfrwt>
<totfact> 0.87386232E+00</totfact>
</mgrwt>
</event>
<event>
 6    1  0.9988873E-007  0.1299105E+04  0.7818608E-02  0.9030276E-01
         -2   -1    0    0    0  501 -0.00000000000E+00  0.00000000000E+00  0.57099541114E+03  0.57099541114E+03  0.00000000000E+00 0.  1.
          2   -1    0    0  501    0  0.00000000000E+00 -0.00000000000E+00 -0.73891697934E+03  0.73891697934E+03  0.00000000000E+00 0. -1.
         23    2    1    2    0    0 -0.24801206611E+03 -0.59811115692E+03 -0.10756272297E+03  0.65961235883E+03  0.65358882935E+02 0.  0.
         13    1    3    3    0    0 -0.18276110449E+03 -0.36018405493E+03 -0.74127169454E+02  0.41064462981E+03  0.00000000000E+00 0. -1.
        -13    1    3    3    0    0 -0.65250961614E+02 -0.23792710199E+03 -0.33435553520E+02  0.24896772902E+03  0.00000000000E+00 0.  1.
         22    1    1    2    0    0  0.24801206611E+03  0.59811115692E+03 -0.60358845235E+02  0.65030003165E+03  0.00000000000E+00 0. -1.
<mgrwt>
<rscale>  0 0.12991046E+04</rscale>
<asrwt>0</asrwt>
<pdfrwt beam="1">  1        2 0.11367954E+00 0.12991046E+04</pdfrwt>
<pdfrwt beam="2">  1       -2 0.87845447E-01 0.12991046E+04</pdfrwt>
<totfact> 0.41893680E+01</totfact>
</mgrwt>
</event>
<event>
 6    1  0.9988873E-007  0.2185630E+04  0.7818608E-02  0.8524433E-01
          1   -1    0    0  501    0  0.00000000000E+00  0.00000000000E+00  0.15780394851E+04  0.15780394851E+04  0.00000000000E+00 0. -1.
         -1   -1    0    0    0  501 -0.00000000000E+00 -0.00000000000E+00 -0.75679034285E+03  0.75679034285E+03  0.00000000000E+00 0.  1.
         23    2    1    2    0    0  0.10274097084E+04 -0.24048385597E+03  0.70707377397E+03  0.12734914235E+04  0.91781752455E+02 0.  0.
         11    1    3    3    0    0  0.41714873836E+03 -0.55291797222E+02  0.25976739434E+03  0.49451931400E+03  0.00000000000E+00 0. -1.
        -11    1    3    3    0    0  0.61026097004E+03 -0.18519205874E+03  0.44730637964E+03  0.77897210954E+03  0.00000000000E+00 0.  1.
         22    1    1    2    0    0 -0.10274097084E+04  0.24048385597E+03  0.11417536826E+03  0.10613384044E+04  0.00000000000E+00 0. -1.
<mgrwt>
<rscale>  0 0.21856304E+04</rscale>
<asrwt>0</asrwt>
<pdfrwt beam="1">  1        1 0.24277531E+00 0.21856304E+04</pdfrwt>
<pdfrwt beam="2">  1       -1 0.11642928E+00 0.21856304E+04</pdfrwt>
<totfact> 0.35140149E+00</totfact>
</mgrwt>
</event>
<event>
 6    1  0.9988873E-007  0.1874608E+04  0.7818608E-02  0.8667600E-01
          2   -1    0    0  501    0  0.00000000000E+00  0.00000000000E+00  0.22712911829E+04  0.22712911829E+04  0.00000000000E+00 0. -1.
         -2   -1    0    0    0  501 -0.00000000000E+00 -0.00000000000E+00 -0.38680167457E+03  0.38680167457E+03  0.00000000000E+00 0.  1.
         23    2    1    2    0    0 -0.34908336862E+03  0.52650378245E+03  0.19221684629E+04  0.20252539089E+04  0.88636135791E+02 0.  0.
         11    1    3    3    0    0 -0.20033396512E+03  0.29858768981E+03  0.12307319512E+04  0.12821815167E+04  0.00000000000E+00 0.  1.
        -11    1    3    3    0    0 -0.14874940350E+03  0.22791609264E+03  0.69143651172E+03  0.74307239221E+03  0.00000000000E+00 0. -1.
         22    1    1    2    0    0  0.34908336862E+03 -0.52650378245E+03 -0.37678954582E+02  0.63283894855E+03  0.00000000000E+00 0. -1.
<mgrwt>
<rscale>  0 0.18746085E+04</rscale>
<asrwt>0</asrwt>
<pdfrwt beam="1">  1        2 0.34942940E+00 0.18746085E+04</pdfrwt>
<pdfrwt beam="2">  1       -2 0.59507951E-01 0.18746085E+04</pdfrwt>
<totfact> 0.11644607E+01</totfact>
</mgrwt>
</event>
<event>
 6    1  0.9988873E-007  0.2188804E+04  0.7818608E-02  0.8523103E-01
         -1   -1    0    0    0  501 -0.00000000000E+00  0.00000000000E+00  0.64405712567E+03  0.64405712567E+03  0.00000000000E+00 0.  1.
          1   -1    0    0  501    0  0.00000000000E+00 -0.00000000000E+00 -0.18596412603E+04  0.18596412603E+04  0.00000000000E+00 0. -1.
         23    2    1    2    0    0 -0.10255145967E+04  0.30986022105E+03 -0.36357884708E+03  0.11349009010E+04  0.90094020174E+02 0.  0.
         11    1    3    3    0    0 -0.94297445939E+03  0.27668306981E+03 -0.30738105913E+03  0.10296783321E+04  0.00000000000E+00 0.  1.
        -11    1    3    3    0    0 -0.82540137335E+02  0.33177151239E+02 -0.56197787950E+02  0.10522256890E+03  0.00000000000E+00 0. -1.
         22    1    1    2    0    0  0.10255145967E+04 -0.30986022105E+03 -0.85200528755E+03  0.13687974849E+04  0.00000000000E+00 0.  1.
<mgrwt>
<rscale>  0 0.21888035E+04</rscale>
<asrwt>0</asrwt>
<pdfrwt beam="1">  1        1 0.28609865E+00 0.21888035E+04</pdfrwt>
<pdfrwt beam="2">  1       -1 0.99085712E-01 0.21888035E+04</pdfrwt>
<totfact> 0.32959643E+00</totfact>
</mgrwt>
</event>
<event>
 6    1  0.1047761E-006  0.2823723E+04  0.7818608E-02  0.8295941E-01
         -2   -1    0    0    0  501 -0.00000000000E+00  0.00000000000E+00  0.10091642529E+04  0.10091642529E+04  0.00000000000E+00 0.  1.
          2   -1    0    0  501    0  0.00000000000E+00 -0.00000000000E+00 -0.19752506110E+04  0.19752506110E+04  0.00000000000E+00 0. -1.
         23    2    1    2    0    0  0.28948684867E+01  0.36556178375E+03 -0.19232363980E+04  0.19598271435E+04  0.91871605429E+02 0.  0.
         13    1    3    3    0    0 -0.24243540060E+02  0.14315908883E+03 -0.57197529609E+03  0.59011694882E+03  0.00000000000E+00 0. -1.
        -13    1    3    3    0    0  0.27138408547E+02  0.22240269492E+03 -0.13512611019E+04  0.13697101947E+04  0.00000000000E+00 0.  1.
         22    1    1    2    0    0 -0.28948684867E+01 -0.36556178375E+03  0.95715003987E+03  0.10245877204E+04  0.00000000000E+00 0.  1.
<mgrwt>
<rscale>  0 0.28237226E+04</rscale>
<asrwt>0</asrwt>
<pdfrwt beam="1">  1        2 0.30388471E+00 0.28237226E+04</pdfrwt>
<pdfrwt beam="2">  1       -2 0.15525604E+00 0.28237226E+04</pdfrwt>
<totfact> 0.16370820E+00</totfact>
</mgrwt>
</event>
<event>
 6    1  0.9988873E-007  0.3399184E+04  0.7818608E-02  0.8138107E-01
         -1   -1    0    0    0  501 -0.00000000000E+00  0.00000000000E+00  0.26561264276E+04  0.26561264276E+04  0.00000000000E+00 0.  1.
          1   -1    0    0  501    0  0.00000000000E+00 -0.00000000000E+00 -0.10875283478E+04  0.10875283478E+04  0.00000000000E+00 0. -1.
         23    2    1    2    0    0 -0.86444811915E+03 -0.57729992798E+03 -0.69437246182E+03  0.12533573174E+04  0.90585273414E+02 0.  0.
         11    1    3    3    0    0 -0.75066134453E+03 -0.49004006101E+03 -0.63281698931E+03  0.10973099186E+04  0.00000000000E+00 0.  1.
        -11    1    3    3    0    0 -0.11378677462E+03 -0.87259866971E+02 -0.61555472515E+02  0.15604739876E+03  0.00000000000E+00 0. -1.
         22    1    1    2    0    0  0.86444811915E+03  0.57729992798E+03  0.22629705416E+04  0.24902974581E+04  0.00000000000E+00 0.  1.
<mgrwt>
<rscale>  0 0.33991839E+04</rscale>
<asrwt>0</asrwt>
<pdfrwt beam="1">  1        1 0.16731205E+00 0.33991839E+04</pdfrwt>
<pdfrwt beam="2">  1       -1 0.40863483E+00 0.33991839E+04</pdfrwt>
<totfact> 0.66487265E-02</totfact>
</mgrwt>
</event>
<event>
 6    1  0.9988873E-007  0.3054898E+04  0.7818608E-02  0.8228226E-01
          2   -1    0    0  501    0  0.00000000000E+00  0.00000000000E+00  0.21811395279E+04  0.21811395279E+04  0.00000000000E+00 0. -1.
         -2   -1    0    0    0  501 -0.00000000000E+00 -0.00000000000E+00 -0.10696700905E+04  0.10696700905E+04  0.00000000000E+00 0.  1.
         23    2    1    2    0    0  0.10829077690E+04  0.79318910861E+03  0.13287755622E+04  0.18910081071E+04  0.91809413935E+02 0.  0.
         11    1    3    3    0    0  0.43837007015E+03  0.31417166055E+03  0.47168260560E+03  0.71648910049E+03  0.00000000000E+00 0. -1.
        -11    1    3    3    0    0  0.64453769882E+03  0.47901744806E+03  0.85709295660E+03  0.11745190067E+04  0.00000000000E+00 0.  1.
         22    1    1    2    0    0 -0.10829077690E+04 -0.79318910861E+03 -0.21730612476E+03  0.13598015112E+04  0.00000000000E+00 0. -1.
<mgrwt>
<rscale>  0 0.30548975E+04</rscale>
<asrwt>0</asrwt>
<pdfrwt beam="1">  1        2 0.33555993E+00 0.30548975E+04</pdfrwt>
<pdfrwt beam="2">  1       -2 0.16456463E+00 0.30548975E+04</pdfrwt>
<totfact> 0.10516033E+00</totfact>
</mgrwt>
</event>
<event>
 6    1  0.9988873E-007  0.1051762E+04  0.7818608E-02  0.9253526E-01
          2   -1    0    0  501    0  0.00000000000E+00  0.00000000000E+00  0.60649993719E+03  0.60649993719E+03  0.00000000000E+00 0. -1.
         -2   -1    0    0    0  501 -0.00000000000E+00 -0.00000000000E+00 -0.45597871166E+03  0.45597871166E+03  0.00000000000E+00 0.  1.
         23    2    1    2    0    0  0.23573606266E+03  0.20622038376E+03  0.49768339000E+03  0.59491057214E+03  0.90174798258E+02 0.  0.
         13    1    3    3    0    0  0.39004674583E+02  0.78200255807E+02  0.17820020529E+03  0.19847407341E+03  0.00000000000E+00 0. -1.
        -13    1    3    3    0    0  0.19673138808E+03  0.12802012795E+03  0.31948318471E+03  0.39643649873E+03  0.00000000000E+00 0.  1.
         22    1    1    2    0    0 -0.23573606266E+03 -0.20622038376E+03 -0.34716216448E+03  0.46756807671E+03  0.00000000000E+00 0.  1.
<mgrwt>
<rscale>  0 0.10517624E+04</rscale>
<asrwt>0</asrwt>
<pdfrwt beam="1">  1        2 0.93307683E-01 0.10517624E+04</pdfrwt>
<pdfrwt beam="2">  1       -2 0.70150571E-01 0.10517624E+04</pdfrwt>
<totfact> 0.90237019E+01</totfact>
</mgrwt>
</event>
<event>
 6    1  0.9988873E-007  0.2164252E+04  0.7818608E-02  0.8533456E-01
         -1   -1    0    0    0  501 -0.00000000000E+00  0.00000000000E+00  0.12285748273E+04  0.12285748273E+04  0.00000000000E+00 0.  1.
          1   -1    0    0  501    0  0.00000000000E+00 -0.00000000000E+00 -0.95313417551E+03  0.95313417551E+03  0.00000000000E+00 0. -1.
         23    2    1    2    0    0  0.42059240161E+03  0.59196591403E+03 -0.66815462436E+03  0.99103958740E+03  0.91691057845E+02 0.  0.
         13    1    3    3    0    0  0.11297668900E+03  0.16412924359E+03 -0.24104110404E+03  0.31273463943E+03  0.00000000000E+00 0.  1.
        -13    1    3    3    0    0  0.30761571261E+03  0.42783667044E+03 -0.42711352032E+03  0.67830494798E+03  0.00000000000E+00 0. -1.
         22    1    1    2    0    0 -0.42059240161E+03 -0.59196591403E+03  0.94359527619E+03  0.11906694155E+04  0.00000000000E+00 0.  1.
<mgrwt>
<rscale>  0 0.21642520E+04</rscale>
<asrwt>0</asrwt>
<pdfrwt beam="1">  1        1 0.14663603E+00 0.21642520E+04</pdfrwt>
<pdfrwt beam="2">  1       -1 0.18901151E+00 0.21642520E+04</pdfrwt>
<totfact> 0.27060149E+00</totfact>
</mgrwt>
</event>
<event>
 6    1  0.9988873E-007  0.3778572E+04  0.7818608E-02  0.8050769E-01
          2   -1    0    0  501    0  0.00000000000E+00  0.00000000000E+00  0.23608584167E+04  0.23608584167E+04  0.00000000000E+00 0. -1.
         -2   -1    0    0    0  501 -0.00000000000E+00 -0.00000000000E+00 -0.15119082580E+04  0.15119082580E+04  0.00000000000E+00 0.  1.
         23    2    1    2    0    0 -0.13834779142E+04 -0.56595150943E+03 -0.75771579666E+03  0.16782991442E+04  0.90788429638E+02 0.  0.
         11    1    3    3    0    0 -0.78891931745E+02 -0.24146790471E+02 -0.64665439517E+02  0.10482663522E+03  0.00000000000E+00 0. -1.
        -11    1    3    3    0    0 -0.13045859825E+04 -0.54180471896E+03 -0.69305035714E+03  0.15734725090E+04  0.00000000000E+00 0.  1.
         22    1    1    2    0    0  0.13834779142E+04  0.56595150943E+03  0.16066659554E+04  0.21944675305E+04  0.00000000000E+00 0. -1.
<mgrwt>
<rscale>  0 0.37785719E+04</rscale>
<asrwt>0</asrwt>
<pdfrwt beam="1">  1        2 0.36320899E+00 0.37785719E+04</pdfrwt>
<pdfrwt beam="2">  1       -2 0.23260127E+00 0.37785719E+04</pdfrwt>
<totfact> 0.27690453E-01</totfact>
</mgrwt>
</event>
<event>
 6    1  0.9988873E-007  0.2172126E+04  0.7818608E-02  0.8530120E-01
          2   -1    0    0  501    0  0.00000000000E+00  0.00000000000E+00  0.18106985991E+04  0.18106985991E+04  0.00000000000E+00 0. -1.
         -2   -1    0    0    0  501 -0.00000000000E+00 -0.00000000000E+00 -0.65142387906E+03  0.65142387906E+03  0.00000000000E+00 0.  1.
         23    2    1    2    0    0 -0.32087266713E+03  0.38750209818E+03 -0.50821075541E+03  0.72039202960E+03  0.87002067759E+02 0.  0.
         11    1    3    3    0    0 -0.77664929193E+02  0.91703384646E+02 -0.17782817053E+03  0.21462574453E+03  0.00000000000E+00 0.  1.
        -11    1    3    3    0    0 -0.24320773794E+03  0.29579871353E+03 -0.33038258488E+03  0.50576628506E+03  0.00000000000E+00 0. -1.
         22    1    1    2    0    0  0.32087266713E+03 -0.38750209818E+03  0.16674854754E+04  0.17417304486E+04  0.00000000000E+00 0. -1.
<mgrwt>
<rscale>  0 0.21721255E+04</rscale>
<asrwt>0</asrwt>
<pdfrwt beam="1">  1        2 0.27856901E+00 0.21721255E+04</pdfrwt>
<pdfrwt beam="2">  1       -2 0.10021906E+00 0.21721255E+04</pdfrwt>
<totfact> 0.64076714E+00</totfact>
</mgrwt>
</event>
<event>
 6    1  0.9988873E-007  0.3701531E+04  0.7818608E-02  0.8067623E-01
          1   -1    0    0  501    0  0.00000000000E+00  0.00000000000E+00  0.16255751558E+04  0.16255751558E+04  0.00000000000E+00 0. -1.
         -1   -1    0    0    0  501 -0.00000000000E+00 -0.00000000000E+00 -0.21071510298E+04  0.21071510298E+04  0.00000000000E+00 0.  1.
         23    2    1    2    0    0  0.94203651335E+03 -0.11772574616E+04  0.83952144907E+03  0.17280651019E+04  0.89692862373E+02 0.  0.
         13    1    3    3    0    0  0.13244036129E+03 -0.13474935587E+03  0.79866134794E+02  0.20512541942E+03  0.00000000000E+00 0. -1.
        -13    1    3    3    0    0  0.80959615206E+03 -0.10425081057E+04  0.75965531427E+03  0.15229396825E+04  0.00000000000E+00 0.  1.
         22    1    1    2    0    0 -0.94203651335E+03  0.11772574616E+04 -0.13210973231E+04  0.20046610837E+04  0.00000000000E+00 0.  1.
<mgrwt>
<rscale>  0 0.37015307E+04</rscale>
<asrwt>0</asrwt>
<pdfrwt beam="1">  1        1 0.25008849E+00 0.37015307E+04</pdfrwt>
<pdfrwt beam="2">  1       -1 0.32417708E+00 0.37015307E+04</pdfrwt>
<totfact> 0.98786936E-02</totfact>
</mgrwt>
</event>
<event>
 6    1  0.9988873E-007  0.3871221E+04  0.7818608E-02  0.8031041E-01
         -2   -1    0    0    0  501 -0.00000000000E+00  0.00000000000E+00  0.17903520213E+04  0.17903520213E+04  0.00000000000E+00 0.  1.
          2   -1    0    0  501    0  0.00000000000E+00 -0.00000000000E+00 -0.20926546772E+04  0.20926546772E+04  0.00000000000E+00 0. -1.
         23    2    1    2    0    0  0.25058610045E+03 -0.16158827137E+04  0.88562249534E+03  0.18618593750E+04  0.91229325514E+02 0.  0.
         11    1    3    3    0    0  0.21520211376E+03 -0.14884171944E+04  0.83551353046E+03  0.17204012770E+04  0.00000000000E+00 0. -1.
        -11    1    3    3    0    0  0.35383986685E+02 -0.12746551932E+03  0.50108964876E+02  0.14145809800E+03  0.00000000000E+00 0.  1.
         22    1    1    2    0    0 -0.25058610045E+03  0.16158827137E+04 -0.11879251513E+04  0.20211473235E+04  0.00000000000E+00 0. -1.
<mgrwt>
<rscale>  0 0.38712213E+04</rscale>
<asrwt>0</asrwt>
<pdfrwt beam="1">  1        2 0.32194688E+00 0.38712213E+04</pdfrwt>
<pdfrwt beam="2">  1       -2 0.27543877E+00 0.38712213E+04</pdfrwt>
<totfact> 0.21231894E-01</totfact>
</mgrwt>
</event>
<event>
 6    1  0.9988873E-007  0.2093251E+04  0.7818608E-02  0.8564222E-01
          1   -1    0    0  501    0  0.00000000000E+00  0.00000000000E+00  0.30207179684E+04  0.30207179684E+04  0.00000000000E+00 0. -1.
         -1   -1    0    0    0  501 -0.00000000000E+00 -0.00000000000E+00 -0.36263716560E+03  0.36263716560E+03  0.00000000000E+00 0.  1.
         23    2    1    2    0    0 -0.70269108789E+03 -0.26526342579E+03  0.15790322410E+03  0.77279439442E+03  0.90212514711E+02 0.  0.
         13    1    3    3    0    0 -0.33224795992E+03 -0.16564247410E+03  0.52266616399E+02  0.37491056972E+03  0.00000000000E+00 0. -1.
        -13    1    3    3    0    0 -0.37044312796E+03 -0.99620951689E+02  0.10563660771E+03  0.39788382470E+03  0.00000000000E+00 0.  1.
         22    1    1    2    0    0  0.70269108789E+03  0.26526342579E+03  0.25001775787E+04  0.26105607396E+04  0.00000000000E+00 0. -1.
<mgrwt>
<rscale>  0 0.20932507E+04</rscale>
<asrwt>0</asrwt>
<pdfrwt beam="1">  1        1 0.46472583E+00 0.20932507E+04</pdfrwt>
<pdfrwt beam="2">  1       -1 0.55790335E-01 0.20932507E+04</pdfrwt>
<totfact> 0.17287203E+00</totfact>
</mgrwt>
</event>
<event>
 6    1  0.9988873E-007  0.2370253E+04  0.7818608E-02  0.8450725E-01
         -1   -1    0    0    0  501 -0.00000000000E+00  0.00000000000E+00  0.87777586919E+03  0.87777586919E+03  0.00000000000E+00 0.  1.
          1   -1    0    0  501    0  0.00000000000E+00 -0.00000000000E+00 -0.16000944713E+04  0.16000944713E+04  0.00000000000E+00 0. -1.
         23    2    1    2    0    0 -0.92239512957E+03 -0.44627947426E+03  0.25698517896E+03  0.10604734166E+04  0.92651718512E+02 0.  0.
         11    1    3    3    0    0 -0.73426179804E+03 -0.31720774886E+03  0.18179685253E+03  0.82025071752E+03  0.00000000000E+00 0.  1.
        -11    1    3    3    0    0 -0.18813333153E+03 -0.12907172540E+03  0.75188326431E+02  0.24022269910E+03  0.00000000000E+00 0. -1.
         22    1    1    2    0    0  0.92239512957E+03  0.44627947426E+03 -0.97930378110E+03  0.14173969239E+04  0.00000000000E+00 0.  1.
<mgrwt>
<rscale>  0 0.23702526E+04</rscale>
<asrwt>0</asrwt>
<pdfrwt beam="1">  1        1 0.24616838E+00 0.23702526E+04</pdfrwt>
<pdfrwt beam="2">  1       -1 0.13504244E+00 0.23702526E+04</pdfrwt>
<totfact> 0.23071204E+00</totfact>
</mgrwt>
</event>
<event>
 6    1  0.9988873E-007  0.3521683E+04  0.7818608E-02  0.8108670E-01
          2   -1    0    0  501    0  0.00000000000E+00  0.00000000000E+00  0.17019318637E+04  0.17019318637E+04  0.00000000000E+00 0. -1.
         -2   -1    0    0    0  501 -0.00000000000E+00 -0.00000000000E+00 -0.18217904529E+04  0.18217904529E+04  0.00000000000E+00 0.  1.
         23    2    1    2    0    0  0.41061886046E+02 -0.17337640468E+04 -0.35845542027E+03  0.17731360444E+04  0.88866725342E+02 0.  0.
         13    1    3    3    0    0  0.59224503005E+02 -0.67862431435E+03 -0.13589523585E+03  0.69462653052E+03  0.00000000000E+00 0. -1.
        -13    1    3    3    0    0 -0.18162616959E+02 -0.10551397325E+04 -0.22256018442E+03  0.10785095138E+04  0.00000000000E+00 0.  1.
         22    1    1    2    0    0 -0.41061886046E+02  0.17337640468E+04  0.23859683107E+03  0.17505862722E+04  0.00000000000E+00 0.  1.
<mgrwt>
<rscale>  0 0.35216832E+04</rscale>
<asrwt>0</asrwt>
<pdfrwt beam="1">  1        2 0.26183567E+00 0.35216832E+04</pdfrwt>
<pdfrwt beam="2">  1       -2 0.28027545E+00 0.35216832E+04</pdfrwt>
<totfact> 0.33661528E-01</totfact>
</mgrwt>
</event>
<event>
 6    1  0.9988873E-007  0.2994614E+03  0.7818608E-02  0.1085510E+00
         -1   -1    0    0    0  501 -0.00000000000E+00  0.00000000000E+00  0.50599613183E+02  0.50599613183E+02  0.00000000000E+00 0.  1.
          1   -1    0    0  501    0  0.00000000000E+00 -0.00000000000E+00 -0.44307209803E+03  0.44307209803E+03  0.00000000000E+00 0. -1.
         23    2    1    2    0    0 -0.10129871140E+03 -0.33837685203E+02 -0.35439726280E+03  0.38028678979E+03  0.87259410590E+02 0.  0.
         11    1    3    3    0    0 -0.99521195542E+02  0.20314336900E+01 -0.22577105812E+03  0.24674109056E+03  0.00000000000E+00 0.  1.
        -11    1    3    3    0    0 -0.17775158591E+01 -0.35869118893E+02 -0.12862620468E+03  0.13354569923E+03  0.00000000000E+00 0. -1.
         22    1    1    2    0    0  0.10129871140E+03  0.33837685203E+02 -0.38075222041E+02  0.11338492142E+03  0.00000000000E+00 0.  1.
<mgrwt>
<rscale>  0 0.29946136E+03</rscale>
<asrwt>0</asrwt>
<pdfrwt beam="1">  1        1 0.68164936E-01 0.29946136E+03</pdfrwt>
<pdfrwt beam="2">  1       -1 0.77845561E-02 0.29946136E+03</pdfrwt>
<totfact> 0.47527139E+03</totfact>
</mgrwt>
</event>
<event>
 6    1  0.9988873E-007  0.5303073E+04  0.7818608E-02  0.7783383E-01
         -1   -1    0    0    0  501 -0.00000000000E+00  0.00000000000E+00  0.15715790191E+04  0.15715790191E+04  0.00000000000E+00 0.  1.
          1   -1    0    0  501    0  0.00000000000E+00 -0.00000000000E+00 -0.44736190123E+04  0.44736190123E+04  0.00000000000E+00 0. -1.
         23    2    1    2    0    0 -0.15429187196E+04 -0.12970122360E+04  0.51078525007E+03  0.20815866660E+04  0.96242197758E+02 0.  0.
         11    1    3    3    0    0 -0.39367900422E+03 -0.38006584074E+03  0.15964391587E+03  0.57001700109E+03  0.00000000000E+00 0. -1.
        -11    1    3    3    0    0 -0.11492397154E+04 -0.91694639522E+03  0.35114133420E+03  0.15115696649E+04  0.00000000000E+00 0.  1.
         22    1    1    2    0    0  0.15429187196E+04  0.12970122360E+04 -0.34128252432E+04  0.39636113654E+04  0.00000000000E+00 0. -1.
<mgrwt>
<rscale>  0 0.53030730E+04</rscale>
<asrwt>0</asrwt>
<pdfrwt beam="1">  1        1 0.68824907E+00 0.53030730E+04</pdfrwt>
<pdfrwt beam="2">  1       -1 0.24178139E+00 0.53030730E+04</pdfrwt>
<totfact> 0.18925042E-03</totfact>
</mgrwt>
</event>
<event>
 6    1  0.9988873E-007  0.4531175E+03  0.7818608E-02  0.1026796E+00
          2   -1    0    0  501    0  0.00000000000E+00  0.00000000000E+00  0.13328604475E+04  0.13328604475E+04  0.00000000000E+00 0. -1.
         -2   -1    0    0    0  501 -0.00000000000E+00 -0.00000000000E+00 -0.38510301545E+02  0.38510301545E+02  0.00000000000E+00 0.  1.
         23    2    1    2    0    0  0.92107127828E+02 -0.19357384296E+03  0.77072394742E+03  0.80556252052E+03  0.94662641340E+02 0.  0.
         13    1    3    3    0    0  0.59629509230E+01 -0.11899302043E+03  0.43548285169E+03  0.45148666626E+03  0.00000000000E+00 0.  1.
        -13    1    3    3    0    0  0.86144176905E+02 -0.74580822533E+02  0.33524109573E+03  0.35407585426E+03  0.00000000000E+00 0. -1.
         22    1    1    2    0    0 -0.92107127828E+02  0.19357384296E+03  0.52362619856E+03  0.56580822855E+03  0.00000000000E+00 0.  1.
<mgrwt>
<rscale>  0 0.45311746E+03</rscale>
<asrwt>0</asrwt>
<pdfrwt beam="1">  1        2 0.20505542E+00 0.45311746E+03</pdfrwt>
<pdfrwt beam="2">  1       -2 0.59246628E-02 0.45311746E+03</pdfrwt>
<totfact> 0.25373648E+03</totfact>
</mgrwt>
</event>
<event>
 6    1  0.9988873E-007  0.2117614E+04  0.7818608E-02  0.8553524E-01
          2   -1    0    0  501    0  0.00000000000E+00  0.00000000000E+00  0.14597135131E+04  0.14597135131E+04  0.00000000000E+00 0. -1.
         -2   -1    0    0    0  501 -0.00000000000E+00 -0.00000000000E+00 -0.76800808766E+03  0.76800808766E+03  0.00000000000E+00 0.  1.
         23    2    1    2    0    0  0.53778996695E+03 -0.56539929710E+02  0.13020280606E+04  0.14123023643E+04  0.83102860588E+02 0.  0.
         11    1    3    3    0    0  0.94838313298E+02 -0.32285898934E+02  0.30514020665E+03  0.32116542568E+03  0.00000000000E+00 0. -1.
        -11    1    3    3    0    0  0.44295165365E+03 -0.24254030776E+02  0.99688785395E+03  0.10911369386E+04  0.00000000000E+00 0.  1.
         22    1    1    2    0    0 -0.53778996695E+03  0.56539929710E+02 -0.61032263515E+03  0.81541923646E+03  0.00000000000E+00 0.  1.
<mgrwt>
<rscale>  0 0.21176135E+04</rscale>
<asrwt>0</asrwt>
<pdfrwt beam="1">  1        2 0.22457131E+00 0.21176135E+04</pdfrwt>
<pdfrwt beam="2">  1       -2 0.11815509E+00 0.21176135E+04</pdfrwt>
<totfact> 0.67948189E+00</totfact>
</mgrwt>
</event>
<event>
 6    1  0.9988873E-007  0.3572066E+04  0.7818608E-02  0.8096920E-01
          1   -1    0    0  501    0  0.00000000000E+00  0.00000000000E+00  0.17523351494E+04  0.17523351494E+04  0.00000000000E+00 0. -1.
         -1   -1    0    0    0  501 -0.00000000000E+00 -0.00000000000E+00 -0.18203791361E+04  0.18203791361E+04  0.00000000000E+00 0.  1.
         23    2    1    2    0    0  0.13221721120E+04 -0.11263342892E+04 -0.44614679969E+03  0.17951514141E+04  0.82180337114E+02 0.  0.
         13    1    3    3    0    0  0.87610984416E+03 -0.72640819337E+03 -0.32931893506E+03  0.11847735157E+04  0.00000000000E+00 0. -1.
        -13    1    3    3    0    0  0.44606226785E+03 -0.39992609581E+03 -0.11682786462E+03  0.61037789841E+03  0.00000000000E+00 0.  1.
         22    1    1    2    0    0 -0.13221721120E+04  0.11263342892E+04  0.37810281295E+03  0.17775628714E+04  0.00000000000E+00 0.  1.
<mgrwt>
<rscale>  0 0.35720663E+04</rscale>
<asrwt>0</asrwt>
<pdfrwt beam="1">  1        1 0.26959002E+00 0.35720663E+04</pdfrwt>
<pdfrwt beam="2">  1       -1 0.28005833E+00 0.35720663E+04</pdfrwt>
<totfact> 0.15830466E-01</totfact>
</mgrwt>
</event>
<event>
 6    1  0.9988873E-007  0.8517405E+03  0.7818608E-02  0.9488004E-01
          1   -1    0    0  501    0  0.00000000000E+00  0.00000000000E+00  0.46286877650E+03  0.46286877650E+03  0.00000000000E+00 0. -1.
         -1   -1    0    0    0  501 -0.00000000000E+00 -0.00000000000E+00 -0.39182916682E+03  0.39182916682E+03  0.00000000000E+00 0.  1.
         23    2    1    2    0    0  0.13462399872E+03 -0.26865682646E+03  0.33174999524E+03  0.45686629982E+03  0.91480299136E+02 0.  0.
         13    1    3    3    0    0  0.84001921772E+02 -0.23255339591E+03  0.23041935490E+03  0.33798000521E+03  0.00000000000E+00 0.  1.
        -13    1    3    3    0    0  0.50622076947E+02 -0.36103430544E+02  0.10133064035E+03  0.11888629460E+03  0.00000000000E+00 0. -1.
         22    1    1    2    0    0 -0.13462399872E+03  0.26865682646E+03 -0.26071038556E+03  0.39783164351E+03  0.00000000000E+00 0.  1.
<mgrwt>
<rscale>  0 0.85174054E+03</rscale>
<asrwt>0</asrwt>
<pdfrwt beam="1">  1        1 0.71210581E-01 0.85174054E+03</pdfrwt>
<pdfrwt beam="2">  1       -1 0.60281410E-01 0.85174054E+03</pdfrwt>
<totfact> 0.13891406E+02</totfact>
</mgrwt>
</event>
<event>
 6    1  0.9988873E-007  0.1677577E+04  0.7818608E-02  0.8774257E-01
         -2   -1    0    0    0  501 -0.00000000000E+00  0.00000000000E+00  0.57518939757E+03  0.57518939757E+03  0.00000000000E+00 0.  1.
          2   -1    0    0  501    0  0.00000000000E+00 -0.00000000000E+00 -0.12231901505E+04  0.12231901505E+04  0.00000000000E+00 0. -1.
         23    2    1    2    0    0  0.54337429677E+03  0.12822023524E+03 -0.99237480295E+03  0.11424149596E+04  0.92780036580E+02 0.  0.
         11    1    3    3    0    0  0.23991127040E+03  0.53976955076E+02 -0.34581916012E+03  0.42433691903E+03  0.00000000000E+00 0.  1.
        -11    1    3    3    0    0  0.30346302637E+03  0.74243280169E+02 -0.64655564283E+03  0.71807804053E+03  0.00000000000E+00 0. -1.
         22    1    1    2    0    0 -0.54337429677E+03 -0.12822023524E+03  0.34437404998E+03  0.65596458854E+03  0.00000000000E+00 0.  1.
<mgrwt>
<rscale>  0 0.16775768E+04</rscale>
<asrwt>0</asrwt>
<pdfrwt beam="1">  1        2 0.18818310E+00 0.16775768E+04</pdfrwt>
<pdfrwt beam="2">  1       -2 0.88490677E-01 0.16775768E+04</pdfrwt>
<totfact> 0.19219632E+01</totfact>
</mgrwt>
</event>
<event>
 6    1  0.9988873E-007  0.3642240E+04  0.7818608E-02  0.8080884E-01
         -1   -1    0    0    0  501 -0.00000000000E+00  0.00000000000E+00  0.14108490777E+04  0.14108490777E+04  0.00000000000E+00 0.  1.
          1   -1    0    0  501    0  0.00000000000E+00 -0.00000000000E+00 -0.23506959386E+04  0.23506959386E+04  0.00000000000E+00 0. -1.
         23    2    1    2    0    0  0.13046801283E+04  0.79555003585E+03  0.55068501301E+03  0.16268845366E+04  0.91701772239E+02 0.  0.
         11    1    3    3    0    0  0.26178798992E+03  0.13868442929E+03  0.14070271164E+03  0.32796886385E+03  0.00000000000E+00 0.  1.
        -11    1    3    3    0    0  0.10428921384E+04  0.65686560656E+03  0.40998230137E+03  0.12989156727E+04  0.00000000000E+00 0. -1.
         22    1    1    2    0    0 -0.13046801283E+04 -0.79555003585E+03 -0.14905318738E+04  0.21346604797E+04  0.00000000000E+00 0. -1.
<mgrwt>
<rscale>  0 0.36422395E+04</rscale>
<asrwt>0</asrwt>
<pdfrwt beam="1">  1        1 0.36164553E+00 0.36422395E+04</pdfrwt>
<pdfrwt beam="2">  1       -1 0.21705370E+00 0.36422395E+04</pdfrwt>
<totfact> 0.15952097E-01</totfact>
</mgrwt>
</event>
<event>
 6    1  0.9988873E-007  0.6468774E+03  0.7818608E-02  0.9812656E-01
         -2   -1    0    0    0  501 -0.00000000000E+00  0.00000000000E+00  0.22310567508E+03  0.22310567508E+03  0.00000000000E+00 0.  1.
          2   -1    0    0  501    0  0.00000000000E+00 -0.00000000000E+00 -0.46889263103E+03  0.46889263103E+03  0.00000000000E+00 0. -1.
         23    2    1    2    0    0  0.24633145220E+03 -0.19946856990E+03 -0.11480364411E+03  0.34903544704E+03  0.90437668432E+02 0.  0.
         13    1    3    3    0    0  0.16767346698E+03 -0.78087118283E+02 -0.65810818746E+02  0.19632384836E+03  0.00000000000E+00 0. -1.
        -13    1    3    3    0    0  0.78657985220E+02 -0.12138145162E+03 -0.48992825368E+02  0.15271159869E+03  0.00000000000E+00 0.  1.
         22    1    1    2    0    0 -0.24633145220E+03  0.19946856990E+03 -0.13098331184E+03  0.34296285907E+03  0.00000000000E+00 0.  1.
<mgrwt>
<rscale>  0 0.64687744E+03</rscale>
<asrwt>0</asrwt>
<pdfrwt beam="1">  1        2 0.72137327E-01 0.64687744E+03</pdfrwt>
<pdfrwt beam="2">  1       -2 0.34323950E-01 0.64687744E+03</pdfrwt>
<totfact> 0.53120931E+02</totfact>
</mgrwt>
</event>
<event>
 6    1  0.9988873E-007  0.2657534E+04  0.7818608E-02  0.8348917E-01
         -1   -1    0    0    0  501 -0.00000000000E+00  0.00000000000E+00  0.87759460746E+03  0.87759460746E+03  0.00000000000E+00 0.  1.
          1   -1    0    0  501    0  0.00000000000E+00 -0.00000000000E+00 -0.20118880920E+04  0.20118880920E+04  0.00000000000E+00 0. -1.
         23    2    1    2    0    0  0.47843023969E+03  0.12312104310E+04 -0.70877236879E+03  0.15017353019E+04  0.89866715596E+02 0.  0.
         11    1    3    3    0    0  0.23723152393E+03  0.72700643487E+03 -0.39385670672E+03  0.86019780151E+03  0.00000000000E+00 0.  1.
        -11    1    3    3    0    0  0.24119871576E+03  0.50420399609E+03 -0.31491566207E+03  0.64153750036E+03  0.00000000000E+00 0. -1.
         22    1    1    2    0    0 -0.47843023969E+03 -0.12312104310E+04 -0.42552111575E+03  0.13877473976E+04  0.00000000000E+00 0.  1.
<mgrwt>
<rscale>  0 0.26575343E+04</rscale>
<asrwt>0</asrwt>
<pdfrwt beam="1">  1        1 0.30952124E+00 0.26575343E+04</pdfrwt>
<pdfrwt beam="2">  1       -1 0.13501456E+00 0.26575343E+04</pdfrwt>
<totfact> 0.11803319E+00</totfact>
</mgrwt>
</event>
<event>
 6    1  0.9988873E-007  0.1406856E+04  0.7818608E-02  0.8948871E-01
         -1   -1    0    0    0  501 -0.00000000000E+00  0.00000000000E+00  0.71338434085E+03  0.71338434085E+03  0.00000000000E+00 0.  1.
          1   -1    0    0  501    0  0.00000000000E+00 -0.00000000000E+00 -0.69361067243E+03  0.69361067243E+03  0.00000000000E+00 0. -1.
         23    2    1    2    0    0 -0.30267828942E+03  0.50504635758E+03  0.38965411102E+03  0.71165515968E+03  0.89088550754E+02 0.  0.
         11    1    3    3    0    0 -0.21755726642E+03  0.41941771660E+03  0.28437589807E+03  0.55146354057E+03  0.00000000000E+00 0. -1.
        -11    1    3    3    0    0 -0.85121023003E+02  0.85628640972E+02  0.10527821294E+03  0.16019161911E+03  0.00000000000E+00 0.  1.
         22    1    1    2    0    0  0.30267828942E+03 -0.50504635758E+03 -0.36988044260E+03  0.69533985360E+03  0.00000000000E+00 0. -1.
<mgrwt>
<rscale>  0 0.14068561E+04</rscale>
<asrwt>0</asrwt>
<pdfrwt beam="1">  1        1 0.10670933E+00 0.14068561E+04</pdfrwt>
<pdfrwt beam="2">  1       -1 0.10975144E+00 0.14068561E+04</pdfrwt>
<totfact> 0.20666338E+01</totfact>
</mgrwt>
</event>
<event>
 6    1  0.9988873E-007  0.3664183E+04  0.7818608E-02  0.8075946E-01
          2   -1    0    0  501    0  0.00000000000E+00  0.00000000000E+00  0.29066135287E+04  0.29066135287E+04  0.00000000000E+00 0. -1.
         -2   -1    0    0    0  501 -0.00000000000E+00 -0.00000000000E+00 -0.11548007463E+04  0.11548007463E+04  0.00000000000E+00 0.  1.
         23    2    1    2    0    0  0.13370557322E+04  0.87774007780E+03 -0.11136800123E+03  0.16058922720E+04  0.91331716146E+02 0.  0.
         13    1    3    3    0    0  0.44160940772E+03  0.25114188807E+03 -0.62945844275E+02  0.51191141444E+03  0.00000000000E+00 0.  1.
        -13    1    3    3    0    0  0.89544632445E+03  0.62659818974E+03 -0.48422156957E+02  0.10939808575E+04  0.00000000000E+00 0. -1.
         22    1    1    2    0    0 -0.13370557322E+04 -0.87774007780E+03  0.18631807836E+04  0.24555220031E+04  0.00000000000E+00 0. -1.
<mgrwt>
<rscale>  0 0.36641831E+04</rscale>
<asrwt>0</asrwt>
<pdfrwt beam="1">  1        2 0.44717131E+00 0.36641831E+04</pdfrwt>
<pdfrwt beam="2">  1       -2 0.17766165E+00 0.36641831E+04</pdfrwt>
<totfact> 0.30358492E-01</totfact>
</mgrwt>
</event>
<event>
 6    1  0.9988873E-007  0.1169571E+04  0.7818608E-02  0.9139916E-01
         -1   -1    0    0    0  501 -0.00000000000E+00  0.00000000000E+00  0.11084798237E+03  0.11084798237E+03  0.00000000000E+00 0.  1.
          1   -1    0    0  501    0  0.00000000000E+00 -0.00000000000E+00 -0.30850732979E+04  0.30850732979E+04  0.00000000000E+00 0. -1.
         23    2    1    2    0    0 -0.49476684530E+03  0.17525607632E+03 -0.81357238956E+03  0.97242628591E+03  0.90575520796E+02 0.  0.
         13    1    3    3    0    0 -0.36107183261E+03  0.16907529452E+03 -0.61767571521E+03  0.73517522583E+03  0.00000000000E+00 0.  1.
        -13    1    3    3    0    0 -0.13369501269E+03  0.61807817938E+01 -0.19589667436E+03  0.23725106007E+03  0.00000000000E+00 0. -1.
         22    1    1    2    0    0  0.49476684530E+03 -0.17525607632E+03 -0.21606529260E+04  0.22234949944E+04  0.00000000000E+00 0. -1.
<mgrwt>
<rscale>  0 0.11695711E+04</rscale>
<asrwt>0</asrwt>
<pdfrwt beam="1">  1        1 0.47462665E+00 0.11695711E+04</pdfrwt>
<pdfrwt beam="2">  1       -1 0.17053536E-01 0.11695711E+04</pdfrwt>
<totfact> 0.13906289E+01</totfact>
</mgrwt>
</event>
<event>
 6    1  0.9988873E-007  0.2357611E+04  0.7818608E-02  0.8455546E-01
         -2   -1    0    0    0  501 -0.00000000000E+00  0.00000000000E+00  0.47768237351E+03  0.47768237351E+03  0.00000000000E+00 0.  1.
          2   -1    0    0  501    0  0.00000000000E+00 -0.00000000000E+00 -0.29090095701E+04  0.29090095701E+04  0.00000000000E+00 0. -1.
         23    2    1    2    0    0 -0.25257155399E+03  0.18493480233E+03 -0.28473947451E+04  0.28660140433E+04  0.91577241444E+02 0.  0.
         13    1    3    3    0    0 -0.15536610034E+03  0.74177968270E+02 -0.18163918180E+04  0.18245328806E+04  0.00000000000E+00 0.  1.
        -13    1    3    3    0    0 -0.97205453655E+02  0.11075683406E+03 -0.10310029271E+04  0.10414811627E+04  0.00000000000E+00 0. -1.
         22    1    1    2    0    0  0.25257155399E+03 -0.18493480233E+03  0.41606754847E+03  0.52067790033E+03  0.00000000000E+00 0.  1.
<mgrwt>
<rscale>  0 0.23576112E+04</rscale>
<asrwt>0</asrwt>
<pdfrwt beam="1">  1        2 0.44753994E+00 0.23576112E+04</pdfrwt>
<pdfrwt beam="2">  1       -2 0.73489595E-01 0.23576112E+04</pdfrwt>
<totfact> 0.29910082E+00</totfact>
</mgrwt>
</event>
<event>
 6    1  0.9988873E-007  0.3719630E+04  0.7818608E-02  0.8063625E-01
          1   -1    0    0  501    0  0.00000000000E+00  0.00000000000E+00  0.14566551930E+04  0.14566551930E+04  0.00000000000E+00 0. -1.
         -1   -1    0    0    0  501 -0.00000000000E+00 -0.00000000000E+00 -0.23745575263E+04  0.23745575263E+04  0.00000000000E+00 0.  1.
         23    2    1    2    0    0  0.17793900092E+04  0.50712949239E+03 -0.64149044040E+03  0.19604340949E+04  0.91557242189E+02 0.  0.
         13    1    3    3    0    0  0.94001381706E+03  0.22551726404E+03 -0.35676352747E+03  0.10304194424E+04  0.00000000000E+00 0. -1.
        -13    1    3    3    0    0  0.83937619211E+03  0.28161222835E+03 -0.28472691293E+03  0.93001465256E+03  0.00000000000E+00 0.  1.
         22    1    1    2    0    0 -0.17793900092E+04 -0.50712949239E+03 -0.27641189285E+03  0.18707786243E+04  0.00000000000E+00 0.  1.
<mgrwt>
<rscale>  0 0.37196298E+04</rscale>
<asrwt>0</asrwt>
<pdfrwt beam="1">  1        1 0.22410080E+00 0.37196298E+04</pdfrwt>
<pdfrwt beam="2">  1       -1 0.36531653E+00 0.37196298E+04</pdfrwt>
<totfact> 0.68951861E-02</totfact>
</mgrwt>
</event>
<event>
 6    1  0.9988873E-007  0.1138528E+04  0.7818608E-02  0.9168432E-01
          2   -1    0    0  501    0  0.00000000000E+00  0.00000000000E+00  0.47154884443E+03  0.47154884443E+03  0.00000000000E+00 0. -1.
         -2   -1    0    0    0  501 -0.00000000000E+00 -0.00000000000E+00 -0.68722827931E+03  0.68722827931E+03  0.00000000000E+00 0.  1.
         23    2    1    2    0    0  0.53111969166E+03  0.88317228576E+02  0.67757590448E+02  0.55031627285E+03  0.91481415393E+02 0.  0.
         13    1    3    3    0    0  0.23680242470E+03  0.42306511960E+02 -0.15372221875E+02  0.24104259894E+03  0.00000000000E+00 0.  1.
        -13    1    3    3    0    0  0.29431726696E+03  0.46010716616E+02  0.83129812323E+02  0.30927367390E+03  0.00000000000E+00 0. -1.
         22    1    1    2    0    0 -0.53111969166E+03 -0.88317228576E+02 -0.28343702533E+03  0.60846085089E+03  0.00000000000E+00 0.  1.
<mgrwt>
<rscale>  0 0.11385284E+04</rscale>
<asrwt>0</asrwt>
<pdfrwt beam="1">  1        2 0.72545977E-01 0.11385284E+04</pdfrwt>
<pdfrwt beam="2">  1       -2 0.10572743E+00 0.11385284E+04</pdfrwt>
<totfact> 0.47204483E+01</totfact>
</mgrwt>
</event>
<event>
 6    1  0.9988873E-007  0.9121190E+03  0.7818608E-02  0.9410558E-01
          2   -1    0    0  501    0  0.00000000000E+00  0.00000000000E+00  0.15694280914E+04  0.15694280914E+04  0.00000000000E+00 0. -1.
         -2   -1    0    0    0  501 -0.00000000000E+00 -0.00000000000E+00 -0.13252614505E+03  0.13252614505E+03  0.00000000000E+00 0.  1.
         23    2    1    2    0    0 -0.23746885101E+03  0.18677256377E+03  0.99038280420E+02  0.33040232915E+03  0.89898122031E+02 0.  0.
         11    1    3    3    0    0 -0.21112580914E+03  0.12722541428E+03  0.98048725417E+02  0.26528091880E+03  0.00000000000E+00 0. -1.
        -11    1    3    3    0    0 -0.26343041867E+02  0.59547149488E+02  0.98955500292E+00  0.65121410351E+02  0.00000000000E+00 0.  1.
         22    1    1    2    0    0  0.23746885101E+03 -0.18677256377E+03  0.13378636660E+04  0.13715519073E+04  0.00000000000E+00 0. -1.
<mgrwt>
<rscale>  0 0.91211897E+03</rscale>
<asrwt>0</asrwt>
<pdfrwt beam="1">  1        2 0.24145046E+00 0.91211897E+03</pdfrwt>
<pdfrwt beam="2">  1       -2 0.20388639E-01 0.91211897E+03</pdfrwt>
<totfact> 0.24033168E+02</totfact>
</mgrwt>
</event>
<event>
 6    1  0.9988873E-007  0.2050681E+04  0.7818608E-02  0.8583286E-01
          1   -1    0    0  501    0  0.00000000000E+00  0.00000000000E+00  0.14935924642E+04  0.14935924642E+04  0.00000000000E+00 0. -1.
         -1   -1    0    0    0  501 -0.00000000000E+00 -0.00000000000E+00 -0.70388869258E+03  0.70388869258E+03  0.00000000000E+00 0.  1.
         23    2    1    2    0    0 -0.69150261200E+03  0.56113626311E+03  0.93576720544E+03  0.12950487245E+04  0.91875828419E+02 0.  0.
         13    1    3    3    0    0 -0.26555286150E+03  0.26816965183E+03  0.36662109703E+03  0.52615996921E+03  0.00000000000E+00 0. -1.
        -13    1    3    3    0    0 -0.42594975050E+03  0.29296661128E+03  0.56914610841E+03  0.76888875528E+03  0.00000000000E+00 0.  1.
         22    1    1    2    0    0  0.69150261200E+03 -0.56113626311E+03 -0.14606343380E+03  0.90243243230E+03  0.00000000000E+00 0.  1.
<mgrwt>
<rscale>  0 0.20506807E+04</rscale>
<asrwt>0</asrwt>
<pdfrwt beam="1">  1        1 0.22978346E+00 0.20506807E+04</pdfrwt>
<pdfrwt beam="2">  1       -1 0.10829057E+00 0.20506807E+04</pdfrwt>
<totfact> 0.48340146E+00</totfact>
</mgrwt>
</event>
<event>
 6    1  0.9988873E-007  0.1026939E+04  0.7818608E-02  0.9279482E-01
          2   -1    0    0  501    0  0.00000000000E+00  0.00000000000E+00  0.32313150143E+04  0.32313150143E+04  0.00000000000E+00 0. -1.
         -2   -1    0    0    0  501 -0.00000000000E+00 -0.00000000000E+00 -0.81592527308E+02  0.81592527308E+02  0.00000000000E+00 0.  1.
         23    2    1    2    0    0  0.70279687910E+02  0.50228674542E+03  0.14339750905E+04  0.15237679892E+04  0.91395381733E+02 0.  0.
         11    1    3    3    0    0 -0.15451078356E+02  0.20967794461E+03  0.56484181722E+03  0.60270212772E+03  0.00000000000E+00 0. -1.
        -11    1    3    3    0    0  0.85730766266E+02  0.29260880081E+03  0.86913327325E+03  0.92106586152E+03  0.00000000000E+00 0.  1.
         22    1    1    2    0    0 -0.70279687910E+02 -0.50228674542E+03  0.17157473966E+04  0.17891395524E+04  0.00000000000E+00 0. -1.
<mgrwt>
<rscale>  0 0.10269395E+04</rscale>
<asrwt>0</asrwt>
<pdfrwt beam="1">  1        2 0.49712529E+00 0.10269395E+04</pdfrwt>
<pdfrwt beam="2">  1       -2 0.12552699E-01 0.10269395E+04</pdfrwt>
<totfact> 0.60100631E+01</totfact>
</mgrwt>
</event>
<event>
 6    1  0.9988873E-007  0.8937367E+03  0.7818608E-02  0.9433445E-01
          2   -1    0    0  501    0  0.00000000000E+00  0.00000000000E+00  0.21386694883E+03  0.21386694883E+03  0.00000000000E+00 0. -1.
         -2   -1    0    0    0  501 -0.00000000000E+00 -0.00000000000E+00 -0.93371750150E+03  0.93371750150E+03  0.00000000000E+00 0.  1.
         23    2    1    2    0    0 -0.89213157875E+02  0.84453120719E+02 -0.90914838560E+03  0.92191879791E+03  0.91061329681E+02 0.  0.
         11    1    3    3    0    0 -0.61421355968E+02  0.92541310915E+01 -0.57232710803E+03  0.57568788462E+03  0.00000000000E+00 0. -1.
        -11    1    3    3    0    0 -0.27791801907E+02  0.75198989627E+02 -0.33682127757E+03  0.34623091329E+03  0.00000000000E+00 0.  1.
         22    1    1    2    0    0  0.89213157875E+02 -0.84453120719E+02  0.18929783292E+03  0.22566565242E+03  0.00000000000E+00 0. -1.
<mgrwt>
<rscale>  0 0.89373668E+03</rscale>
<asrwt>0</asrwt>
<pdfrwt beam="1">  1        2 0.32902607E-01 0.89373668E+03</pdfrwt>
<pdfrwt beam="2">  1       -2 0.14364885E+00 0.89373668E+03</pdfrwt>
<totfact> 0.54023687E+01</totfact>
</mgrwt>
</event>
<event>
 6    1  0.9988873E-007  0.1133780E+04  0.7818608E-02  0.9172879E-01
         -2   -1    0    0    0  501 -0.00000000000E+00  0.00000000000E+00  0.49032973652E+03  0.49032973652E+03  0.00000000000E+00 0.  1.
          2   -1    0    0  501    0  0.00000000000E+00 -0.00000000000E+00 -0.65540398400E+03  0.65540398400E+03  0.00000000000E+00 0. -1.
         23    2    1    2    0    0 -0.42752420951E+02  0.34791573138E+03  0.36451689363E+03  0.51064325264E+03  0.70787287579E+02 0.  0.
         11    1    3    3    0    0 -0.30487030050E+02  0.33451194912E+03  0.32613915854E+03  0.46818207338E+03  0.00000000000E+00 0. -1.
        -11    1    3    3    0    0 -0.12265390900E+02  0.13403782263E+02  0.38377735098E+02  0.42461179260E+02  0.00000000000E+00 0.  1.
         22    1    1    2    0    0  0.42752420951E+02 -0.34791573138E+03 -0.52959114112E+03  0.63509046788E+03  0.00000000000E+00 0. -1.
<mgrwt>
<rscale>  0 0.11337796E+04</rscale>
<asrwt>0</asrwt>
<pdfrwt beam="1">  1        2 0.10083138E+00 0.11337796E+04</pdfrwt>
<pdfrwt beam="2">  1       -2 0.75435344E-01 0.11337796E+04</pdfrwt>
<totfact> 0.69555027E+01</totfact>
</mgrwt>
</event>
<event>
 6    1  0.9988873E-007  0.2393993E+04  0.7818608E-02  0.8441756E-01
         -1   -1    0    0    0  501 -0.00000000000E+00  0.00000000000E+00  0.15368872294E+04  0.15368872294E+04  0.00000000000E+00 0.  1.
          1   -1    0    0  501    0  0.00000000000E+00 -0.00000000000E+00 -0.93227421034E+03  0.93227421034E+03  0.00000000000E+00 0. -1.
         23    2    1    2    0    0  0.43524888816E+02 -0.11195940738E+04  0.73214917661E+03  0.13414864965E+04  0.90323294815E+02 0.  0.
         11    1    3    3    0    0  0.25102946108E+02 -0.66593746529E+03  0.38209873374E+03  0.76818116868E+03  0.00000000000E+00 0. -1.
        -11    1    3    3    0    0  0.18421942707E+02 -0.45365660849E+03  0.35005044287E+03  0.57330532786E+03  0.00000000000E+00 0.  1.
         22    1    1    2    0    0 -0.43524888816E+02  0.11195940738E+04 -0.12753615758E+03  0.11276749432E+04  0.00000000000E+00 0.  1.
<mgrwt>
<rscale>  0 0.23939928E+04</rscale>
<asrwt>0</asrwt>
<pdfrwt beam="1">  1        1 0.14342680E+00 0.23939928E+04</pdfrwt>
<pdfrwt beam="2">  1       -1 0.23644419E+00 0.23939928E+04</pdfrwt>
<totfact> 0.13139161E+00</totfact>
</mgrwt>
</event>
<event>
 6    1  0.1428154E-006  0.3181685E+04  0.7818608E-02  0.8193671E-01
         -2   -1    0    0    0  501 -0.00000000000E+00  0.00000000000E+00  0.16584585836E+04  0.16584585836E+04  0.00000000000E+00 0.  1.
          2   -1    0    0  501    0  0.00000000000E+00 -0.00000000000E+00 -0.15259828056E+04  0.15259828056E+04  0.00000000000E+00 0. -1.
         23    2    1    2    0    0 -0.15740818728E+04  0.18464360513E+03 -0.55647240242E+02  0.15884409904E+04  0.90670620334E+02 0.  0.
         11    1    3    3    0    0 -0.89072762471E+03  0.13858570416E+03 -0.21045907855E+01  0.90144668624E+03  0.00000000000E+00 0.  1.
        -11    1    3    3    0    0 -0.68335424808E+03  0.46057900972E+02 -0.53542649456E+02  0.68699430414E+03  0.00000000000E+00 0. -1.
         22    1    1    2    0    0  0.15740818728E+04 -0.18464360513E+03  0.18812301824E+03  0.15960003989E+04  0.00000000000E+00 0.  1.
<mgrwt>
<rscale>  0 0.31816846E+04</rscale>
<asrwt>0</asrwt>
<pdfrwt beam="1">  1        2 0.23476658E+00 0.31816846E+04</pdfrwt>
<pdfrwt beam="2">  1       -2 0.25514748E+00 0.31816846E+04</pdfrwt>
<totfact> 0.61837179E-01</totfact>
</mgrwt>
</event>
<event>
 6    1  0.9988873E-007  0.4802077E+04  0.7818608E-02  0.7859786E-01
         -2   -1    0    0    0  501 -0.00000000000E+00  0.00000000000E+00  0.20613261637E+04  0.20613261637E+04  0.00000000000E+00 0.  1.
          2   -1    0    0  501    0  0.00000000000E+00 -0.00000000000E+00 -0.27967364510E+04  0.27967364510E+04  0.00000000000E+00 0. -1.
         23    2    1    2    0    0  0.19564686889E+04  0.88821762884E+03  0.71336852120E+03  0.22666035039E+04  0.10907112493E+03 0.  0.
         11    1    3    3    0    0  0.91645700672E+03  0.42179489291E+03  0.27791701841E+03  0.10464426625E+04  0.00000000000E+00 0. -1.
        -11    1    3    3    0    0  0.10400116822E+04  0.46642273593E+03  0.43545150279E+03  0.12201608414E+04  0.00000000000E+00 0.  1.
         22    1    1    2    0    0 -0.19564686889E+04 -0.88821762884E+03 -0.14487788086E+04  0.25914591108E+04  0.00000000000E+00 0. -1.
<mgrwt>
<rscale>  0 0.48020771E+04</rscale>
<asrwt>0</asrwt>
<pdfrwt beam="1">  1        2 0.43026715E+00 0.48020771E+04</pdfrwt>
<pdfrwt beam="2">  1       -2 0.31712710E+00 0.48020771E+04</pdfrwt>
<totfact> 0.42840937E-02</totfact>
</mgrwt>
</event>
<event>
 6    1  0.9988873E-007  0.1105364E+04  0.7818608E-02  0.9199979E-01
         -2   -1    0    0    0  501 -0.00000000000E+00  0.00000000000E+00  0.14383727763E+03  0.14383727763E+03  0.00000000000E+00 0.  1.
          2   -1    0    0  501    0  0.00000000000E+00 -0.00000000000E+00 -0.21236332306E+04  0.21236332306E+04  0.00000000000E+00 0. -1.
         23    2    1    2    0    0 -0.21726034052E+03 -0.21865236654E+03 -0.19283392754E+04  0.19549665840E+04  0.91602787641E+02 0.  0.
         11    1    3    3    0    0 -0.12011321177E+03 -0.84613605376E+02 -0.11403915842E+04  0.11498172077E+04  0.00000000000E+00 0. -1.
        -11    1    3    3    0    0 -0.97147128745E+02 -0.13403876117E+03 -0.78794769120E+03  0.80514937632E+03  0.00000000000E+00 0.  1.
         22    1    1    2    0    0  0.21726034052E+03  0.21865236654E+03 -0.51456677553E+02  0.31250392417E+03  0.00000000000E+00 0.  1.
<mgrwt>
<rscale>  0 0.11053644E+04</rscale>
<asrwt>0</asrwt>
<pdfrwt beam="1">  1        2 0.32671279E+00 0.11053644E+04</pdfrwt>
<pdfrwt beam="2">  1       -2 0.22128813E-01 0.11053644E+04</pdfrwt>
<totfact> 0.10142960E+02</totfact>
</mgrwt>
</event>
<event>
 6    1  0.9988873E-007  0.8649622E+03  0.7818608E-02  0.9470472E-01
         -2   -1    0    0    0  501 -0.00000000000E+00  0.00000000000E+00  0.10241492434E+03  0.10241492434E+03  0.00000000000E+00 0.  1.
          2   -1    0    0  501    0  0.00000000000E+00 -0.00000000000E+00 -0.18262952825E+04  0.18262952825E+04  0.00000000000E+00 0. -1.
         23    2    1    2    0    0  0.27108503765E+03  0.23281690245E+03 -0.13887440470E+04  0.14388049560E+04  0.11772368374E+03 0.  0.
         11    1    3    3    0    0  0.12338639081E+03  0.36031621900E+02 -0.41463538267E+03  0.43410249916E+03  0.00000000000E+00 0. -1.
        -11    1    3    3    0    0  0.14769864683E+03  0.19678528055E+03 -0.97410866434E+03  0.10047024569E+04  0.00000000000E+00 0.  1.
         22    1    1    2    0    0 -0.27108503765E+03 -0.23281690245E+03 -0.33513631110E+03  0.48990525076E+03  0.00000000000E+00 0.  1.
<mgrwt>
<rscale>  0 0.86496218E+03</rscale>
<asrwt>0</asrwt>
<pdfrwt beam="1">  1        2 0.28096848E+00 0.86496218E+03</pdfrwt>
<pdfrwt beam="2">  1       -2 0.15756143E-01 0.86496218E+03</pdfrwt>
<totfact> 0.27189522E+02</totfact>
</mgrwt>
</event>
<event>
 6    1  0.9988873E-007  0.4737528E+04  0.7818608E-02  0.7870323E-01
          2   -1    0    0  501    0  0.00000000000E+00  0.00000000000E+00  0.28012770081E+04  0.28012770081E+04  0.00000000000E+00 0. -1.
         -2   -1    0    0    0  501 -0.00000000000E+00 -0.00000000000E+00 -0.20030304961E+04  0.20030304961E+04  0.00000000000E+00 0.  1.
         23    2    1    2    0    0 -0.25385616447E+03  0.12747188536E+04 -0.16079253379E+04  0.20695288880E+04  0.90414702104E+02 0.  0.
         11    1    3    3    0    0 -0.17929265999E+03  0.82116944286E+03 -0.11026233736E+04  0.13864499327E+04  0.00000000000E+00 0.  1.
        -11    1    3    3    0    0 -0.74563504488E+02  0.45354941070E+03 -0.50530196428E+03  0.68307895536E+03  0.00000000000E+00 0. -1.
         22    1    1    2    0    0  0.25385616447E+03 -0.12747188536E+04  0.24061718499E+04  0.27347786161E+04  0.00000000000E+00 0. -1.
<mgrwt>
<rscale>  0 0.47375282E+04</rscale>
<asrwt>0</asrwt>
<pdfrwt beam="1">  1        2 0.43096570E+00 0.47375282E+04</pdfrwt>
<pdfrwt beam="2">  1       -2 0.30815854E+00 0.47375282E+04</pdfrwt>
<totfact> 0.48589925E-02</totfact>
</mgrwt>
</event>
<event>
 6    1  0.9988873E-007  0.2879374E+04  0.7818608E-02  0.8279041E-01
          1   -1    0    0  501    0  0.00000000000E+00  0.00000000000E+00  0.13102235078E+04  0.13102235078E+04  0.00000000000E+00 0. -1.
         -1   -1    0    0    0  501 -0.00000000000E+00 -0.00000000000E+00 -0.15819426342E+04  0.15819426342E+04  0.00000000000E+00 0.  1.
         23    2    1    2    0    0 -0.34142649996E+03  0.12170558604E+04  0.55318813242E+03  0.13827725526E+04  0.90806387382E+02 0.  0.
         11    1    3    3    0    0 -0.11762122631E+03  0.34859866469E+03  0.20129142327E+03  0.41937336466E+03  0.00000000000E+00 0. -1.
        -11    1    3    3    0    0 -0.22380527364E+03  0.86845719573E+03  0.35189670915E+03  0.96339918790E+03  0.00000000000E+00 0.  1.
         22    1    1    2    0    0  0.34142649996E+03 -0.12170558604E+04 -0.82490725883E+03  0.15093935895E+04  0.00000000000E+00 0.  1.
<mgrwt>
<rscale>  0 0.28793738E+04</rscale>
<asrwt>0</asrwt>
<pdfrwt beam="1">  1        1 0.20157285E+00 0.28793738E+04</pdfrwt>
<pdfrwt beam="2">  1       -1 0.24337579E+00 0.28793738E+04</pdfrwt>
<totfact> 0.58921332E-01</totfact>
</mgrwt>
</event>
<event>
 6    1  0.9988873E-007  0.1255230E+04  0.7818608E-02  0.9065842E-01
         -2   -1    0    0    0  501 -0.00000000000E+00  0.00000000000E+00  0.33861309020E+03  0.33861309020E+03  0.00000000000E+00 0.  1.
          2   -1    0    0  501    0  0.00000000000E+00 -0.00000000000E+00 -0.11632763642E+04  0.11632763642E+04  0.00000000000E+00 0. -1.
         23    2    1    2    0    0 -0.36730787345E+03 -0.46283597497E+03 -0.65551332008E+03  0.88728070039E+03  0.91853768835E+02 0.  0.
         11    1    3    3    0    0 -0.16461189633E+03 -0.27135168508E+03 -0.31494595325E+03  0.44712388314E+03  0.00000000000E+00 0.  1.
        -11    1    3    3    0    0 -0.20269597712E+03 -0.19148428989E+03 -0.34056736683E+03  0.44015681725E+03  0.00000000000E+00 0. -1.
         22    1    1    2    0    0  0.36730787345E+03  0.46283597497E+03 -0.16914995394E+03  0.61460875404E+03  0.00000000000E+00 0. -1.
<mgrwt>
<rscale>  0 0.12552300E+04</rscale>
<asrwt>0</asrwt>
<pdfrwt beam="1">  1        2 0.17896559E+00 0.12552300E+04</pdfrwt>
<pdfrwt beam="2">  1       -2 0.52094321E-01 0.12552300E+04</pdfrwt>
<totfact> 0.68149911E+01</totfact>
</mgrwt>
</event>
<event>
 6    1  0.9988873E-007  0.1997993E+04  0.7818608E-02  0.8607560E-01
         -2   -1    0    0    0  501 -0.00000000000E+00  0.00000000000E+00  0.53111937012E+03  0.53111937012E+03  0.00000000000E+00 0.  1.
          2   -1    0    0  501    0  0.00000000000E+00 -0.00000000000E+00 -0.18790382158E+04  0.18790382158E+04  0.00000000000E+00 0. -1.
         23    2    1    2    0    0 -0.18417083138E+03 -0.35631335261E+03  0.42609771772E+03  0.59136324141E+03  0.85282576567E+02 0.  0.
         13    1    3    3    0    0 -0.48924940219E+02 -0.16644340064E+03  0.14438835665E+03  0.22571010816E+03  0.00000000000E+00 0.  1.
        -13    1    3    3    0    0 -0.13524589116E+03 -0.18986995197E+03  0.28170936107E+03  0.36565313325E+03  0.00000000000E+00 0. -1.
         22    1    1    2    0    0  0.18417083138E+03  0.35631335261E+03 -0.17740165634E+04  0.18187943445E+04  0.00000000000E+00 0. -1.
<mgrwt>
<rscale>  0 0.19979926E+04</rscale>
<asrwt>0</asrwt>
<pdfrwt beam="1">  1        2 0.28908280E+00 0.19979926E+04</pdfrwt>
<pdfrwt beam="2">  1       -2 0.81710674E-01 0.19979926E+04</pdfrwt>
<totfact> 0.95504673E+00</totfact>
</mgrwt>
</event>
<event>
 6    1  0.9988873E-007  0.1173905E+04  0.7818608E-02  0.9136009E-01
          2   -1    0    0  501    0  0.00000000000E+00  0.00000000000E+00  0.12723692148E+04  0.12723692148E+04  0.00000000000E+00 0. -1.
         -2   -1    0    0    0  501 -0.00000000000E+00 -0.00000000000E+00 -0.27076520662E+03  0.27076520662E+03  0.00000000000E+00 0.  1.
         23    2    1    2    0    0 -0.29146580748E+03 -0.15161186099E+03  0.11374322615E+04  0.11876238200E+04  0.93593348844E+02 0.  0.
         13    1    3    3    0    0 -0.14373497558E+03 -0.12578038327E+03  0.60080909513E+03  0.63043795635E+03  0.00000000000E+00 0.  1.
        -13    1    3    3    0    0 -0.14773083190E+03 -0.25831477724E+02  0.53662316637E+03  0.55718586362E+03  0.00000000000E+00 0. -1.
         22    1    1    2    0    0  0.29146580748E+03  0.15161186099E+03 -0.13582825334E+03  0.35551060143E+03  0.00000000000E+00 0.  1.
<mgrwt>
<rscale>  0 0.11739051E+04</rscale>
<asrwt>0</asrwt>
<pdfrwt beam="1">  1        2 0.19574911E+00 0.11739051E+04</pdfrwt>
<pdfrwt beam="2">  1       -2 0.41656186E-01 0.11739051E+04</pdfrwt>
<totfact> 0.92551495E+01</totfact>
</mgrwt>
</event>
<event>
 6    1  0.9988873E-007  0.1531746E+04  0.7818608E-02  0.8863612E-01
         -2   -1    0    0    0  501 -0.00000000000E+00  0.00000000000E+00  0.85909390444E+03  0.85909390444E+03  0.00000000000E+00 0.  1.
          2   -1    0    0  501    0  0.00000000000E+00 -0.00000000000E+00 -0.68276779904E+03  0.68276779904E+03  0.00000000000E+00 0. -1.
         23    2    1    2    0    0  0.36883020278E+02 -0.47308069357E+03  0.69002825785E+03  0.84253659937E+03  0.92537694120E+02 0.  0.
         11    1    3    3    0    0 -0.25456860756E+02 -0.56909586856E+02  0.79443626589E+02  0.10098535855E+03  0.00000000000E+00 0. -1.
        -11    1    3    3    0    0  0.62339881034E+02 -0.41617110671E+03  0.61058463126E+03  0.74155124082E+03  0.00000000000E+00 0.  1.
         22    1    1    2    0    0 -0.36883020278E+02  0.47308069357E+03 -0.51370215246E+03  0.69932510412E+03  0.00000000000E+00 0. -1.
<mgrwt>
<rscale>  0 0.15317463E+04</rscale>
<asrwt>0</asrwt>
<pdfrwt beam="1">  1        2 0.10504120E+00 0.15317463E+04</pdfrwt>
<pdfrwt beam="2">  1       -2 0.13216829E+00 0.15317463E+04</pdfrwt>
<totfact> 0.16966901E+01</totfact>
</mgrwt>
</event>
<event>
 6    1  0.9988873E-007  0.3458258E+04  0.7818608E-02  0.8123754E-01
          3   -1    0    0  501    0  0.00000000000E+00  0.00000000000E+00  0.20150643835E+04  0.20150643835E+04  0.00000000000E+00 0. -1.
         -3   -1    0    0    0  501 -0.00000000000E+00 -0.00000000000E+00 -0.14837679306E+04  0.14837679306E+04  0.00000000000E+00 0.  1.
         23    2    1    2    0    0 -0.10243617702E+04 -0.13740002758E+04  0.42918704403E+02  0.17167810748E+04  0.91112289675E+02 0.  0.
         13    1    3    3    0    0 -0.43685309928E+03 -0.60088545713E+03  0.62886770576E+02  0.74555932618E+03  0.00000000000E+00 0. -1.
        -13    1    3    3    0    0 -0.58750867091E+03 -0.77311481871E+03 -0.19968066172E+02  0.97122174861E+03  0.00000000000E+00 0.  1.
         22    1    1    2    0    0  0.10243617702E+04  0.13740002758E+04  0.48837774853E+03  0.17820512393E+04  0.00000000000E+00 0. -1.
<mgrwt>
<rscale>  0 0.34582585E+04</rscale>
<asrwt>0</asrwt>
<pdfrwt beam="1">  1        3 0.31000990E+00 0.34582585E+04</pdfrwt>
<pdfrwt beam="2">  1       -3 0.22827199E+00 0.34582585E+04</pdfrwt>
<totfact> 0.71258644E-03</totfact>
</mgrwt>
</event>
<event>
 6    1  0.9988873E-007  0.1206402E+04  0.7818608E-02  0.9107271E-01
         -1   -1    0    0    0  501 -0.00000000000E+00  0.00000000000E+00  0.83940303720E+03  0.83940303720E+03  0.00000000000E+00 0.  1.
          1   -1    0    0  501    0  0.00000000000E+00 -0.00000000000E+00 -0.43346449518E+03  0.43346449518E+03  0.00000000000E+00 0. -1.
         23    2    1    2    0    0  0.34368427096E+02  0.11579001113E+03  0.82409308542E+03  0.83761847997E+03  0.88807595916E+02 0.  0.
         13    1    3    3    0    0  0.47958706206E+02  0.27236195868E+02  0.42682450069E+03  0.43037309657E+03  0.00000000000E+00 0. -1.
        -13    1    3    3    0    0 -0.13590279110E+02  0.88553815258E+02  0.39726858473E+03  0.40724538340E+03  0.00000000000E+00 0.  1.
         22    1    1    2    0    0 -0.34368427096E+02 -0.11579001113E+03 -0.41815454340E+03  0.43524905241E+03  0.00000000000E+00 0. -1.
<mgrwt>
<rscale>  0 0.12064019E+04</rscale>
<asrwt>0</asrwt>
<pdfrwt beam="1">  1        1 0.66686846E-01 0.12064019E+04</pdfrwt>
<pdfrwt beam="2">  1       -1 0.12913893E+00 0.12064019E+04</pdfrwt>
<totfact> 0.27489629E+01</totfact>
</mgrwt>
</event>
<event>
 6    1  0.9988873E-007  0.1492016E+04  0.7818608E-02  0.8889780E-01
          1   -1    0    0  501    0  0.00000000000E+00  0.00000000000E+00  0.51867888283E+03  0.51867888283E+03  0.00000000000E+00 0. -1.
         -1   -1    0    0    0  501 -0.00000000000E+00 -0.00000000000E+00 -0.10729718482E+04  0.10729718482E+04  0.00000000000E+00 0.  1.
         23    2    1    2    0    0  0.64512825754E+03  0.22172481489E+03 -0.59281148646E+03  0.90839672359E+03  0.91688531187E+02 0.  0.
         13    1    3    3    0    0  0.72267970558E+02  0.55095841682E+02 -0.93962148787E+02  0.13071762216E+03  0.00000000000E+00 0.  1.
        -13    1    3    3    0    0  0.57286028698E+03  0.16662897321E+03 -0.49884933767E+03  0.77767910143E+03  0.00000000000E+00 0. -1.
         22    1    1    2    0    0 -0.64512825754E+03 -0.22172481489E+03  0.38518521087E+02  0.68325400744E+03  0.00000000000E+00 0. -1.
<mgrwt>
<rscale>  0 0.14920159E+04</rscale>
<asrwt>0</asrwt>
<pdfrwt beam="1">  1        1 0.79796751E-01 0.14920159E+04</pdfrwt>
<pdfrwt beam="2">  1       -1 0.16507259E+00 0.14920159E+04</pdfrwt>
<totfact> 0.10912045E+01</totfact>
</mgrwt>
</event>
<event>
 6    1  0.9988873E-007  0.5185377E+04  0.7818608E-02  0.7800530E-01
          1   -1    0    0  501    0  0.00000000000E+00  0.00000000000E+00  0.32662252317E+04  0.32662252317E+04  0.00000000000E+00 0. -1.
         -1   -1    0    0    0  501 -0.00000000000E+00 -0.00000000000E+00 -0.20580435847E+04  0.20580435847E+04  0.00000000000E+00 0.  1.
         23    2    1    2    0    0 -0.10447533583E+04 -0.19154194324E+04  0.20408624583E+04  0.29889533097E+04  0.91548523907E+02 0.  0.
         11    1    3    3    0    0 -0.27363446383E+03 -0.57079669691E+03  0.62639472998E+03  0.89053638148E+03  0.00000000000E+00 0. -1.
        -11    1    3    3    0    0 -0.77111889450E+03 -0.13446227355E+04  0.14144677283E+04  0.20984169283E+04  0.00000000000E+00 0.  1.
         22    1    1    2    0    0  0.10447533583E+04  0.19154194324E+04 -0.83268081131E+03  0.23353155066E+04  0.00000000000E+00 0.  1.
<mgrwt>
<rscale>  0 0.51853771E+04</rscale>
<asrwt>0</asrwt>
<pdfrwt beam="1">  1        1 0.50249619E+00 0.51853771E+04</pdfrwt>
<pdfrwt beam="2">  1       -1 0.31662209E+00 0.51853771E+04</pdfrwt>
<totfact> 0.69377765E-03</totfact>
</mgrwt>
</event>
<event>
 6    1  0.9988873E-007  0.9173263E+03  0.7818608E-02  0.9404178E-01
          2   -1    0    0  501    0  0.00000000000E+00  0.00000000000E+00  0.28781426859E+03  0.28781426859E+03  0.00000000000E+00 0. -1.
         -2   -1    0    0    0  501 -0.00000000000E+00 -0.00000000000E+00 -0.73092924805E+03  0.73092924805E+03  0.00000000000E+00 0.  1.
         23    2    1    2    0    0 -0.36835744434E+03 -0.42398139032E+02  0.67236208367E+02  0.38791616790E+03  0.92051271625E+02 0.  0.
         13    1    3    3    0    0 -0.15565589082E+03  0.17913428275E+02  0.56533375414E+02  0.16657031487E+03  0.00000000000E+00 0. -1.
        -13    1    3    3    0    0 -0.21270155352E+03 -0.60311567307E+02  0.10702832952E+02  0.22134585303E+03  0.00000000000E+00 0.  1.
         22    1    1    2    0    0  0.36835744434E+03  0.42398139032E+02 -0.51035118783E+03  0.63082734874E+03  0.00000000000E+00 0.  1.
<mgrwt>
<rscale>  0 0.91732626E+03</rscale>
<asrwt>0</asrwt>
<pdfrwt beam="1">  1        2 0.44279119E-01 0.91732626E+03</pdfrwt>
<pdfrwt beam="2">  1       -2 0.11245065E+00 0.91732626E+03</pdfrwt>
<totfact> 0.71774309E+01</totfact>
</mgrwt>
</event>
<event>
 6    1  0.9988873E-007  0.5603428E+04  0.7818608E-02  0.7741616E-01
         -1   -1    0    0    0  501 -0.00000000000E+00  0.00000000000E+00  0.50400497568E+04  0.50400497568E+04  0.00000000000E+00 0.  1.
          1   -1    0    0  501    0  0.00000000000E+00 -0.00000000000E+00 -0.15574451397E+04  0.15574451397E+04  0.00000000000E+00 0. -1.
         23    2    1    2    0    0  0.10948068340E+04 -0.12385573308E+04  0.44039412915E+04  0.47050130517E+04  0.99109297852E+02 0.  0.
         11    1    3    3    0    0  0.94418993079E+03 -0.11153686832E+04  0.38691010473E+04  0.41358777592E+04  0.00000000000E+00 0.  1.
        -11    1    3    3    0    0  0.15061690318E+03 -0.12318864758E+03  0.53484024416E+03  0.56913529252E+03  0.00000000000E+00 0. -1.
         22    1    1    2    0    0 -0.10948068340E+04  0.12385573308E+04 -0.92133667438E+03  0.18924818448E+04  0.00000000000E+00 0. -1.
<mgrwt>
<rscale>  0 0.56034279E+04</rscale>
<asrwt>0</asrwt>
<pdfrwt beam="1">  1        1 0.23960695E+00 0.56034279E+04</pdfrwt>
<pdfrwt beam="2">  1       -1 0.77539226E+00 0.56034279E+04</pdfrwt>
<totfact> 0.39825173E-04</totfact>
</mgrwt>
</event>
<event>
 6    1  0.9988873E-007  0.1705177E+04  0.7818608E-02  0.8758417E-01
         -2   -1    0    0    0  501 -0.00000000000E+00  0.00000000000E+00  0.37281764846E+03  0.37281764846E+03  0.00000000000E+00 0.  1.
          2   -1    0    0  501    0  0.00000000000E+00 -0.00000000000E+00 -0.19497656708E+04  0.19497656708E+04  0.00000000000E+00 0. -1.
         23    2    1    2    0    0 -0.35762457518E+03  0.71842971499E+03 -0.40832127093E+03  0.90493559283E+03  0.90252837764E+02 0.  0.
         13    1    3    3    0    0 -0.14419340982E+03  0.28209185437E+03 -0.21102245536E+03  0.38065473910E+03  0.00000000000E+00 0. -1.
        -13    1    3    3    0    0 -0.21343116537E+03  0.43633786062E+03 -0.19729881557E+03  0.52428085373E+03  0.00000000000E+00 0.  1.
         22    1    1    2    0    0  0.35762457518E+03 -0.71842971499E+03 -0.11686267514E+04  0.14176477264E+04  0.00000000000E+00 0. -1.
<mgrwt>
<rscale>  0 0.17051769E+04</rscale>
<asrwt>0</asrwt>
<pdfrwt beam="1">  1        2 0.29996395E+00 0.17051769E+04</pdfrwt>
<pdfrwt beam="2">  1       -2 0.57356560E-01 0.17051769E+04</pdfrwt>
<totfact> 0.19301678E+01</totfact>
</mgrwt>
</event>
<event>
 6    1  0.9988873E-007  0.1359048E+04  0.7818608E-02  0.8984007E-01
         -1   -1    0    0    0  501 -0.00000000000E+00  0.00000000000E+00  0.78211291936E+03  0.78211291936E+03  0.00000000000E+00 0.  1.
          1   -1    0    0  501    0  0.00000000000E+00 -0.00000000000E+00 -0.59039195306E+03  0.59039195306E+03  0.00000000000E+00 0. -1.
         23    2    1    2    0    0  0.18416281277E+03  0.64406248791E+03  0.21017392210E+01  0.67630958285E+03  0.93047324599E+02 0.  0.
         11    1    3    3    0    0  0.30370908455E+02  0.68069824995E+02 -0.27387175582E+02  0.79410015373E+02  0.00000000000E+00 0. -1.
        -11    1    3    3    0    0  0.15379190432E+03  0.57599266291E+03  0.29488914803E+02  0.59689956748E+03  0.00000000000E+00 0.  1.
         22    1    1    2    0    0 -0.18416281277E+03 -0.64406248791E+03  0.18961922708E+03  0.69619528957E+03  0.00000000000E+00 0.  1.
<mgrwt>
<rscale>  0 0.13590485E+04</rscale>
<asrwt>0</asrwt>
<pdfrwt beam="1">  1        1 0.90829531E-01 0.13590485E+04</pdfrwt>
<pdfrwt beam="2">  1       -1 0.12032506E+00 0.13590485E+04</pdfrwt>
<totfact> 0.21096045E+01</totfact>
</mgrwt>
</event>
<event>
 6    1  0.9988873E-007  0.2461461E+04  0.7818608E-02  0.8416845E-01
          2   -1    0    0  501    0  0.00000000000E+00  0.00000000000E+00  0.24858642785E+04  0.24858642785E+04  0.00000000000E+00 0. -1.
         -2   -1    0    0    0  501 -0.00000000000E+00 -0.00000000000E+00 -0.60932410911E+03  0.60932410911E+03  0.00000000000E+00 0.  1.
         23    2    1    2    0    0  0.92964110453E+03 -0.70113330848E+03  0.44463778129E+03  0.12496085469E+04  0.89433015968E+02 0.  0.
         11    1    3    3    0    0  0.72722902237E+03 -0.58333920413E+03  0.33094948163E+03  0.98927965583E+03  0.00000000000E+00 0.  1.
        -11    1    3    3    0    0  0.20241208216E+03 -0.11779410435E+03  0.11368829967E+03  0.26032889103E+03  0.00000000000E+00 0. -1.
         22    1    1    2    0    0 -0.92964110453E+03  0.70113330848E+03  0.14319023881E+04  0.18455798407E+04  0.00000000000E+00 0. -1.
<mgrwt>
<rscale>  0 0.24614606E+04</rscale>
<asrwt>0</asrwt>
<pdfrwt beam="1">  1        2 0.38244065E+00 0.24614606E+04</pdfrwt>
<pdfrwt beam="2">  1       -2 0.93742172E-01 0.24614606E+04</pdfrwt>
<totfact> 0.30511648E+00</totfact>
</mgrwt>
</event>
<event>
 6    1  0.9988873E-007  0.2041488E+04  0.7818608E-02  0.8587466E-01
         -1   -1    0    0    0  501 -0.00000000000E+00  0.00000000000E+00  0.21402704311E+04  0.21402704311E+04  0.00000000000E+00 0.  1.
          1   -1    0    0  501    0  0.00000000000E+00 -0.00000000000E+00 -0.48681617260E+03  0.48681617260E+03  0.00000000000E+00 0. -1.
         23    2    1    2    0    0  0.18542801499E+03 -0.35208159829E+03  0.20351367363E+04  0.20757006096E+04  0.91686882875E+02 0.  0.
         13    1    3    3    0    0  0.41906995947E+02 -0.17688813868E+03  0.92817501351E+03  0.94580889487E+03  0.00000000000E+00 0.  1.
        -13    1    3    3    0    0  0.14352101904E+03 -0.17519345961E+03  0.11069617228E+04  0.11298917147E+04  0.00000000000E+00 0. -1.
         22    1    1    2    0    0 -0.18542801499E+03  0.35208159829E+03 -0.38168247784E+03  0.55138599409E+03  0.00000000000E+00 0. -1.
<mgrwt>
<rscale>  0 0.20414879E+04</rscale>
<asrwt>0</asrwt>
<pdfrwt beam="1">  1        1 0.74894797E-01 0.20414879E+04</pdfrwt>
<pdfrwt beam="2">  1       -1 0.32927237E+00 0.20414879E+04</pdfrwt>
<totfact> 0.90573455E-01</totfact>
</mgrwt>
</event>
<event>
 6    1  0.9988873E-007  0.3480511E+04  0.7818608E-02  0.8118424E-01
          2   -1    0    0  501    0  0.00000000000E+00  0.00000000000E+00  0.27586710408E+04  0.27586710408E+04  0.00000000000E+00 0. -1.
         -2   -1    0    0    0  501 -0.00000000000E+00 -0.00000000000E+00 -0.10978072669E+04  0.10978072669E+04  0.00000000000E+00 0.  1.
         23    2    1    2    0    0  0.73166361081E+03 -0.20026660017E+02 -0.91711593221E+03  0.11766066556E+04  0.86999324495E+02 0.  0.
         13    1    3    3    0    0  0.37232563663E+03 -0.47879514871E+02 -0.43317544464E+03  0.57320135509E+03  0.00000000000E+00 0. -1.
        -13    1    3    3    0    0  0.35933797418E+03  0.27852854855E+02 -0.48394048756E+03  0.60340530053E+03  0.00000000000E+00 0.  1.
         22    1    1    2    0    0 -0.73166361081E+03  0.20026660017E+02  0.25779797061E+04  0.26798716521E+04  0.00000000000E+00 0. -1.
<mgrwt>
<rscale>  0 0.34805109E+04</rscale>
<asrwt>0</asrwt>
<pdfrwt beam="1">  1        2 0.42441093E+00 0.34805109E+04</pdfrwt>
<pdfrwt beam="2">  1       -2 0.16889343E+00 0.34805109E+04</pdfrwt>
<totfact> 0.43732390E-01</totfact>
</mgrwt>
</event>
<event>
 6    1  0.9988873E-007  0.9721127E+03  0.7818608E-02  0.9339671E-01
         -2   -1    0    0    0  501 -0.00000000000E+00  0.00000000000E+00  0.40885306236E+03  0.40885306236E+03  0.00000000000E+00 0.  1.
          2   -1    0    0  501    0  0.00000000000E+00 -0.00000000000E+00 -0.57783780114E+03  0.57783780114E+03  0.00000000000E+00 0. -1.
         23    2    1    2    0    0  0.14498223523E+01 -0.14851949212E+03 -0.54993766136E+03  0.57780790867E+03  0.96800859578E+02 0.  0.
         13    1    3    3    0    0 -0.94237221535E+00 -0.60333881327E+02 -0.83036071157E+02  0.10264528442E+03  0.00000000000E+00 0.  1.
        -13    1    3    3    0    0  0.23921945677E+01 -0.88185610793E+02 -0.46690159020E+03  0.47516262425E+03  0.00000000000E+00 0. -1.
         22    1    1    2    0    0 -0.14498223523E+01  0.14851949212E+03  0.38095292258E+03  0.40888295483E+03  0.00000000000E+00 0.  1.
<mgrwt>
<rscale>  0 0.97211266E+03</rscale>
<asrwt>0</asrwt>
<pdfrwt beam="1">  1        2 0.88898123E-01 0.97211266E+03</pdfrwt>
<pdfrwt beam="2">  1       -2 0.62900471E-01 0.97211266E+03</pdfrwt>
<totfact> 0.12163674E+02</totfact>
</mgrwt>
</event>
<event>
 6    1  0.9988873E-007  0.4390456E+04  0.7818608E-02  0.7930100E-01
         -1   -1    0    0    0  501 -0.00000000000E+00  0.00000000000E+00  0.33061189460E+04  0.33061189460E+04  0.00000000000E+00 0.  1.
          1   -1    0    0  501    0  0.00000000000E+00 -0.00000000000E+00 -0.14576079996E+04  0.14576079996E+04  0.00000000000E+00 0. -1.
         23    2    1    2    0    0 -0.12481462014E+04 -0.65097813191E+03 -0.90166477246E+03  0.16742111336E+04  0.91335041371E+02 0.  0.
         13    1    3    3    0    0 -0.80797812256E+03 -0.37753070203E+03 -0.59466532748E+03  0.10719071458E+04  0.00000000000E+00 0.  1.
        -13    1    3    3    0    0 -0.44016807884E+03 -0.27344742989E+03 -0.30699944498E+03  0.60230398784E+03  0.00000000000E+00 0. -1.
         22    1    1    2    0    0  0.12481462014E+04  0.65097813191E+03  0.27501757189E+04  0.30895158120E+04  0.00000000000E+00 0.  1.
<mgrwt>
<rscale>  0 0.43904558E+04</rscale>
<asrwt>0</asrwt>
<pdfrwt beam="1">  1        1 0.22424739E+00 0.43904558E+04</pdfrwt>
<pdfrwt beam="2">  1       -1 0.50863368E+00 0.43904558E+04</pdfrwt>
<totfact> 0.69883770E-03</totfact>
</mgrwt>
</event>
<event>
 6    1  0.9988873E-007  0.8864327E+03  0.7818608E-02  0.9442702E-01
         -2   -1    0    0    0  501 -0.00000000000E+00  0.00000000000E+00  0.16911712360E+03  0.16911712360E+03  0.00000000000E+00 0.  1.
          2   -1    0    0  501    0  0.00000000000E+00 -0.00000000000E+00 -0.11615661831E+04  0.11615661831E+04  0.00000000000E+00 0. -1.
         23    2    1    2    0    0  0.15646715390E+02  0.39780291303E+03 -0.77753316492E+03  0.87826666351E+03  0.91118232920E+02 0.  0.
         11    1    3    3    0    0  0.11736916370E+02  0.37718097777E+03 -0.67236049391E+03  0.77102002501E+03  0.00000000000E+00 0. -1.
        -11    1    3    3    0    0  0.39097990195E+01  0.20621935255E+02 -0.10517267101E+03  0.10724663850E+03  0.00000000000E+00 0.  1.
         22    1    1    2    0    0 -0.15646715390E+02 -0.39780291303E+03 -0.21491589462E+03  0.45241664323E+03  0.00000000000E+00 0.  1.
<mgrwt>
<rscale>  0 0.88643270E+03</rscale>
<asrwt>0</asrwt>
<pdfrwt beam="1">  1        2 0.17870249E+00 0.88643270E+03</pdfrwt>
<pdfrwt beam="2">  1       -2 0.26018019E-01 0.88643270E+03</pdfrwt>
<totfact> 0.26690334E+02</totfact>
</mgrwt>
</event>
<event>
 6    1  0.9988873E-007  0.1821806E+04  0.7818608E-02  0.8694789E-01
          2   -1    0    0  501    0  0.00000000000E+00  0.00000000000E+00  0.93455105194E+03  0.93455105194E+03  0.00000000000E+00 0. -1.
         -2   -1    0    0    0  501 -0.00000000000E+00 -0.00000000000E+00 -0.88785330080E+03  0.88785330080E+03  0.00000000000E+00 0.  1.
         23    2    1    2    0    0 -0.53058971008E+03  0.71609276797E+02 -0.71104444203E+03  0.89459695878E+03  0.89811976613E+02 0.  0.
         13    1    3    3    0    0 -0.41264333936E+03  0.64219860790E+02 -0.48894022987E+03  0.64300953681E+03  0.00000000000E+00 0.  1.
        -13    1    3    3    0    0 -0.11794637073E+03  0.73894160072E+01 -0.22210421215E+03  0.25158742197E+03  0.00000000000E+00 0. -1.
         22    1    1    2    0    0  0.53058971008E+03 -0.71609276797E+02  0.75774219317E+03  0.92780739396E+03  0.00000000000E+00 0. -1.
<mgrwt>
<rscale>  0 0.18218060E+04</rscale>
<asrwt>0</asrwt>
<pdfrwt beam="1">  1        2 0.14377709E+00 0.18218060E+04</pdfrwt>
<pdfrwt beam="2">  1       -2 0.13659282E+00 0.18218060E+04</pdfrwt>
<totfact> 0.10027973E+01</totfact>
</mgrwt>
</event>
<event>
 6    1  0.9988873E-007  0.1940647E+04  0.7818608E-02  0.8634884E-01
          2   -1    0    0  501    0  0.00000000000E+00  0.00000000000E+00  0.15241867190E+04  0.15241867190E+04  0.00000000000E+00 0. -1.
         -2   -1    0    0    0  501 -0.00000000000E+00 -0.00000000000E+00 -0.61772443299E+03  0.61772443299E+03  0.00000000000E+00 0.  1.
         23    2    1    2    0    0 -0.29520071421E+03 -0.11120599906E+03 -0.55599845422E+03  0.64581568290E+03  0.91833432270E+02 0.  0.
         11    1    3    3    0    0 -0.52286753941E+02  0.14887787407E+02 -0.10584264787E+03  0.11898830598E+03  0.00000000000E+00 0. -1.
        -11    1    3    3    0    0 -0.24291396027E+03 -0.12609378647E+03 -0.45015580635E+03  0.52682737692E+03  0.00000000000E+00 0.  1.
         22    1    1    2    0    0  0.29520071421E+03  0.11120599906E+03  0.14624607403E+04  0.14960954691E+04  0.00000000000E+00 0. -1.
<mgrwt>
<rscale>  0 0.19406467E+04</rscale>
<asrwt>0</asrwt>
<pdfrwt beam="1">  1        2 0.23449026E+00 0.19406467E+04</pdfrwt>
<pdfrwt beam="2">  1       -2 0.95034529E-01 0.19406467E+04</pdfrwt>
<totfact> 0.10694081E+01</totfact>
</mgrwt>
</event>
<event>
 6    1  0.9988873E-007  0.2423896E+04  0.7818608E-02  0.8430611E-01
         -1   -1    0    0    0  501 -0.00000000000E+00  0.00000000000E+00  0.68706794631E+03  0.68706794631E+03  0.00000000000E+00 0.  1.
          1   -1    0    0  501    0  0.00000000000E+00 -0.00000000000E+00 -0.21378051157E+04  0.21378051157E+04  0.00000000000E+00 0. -1.
         23    2    1    2    0    0  0.13450066725E+03  0.12009133343E+04 -0.65042351151E+03  0.13754644871E+04  0.92566434134E+02 0.  0.
         11    1    3    3    0    0  0.10921388773E+03  0.59309065990E+03 -0.34453258755E+03  0.69454078931E+03  0.00000000000E+00 0.  1.
        -11    1    3    3    0    0  0.25286779516E+02  0.60782267444E+03 -0.30589092396E+03  0.68092369774E+03  0.00000000000E+00 0. -1.
         22    1    1    2    0    0 -0.13450066725E+03 -0.12009133343E+04 -0.80031365784E+03  0.14494085749E+04  0.00000000000E+00 0. -1.
<mgrwt>
<rscale>  0 0.24238955E+04</rscale>
<asrwt>0</asrwt>
<pdfrwt beam="1">  1        1 0.32889310E+00 0.24238955E+04</pdfrwt>
<pdfrwt beam="2">  1       -1 0.10570276E+00 0.24238955E+04</pdfrwt>
<totfact> 0.17999746E+00</totfact>
</mgrwt>
</event>
<event>
 6    1  0.9988873E-007  0.2387398E+04  0.7818608E-02  0.8444237E-01
         -2   -1    0    0    0  501 -0.00000000000E+00  0.00000000000E+00  0.91615383128E+03  0.91615383128E+03  0.00000000000E+00 0.  1.
          2   -1    0    0  501    0  0.00000000000E+00 -0.00000000000E+00 -0.15553257690E+04  0.15553257690E+04  0.00000000000E+00 0. -1.
         23    2    1    2    0    0  0.86277852653E+03 -0.60195043952E+03 -0.90035125252E+03  0.13875304539E+04  0.88753958928E+02 0.  0.
         13    1    3    3    0    0  0.40796968254E+03 -0.23177270172E+03 -0.38958410262E+03  0.60986360783E+03  0.00000000000E+00 0. -1.
        -13    1    3    3    0    0  0.45480884398E+03 -0.37017773781E+03 -0.51076714989E+03  0.77766684611E+03  0.00000000000E+00 0.  1.
         22    1    1    2    0    0 -0.86277852653E+03  0.60195043952E+03  0.26117931476E+03  0.10839491464E+04  0.00000000000E+00 0.  1.
<mgrwt>
<rscale>  0 0.23873983E+04</rscale>
<asrwt>0</asrwt>
<pdfrwt beam="1">  1        2 0.23928089E+00 0.23873983E+04</pdfrwt>
<pdfrwt beam="2">  1       -2 0.14094674E+00 0.23873983E+04</pdfrwt>
<totfact> 0.37538157E+00</totfact>
</mgrwt>
</event>
<event>
 6    1  0.9988873E-007  0.3644352E+04  0.7818608E-02  0.8080407E-01
         -2   -1    0    0    0  501 -0.00000000000E+00  0.00000000000E+00  0.94463333798E+03  0.94463333798E+03  0.00000000000E+00 0.  1.
          2   -1    0    0  501    0  0.00000000000E+00 -0.00000000000E+00 -0.35149348613E+04  0.35149348613E+04  0.00000000000E+00 0. -1.
         23    2    1    2    0    0  0.17703084236E+04  0.42322440113E+03 -0.12137277706E+04  0.21894573750E+04  0.86473621613E+02 0.  0.
         11    1    3    3    0    0  0.82225962832E+03  0.15519143187E+03 -0.53894525378E+03  0.99531766962E+03  0.00000000000E+00 0.  1.
        -11    1    3    3    0    0  0.94804879526E+03  0.26803296926E+03 -0.67478251685E+03  0.11941397053E+04  0.00000000000E+00 0. -1.
         22    1    1    2    0    0 -0.17703084236E+04 -0.42322440113E+03 -0.13565737527E+04  0.22701108244E+04  0.00000000000E+00 0. -1.
<mgrwt>
<rscale>  0 0.36443516E+04</rscale>
<asrwt>0</asrwt>
<pdfrwt beam="1">  1        2 0.54075921E+00 0.36443516E+04</pdfrwt>
<pdfrwt beam="2">  1       -2 0.14532821E+00 0.36443516E+04</pdfrwt>
<totfact> 0.20955869E-01</totfact>
</mgrwt>
</event>
<event>
 6    1  0.9988873E-007  0.3344235E+04  0.7818608E-02  0.8151730E-01
          2   -1    0    0  501    0  0.00000000000E+00  0.00000000000E+00  0.14979419952E+04  0.14979419952E+04  0.00000000000E+00 0. -1.
         -2   -1    0    0    0  501 -0.00000000000E+00 -0.00000000000E+00 -0.18665450343E+04  0.18665450343E+04  0.00000000000E+00 0.  1.
         23    2    1    2    0    0 -0.12338306190E+04  0.94518775294E+03  0.43258573660E+03  0.16158814882E+04  0.90690020082E+02 0.  0.
         13    1    3    3    0    0 -0.73687780160E+03  0.61827691235E+03  0.27858177700E+03  0.10014304975E+04  0.00000000000E+00 0. -1.
        -13    1    3    3    0    0 -0.49695281745E+03  0.32691084059E+03  0.15400395961E+03  0.61445099076E+03  0.00000000000E+00 0.  1.
         22    1    1    2    0    0  0.12338306190E+04 -0.94518775294E+03 -0.80118877568E+03  0.17486055413E+04  0.00000000000E+00 0.  1.
<mgrwt>
<rscale>  0 0.33442346E+04</rscale>
<asrwt>0</asrwt>
<pdfrwt beam="1">  1        2 0.23045262E+00 0.33442346E+04</pdfrwt>
<pdfrwt beam="2">  1       -2 0.28716077E+00 0.33442346E+04</pdfrwt>
<totfact> 0.40333486E-01</totfact>
</mgrwt>
</event>
<event>
 6    1  0.9988873E-007  0.2353434E+04  0.7818608E-02  0.8457146E-01
         -1   -1    0    0    0  501 -0.00000000000E+00  0.00000000000E+00  0.47568240084E+03  0.47568240084E+03  0.00000000000E+00 0.  1.
          1   -1    0    0  501    0  0.00000000000E+00 -0.00000000000E+00 -0.29108969932E+04  0.29108969932E+04  0.00000000000E+00 0. -1.
         23    2    1    2    0    0 -0.24759034432E+02  0.60515792003E+03 -0.26682441623E+04  0.27376326332E+04  0.90974760767E+02 0.  0.
         13    1    3    3    0    0 -0.37541241484E+02  0.30345371141E+03 -0.15118672893E+04  0.15424772933E+04  0.00000000000E+00 0.  1.
        -13    1    3    3    0    0  0.12782207051E+02  0.30170420862E+03 -0.11563768729E+04  0.11951553399E+04  0.00000000000E+00 0. -1.
         22    1    1    2    0    0  0.24759034432E+02 -0.60515792003E+03  0.23302956988E+03  0.64894676084E+03  0.00000000000E+00 0.  1.
<mgrwt>
<rscale>  0 0.23534336E+04</rscale>
<asrwt>0</asrwt>
<pdfrwt beam="1">  1        1 0.44783031E+00 0.23534336E+04</pdfrwt>
<pdfrwt beam="2">  1       -1 0.73181907E-01 0.23534336E+04</pdfrwt>
<totfact> 0.11750356E+00</totfact>
</mgrwt>
</event>
<event>
 6    1  0.9988873E-007  0.2718478E+04  0.7818608E-02  0.8329034E-01
         -2   -1    0    0    0  501 -0.00000000000E+00  0.00000000000E+00  0.77890307808E+03  0.77890307808E+03  0.00000000000E+00 0.  1.
          2   -1    0    0  501    0  0.00000000000E+00 -0.00000000000E+00 -0.23719648111E+04  0.23719648111E+04  0.00000000000E+00 0. -1.
         23    2    1    2    0    0  0.46759594743E+03  0.22295322901E+03  0.65715710073E+03  0.84179038676E+03  0.91659630285E+02 0.  0.
         13    1    3    3    0    0  0.33457722105E+03  0.12370114462E+03  0.40244630995E+03  0.53777962254E+03  0.00000000000E+00 0. -1.
        -13    1    3    3    0    0  0.13301872639E+03  0.99252084390E+02  0.25471079078E+03  0.30401076422E+03  0.00000000000E+00 0.  1.
         22    1    1    2    0    0 -0.46759594743E+03 -0.22295322901E+03 -0.22502188337E+04  0.23090775024E+04  0.00000000000E+00 0. -1.
<mgrwt>
<rscale>  0 0.27184780E+04</rscale>
<asrwt>0</asrwt>
<pdfrwt beam="1">  1        2 0.36491767E+00 0.27184780E+04</pdfrwt>
<pdfrwt beam="2">  1       -2 0.11983124E+00 0.27184780E+04</pdfrwt>
<totfact> 0.19252154E+00</totfact>
</mgrwt>
</event>
<event>
 6    1  0.9988873E-007  0.2584224E+04  0.7818608E-02  0.8373580E-01
          2   -1    0    0  501    0  0.00000000000E+00  0.00000000000E+00  0.22524271027E+04  0.22524271027E+04  0.00000000000E+00 0. -1.
         -2   -1    0    0    0  501 -0.00000000000E+00 -0.00000000000E+00 -0.74122397951E+03  0.74122397951E+03  0.00000000000E+00 0.  1.
         23    2    1    2    0    0  0.12747306961E+04  0.11284518465E+03  0.94910298633E+03  0.15959283103E+04  0.92294688880E+02 0.  0.
         13    1    3    3    0    0  0.10447888562E+04  0.81811578632E+02  0.73336647412E+03  0.12791025267E+04  0.00000000000E+00 0. -1.
        -13    1    3    3    0    0  0.22994183991E+03  0.31033606020E+02  0.21573651222E+03  0.31682578359E+03  0.00000000000E+00 0.  1.
         22    1    1    2    0    0 -0.12747306961E+04 -0.11284518465E+03  0.56210013687E+03  0.13977227719E+04  0.00000000000E+00 0.  1.
<mgrwt>
<rscale>  0 0.25842237E+04</rscale>
<asrwt>0</asrwt>
<pdfrwt beam="1">  1        2 0.34652724E+00 0.25842237E+04</pdfrwt>
<pdfrwt beam="2">  1       -2 0.11403446E+00 0.25842237E+04</pdfrwt>
<totfact> 0.25713836E+00</totfact>
</mgrwt>
</event>
<event>
 6    1  0.9988873E-007  0.2120372E+04  0.7818608E-02  0.8552322E-01
         -1   -1    0    0    0  501 -0.00000000000E+00  0.00000000000E+00  0.41877832439E+03  0.41877832439E+03  0.00000000000E+00 0.  1.
          1   -1    0    0  501    0  0.00000000000E+00 -0.00000000000E+00 -0.26839846807E+04  0.26839846807E+04  0.00000000000E+00 0. -1.
         23    2    1    2    0    0 -0.63764525013E+03  0.32195233401E+03  0.80345878001E+01  0.71993502970E+03  0.89426629139E+02 0.  0.
         13    1    3    3    0    0 -0.39276868346E+02  0.94949269296E+01 -0.18357597747E+02  0.44382737855E+02  0.00000000000E+00 0. -1.
        -13    1    3    3    0    0 -0.59836838178E+03  0.31245740708E+03  0.26392185547E+02  0.67555229184E+03  0.00000000000E+00 0.  1.
         22    1    1    2    0    0  0.63764525013E+03 -0.32195233401E+03 -0.22732409441E+04  0.23828279754E+04  0.00000000000E+00 0. -1.
<mgrwt>
<rscale>  0 0.21203722E+04</rscale>
<asrwt>0</asrwt>
<pdfrwt beam="1">  1        1 0.41292072E+00 0.21203722E+04</pdfrwt>
<pdfrwt beam="2">  1       -1 0.64427434E-01 0.21203722E+04</pdfrwt>
<totfact> 0.22601429E+00</totfact>
</mgrwt>
</event>
<event>
 6    1  0.9988873E-007  0.2550855E+04  0.7818608E-02  0.8385089E-01
         -2   -1    0    0    0  501 -0.00000000000E+00  0.00000000000E+00  0.49842628698E+03  0.49842628698E+03  0.00000000000E+00 0.  1.
          2   -1    0    0  501    0  0.00000000000E+00 -0.00000000000E+00 -0.32637031905E+04  0.32637031905E+04  0.00000000000E+00 0. -1.
         23    2    1    2    0    0 -0.87587298924E+03 -0.40245965151E+03 -0.26125682253E+04  0.27861954609E+04  0.90802809124E+02 0.  0.
         11    1    3    3    0    0 -0.61963958941E+03 -0.32901726842E+03 -0.18798666808E+04  0.20065154675E+04  0.00000000000E+00 0. -1.
        -11    1    3    3    0    0 -0.25623339983E+03 -0.73442383082E+02 -0.73270154448E+03  0.77967999340E+03  0.00000000000E+00 0.  1.
         22    1    1    2    0    0  0.87587298924E+03  0.40245965151E+03 -0.15270867826E+03  0.97593401662E+03  0.00000000000E+00 0.  1.
<mgrwt>
<rscale>  0 0.25508551E+04</rscale>
<asrwt>0</asrwt>
<pdfrwt beam="1">  1        2 0.50210819E+00 0.25508551E+04</pdfrwt>
<pdfrwt beam="2">  1       -2 0.76680966E-01 0.25508551E+04</pdfrwt>
<totfact> 0.15902951E+00</totfact>
</mgrwt>
</event>
<event>
 6    1  0.9988873E-007  0.1479303E+04  0.7818608E-02  0.8898334E-01
          1   -1    0    0  501    0  0.00000000000E+00  0.00000000000E+00  0.14858925816E+04  0.14858925816E+04  0.00000000000E+00 0. -1.
         -1   -1    0    0    0  501 -0.00000000000E+00 -0.00000000000E+00 -0.36818575028E+03  0.36818575028E+03  0.00000000000E+00 0.  1.
         23    2    1    2    0    0  0.32514431653E+03 -0.61658686732E+03  0.26166663333E+03  0.75012950512E+03  0.91250511917E+02 0.  0.
         11    1    3    3    0    0  0.77226625913E+02 -0.19958839917E+03  0.44378559435E+02  0.21856106096E+03  0.00000000000E+00 0.  1.
        -11    1    3    3    0    0  0.24791769061E+03 -0.41699846816E+03  0.21728807390E+03  0.53156844416E+03  0.00000000000E+00 0. -1.
         22    1    1    2    0    0 -0.32514431653E+03  0.61658686732E+03  0.85604019796E+03  0.11039488267E+04  0.00000000000E+00 0. -1.
<mgrwt>
<rscale>  0 0.14793032E+04</rscale>
<asrwt>0</asrwt>
<pdfrwt beam="1">  1        1 0.22859885E+00 0.14793032E+04</pdfrwt>
<pdfrwt beam="2">  1       -1 0.56643963E-01 0.14793032E+04</pdfrwt>
<totfact> 0.20451054E+01</totfact>
</mgrwt>
</event>
<event>
 6    1  0.9988873E-007  0.2163656E+04  0.7818608E-02  0.8533709E-01
         -1   -1    0    0    0  501 -0.00000000000E+00  0.00000000000E+00  0.13473882685E+04  0.13473882685E+04  0.00000000000E+00 0.  1.
          1   -1    0    0  501    0  0.00000000000E+00 -0.00000000000E+00 -0.86860744764E+03  0.86860744764E+03  0.00000000000E+00 0. -1.
         23    2    1    2    0    0 -0.15374543194E+03 -0.57735217702E+03  0.11611323993E+04  0.13090354795E+04  0.91499966346E+02 0.  0.
         13    1    3    3    0    0 -0.98392281314E+02 -0.33548601186E+03  0.77279132261E+03  0.84819710768E+03  0.00000000000E+00 0. -1.
        -13    1    3    3    0    0 -0.55353150623E+02 -0.24186616516E+03  0.38834107666E+03  0.46083837184E+03  0.00000000000E+00 0.  1.
         22    1    1    2    0    0  0.15374543194E+03  0.57735217702E+03 -0.68235157845E+03  0.90696023660E+03  0.00000000000E+00 0. -1.
<mgrwt>
<rscale>  0 0.21636557E+04</rscale>
<asrwt>0</asrwt>
<pdfrwt beam="1">  1        1 0.13363191E+00 0.21636557E+04</pdfrwt>
<pdfrwt beam="2">  1       -1 0.20729050E+00 0.21636557E+04</pdfrwt>
<totfact> 0.23699210E+00</totfact>
</mgrwt>
</event>
<event>
 6    1  0.9988873E-007  0.1658414E+04  0.7818608E-02  0.8785444E-01
         -2   -1    0    0    0  501 -0.00000000000E+00  0.00000000000E+00  0.11036275193E+04  0.11036275193E+04  0.00000000000E+00 0.  1.
          2   -1    0    0  501    0  0.00000000000E+00 -0.00000000000E+00 -0.62302222092E+03  0.62302222092E+03  0.00000000000E+00 0. -1.
         23    2    1    2    0    0 -0.32495229492E+03  0.38490326335E+03 -0.44140253356E+03  0.67601043091E+03  0.91702725960E+02 0.  0.
         11    1    3    3    0    0 -0.15524226142E+03  0.11667294986E+03 -0.18063323406E+03  0.26521897030E+03  0.00000000000E+00 0. -1.
        -11    1    3    3    0    0 -0.16971003350E+03  0.26823031349E+03 -0.26076929950E+03  0.41079146061E+03  0.00000000000E+00 0.  1.
         22    1    1    2    0    0  0.32495229492E+03 -0.38490326335E+03  0.92200783197E+03  0.10506393093E+04  0.00000000000E+00 0.  1.
<mgrwt>
<rscale>  0 0.16584143E+04</rscale>
<asrwt>0</asrwt>
<pdfrwt beam="1">  1        2 0.95849573E-01 0.16584143E+04</pdfrwt>
<pdfrwt beam="2">  1       -2 0.16978885E+00 0.16584143E+04</pdfrwt>
<totfact> 0.96638866E+00</totfact>
</mgrwt>
</event>
<event>
 6    1  0.9988873E-007  0.4680344E+03  0.7818608E-02  0.1022476E+00
          1   -1    0    0  501    0  0.00000000000E+00  0.00000000000E+00  0.13554054092E+04  0.13554054092E+04  0.00000000000E+00 0. -1.
         -1   -1    0    0    0  501 -0.00000000000E+00 -0.00000000000E+00 -0.40404189908E+02  0.40404189908E+02  0.00000000000E+00 0.  1.
         23    2    1    2    0    0  0.19932941743E+03  0.80821592088E+02  0.88051841413E+03  0.91100071473E+03  0.91352494243E+02 0.  0.
         13    1    3    3    0    0  0.44147838321E+02  0.25796120078E+02  0.39563529461E+03  0.39892575473E+03  0.00000000000E+00 0. -1.
        -13    1    3    3    0    0  0.15518157911E+03  0.55025472009E+02  0.48488311952E+03  0.51207496000E+03  0.00000000000E+00 0.  1.
         22    1    1    2    0    0 -0.19932941743E+03 -0.80821592088E+02  0.43448280521E+03  0.48480888443E+03  0.00000000000E+00 0. -1.
<mgrwt>
<rscale>  0 0.46803443E+03</rscale>
<asrwt>0</asrwt>
<pdfrwt beam="1">  1        1 0.20852387E+00 0.46803443E+03</pdfrwt>
<pdfrwt beam="2">  1       -1 0.62160303E-02 0.46803443E+03</pdfrwt>
<totfact> 0.11237465E+03</totfact>
</mgrwt>
</event>
<event>
 6    1  0.9988873E-007  0.1760004E+04  0.7818608E-02  0.8727863E-01
         -1   -1    0    0    0  501 -0.00000000000E+00  0.00000000000E+00  0.14215527020E+04  0.14215527020E+04  0.00000000000E+00 0.  1.
          1   -1    0    0  501    0  0.00000000000E+00 -0.00000000000E+00 -0.54475901114E+03  0.54475901114E+03  0.00000000000E+00 0. -1.
         23    2    1    2    0    0  0.27167955791E+03  0.17295520155E+03  0.13516492269E+04  0.13925425401E+04  0.92172714595E+02 0.  0.
         11    1    3    3    0    0  0.13529379067E+03  0.70971183523E+02  0.82551681546E+03  0.83953518765E+03  0.00000000000E+00 0.  1.
        -11    1    3    3    0    0  0.13638576724E+03  0.10198401802E+03  0.52613241146E+03  0.55300735241E+03  0.00000000000E+00 0. -1.
         22    1    1    2    0    0 -0.27167955791E+03 -0.17295520155E+03 -0.47485553602E+03  0.57376917312E+03  0.00000000000E+00 0. -1.
<mgrwt>
<rscale>  0 0.17600041E+04</rscale>
<asrwt>0</asrwt>
<pdfrwt beam="1">  1        1 0.83809079E-01 0.17600041E+04</pdfrwt>
<pdfrwt beam="2">  1       -1 0.21870041E+00 0.17600041E+04</pdfrwt>
<totfact> 0.41794866E+00</totfact>
</mgrwt>
</event>
<event>
 6    1  0.9988873E-007  0.2505167E+04  0.7818608E-02  0.8401147E-01
          2   -1    0    0  501    0  0.00000000000E+00  0.00000000000E+00  0.27677586936E+04  0.27677586936E+04  0.00000000000E+00 0. -1.
         -2   -1    0    0    0  501 -0.00000000000E+00 -0.00000000000E+00 -0.56687205265E+03  0.56687205265E+03  0.00000000000E+00 0.  1.
         23    2    1    2    0    0 -0.10878374128E+04  0.38469181503E+03  0.17449249899E+04  0.20939538920E+04  0.92204405636E+02 0.  0.
         11    1    3    3    0    0 -0.29185279237E+03  0.11313791439E+03  0.40342677455E+03  0.51061864685E+03  0.00000000000E+00 0.  1.
        -11    1    3    3    0    0 -0.79598462047E+03  0.27155390064E+03  0.13414982153E+04  0.15833352452E+04  0.00000000000E+00 0. -1.
         22    1    1    2    0    0  0.10878374128E+04 -0.38469181503E+03  0.45596165110E+03  0.12406768542E+04  0.00000000000E+00 0.  1.
<mgrwt>
<rscale>  0 0.25051667E+04</rscale>
<asrwt>0</asrwt>
<pdfrwt beam="1">  1        2 0.42580902E+00 0.25051667E+04</pdfrwt>
<pdfrwt beam="2">  1       -2 0.87211087E-01 0.25051667E+04</pdfrwt>
<totfact> 0.24495354E+00</totfact>
</mgrwt>
</event>
<event>
 6    1  0.9988873E-007  0.3242149E+04  0.7818608E-02  0.8177774E-01
          1   -1    0    0  501    0  0.00000000000E+00  0.00000000000E+00  0.12727225821E+04  0.12727225821E+04  0.00000000000E+00 0. -1.
         -1   -1    0    0    0  501 -0.00000000000E+00 -0.00000000000E+00 -0.20647722409E+04  0.20647722409E+04  0.00000000000E+00 0.  1.
         23    2    1    2    0    0 -0.12329322830E+04  0.56954319830E+03  0.51236365540E+03  0.14544134218E+04  0.91106625230E+02 0.  0.
         13    1    3    3    0    0 -0.98317589938E+03  0.49019489573E+03  0.39775746315E+03  0.11683907242E+04  0.00000000000E+00 0. -1.
        -13    1    3    3    0    0 -0.24975638358E+03  0.79348302572E+02  0.11460619225E+03  0.28602269764E+03  0.00000000000E+00 0.  1.
         22    1    1    2    0    0  0.12329322830E+04 -0.56954319830E+03 -0.13044133142E+04  0.18830814012E+04  0.00000000000E+00 0.  1.
<mgrwt>
<rscale>  0 0.32421488E+04</rscale>
<asrwt>0</asrwt>
<pdfrwt beam="1">  1        1 0.19580348E+00 0.32421488E+04</pdfrwt>
<pdfrwt beam="2">  1       -1 0.31765727E+00 0.32421488E+04</pdfrwt>
<totfact> 0.19994680E-01</totfact>
</mgrwt>
</event>
<event>
 6    1  0.9988873E-007  0.1583132E+04  0.7818608E-02  0.8830978E-01
          2   -1    0    0  501    0  0.00000000000E+00  0.00000000000E+00  0.37412534196E+04  0.37412534196E+04  0.00000000000E+00 0. -1.
         -2   -1    0    0    0  501 -0.00000000000E+00 -0.00000000000E+00 -0.16747775253E+03  0.16747775253E+03  0.00000000000E+00 0.  1.
         23    2    1    2    0    0  0.77109952438E+03 -0.80037711972E+02  0.21541978251E+04  0.22912634719E+04  0.91211382204E+02 0.  0.
         11    1    3    3    0    0  0.46632409886E+03 -0.75359780537E+02  0.12029183769E+04  0.12923427886E+04  0.00000000000E+00 0.  1.
        -11    1    3    3    0    0  0.30477542552E+03 -0.46779314341E+01  0.95127944815E+03  0.99892068330E+03  0.00000000000E+00 0. -1.
         22    1    1    2    0    0 -0.77109952438E+03  0.80037711972E+02  0.14195778419E+04  0.16174677002E+04  0.00000000000E+00 0.  1.
<mgrwt>
<rscale>  0 0.15831320E+04</rscale>
<asrwt>0</asrwt>
<pdfrwt beam="1">  1        2 0.57557739E+00 0.15831320E+04</pdfrwt>
<pdfrwt beam="2">  1       -2 0.25765811E-01 0.15831320E+04</pdfrwt>
<totfact> 0.72062190E+00</totfact>
</mgrwt>
</event>
<event>
 6    1  0.9988873E-007  0.1293451E+04  0.7818608E-02  0.9034775E-01
          1   -1    0    0  501    0  0.00000000000E+00  0.00000000000E+00  0.91587655263E+03  0.91587655263E+03  0.00000000000E+00 0. -1.
         -1   -1    0    0    0  501 -0.00000000000E+00 -0.00000000000E+00 -0.45667054896E+03  0.45667054896E+03  0.00000000000E+00 0.  1.
         23    2    1    2    0    0  0.60576761236E+03 -0.18415618820E+03  0.35377386868E+03  0.73068743085E+03  0.88770882618E+02 0.  0.
         11    1    3    3    0    0  0.40731833394E+03 -0.81635177240E+02  0.21553908052E+03  0.46800600697E+03  0.00000000000E+00 0. -1.
        -11    1    3    3    0    0  0.19844927842E+03 -0.10252101096E+03  0.13823478816E+03  0.26268142388E+03  0.00000000000E+00 0.  1.
         22    1    1    2    0    0 -0.60576761236E+03  0.18415618820E+03  0.10543213499E+03  0.64185967074E+03  0.00000000000E+00 0. -1.
<mgrwt>
<rscale>  0 0.12934510E+04</rscale>
<asrwt>0</asrwt>
<pdfrwt beam="1">  1        1 0.14090408E+00 0.12934510E+04</pdfrwt>
<pdfrwt beam="2">  1       -1 0.70257008E-01 0.12934510E+04</pdfrwt>
<totfact> 0.35557487E+01</totfact>
</mgrwt>
</event>
<event>
 6    1  0.9988873E-007  0.4460515E+04  0.7818608E-02  0.7917586E-01
         -2   -1    0    0    0  501 -0.00000000000E+00  0.00000000000E+00  0.10165924324E+04  0.10165924324E+04  0.00000000000E+00 0.  1.
          2   -1    0    0  501    0  0.00000000000E+00 -0.00000000000E+00 -0.48928643736E+04  0.48928643736E+04  0.00000000000E+00 0. -1.
         23    2    1    2    0    0  0.89505656472E+03 -0.15871990915E+04 -0.23726797383E+03  0.18397299006E+04  0.89346548184E+02 0.  0.
         13    1    3    3    0    0  0.84923622398E+03 -0.15059508512E+04 -0.24482178284E+03  0.17461465677E+04  0.00000000000E+00 0.  1.
        -13    1    3    3    0    0  0.45820340741E+02 -0.81248240281E+02  0.75538090097E+01  0.93583332945E+02  0.00000000000E+00 0. -1.
         22    1    1    2    0    0 -0.89505656472E+03  0.15871990915E+04 -0.36390039673E+04  0.40697269054E+04  0.00000000000E+00 0. -1.
<mgrwt>
<rscale>  0 0.44605152E+04</rscale>
<asrwt>0</asrwt>
<pdfrwt beam="1">  1        2 0.75274836E+00 0.44605152E+04</pdfrwt>
<pdfrwt beam="2">  1       -2 0.15639884E+00 0.44605152E+04</pdfrwt>
<totfact> 0.93373372E-03</totfact>
</mgrwt>
</event>
<event>
 6    1  0.9988873E-007  0.1180177E+04  0.7818608E-02  0.9130387E-01
         -2   -1    0    0    0  501 -0.00000000000E+00  0.00000000000E+00  0.12798085854E+03  0.12798085854E+03  0.00000000000E+00 0.  1.
          2   -1    0    0  501    0  0.00000000000E+00 -0.00000000000E+00 -0.27207518771E+04  0.27207518771E+04  0.00000000000E+00 0. -1.
         23    2    1    2    0    0  0.52999909301E+03 -0.25068795618E+03 -0.12664229154E+04  0.13985800607E+04  0.91954855747E+02 0.  0.
         13    1    3    3    0    0  0.32815584707E+03 -0.10610412079E+03 -0.71443380106E+03  0.79332212909E+03  0.00000000000E+00 0. -1.
        -13    1    3    3    0    0  0.20184324594E+03 -0.14458383539E+03 -0.55198911439E+03  0.60525793163E+03  0.00000000000E+00 0.  1.
         22    1    1    2    0    0 -0.52999909301E+03  0.25068795618E+03 -0.13263481031E+04  0.14501526749E+04  0.00000000000E+00 0.  1.
<mgrwt>
<rscale>  0 0.11801765E+04</rscale>
<asrwt>0</asrwt>
<pdfrwt beam="1">  1        2 0.41857723E+00 0.11801765E+04</pdfrwt>
<pdfrwt beam="2">  1       -2 0.19689362E-01 0.11801765E+04</pdfrwt>
<totfact> 0.56596095E+01</totfact>
</mgrwt>
</event>
<event>
 6    1  0.9988873E-007  0.2303357E+04  0.7818608E-02  0.8476599E-01
         -1   -1    0    0    0  501 -0.00000000000E+00  0.00000000000E+00  0.10586346575E+04  0.10586346575E+04  0.00000000000E+00 0.  1.
          1   -1    0    0  501    0  0.00000000000E+00 -0.00000000000E+00 -0.12529004338E+04  0.12529004338E+04  0.00000000000E+00 0. -1.
         23    2    1    2    0    0  0.12459141816E+03 -0.54281018600E+03  0.91242768598E+03  0.10726096137E+04  0.88324298352E+02 0.  0.
         13    1    3    3    0    0  0.42104932787E+02 -0.35988657975E+03  0.61555673427E+03  0.71428374527E+03  0.00000000000E+00 0. -1.
        -13    1    3    3    0    0  0.82486485378E+02 -0.18292360625E+03  0.29687095171E+03  0.35832586840E+03  0.00000000000E+00 0.  1.
         22    1    1    2    0    0 -0.12459141816E+03  0.54281018600E+03 -0.11066934623E+04  0.12389254776E+04  0.00000000000E+00 0. -1.
<mgrwt>
<rscale>  0 0.23033574E+04</rscale>
<asrwt>0</asrwt>
<pdfrwt beam="1">  1        1 0.19275391E+00 0.23033574E+04</pdfrwt>
<pdfrwt beam="2">  1       -1 0.16286687E+00 0.23033574E+04</pdfrwt>
<totfact> 0.24571360E+00</totfact>
</mgrwt>
</event>
<event>
 6    1  0.9988873E-007  0.6594338E+03  0.7818608E-02  0.9789237E-01
          2   -1    0    0  501    0  0.00000000000E+00  0.00000000000E+00  0.12406560122E+04  0.12406560122E+04  0.00000000000E+00 0. -1.
         -2   -1    0    0    0  501 -0.00000000000E+00 -0.00000000000E+00 -0.87625611482E+02  0.87625611482E+02  0.00000000000E+00 0.  1.
         23    2    1    2    0    0  0.31670180970E+03 -0.37314305720E+02  0.49989496055E+03  0.60145406718E+03  0.10079498832E+03 0.  0.
         11    1    3    3    0    0  0.22742786738E+03  0.46927145504E+01  0.28236919098E+03  0.36259869890E+03  0.00000000000E+00 0. -1.
        -11    1    3    3    0    0  0.89273942314E+02 -0.42007020270E+02  0.21752576957E+03  0.23885536828E+03  0.00000000000E+00 0.  1.
         22    1    1    2    0    0 -0.31670180970E+03  0.37314305720E+02  0.65313544012E+03  0.72682755645E+03  0.00000000000E+00 0.  1.
<mgrwt>
<rscale>  0 0.65943382E+03</rscale>
<asrwt>0</asrwt>
<pdfrwt beam="1">  1        2 0.19087014E+00 0.65943382E+03</pdfrwt>
<pdfrwt beam="2">  1       -2 0.13480864E-01 0.65943382E+03</pdfrwt>
<totfact> 0.75974979E+02</totfact>
</mgrwt>
</event>
<event>
 6    1  0.9988873E-007  0.2260105E+04  0.7818608E-02  0.8493819E-01
         -1   -1    0    0    0  501 -0.00000000000E+00  0.00000000000E+00  0.67080202484E+03  0.67080202484E+03  0.00000000000E+00 0.  1.
          1   -1    0    0  501    0  0.00000000000E+00 -0.00000000000E+00 -0.19037191168E+04  0.19037191168E+04  0.00000000000E+00 0. -1.
         23    2    1    2    0    0  0.14404357765E+00 -0.76984131013E+03  0.32170591613E+03  0.83972767819E+03  0.94827282529E+02 0.  0.
         11    1    3    3    0    0  0.35063773603E+02 -0.41433930204E+03  0.20738936642E+03  0.46466856440E+03  0.00000000000E+00 0. -1.
        -11    1    3    3    0    0 -0.34919730025E+02 -0.35550200809E+03  0.11431654971E+03  0.37505911379E+03  0.00000000000E+00 0.  1.
         22    1    1    2    0    0 -0.14404357765E+00  0.76984131013E+03 -0.15546230081E+04  0.17347934634E+04  0.00000000000E+00 0. -1.
<mgrwt>
<rscale>  0 0.22601050E+04</rscale>
<asrwt>0</asrwt>
<pdfrwt beam="1">  1        1 0.29287986E+00 0.22601050E+04</pdfrwt>
<pdfrwt beam="2">  1       -1 0.10320031E+00 0.22601050E+04</pdfrwt>
<totfact> 0.27840788E+00</totfact>
</mgrwt>
</event>
<event>
 6    1  0.9988873E-007  0.1465443E+04  0.7818608E-02  0.8907764E-01
         -1   -1    0    0    0  501 -0.00000000000E+00  0.00000000000E+00  0.90112236316E+03  0.90112236316E+03  0.00000000000E+00 0.  1.
          1   -1    0    0  501    0  0.00000000000E+00 -0.00000000000E+00 -0.59579110042E+03  0.59579110042E+03  0.00000000000E+00 0. -1.
         23    2    1    2    0    0 -0.26515655639E+03 -0.55954544883E+03 -0.24078068699E+03  0.67130013378E+03  0.96277835850E+02 0.  0.
         11    1    3    3    0    0 -0.17370221366E+03 -0.28580915109E+03 -0.16482646523E+03  0.37286337111E+03  0.00000000000E+00 0. -1.
        -11    1    3    3    0    0 -0.91454342730E+02 -0.27373629775E+03 -0.75954221761E+02  0.29843676267E+03  0.00000000000E+00 0.  1.
         22    1    1    2    0    0  0.26515655639E+03  0.55954544883E+03  0.54611194973E+03  0.82561332980E+03  0.00000000000E+00 0.  1.
<mgrwt>
<rscale>  0 0.14654428E+04</rscale>
<asrwt>0</asrwt>
<pdfrwt beam="1">  1        1 0.91660169E-01 0.14654428E+04</pdfrwt>
<pdfrwt beam="2">  1       -1 0.13863421E+00 0.14654428E+04</pdfrwt>
<totfact> 0.14435736E+01</totfact>
</mgrwt>
</event>
<event>
 6    1  0.9988873E-007  0.1302519E+04  0.7818608E-02  0.9027570E-01
          1   -1    0    0  501    0  0.00000000000E+00  0.00000000000E+00  0.15055444090E+04  0.15055444090E+04  0.00000000000E+00 0. -1.
         -1   -1    0    0    0  501 -0.00000000000E+00 -0.00000000000E+00 -0.28171781846E+03  0.28171781846E+03  0.00000000000E+00 0.  1.
         23    2    1    2    0    0  0.30419120516E+03 -0.17199190306E+03  0.13635521592E+04  0.14109156604E+04  0.96410610444E+02 0.  0.
         11    1    3    3    0    0  0.18165540152E+03 -0.63284880255E+02  0.60365327090E+03  0.63356209833E+03  0.00000000000E+00 0. -1.
        -11    1    3    3    0    0  0.12253580365E+03 -0.10870702281E+03  0.75989888832E+03  0.77735356206E+03  0.00000000000E+00 0.  1.
         22    1    1    2    0    0 -0.30419120516E+03  0.17199190306E+03 -0.13972556866E+03  0.37634656709E+03  0.00000000000E+00 0.  1.
<mgrwt>
<rscale>  0 0.13025186E+04</rscale>
<asrwt>0</asrwt>
<pdfrwt beam="1">  1        1 0.23162221E+00 0.13025186E+04</pdfrwt>
<pdfrwt beam="2">  1       -1 0.43341204E-01 0.13025186E+04</pdfrwt>
<totfact> 0.33451850E+01</totfact>
</mgrwt>
</event>
<event>
 6    1  0.9988873E-007  0.1577347E+04  0.7818608E-02  0.8834587E-01
         -2   -1    0    0    0  501 -0.00000000000E+00  0.00000000000E+00  0.32766673910E+03  0.32766673910E+03  0.00000000000E+00 0.  1.
          2   -1    0    0  501    0  0.00000000000E+00 -0.00000000000E+00 -0.18982884766E+04  0.18982884766E+04  0.00000000000E+00 0. -1.
         23    2    1    2    0    0 -0.61372585368E+03  0.22142882740E+03 -0.16952690182E+03  0.68039483588E+03  0.92236723515E+02 0.  0.
         13    1    3    3    0    0 -0.53698180319E+03  0.21587717764E+03 -0.12715328488E+03  0.59255410778E+03  0.00000000000E+00 0. -1.
        -13    1    3    3    0    0 -0.76744050488E+02  0.55516497637E+01 -0.42373616946E+02  0.87840728102E+02  0.00000000000E+00 0.  1.
         22    1    1    2    0    0  0.61372585368E+03 -0.22142882740E+03 -0.14010948356E+04  0.15455603798E+04  0.00000000000E+00 0. -1.
<mgrwt>
<rscale>  0 0.15773471E+04</rscale>
<asrwt>0</asrwt>
<pdfrwt beam="1">  1        2 0.29204438E+00 0.15773471E+04</pdfrwt>
<pdfrwt beam="2">  1       -2 0.50410268E-01 0.15773471E+04</pdfrwt>
<totfact> 0.27206835E+01</totfact>
</mgrwt>
</event>
<event>
 6    1  0.9988873E-007  0.1637682E+04  0.7818608E-02  0.8797727E-01
         -2   -1    0    0    0  501 -0.00000000000E+00  0.00000000000E+00  0.55704870620E+03  0.55704870620E+03  0.00000000000E+00 0.  1.
          2   -1    0    0  501    0  0.00000000000E+00 -0.00000000000E+00 -0.12036663256E+04  0.12036663256E+04  0.00000000000E+00 0. -1.
         23    2    1    2    0    0 -0.19746766745E+03  0.36419230077E+03 -0.10804678387E+04  0.11608354403E+04  0.92188163068E+02 0.  0.
         13    1    3    3    0    0 -0.16896232385E+03  0.21981212741E+03 -0.70441862336E+03  0.75701468623E+03  0.00000000000E+00 0. -1.
        -13    1    3    3    0    0 -0.28505343603E+02  0.14438017336E+03 -0.37604921530E+03  0.40382075405E+03  0.00000000000E+00 0.  1.
         22    1    1    2    0    0  0.19746766745E+03 -0.36419230077E+03  0.43385021923E+03  0.59987959154E+03  0.00000000000E+00 0.  1.
<mgrwt>
<rscale>  0 0.16376822E+04</rscale>
<asrwt>0</asrwt>
<pdfrwt beam="1">  1        2 0.18517943E+00 0.16376822E+04</pdfrwt>
<pdfrwt beam="2">  1       -2 0.85699801E-01 0.16376822E+04</pdfrwt>
<totfact> 0.21312365E+01</totfact>
</mgrwt>
</event>
<event>
 6    1  0.9988873E-007  0.9682467E+03  0.7818608E-02  0.9344074E-01
          1   -1    0    0  501    0  0.00000000000E+00  0.00000000000E+00  0.75276694424E+03  0.75276694424E+03  0.00000000000E+00 0. -1.
         -1   -1    0    0    0  501 -0.00000000000E+00 -0.00000000000E+00 -0.31135188427E+03  0.31135188427E+03  0.00000000000E+00 0.  1.
         23    2    1    2    0    0  0.26452872897E+03 -0.62278411038E+02  0.65718537740E+03  0.71711612128E+03  0.92243494060E+02 0.  0.
         11    1    3    3    0    0  0.78926604558E+02 -0.23898977888E+02  0.31854133504E+03  0.32904278169E+03  0.00000000000E+00 0. -1.
        -11    1    3    3    0    0  0.18560212442E+03 -0.38379433150E+02  0.33864404236E+03  0.38807333959E+03  0.00000000000E+00 0.  1.
         22    1    1    2    0    0 -0.26452872897E+03  0.62278411038E+02 -0.21577031743E+03  0.34700270722E+03  0.00000000000E+00 0.  1.
<mgrwt>
<rscale>  0 0.96824668E+03</rscale>
<asrwt>0</asrwt>
<pdfrwt beam="1">  1        1 0.11581030E+00 0.96824668E+03</pdfrwt>
<pdfrwt beam="2">  1       -1 0.47900290E-01 0.96824668E+03</pdfrwt>
<totfact> 0.10645798E+02</totfact>
</mgrwt>
</event>
<event>
 6    1  0.9988873E-007  0.2305015E+04  0.7818608E-02  0.8475946E-01
          2   -1    0    0  501    0  0.00000000000E+00  0.00000000000E+00  0.35357980586E+04  0.35357980586E+04  0.00000000000E+00 0. -1.
         -2   -1    0    0    0  501 -0.00000000000E+00 -0.00000000000E+00 -0.37566438636E+03  0.37566438636E+03  0.00000000000E+00 0.  1.
         23    2    1    2    0    0 -0.23012441436E+01  0.63225013653E+03 -0.49091481843E+02  0.64054948059E+03  0.90267007441E+02 0.  0.
         11    1    3    3    0    0 -0.45086343702E+02  0.25298731531E+03 -0.17055483583E+02  0.25753883128E+03  0.00000000000E+00 0. -1.
        -11    1    3    3    0    0  0.42785099559E+02  0.37926282121E+03 -0.32035998260E+02  0.38301064931E+03  0.00000000000E+00 0.  1.
         22    1    1    2    0    0  0.23012441436E+01 -0.63225013653E+03  0.32092251540E+04  0.32709129643E+04  0.00000000000E+00 0. -1.
<mgrwt>
<rscale>  0 0.23050149E+04</rscale>
<asrwt>0</asrwt>
<pdfrwt beam="1">  1        2 0.54396891E+00 0.23050149E+04</pdfrwt>
<pdfrwt beam="2">  1       -2 0.57794523E-01 0.23050149E+04</pdfrwt>
<totfact> 0.19541140E+00</totfact>
</mgrwt>
</event>
<event>
 6    1  0.9988873E-007  0.2598864E+04  0.7818608E-02  0.8368587E-01
          1   -1    0    0  501    0  0.00000000000E+00  0.00000000000E+00  0.13047942197E+04  0.13047942197E+04  0.00000000000E+00 0. -1.
         -1   -1    0    0    0  501 -0.00000000000E+00 -0.00000000000E+00 -0.12940916221E+04  0.12940916221E+04  0.00000000000E+00 0.  1.
         23    2    1    2    0    0  0.62385712959E+03  0.98516081636E+03  0.57504451164E+03  0.13034240137E+04  0.92186858719E+02 0.  0.
         13    1    3    3    0    0  0.38699363615E+03  0.54483527958E+03  0.36080500659E+03  0.75946679261E+03  0.00000000000E+00 0. -1.
        -13    1    3    3    0    0  0.23686349344E+03  0.44032553678E+03  0.21423950505E+03  0.54395722110E+03  0.00000000000E+00 0.  1.
         22    1    1    2    0    0 -0.62385712959E+03 -0.98516081636E+03 -0.56434191400E+03  0.12954618281E+04  0.00000000000E+00 0.  1.
<mgrwt>
<rscale>  0 0.25988638E+04</rscale>
<asrwt>0</asrwt>
<pdfrwt beam="1">  1        1 0.20073757E+00 0.25988638E+04</pdfrwt>
<pdfrwt beam="2">  1       -1 0.19909102E+00 0.25988638E+04</pdfrwt>
<totfact> 0.12071106E+00</totfact>
</mgrwt>
</event>
<event>
 6    1  0.9988873E-007  0.6097993E+04  0.7818608E-02  0.7678369E-01
         -1   -1    0    0    0  501 -0.00000000000E+00  0.00000000000E+00  0.27922536916E+04  0.27922536916E+04  0.00000000000E+00 0.  1.
          1   -1    0    0  501    0  0.00000000000E+00 -0.00000000000E+00 -0.33293467940E+04  0.33293467940E+04  0.00000000000E+00 0. -1.
         23    2    1    2    0    0 -0.55385293735E+03  0.87023649647E+03  0.26110309211E+04  0.28087845378E+04  0.87883292032E+02 0.  0.
         11    1    3    3    0    0 -0.31341489646E+03  0.55126749227E+03  0.15226384448E+04  0.16494097668E+04  0.00000000000E+00 0.  1.
        -11    1    3    3    0    0 -0.24043804090E+03  0.31896900420E+03  0.10883924763E+04  0.11593747710E+04  0.00000000000E+00 0. -1.
         22    1    1    2    0    0  0.55385293735E+03 -0.87023649647E+03 -0.31481240235E+04  0.33128159477E+04  0.00000000000E+00 0. -1.
<mgrwt>
<rscale>  0 0.60979934E+04</rscale>
<asrwt>0</asrwt>
<pdfrwt beam="1">  1        1 0.51220720E+00 0.60979934E+04</pdfrwt>
<pdfrwt beam="2">  1       -1 0.42957749E+00 0.60979934E+04</pdfrwt>
<totfact> 0.10088523E-03</totfact>
</mgrwt>
</event>
<event>
 6    1  0.9988873E-007  0.2761855E+04  0.7818608E-02  0.8315210E-01
          2   -1    0    0  501    0  0.00000000000E+00  0.00000000000E+00  0.20984927102E+04  0.20984927102E+04  0.00000000000E+00 0. -1.
         -2   -1    0    0    0  501 -0.00000000000E+00 -0.00000000000E+00 -0.90872903213E+03  0.90872903213E+03  0.00000000000E+00 0.  1.
         23    2    1    2    0    0 -0.95895661997E+03 -0.79145733095E+03  0.12448587844E+04  0.17626182005E+04  0.10557945699E+03 0.  0.
         13    1    3    3    0    0 -0.35299065720E+03 -0.30764251835E+03  0.53977790380E+03  0.71456735764E+03  0.00000000000E+00 0.  1.
        -13    1    3    3    0    0 -0.60596596277E+03 -0.48381481259E+03  0.70508088064E+03  0.10480508428E+04  0.00000000000E+00 0. -1.
         22    1    1    2    0    0  0.95895661997E+03  0.79145733095E+03 -0.55095106360E+02  0.12446035419E+04  0.00000000000E+00 0.  1.
<mgrwt>
<rscale>  0 0.27618554E+04</rscale>
<asrwt>0</asrwt>
<pdfrwt beam="1">  1        2 0.32284503E+00 0.27618554E+04</pdfrwt>
<pdfrwt beam="2">  1       -2 0.13980447E+00 0.27618554E+04</pdfrwt>
<totfact> 0.18524133E+00</totfact>
</mgrwt>
</event>
<event>
 6    1  0.9988873E-007  0.1737842E+04  0.7818608E-02  0.8740071E-01
         -2   -1    0    0    0  501 -0.00000000000E+00  0.00000000000E+00  0.33655891242E+03  0.33655891242E+03  0.00000000000E+00 0.  1.
          2   -1    0    0  501    0  0.00000000000E+00 -0.00000000000E+00 -0.22433620048E+04  0.22433620048E+04  0.00000000000E+00 0. -1.
         23    2    1    2    0    0  0.61920064813E+03  0.35252275215E+03 -0.16879464912E+04  0.18345485638E+04  0.93398833921E+02 0.  0.
         13    1    3    3    0    0  0.22884310807E+03  0.89901599414E+02 -0.51185595263E+03  0.56784503337E+03  0.00000000000E+00 0.  1.
        -13    1    3    3    0    0  0.39035754006E+03  0.26262115274E+03 -0.11760905386E+04  0.12667035304E+04  0.00000000000E+00 0. -1.
         22    1    1    2    0    0 -0.61920064813E+03 -0.35252275215E+03 -0.21885660118E+03  0.74537235347E+03  0.00000000000E+00 0.  1.
<mgrwt>
<rscale>  0 0.17378417E+04</rscale>
<asrwt>0</asrwt>
<pdfrwt beam="1">  1        2 0.34513261E+00 0.17378417E+04</pdfrwt>
<pdfrwt beam="2">  1       -2 0.51778295E-01 0.17378417E+04</pdfrwt>
<totfact> 0.16321473E+01</totfact>
</mgrwt>
</event>
<event>
 6    1  0.9988873E-007  0.6240680E+04  0.7818608E-02  0.7661256E-01
         -2   -1    0    0    0  501 -0.00000000000E+00  0.00000000000E+00  0.28097281609E+04  0.28097281609E+04  0.00000000000E+00 0.  1.
          2   -1    0    0  501    0  0.00000000000E+00 -0.00000000000E+00 -0.34652893142E+04  0.34652893142E+04  0.00000000000E+00 0. -1.
         23    2    1    2    0    0  0.22905098888E+04 -0.20547454623E+04  0.18859406974E+03  0.30842475828E+04  0.92741379313E+02 0.  0.
         13    1    3    3    0    0  0.69994142336E+03 -0.57894937894E+03  0.77185790473E+02  0.91162384006E+03  0.00000000000E+00 0. -1.
        -13    1    3    3    0    0  0.15905684654E+04 -0.14757960833E+04  0.11140827927E+03  0.21726237427E+04  0.00000000000E+00 0.  1.
         22    1    1    2    0    0 -0.22905098888E+04  0.20547454623E+04 -0.84415522297E+03  0.31907698923E+04  0.00000000000E+00 0.  1.
<mgrwt>
<rscale>  0 0.62406798E+04</rscale>
<asrwt>0</asrwt>
<pdfrwt beam="1">  1        2 0.53312143E+00 0.62406798E+04</pdfrwt>
<pdfrwt beam="2">  1       -2 0.43226587E+00 0.62406798E+04</pdfrwt>
<totfact> 0.25873016E-03</totfact>
</mgrwt>
</event>
<event>
 6    1  0.9988873E-007  0.2530880E+04  0.7818608E-02  0.8392066E-01
         -2   -1    0    0    0  501 -0.00000000000E+00  0.00000000000E+00  0.14964404380E+04  0.14964404380E+04  0.00000000000E+00 0.  1.
          2   -1    0    0  501    0  0.00000000000E+00 -0.00000000000E+00 -0.10700984933E+04  0.10700984933E+04  0.00000000000E+00 0. -1.
         23    2    1    2    0    0 -0.56935859140E+03  0.98067695642E+03 -0.35186169193E+03  0.11912217321E+04  0.96467954359E+02 0.  0.
         11    1    3    3    0    0 -0.24990645443E+03  0.33875076293E+03 -0.12288661510E+03  0.43852757670E+03  0.00000000000E+00 0. -1.
        -11    1    3    3    0    0 -0.31945213696E+03  0.64192619348E+03 -0.22897507684E+03  0.75269415535E+03  0.00000000000E+00 0.  1.
         22    1    1    2    0    0  0.56935859140E+03 -0.98067695642E+03  0.77820363662E+03  0.13753171992E+04  0.00000000000E+00 0.  1.
<mgrwt>
<rscale>  0 0.25308802E+04</rscale>
<asrwt>0</asrwt>
<pdfrwt beam="1">  1        2 0.16463054E+00 0.25308802E+04</pdfrwt>
<pdfrwt beam="2">  1       -2 0.23022161E+00 0.25308802E+04</pdfrwt>
<totfact> 0.17237956E+00</totfact>
</mgrwt>
</event>
<event>
 6    1  0.9988873E-007  0.1576419E+04  0.7818608E-02  0.8835167E-01
         -1   -1    0    0    0  501 -0.00000000000E+00  0.00000000000E+00  0.33740763275E+03  0.33740763275E+03  0.00000000000E+00 0.  1.
          1   -1    0    0  501    0  0.00000000000E+00 -0.00000000000E+00 -0.18413168179E+04  0.18413168179E+04  0.00000000000E+00 0. -1.
         23    2    1    2    0    0  0.21303144527E+03 -0.75884200076E+02 -0.17942647610E+04  0.18106929725E+04  0.89901055518E+02 0.  0.
         13    1    3    3    0    0  0.20074038150E+03 -0.40358187194E+02 -0.14509898760E+04  0.14653658602E+04  0.00000000000E+00 0. -1.
        -13    1    3    3    0    0  0.12291063765E+02 -0.35526012882E+02 -0.34327488499E+03  0.34532711232E+03  0.00000000000E+00 0.  1.
         22    1    1    2    0    0 -0.21303144527E+03  0.75884200076E+02  0.29035557581E+03  0.36803147813E+03  0.00000000000E+00 0.  1.
<mgrwt>
<rscale>  0 0.15764192E+04</rscale>
<asrwt>0</asrwt>
<pdfrwt beam="1">  1        1 0.28327951E+00 0.15764192E+04</pdfrwt>
<pdfrwt beam="2">  1       -1 0.51908866E-01 0.15764192E+04</pdfrwt>
<totfact> 0.13719575E+01</totfact>
</mgrwt>
</event>
<event>
 6    1  0.9988873E-007  0.2365874E+04  0.7818608E-02  0.8452392E-01
          2   -1    0    0  501    0  0.00000000000E+00  0.00000000000E+00  0.37728023128E+04  0.37728023128E+04  0.00000000000E+00 0. -1.
         -2   -1    0    0    0  501 -0.00000000000E+00 -0.00000000000E+00 -0.37090188463E+03  0.37090188463E+03  0.00000000000E+00 0.  1.
         23    2    1    2    0    0  0.54692505392E+03  0.34805457819E+03  0.34327067383E+04  0.34946910753E+04  0.95504746081E+02 0.  0.
         13    1    3    3    0    0  0.38432584680E+03  0.20432231149E+03  0.24427520039E+04  0.24812277840E+04  0.00000000000E+00 0. -1.
        -13    1    3    3    0    0  0.16259920713E+03  0.14373226669E+03  0.98995473441E+03  0.10134632913E+04  0.00000000000E+00 0.  1.
         22    1    1    2    0    0 -0.54692505392E+03 -0.34805457819E+03 -0.30806310104E+02  0.64901312217E+03  0.00000000000E+00 0.  1.
<mgrwt>
<rscale>  0 0.23658736E+04</rscale>
<asrwt>0</asrwt>
<pdfrwt beam="1">  1        2 0.58043110E+00 0.23658736E+04</pdfrwt>
<pdfrwt beam="2">  1       -2 0.57061831E-01 0.23658736E+04</pdfrwt>
<totfact> 0.13417424E+00</totfact>
</mgrwt>
</event>
<event>
 6    1  0.9988873E-007  0.2358552E+04  0.7818608E-02  0.8455186E-01
          2   -1    0    0  501    0  0.00000000000E+00  0.00000000000E+00  0.71268263100E+03  0.71268263100E+03  0.00000000000E+00 0. -1.
         -2   -1    0    0    0  501 -0.00000000000E+00 -0.00000000000E+00 -0.19513484673E+04  0.19513484673E+04  0.00000000000E+00 0.  1.
         23    2    1    2    0    0 -0.26096554389E+03 -0.85716893582E+02 -0.19136126798E+04  0.19353311309E+04  0.90236894420E+02 0.  0.
         11    1    3    3    0    0 -0.25996662280E+03 -0.77927732335E+02 -0.19022875587E+04  0.19215497216E+04  0.00000000000E+00 0. -1.
        -11    1    3    3    0    0 -0.99892109159E+00 -0.77891612471E+01 -0.11325121083E+02  0.13781409356E+02  0.00000000000E+00 0.  1.
         22    1    1    2    0    0  0.26096554389E+03  0.85716893582E+02  0.67494684348E+03  0.72869996739E+03  0.00000000000E+00 0. -1.
<mgrwt>
<rscale>  0 0.23585522E+04</rscale>
<asrwt>0</asrwt>
<pdfrwt beam="1">  1        2 0.10964348E+00 0.23585522E+04</pdfrwt>
<pdfrwt beam="2">  1       -2 0.30020745E+00 0.23585522E+04</pdfrwt>
<totfact> 0.11455022E+00</totfact>
</mgrwt>
</event>
<event>
 6    1  0.9988873E-007  0.1975741E+04  0.7818608E-02  0.8618047E-01
          2   -1    0    0  501    0  0.00000000000E+00  0.00000000000E+00  0.26237777679E+04  0.26237777679E+04  0.00000000000E+00 0. -1.
         -2   -1    0    0    0  501 -0.00000000000E+00 -0.00000000000E+00 -0.37194010202E+03  0.37194010202E+03  0.00000000000E+00 0.  1.
         23    2    1    2    0    0 -0.29066947482E+02 -0.98525636574E+03  0.11437390060E+04  0.15126610154E+04  0.91811981939E+02 0.  0.
         13    1    3    3    0    0  0.76356475988E+01 -0.55888271617E+02  0.39251592223E+02  0.68720371874E+02  0.00000000000E+00 0.  1.
        -13    1    3    3    0    0 -0.36702595081E+02 -0.92936809412E+03  0.11044874138E+04  0.14439406435E+04  0.00000000000E+00 0. -1.
         22    1    1    2    0    0  0.29066947482E+02  0.98525636574E+03  0.11080986599E+04  0.14830568545E+04  0.00000000000E+00 0. -1.
<mgrwt>
<rscale>  0 0.19757410E+04</rscale>
<asrwt>0</asrwt>
<pdfrwt beam="1">  1        2 0.40365811E+00 0.19757410E+04</pdfrwt>
<pdfrwt beam="2">  1       -2 0.57221556E-01 0.19757410E+04</pdfrwt>
<totfact> 0.78584080E+00</totfact>
</mgrwt>
</event>
<event>
 6    1  0.9988873E-007  0.3989414E+04  0.7818608E-02  0.8006686E-01
         -2   -1    0    0    0  501 -0.00000000000E+00  0.00000000000E+00  0.18878884689E+04  0.18878884689E+04  0.00000000000E+00 0.  1.
          2   -1    0    0  501    0  0.00000000000E+00 -0.00000000000E+00 -0.21075691383E+04  0.21075691383E+04  0.00000000000E+00 0. -1.
         23    2    1    2    0    0  0.69214405068E+03 -0.97882316935E+03 -0.17051748994E+04  0.20865701587E+04  0.94844112784E+02 0.  0.
         13    1    3    3    0    0  0.35645790136E+03 -0.44972344253E+03 -0.87682147172E+03  0.10479166491E+04  0.00000000000E+00 0. -1.
        -13    1    3    3    0    0  0.33568614932E+03 -0.52909972682E+03 -0.82835342767E+03  0.10386535095E+04  0.00000000000E+00 0.  1.
         22    1    1    2    0    0 -0.69214405068E+03  0.97882316935E+03  0.14854942300E+04  0.19088874485E+04  0.00000000000E+00 0.  1.
<mgrwt>
<rscale>  0 0.39894137E+04</rscale>
<asrwt>0</asrwt>
<pdfrwt beam="1">  1        2 0.32424140E+00 0.39894137E+04</pdfrwt>
<pdfrwt beam="2">  1       -2 0.29044438E+00 0.39894137E+04</pdfrwt>
<totfact> 0.16706563E-01</totfact>
</mgrwt>
</event>
<event>
 6    1  0.9988873E-007  0.1140327E+04  0.7818608E-02  0.9166754E-01
          2   -1    0    0  501    0  0.00000000000E+00  0.00000000000E+00  0.10596889691E+04  0.10596889691E+04  0.00000000000E+00 0. -1.
         -2   -1    0    0    0  501 -0.00000000000E+00 -0.00000000000E+00 -0.30677555150E+03  0.30677555150E+03  0.00000000000E+00 0.  1.
         23    2    1    2    0    0 -0.16677995697E+03  0.39324452710E+03 -0.66789060690E+02  0.44214370776E+03  0.92593021000E+02 0.  0.
         11    1    3    3    0    0 -0.42064455525E+02  0.16386537900E+03 -0.64458273181E+02  0.18104184553E+03  0.00000000000E+00 0.  1.
        -11    1    3    3    0    0 -0.12471550144E+03  0.22937914810E+03 -0.23307875089E+01  0.26110186222E+03  0.00000000000E+00 0. -1.
         22    1    1    2    0    0  0.16677995697E+03 -0.39324452710E+03  0.81970247827E+03  0.92432081283E+03  0.00000000000E+00 0. -1.
<mgrwt>
<rscale>  0 0.11403274E+04</rscale>
<asrwt>0</asrwt>
<pdfrwt beam="1">  1        2 0.16302907E+00 0.11403274E+04</pdfrwt>
<pdfrwt beam="2">  1       -2 0.47196239E-01 0.11403274E+04</pdfrwt>
<totfact> 0.97245199E+01</totfact>
</mgrwt>
</event>
<event>
 6    1  0.9988873E-007  0.2234763E+04  0.7818608E-02  0.8504097E-01
         -1   -1    0    0    0  501 -0.00000000000E+00  0.00000000000E+00  0.78146671551E+03  0.78146671551E+03  0.00000000000E+00 0.  1.
          1   -1    0    0  501    0  0.00000000000E+00 -0.00000000000E+00 -0.15976891206E+04  0.15976891206E+04  0.00000000000E+00 0. -1.
         23    2    1    2    0    0  0.13091869052E+03 -0.69108752787E+03  0.51279079577E+03  0.87548773351E+03  0.93716042371E+02 0.  0.
         11    1    3    3    0    0  0.65311008795E+02 -0.54622318639E+03  0.38457741276E+03  0.67121165337E+03  0.00000000000E+00 0.  1.
        -11    1    3    3    0    0  0.65607681725E+02 -0.14486434149E+03  0.12821338301E+03  0.20427608015E+03  0.00000000000E+00 0. -1.
         22    1    1    2    0    0 -0.13091869052E+03  0.69108752787E+03 -0.13290132009E+04  0.15036681026E+04  0.00000000000E+00 0. -1.
<mgrwt>
<rscale>  0 0.22347625E+04</rscale>
<asrwt>0</asrwt>
<pdfrwt beam="1">  1        1 0.24579832E+00 0.22347625E+04</pdfrwt>
<pdfrwt beam="2">  1       -1 0.12022565E+00 0.22347625E+04</pdfrwt>
<totfact> 0.31369987E+00</totfact>
</mgrwt>
</event>
<event>
 6    1  0.9988873E-007  0.6565719E+03  0.7818608E-02  0.9794525E-01
         -1   -1    0    0    0  501 -0.00000000000E+00  0.00000000000E+00  0.98783524005E+02  0.98783524005E+02  0.00000000000E+00 0.  1.
          1   -1    0    0  501    0  0.00000000000E+00 -0.00000000000E+00 -0.10909883316E+04  0.10909883316E+04  0.00000000000E+00 0. -1.
         23    2    1    2    0    0  0.86740991302E+02 -0.24934542862E+03 -0.83972535865E+03  0.88489954676E+03  0.90616706797E+02 0.  0.
         13    1    3    3    0    0  0.34205427248E+02 -0.20276483912E+02 -0.75178580751E+02  0.85046846248E+02  0.00000000000E+00 0. -1.
        -13    1    3    3    0    0  0.52535564054E+02 -0.22906894471E+03 -0.76454677790E+03  0.79985270051E+03  0.00000000000E+00 0.  1.
         22    1    1    2    0    0 -0.86740991302E+02  0.24934542862E+03 -0.15247944893E+03  0.30487230883E+03  0.00000000000E+00 0.  1.
<mgrwt>
<rscale>  0 0.65657192E+03</rscale>
<asrwt>0</asrwt>
<pdfrwt beam="1">  1        1 0.16784436E+00 0.65657192E+03</pdfrwt>
<pdfrwt beam="2">  1       -1 0.15197465E-01 0.65657192E+03</pdfrwt>
<totfact> 0.42098399E+02</totfact>
</mgrwt>
</event>
<event>
 6    1  0.9988873E-007  0.1717239E+04  0.7818608E-02  0.8751593E-01
          2   -1    0    0  501    0  0.00000000000E+00  0.00000000000E+00  0.21151682037E+04  0.21151682037E+04  0.00000000000E+00 0. -1.
         -2   -1    0    0    0  501 -0.00000000000E+00 -0.00000000000E+00 -0.34854309299E+03  0.34854309299E+03  0.00000000000E+00 0.  1.
         23    2    1    2    0    0  0.38866837287E+03  0.37859541889E+03 -0.64787522352E+02  0.55361448557E+03  0.88848074334E+02 0.  0.
         11    1    3    3    0    0  0.25033355043E+03  0.20297115147E+03 -0.55119454177E+01  0.32232678502E+03  0.00000000000E+00 0.  1.
        -11    1    3    3    0    0  0.13833482244E+03  0.17562426742E+03 -0.59275576935E+02  0.23128770055E+03  0.00000000000E+00 0. -1.
         22    1    1    2    0    0 -0.38866837287E+03 -0.37859541889E+03  0.18314126331E+04  0.19100968111E+04  0.00000000000E+00 0. -1.
<mgrwt>
<rscale>  0 0.17172388E+04</rscale>
<asrwt>0</asrwt>
<pdfrwt beam="1">  1        2 0.32541048E+00 0.17172388E+04</pdfrwt>
<pdfrwt beam="2">  1       -2 0.53622016E-01 0.17172388E+04</pdfrwt>
<totfact> 0.17949478E+01</totfact>
</mgrwt>
</event>
<event>
 6    1  0.9988873E-007  0.2438541E+04  0.7818608E-02  0.8425214E-01
         -2   -1    0    0    0  501 -0.00000000000E+00  0.00000000000E+00  0.56781914150E+03  0.56781914150E+03  0.00000000000E+00 0.  1.
          2   -1    0    0  501    0  0.00000000000E+00 -0.00000000000E+00 -0.26181239360E+04  0.26181239360E+04  0.00000000000E+00 0. -1.
         23    2    1    2    0    0 -0.39110120975E+03 -0.11330981247E+04 -0.13055957516E+04  0.17747510016E+04  0.91045783808E+02 0.  0.
         11    1    3    3    0    0 -0.16467621534E+03 -0.47693951551E+03 -0.48379300902E+03  0.69903163944E+03  0.00000000000E+00 0.  1.
        -11    1    3    3    0    0 -0.22642499441E+03 -0.65615860918E+03 -0.82180274254E+03  0.10757193622E+04  0.00000000000E+00 0. -1.
         22    1    1    2    0    0  0.39110120975E+03  0.11330981247E+04 -0.74470904294E+03  0.14111920759E+04  0.00000000000E+00 0.  1.
<mgrwt>
<rscale>  0 0.24385413E+04</rscale>
<asrwt>0</asrwt>
<pdfrwt beam="1">  1        2 0.40278830E+00 0.24385413E+04</pdfrwt>
<pdfrwt beam="2">  1       -2 0.87356791E-01 0.24385413E+04</pdfrwt>
<totfact> 0.30124877E+00</totfact>
</mgrwt>
</event>
<event>
 6    1  0.9988873E-007  0.1558978E+04  0.7818608E-02  0.8846154E-01
         -2   -1    0    0    0  501 -0.00000000000E+00  0.00000000000E+00  0.45129822379E+03  0.45129822379E+03  0.00000000000E+00 0.  1.
          2   -1    0    0  501    0  0.00000000000E+00 -0.00000000000E+00 -0.13463444510E+04  0.13463444510E+04  0.00000000000E+00 0. -1.
         23    2    1    2    0    0 -0.68588596482E+03  0.73076591670E+02 -0.36785899249E+02  0.69655660388E+03  0.89767227025E+02 0.  0.
         13    1    3    3    0    0 -0.44634946425E+03  0.48911708782E+02 -0.66717100985E+02  0.45395084652E+03  0.00000000000E+00 0.  1.
        -13    1    3    3    0    0 -0.23953650057E+03  0.24164882888E+02  0.29931201736E+02  0.24260575736E+03  0.00000000000E+00 0. -1.
         22    1    1    2    0    0  0.68588596482E+03 -0.73076591670E+02 -0.85826032796E+03  0.11010860709E+04  0.00000000000E+00 0. -1.
<mgrwt>
<rscale>  0 0.15589777E+04</rscale>
<asrwt>0</asrwt>
<pdfrwt beam="1">  1        2 0.20712991E+00 0.15589777E+04</pdfrwt>
<pdfrwt beam="2">  1       -2 0.69430497E-01 0.15589777E+04</pdfrwt>
<totfact> 0.28283038E+01</totfact>
</mgrwt>
</event>
<event>
 6    1  0.9988873E-007  0.1661911E+04  0.7818608E-02  0.8783391E-01
         -2   -1    0    0    0  501 -0.00000000000E+00  0.00000000000E+00  0.27149708508E+03  0.27149708508E+03  0.00000000000E+00 0.  1.
          2   -1    0    0  501    0  0.00000000000E+00 -0.00000000000E+00 -0.25432562572E+04  0.25432562572E+04  0.00000000000E+00 0. -1.
         23    2    1    2    0    0  0.35189921052E+03  0.57666830509E+03 -0.32682333452E+03  0.75583255681E+03  0.89944279812E+02 0.  0.
         11    1    3    3    0    0  0.32866633904E+03  0.48748764181E+03 -0.29882180412E+03  0.65951515066E+03  0.00000000000E+00 0. -1.
        -11    1    3    3    0    0  0.23232871488E+02  0.89180663288E+02 -0.28001530399E+02  0.96317406146E+02  0.00000000000E+00 0.  1.
         22    1    1    2    0    0 -0.35189921052E+03 -0.57666830509E+03 -0.19449358376E+04  0.20589207854E+04  0.00000000000E+00 0. -1.
<mgrwt>
<rscale>  0 0.16619105E+04</rscale>
<asrwt>0</asrwt>
<pdfrwt beam="1">  1        2 0.39127021E+00 0.16619105E+04</pdfrwt>
<pdfrwt beam="2">  1       -2 0.41768780E-01 0.16619105E+04</pdfrwt>
<totfact> 0.17064004E+01</totfact>
</mgrwt>
</event>
<event>
 6    1  0.9988873E-007  0.3653101E+04  0.7818608E-02  0.8078435E-01
          2   -1    0    0  501    0  0.00000000000E+00  0.00000000000E+00  0.17481687561E+04  0.17481687561E+04  0.00000000000E+00 0. -1.
         -2   -1    0    0    0  501 -0.00000000000E+00 -0.00000000000E+00 -0.19084467805E+04  0.19084467805E+04  0.00000000000E+00 0.  1.
         23    2    1    2    0    0  0.15211974642E+03  0.87556244098E+03  0.15159125601E+04  0.17594163164E+04  0.88345226937E+02 0.  0.
         11    1    3    3    0    0  0.12618589924E+03  0.47247910988E+03  0.84351110594E+03  0.97502326961E+03  0.00000000000E+00 0.  1.
        -11    1    3    3    0    0  0.25933847173E+02  0.40308333110E+03  0.67240145418E+03  0.78439304677E+03  0.00000000000E+00 0. -1.
         22    1    1    2    0    0 -0.15211974642E+03 -0.87556244098E+03 -0.16761905846E+04  0.18971992202E+04  0.00000000000E+00 0.  1.
<mgrwt>
<rscale>  0 0.36531012E+04</rscale>
<asrwt>0</asrwt>
<pdfrwt beam="1">  1        2 0.26894904E+00 0.36531012E+04</pdfrwt>
<pdfrwt beam="2">  1       -2 0.29360720E+00 0.36531012E+04</pdfrwt>
<totfact> 0.26021384E-01</totfact>
</mgrwt>
</event>
<event>
 6    1  0.9988873E-007  0.1273228E+04  0.7818608E-02  0.9051069E-01
          4   -1    0    0  501    0  0.00000000000E+00  0.00000000000E+00  0.24020996929E+03  0.24020996929E+03  0.00000000000E+00 0. -1.
         -4   -1    0    0    0  501 -0.00000000000E+00 -0.00000000000E+00 -0.16871801417E+04  0.16871801417E+04  0.00000000000E+00 0.  1.
         23    2    1    2    0    0 -0.23214008676E+03 -0.46023834199E+03 -0.12842540515E+04  0.13868488199E+04  0.91284331781E+02 0.  0.
         11    1    3    3    0    0 -0.14887097952E+03 -0.37817659490E+03 -0.10112585635E+04  0.10898733815E+04  0.00000000000E+00 0. -1.
        -11    1    3    3    0    0 -0.83269107240E+02 -0.82061747095E+02 -0.27299548796E+03  0.29697543838E+03  0.00000000000E+00 0.  1.
         22    1    1    2    0    0  0.23214008676E+03  0.46023834199E+03 -0.16271612089E+03  0.54054129104E+03  0.00000000000E+00 0. -1.
<mgrwt>
<rscale>  0 0.12732282E+04</rscale>
<asrwt>0</asrwt>
<pdfrwt beam="1">  1        4 0.36955378E-01 0.12732282E+04</pdfrwt>
<pdfrwt beam="2">  1       -4 0.25956619E+00 0.12732282E+04</pdfrwt>
<totfact> 0.77648679E-01</totfact>
</mgrwt>
</event>
<event>
 6    1  0.9988873E-007  0.1870413E+04  0.7818608E-02  0.8669725E-01
         -1   -1    0    0    0  501 -0.00000000000E+00  0.00000000000E+00  0.54341001429E+03  0.54341001429E+03  0.00000000000E+00 0.  1.
          1   -1    0    0  501    0  0.00000000000E+00 -0.00000000000E+00 -0.16094867419E+04  0.16094867419E+04  0.00000000000E+00 0. -1.
         23    2    1    2    0    0  0.62132515714E+03 -0.49010458757E+03  0.34880301751E+02  0.79703767866E+03  0.88345730473E+02 0.  0.
         13    1    3    3    0    0  0.37797702533E+03 -0.28605124970E+03  0.63143771780E+02  0.47820402032E+03  0.00000000000E+00 0.  1.
        -13    1    3    3    0    0  0.24334813181E+03 -0.20405333787E+03 -0.28263470028E+02  0.31883365833E+03  0.00000000000E+00 0. -1.
         22    1    1    2    0    0 -0.62132515714E+03  0.49010458757E+03 -0.11009570294E+04  0.13558590776E+04  0.00000000000E+00 0. -1.
<mgrwt>
<rscale>  0 0.18704130E+04</rscale>
<asrwt>0</asrwt>
<pdfrwt beam="1">  1        1 0.24761335E+00 0.18704130E+04</pdfrwt>
<pdfrwt beam="2">  1       -1 0.83601541E-01 0.18704130E+04</pdfrwt>
<totfact> 0.73168031E+00</totfact>
</mgrwt>
</event>
<event>
 6    1  0.9988873E-007  0.1809706E+04  0.7818608E-02  0.8701155E-01
          1   -1    0    0  501    0  0.00000000000E+00  0.00000000000E+00  0.77123515885E+03  0.77123515885E+03  0.00000000000E+00 0. -1.
         -1   -1    0    0    0  501 -0.00000000000E+00 -0.00000000000E+00 -0.10616198584E+04  0.10616198584E+04  0.00000000000E+00 0.  1.
         23    2    1    2    0    0 -0.36207485312E+03  0.34993210896E+03  0.61309664041E+03  0.79852953085E+03  0.90615898240E+02 0.  0.
         11    1    3    3    0    0 -0.29442380570E+03  0.23567560549E+03  0.42378744970E+03  0.56729548818E+03  0.00000000000E+00 0.  1.
        -11    1    3    3    0    0 -0.67651047423E+02  0.11425650347E+03  0.18930919071E+03  0.23123404268E+03  0.00000000000E+00 0. -1.
         22    1    1    2    0    0  0.36207485312E+03 -0.34993210896E+03 -0.90348133994E+03  0.10343254864E+04  0.00000000000E+00 0.  1.
<mgrwt>
<rscale>  0 0.18097056E+04</rscale>
<asrwt>0</asrwt>
<pdfrwt beam="1">  1        1 0.11865156E+00 0.18097056E+04</pdfrwt>
<pdfrwt beam="2">  1       -1 0.16332613E+00 0.18097056E+04</pdfrwt>
<totfact> 0.60959581E+00</totfact>
</mgrwt>
</event>
<event>
 6    1  0.9988873E-007  0.2054055E+04  0.7818608E-02  0.8581757E-01
         -2   -1    0    0    0  501 -0.00000000000E+00  0.00000000000E+00  0.58154498569E+03  0.58154498569E+03  0.00000000000E+00 0.  1.
          2   -1    0    0  501    0  0.00000000000E+00 -0.00000000000E+00 -0.18137637656E+04  0.18137637656E+04  0.00000000000E+00 0. -1.
         23    2    1    2    0    0 -0.15004513007E+03 -0.66308521012E+03  0.27724639055E+03  0.73980863418E+03  0.90860977276E+02 0.  0.
         13    1    3    3    0    0 -0.38237522276E+02 -0.25951434306E+03  0.64664898569E+02  0.27016911642E+03  0.00000000000E+00 0. -1.
        -13    1    3    3    0    0 -0.11180760779E+03 -0.40357086707E+03  0.21258149198E+03  0.46963951776E+03  0.00000000000E+00 0.  1.
         22    1    1    2    0    0  0.15004513007E+03  0.66308521012E+03 -0.15094651705E+04  0.16555001171E+04  0.00000000000E+00 0. -1.
<mgrwt>
<rscale>  0 0.20540547E+04</rscale>
<asrwt>0</asrwt>
<pdfrwt beam="1">  1        2 0.27904058E+00 0.20540547E+04</pdfrwt>
<pdfrwt beam="2">  1       -2 0.89468460E-01 0.20540547E+04</pdfrwt>
<totfact> 0.84017053E+00</totfact>
</mgrwt>
</event>
<event>
 6    1  0.9988873E-007  0.1379373E+04  0.7818608E-02  0.8968886E-01
          2   -1    0    0  501    0  0.00000000000E+00  0.00000000000E+00  0.71145491686E+03  0.71145491686E+03  0.00000000000E+00 0. -1.
         -2   -1    0    0    0  501 -0.00000000000E+00 -0.00000000000E+00 -0.66858424335E+03  0.66858424335E+03  0.00000000000E+00 0.  1.
         23    2    1    2    0    0 -0.51496005267E+03 -0.23005903958E+02 -0.43374625958E+03  0.67798729007E+03  0.76274637573E+02 0.  0.
         13    1    3    3    0    0 -0.20951952694E+03 -0.35580309592E+02 -0.21325009241E+03  0.30106476465E+03  0.00000000000E+00 0.  1.
        -13    1    3    3    0    0 -0.30544052573E+03  0.12574405633E+02 -0.22049616717E+03  0.37692252542E+03  0.00000000000E+00 0. -1.
         22    1    1    2    0    0  0.51496005267E+03  0.23005903958E+02  0.47661693310E+03  0.70205187014E+03  0.00000000000E+00 0. -1.
<mgrwt>
<rscale>  0 0.13793731E+04</rscale>
<asrwt>0</asrwt>
<pdfrwt beam="1">  1        2 0.10945460E+00 0.13793731E+04</pdfrwt>
<pdfrwt beam="2">  1       -2 0.10285911E+00 0.13793731E+04</pdfrwt>
<totfact> 0.30219792E+01</totfact>
</mgrwt>
</event>
<event>
 6    1  0.9988873E-007  0.1302281E+04  0.7818608E-02  0.9027759E-01
          2   -1    0    0  501    0  0.00000000000E+00  0.00000000000E+00  0.13955045570E+04  0.13955045570E+04  0.00000000000E+00 0. -1.
         -2   -1    0    0    0  501 -0.00000000000E+00 -0.00000000000E+00 -0.30382108263E+03  0.30382108263E+03  0.00000000000E+00 0.  1.
         23    2    1    2    0    0  0.10001248189E+03  0.61314766031E+03  0.30870857606E+03  0.69982464351E+03  0.92200850628E+02 0.  0.
         11    1    3    3    0    0  0.53867502498E+02  0.14746571739E+03  0.10845710867E+03  0.19081611581E+03  0.00000000000E+00 0. -1.
        -11    1    3    3    0    0  0.46144979387E+02  0.46568194291E+03  0.20025146739E+03  0.50900852770E+03  0.00000000000E+00 0.  1.
         22    1    1    2    0    0 -0.10001248189E+03 -0.61314766031E+03  0.78297489831E+03  0.99950099612E+03  0.00000000000E+00 0.  1.
<mgrwt>
<rscale>  0 0.13022806E+04</rscale>
<asrwt>0</asrwt>
<pdfrwt beam="1">  1        2 0.21469301E+00 0.13022806E+04</pdfrwt>
<pdfrwt beam="2">  1       -2 0.46741706E-01 0.13022806E+04</pdfrwt>
<totfact> 0.61878665E+01</totfact>
</mgrwt>
</event>
<event>
 6    1  0.9988873E-007  0.1865896E+04  0.7818608E-02  0.8672021E-01
          2   -1    0    0  501    0  0.00000000000E+00  0.00000000000E+00  0.16294277182E+04  0.16294277182E+04  0.00000000000E+00 0. -1.
         -2   -1    0    0    0  501 -0.00000000000E+00 -0.00000000000E+00 -0.53417008670E+03  0.53417008670E+03  0.00000000000E+00 0.  1.
         23    2    1    2    0    0  0.39643967181E+03  0.63366705684E+03  0.11916223519E+04  0.14099503332E+04  0.96424892933E+02 0.  0.
         11    1    3    3    0    0  0.31419562914E+03  0.52814283427E+03  0.10376443526E+04  0.12059683036E+04  0.00000000000E+00 0. -1.
        -11    1    3    3    0    0  0.82244042671E+02  0.10552422257E+03  0.15397799936E+03  0.20398202958E+03  0.00000000000E+00 0.  1.
         22    1    1    2    0    0 -0.39643967181E+03 -0.63366705684E+03 -0.96364720450E+02  0.75364747174E+03  0.00000000000E+00 0.  1.
<mgrwt>
<rscale>  0 0.18658955E+04</rscale>
<asrwt>0</asrwt>
<pdfrwt beam="1">  1        2 0.25068118E+00 0.18658955E+04</pdfrwt>
<pdfrwt beam="2">  1       -2 0.82180014E-01 0.18658955E+04</pdfrwt>
<totfact> 0.13116874E+01</totfact>
</mgrwt>
</event>
<event>
 6    1  0.9988873E-007  0.1433788E+04  0.7818608E-02  0.8929718E-01
         -1   -1    0    0    0  501 -0.00000000000E+00  0.00000000000E+00  0.99642339603E+03  0.99642339603E+03  0.00000000000E+00 0.  1.
          1   -1    0    0  501    0  0.00000000000E+00 -0.00000000000E+00 -0.51578157926E+03  0.51578157926E+03  0.00000000000E+00 0. -1.
         23    2    1    2    0    0 -0.44839465909E+03  0.46596305128E+03  0.56059924081E+03  0.86061267552E+03  0.90572253037E+02 0.  0.
         11    1    3    3    0    0 -0.19819407063E+03  0.16284575112E+03  0.17895641991E+03  0.31276992904E+03  0.00000000000E+00 0. -1.
        -11    1    3    3    0    0 -0.25020058846E+03  0.30311730016E+03  0.38164282090E+03  0.54784274648E+03  0.00000000000E+00 0.  1.
         22    1    1    2    0    0  0.44839465909E+03 -0.46596305128E+03 -0.79957424028E+02  0.65159229977E+03  0.00000000000E+00 0. -1.
<mgrwt>
<rscale>  0 0.14337878E+04</rscale>
<asrwt>0</asrwt>
<pdfrwt beam="1">  1        1 0.79351012E-01 0.14337878E+04</pdfrwt>
<pdfrwt beam="2">  1       -1 0.15329591E+00 0.14337878E+04</pdfrwt>
<totfact> 0.13579196E+01</totfact>
</mgrwt>
</event>
<event>
 6    1  0.9988873E-007  0.5078819E+04  0.7818608E-02  0.7816462E-01
          1   -1    0    0  501    0  0.00000000000E+00  0.00000000000E+00  0.37431389160E+04  0.37431389160E+04  0.00000000000E+00 0. -1.
         -1   -1    0    0    0  501 -0.00000000000E+00 -0.00000000000E+00 -0.17227791313E+04  0.17227791313E+04  0.00000000000E+00 0.  1.
         23    2    1    2    0    0 -0.11913223750E+04  0.17437031615E+04 -0.50571254587E+03  0.21733823776E+04  0.89978128276E+02 0.  0.
         13    1    3    3    0    0 -0.57156481096E+03  0.78452717640E+03 -0.26721590989E+03  0.10067639078E+04  0.00000000000E+00 0.  1.
        -13    1    3    3    0    0 -0.61975756403E+03  0.95917598515E+03 -0.23849663598E+03  0.11666184698E+04  0.00000000000E+00 0. -1.
         22    1    1    2    0    0  0.11913223750E+04 -0.17437031615E+04  0.25260723305E+04  0.32925356696E+04  0.00000000000E+00 0. -1.
<mgrwt>
<rscale>  0 0.50788194E+04</rscale>
<asrwt>0</asrwt>
<pdfrwt beam="1">  1        1 0.57586752E+00 0.50788194E+04</pdfrwt>
<pdfrwt beam="2">  1       -1 0.26504294E+00 0.50788194E+04</pdfrwt>
<totfact> 0.63330675E-03</totfact>
</mgrwt>
</event>
<event>
 6    1  0.9988873E-007  0.1192198E+04  0.7818608E-02  0.9119713E-01
         -2   -1    0    0    0  501 -0.00000000000E+00  0.00000000000E+00  0.21848738723E+03  0.21848738723E+03  0.00000000000E+00 0.  1.
          2   -1    0    0  501    0  0.00000000000E+00 -0.00000000000E+00 -0.16263361186E+04  0.16263361186E+04  0.00000000000E+00 0. -1.
         23    2    1    2    0    0 -0.57135729078E+03 -0.14677280069E+03 -0.79704364290E+03  0.99566258772E+03  0.89855501465E+02 0.  0.
         11    1    3    3    0    0 -0.45102781148E+03 -0.84262834252E+02 -0.57699957855E+03  0.73719388604E+03  0.00000000000E+00 0.  1.
        -11    1    3    3    0    0 -0.12032947931E+03 -0.62509966441E+02 -0.22004406435E+03  0.25846870168E+03  0.00000000000E+00 0. -1.
         22    1    1    2    0    0  0.57135729078E+03  0.14677280069E+03 -0.61080508851E+03  0.84916091814E+03  0.00000000000E+00 0. -1.
<mgrwt>
<rscale>  0 0.11921979E+04</rscale>
<asrwt>0</asrwt>
<pdfrwt beam="1">  1        2 0.25020555E+00 0.11921979E+04</pdfrwt>
<pdfrwt beam="2">  1       -2 0.33613446E-01 0.11921979E+04</pdfrwt>
<totfact> 0.88038622E+01</totfact>
</mgrwt>
</event>
<event>
 6    1  0.9988873E-007  0.4230384E+04  0.7818608E-02  0.7959618E-01
          1   -1    0    0  501    0  0.00000000000E+00  0.00000000000E+00  0.29109662613E+04  0.29109662613E+04  0.00000000000E+00 0. -1.
         -1   -1    0    0    0  501 -0.00000000000E+00 -0.00000000000E+00 -0.15369592532E+04  0.15369592532E+04  0.00000000000E+00 0.  1.
         23    2    1    2    0    0  0.32296871121E+03 -0.13892858423E+04  0.23282036314E+04  0.27318500104E+04  0.89712821426E+02 0.  0.
         11    1    3    3    0    0  0.23193578367E+03 -0.10324764809E+04  0.17986083900E+04  0.20868143262E+04  0.00000000000E+00 0.  1.
        -11    1    3    3    0    0  0.91032927543E+02 -0.35680936136E+03  0.52959524131E+03  0.64503568418E+03  0.00000000000E+00 0. -1.
         22    1    1    2    0    0 -0.32296871121E+03  0.13892858423E+04 -0.95419662318E+03  0.17160755041E+04  0.00000000000E+00 0.  1.
<mgrwt>
<rscale>  0 0.42303837E+04</rscale>
<asrwt>0</asrwt>
<pdfrwt beam="1">  1        1 0.44784096E+00 0.42303837E+04</pdfrwt>
<pdfrwt beam="2">  1       -1 0.23645527E+00 0.42303837E+04</pdfrwt>
<totfact> 0.45572580E-02</totfact>
</mgrwt>
</event>
<event>
 6    1  0.9988873E-007  0.1450577E+04  0.7818608E-02  0.8918001E-01
         -1   -1    0    0    0  501 -0.00000000000E+00  0.00000000000E+00  0.56817695977E+03  0.56817695977E+03  0.00000000000E+00 0.  1.
          1   -1    0    0  501    0  0.00000000000E+00 -0.00000000000E+00 -0.92584421782E+03  0.92584421782E+03  0.00000000000E+00 0. -1.
         23    2    1    2    0    0  0.20432723593E+03  0.15693446719E+03 -0.87465283439E+03  0.91639488623E+03  0.91563969280E+02 0.  0.
         13    1    3    3    0    0  0.72098152357E+02  0.57833412923E+02 -0.17982001670E+03  0.20218329711E+03  0.00000000000E+00 0. -1.
        -13    1    3    3    0    0  0.13222908358E+03  0.99101054264E+02 -0.69483281769E+03  0.71421158912E+03  0.00000000000E+00 0.  1.
         22    1    1    2    0    0 -0.20432723593E+03 -0.15693446719E+03  0.51698557634E+03  0.57762629136E+03  0.00000000000E+00 0.  1.
<mgrwt>
<rscale>  0 0.14505769E+04</rscale>
<asrwt>0</asrwt>
<pdfrwt beam="1">  1        1 0.14243757E+00 0.14505769E+04</pdfrwt>
<pdfrwt beam="2">  1       -1 0.87411841E-01 0.14505769E+04</pdfrwt>
<totfact> 0.21690623E+01</totfact>
</mgrwt>
</event>
<event>
 6    1  0.9988873E-007  0.1895591E+04  0.7818608E-02  0.8657054E-01
          3   -1    0    0  501    0  0.00000000000E+00  0.00000000000E+00  0.21053884582E+04  0.21053884582E+04  0.00000000000E+00 0. -1.
         -3   -1    0    0    0  501 -0.00000000000E+00 -0.00000000000E+00 -0.42667495796E+03  0.42667495796E+03  0.00000000000E+00 0.  1.
         23    2    1    2    0    0 -0.25026032141E+03  0.81088489545E+03  0.13981773128E+04  0.16382708817E+04  0.94165501254E+02 0.  0.
         13    1    3    3    0    0 -0.65175252053E+02  0.36897457158E+03  0.60550452823E+03  0.71205742862E+03  0.00000000000E+00 0. -1.
        -13    1    3    3    0    0 -0.18508506936E+03  0.44191032386E+03  0.79267278459E+03  0.92621345308E+03  0.00000000000E+00 0.  1.
         22    1    1    2    0    0  0.25026032141E+03 -0.81088489545E+03  0.28053618737E+03  0.89379253441E+03  0.00000000000E+00 0.  1.
<mgrwt>
<rscale>  0 0.18955912E+04</rscale>
<asrwt>0</asrwt>
<pdfrwt beam="1">  1        3 0.32390591E+00 0.18955912E+04</pdfrwt>
<pdfrwt beam="2">  1       -3 0.65642302E-01 0.18955912E+04</pdfrwt>
<totfact> 0.15741832E-01</totfact>
</mgrwt>
</event>
<event>
 6    1  0.9988873E-007  0.3044804E+04  0.7818608E-02  0.8231051E-01
          1   -1    0    0  501    0  0.00000000000E+00  0.00000000000E+00  0.20621747657E+04  0.20621747657E+04  0.00000000000E+00 0. -1.
         -1   -1    0    0    0  501 -0.00000000000E+00 -0.00000000000E+00 -0.11239145345E+04  0.11239145345E+04  0.00000000000E+00 0.  1.
         23    2    1    2    0    0  0.96307584379E+03  0.73215737691E+03  0.14344200557E+04  0.18785174755E+04  0.87735420653E+02 0.  0.
         13    1    3    3    0    0  0.37652382430E+03  0.24633031019E+03  0.57658335716E+03  0.73136665205E+03  0.00000000000E+00 0.  1.
        -13    1    3    3    0    0  0.58655201949E+03  0.48582706672E+03  0.85783669854E+03  0.11471508234E+04  0.00000000000E+00 0. -1.
         22    1    1    2    0    0 -0.96307584379E+03 -0.73215737691E+03 -0.49615982453E+03  0.13075718248E+04  0.00000000000E+00 0.  1.
<mgrwt>
<rscale>  0 0.30448042E+04</rscale>
<asrwt>0</asrwt>
<pdfrwt beam="1">  1        1 0.31725766E+00 0.30448042E+04</pdfrwt>
<pdfrwt beam="2">  1       -1 0.17290993E+00 0.30448042E+04</pdfrwt>
<totfact> 0.53701702E-01</totfact>
</mgrwt>
</event>
<event>
 6    1  0.9988873E-007  0.2552326E+04  0.7818608E-02  0.8384578E-01
          1   -1    0    0  501    0  0.00000000000E+00  0.00000000000E+00  0.15218145480E+04  0.15218145480E+04  0.00000000000E+00 0. -1.
         -1   -1    0    0    0  501 -0.00000000000E+00 -0.00000000000E+00 -0.10701643764E+04  0.10701643764E+04  0.00000000000E+00 0.  1.
         23    2    1    2    0    0  0.37791832966E+03  0.20868622211E+03 -0.99256690413E+03  0.10846185942E+04  0.69543025792E+02 0.  0.
         11    1    3    3    0    0  0.10234964436E+03  0.55265830375E+02 -0.19646718314E+03  0.22831801453E+03  0.00000000000E+00 0. -1.
        -11    1    3    3    0    0  0.27556868530E+03  0.15342039173E+03 -0.79609972099E+03  0.85630057963E+03  0.00000000000E+00 0.  1.
         22    1    1    2    0    0 -0.37791832966E+03 -0.20868622211E+03  0.14442170757E+04  0.15073603302E+04  0.00000000000E+00 0. -1.
<mgrwt>
<rscale>  0 0.25523258E+04</rscale>
<asrwt>0</asrwt>
<pdfrwt beam="1">  1        1 0.23412532E+00 0.25523258E+04</pdfrwt>
<pdfrwt beam="2">  1       -1 0.16464067E+00 0.25523258E+04</pdfrwt>
<totfact> 0.15067068E+00</totfact>
</mgrwt>
</event>
<event>
 6    1  0.9988873E-007  0.2296812E+04  0.7818608E-02  0.8479179E-01
          2   -1    0    0  501    0  0.00000000000E+00  0.00000000000E+00  0.93170641332E+03  0.93170641332E+03  0.00000000000E+00 0. -1.
         -2   -1    0    0    0  501 -0.00000000000E+00 -0.00000000000E+00 -0.14155058324E+04  0.14155058324E+04  0.00000000000E+00 0.  1.
         23    2    1    2    0    0 -0.64253116419E+03  0.46457136554E+03 -0.10887518134E+04  0.13498957213E+04  0.90360923162E+02 0.  0.
         13    1    3    3    0    0 -0.35782471036E+03  0.20370128263E+03 -0.57395471845E+03  0.70636871018E+03  0.00000000000E+00 0.  1.
        -13    1    3    3    0    0 -0.28470645383E+03  0.26087008291E+03 -0.51479709496E+03  0.64352701108E+03  0.00000000000E+00 0. -1.
         22    1    1    2    0    0  0.64253116419E+03 -0.46457136554E+03  0.60495239430E+03  0.99731652449E+03  0.00000000000E+00 0. -1.
<mgrwt>
<rscale>  0 0.22968116E+04</rscale>
<asrwt>0</asrwt>
<pdfrwt beam="1">  1        2 0.14333945E+00 0.22968116E+04</pdfrwt>
<pdfrwt beam="2">  1       -2 0.21777013E+00 0.22968116E+04</pdfrwt>
<totfact> 0.25845177E+00</totfact>
</mgrwt>
</event>
<event>
 6    1  0.9988873E-007  0.3148535E+04  0.7818608E-02  0.8202543E-01
          2   -1    0    0  501    0  0.00000000000E+00  0.00000000000E+00  0.41163920892E+04  0.41163920892E+04  0.00000000000E+00 0. -1.
         -2   -1    0    0    0  501 -0.00000000000E+00 -0.00000000000E+00 -0.60206062577E+03  0.60206062577E+03  0.00000000000E+00 0.  1.
         23    2    1    2    0    0  0.11810280095E+03  0.14915139034E+04  0.10306500518E+04  0.18189294180E+04  0.87765042068E+02 0.  0.
         11    1    3    3    0    0  0.26677892507E+02  0.81631461037E+03  0.53532575417E+03  0.97655256701E+03  0.00000000000E+00 0.  1.
        -11    1    3    3    0    0  0.91424908441E+02  0.67519929301E+03  0.49532429766E+03  0.84237685095E+03  0.00000000000E+00 0. -1.
         22    1    1    2    0    0 -0.11810280095E+03 -0.14915139034E+04  0.24836814116E+04  0.28995232970E+04  0.00000000000E+00 0.  1.
<mgrwt>
<rscale>  0 0.31485346E+04</rscale>
<asrwt>0</asrwt>
<pdfrwt beam="1">  1        2 0.63329107E+00 0.31485346E+04</pdfrwt>
<pdfrwt beam="2">  1       -2 0.92624714E-01 0.31485346E+04</pdfrwt>
<totfact> 0.22887031E-01</totfact>
</mgrwt>
</event>
<event>
 6    1  0.9988873E-007  0.1746153E+04  0.7818608E-02  0.8735471E-01
          1   -1    0    0  501    0  0.00000000000E+00  0.00000000000E+00  0.24778893557E+04  0.24778893557E+04  0.00000000000E+00 0. -1.
         -1   -1    0    0    0  501 -0.00000000000E+00 -0.00000000000E+00 -0.30762578248E+03  0.30762578248E+03  0.00000000000E+00 0.  1.
         23    2    1    2    0    0 -0.68978731264E+03 -0.27514476837E+03  0.36314858481E+03  0.83175574623E+03  0.91812561800E+02 0.  0.
         13    1    3    3    0    0 -0.19810223755E+03 -0.85981365905E+02  0.15255297752E+03  0.26440443029E+03  0.00000000000E+00 0. -1.
        -13    1    3    3    0    0 -0.49168507509E+03 -0.18916340246E+03  0.21059560729E+03  0.56735131595E+03  0.00000000000E+00 0.  1.
         22    1    1    2    0    0  0.68978731264E+03  0.27514476837E+03  0.18071149884E+04  0.19537593920E+04  0.00000000000E+00 0. -1.
<mgrwt>
<rscale>  0 0.17461531E+04</rscale>
<asrwt>0</asrwt>
<pdfrwt beam="1">  1        1 0.38121373E+00 0.17461531E+04</pdfrwt>
<pdfrwt beam="2">  1       -1 0.47327045E-01 0.17461531E+04</pdfrwt>
<totfact> 0.59339496E+00</totfact>
</mgrwt>
</event>
<event>
 6    1  0.9988873E-007  0.5180572E+04  0.7818608E-02  0.7801240E-01
         -1   -1    0    0    0  501 -0.00000000000E+00  0.00000000000E+00  0.15987611745E+04  0.15987611745E+04  0.00000000000E+00 0.  1.
          1   -1    0    0  501    0  0.00000000000E+00 -0.00000000000E+00 -0.41967385250E+04  0.41967385250E+04  0.00000000000E+00 0. -1.
         23    2    1    2    0    0 -0.11051558683E+04 -0.13923913265E+04  0.80690572627E+03  0.19544904746E+04  0.93877925660E+02 0.  0.
         13    1    3    3    0    0 -0.92430806853E+03 -0.11679652617E+04  0.71328485224E+03  0.16514428657E+04  0.00000000000E+00 0. -1.
        -13    1    3    3    0    0 -0.18084779974E+03 -0.22442606479E+03  0.93620874026E+02  0.30304760894E+03  0.00000000000E+00 0.  1.
         22    1    1    2    0    0  0.11051558683E+04  0.13923913265E+04 -0.34048830768E+04  0.38410092249E+04  0.00000000000E+00 0. -1.
<mgrwt>
<rscale>  0 0.51805724E+04</rscale>
<asrwt>0</asrwt>
<pdfrwt beam="1">  1        1 0.64565207E+00 0.51805724E+04</pdfrwt>
<pdfrwt beam="2">  1       -1 0.24596326E+00 0.51805724E+04</pdfrwt>
<totfact> 0.33422555E-03</totfact>
</mgrwt>
</event>
<event>
 6    1  0.9988873E-007  0.3771920E+04  0.7818608E-02  0.8052208E-01
          1   -1    0    0  501    0  0.00000000000E+00  0.00000000000E+00  0.32044851848E+04  0.32044851848E+04  0.00000000000E+00 0. -1.
         -1   -1    0    0    0  501 -0.00000000000E+00 -0.00000000000E+00 -0.11099585268E+04  0.11099585268E+04  0.00000000000E+00 0.  1.
         23    2    1    2    0    0  0.11978968699E+04  0.13571595662E+04  0.16486409582E+04  0.24501333683E+04  0.91090692492E+02 0.  0.
         11    1    3    3    0    0  0.10269782547E+04  0.11376769062E+04  0.13563842104E+04  0.20466487742E+04  0.00000000000E+00 0. -1.
        -11    1    3    3    0    0  0.17091861520E+03  0.21948265998E+03  0.29225674778E+03  0.40348459410E+03  0.00000000000E+00 0.  1.
         22    1    1    2    0    0 -0.11978968699E+04 -0.13571595662E+04  0.44588569971E+03  0.18643103433E+04  0.00000000000E+00 0.  1.
<mgrwt>
<rscale>  0 0.37719203E+04</rscale>
<asrwt>0</asrwt>
<pdfrwt beam="1">  1        1 0.49299772E+00 0.37719203E+04</pdfrwt>
<pdfrwt beam="2">  1       -1 0.17076285E+00 0.37719203E+04</pdfrwt>
<totfact> 0.81631418E-02</totfact>
</mgrwt>
</event>
<event>
 6    1  0.9988873E-007  0.6313911E+03  0.7818608E-02  0.9842338E-01
         -2   -1    0    0    0  501 -0.00000000000E+00  0.00000000000E+00  0.32330511335E+03  0.32330511335E+03  0.00000000000E+00 0.  1.
          2   -1    0    0  501    0  0.00000000000E+00 -0.00000000000E+00 -0.30826505530E+03  0.30826505530E+03  0.00000000000E+00 0. -1.
         23    2    1    2    0    0 -0.11984781312E+03  0.22657914126E+03  0.18052056197E+03  0.32647116383E+03  0.91072179907E+02 0.  0.
         13    1    3    3    0    0 -0.66555972768E+02  0.19794580475E+03  0.15818638801E+03  0.26198315305E+03  0.00000000000E+00 0. -1.
        -13    1    3    3    0    0 -0.53291840353E+02  0.28633336515E+02  0.22334173956E+02  0.64488010781E+02  0.00000000000E+00 0.  1.
         22    1    1    2    0    0  0.11984781312E+03 -0.22657914126E+03 -0.16548050392E+03  0.30509900482E+03  0.00000000000E+00 0. -1.
<mgrwt>
<rscale>  0 0.63139106E+03</rscale>
<asrwt>0</asrwt>
<pdfrwt beam="1">  1        2 0.47425393E-01 0.63139106E+03</pdfrwt>
<pdfrwt beam="2">  1       -2 0.49739248E-01 0.63139106E+03</pdfrwt>
<totfact> 0.41114930E+02</totfact>
</mgrwt>
</event>
<event>
 6    1  0.9988873E-007  0.1492921E+04  0.7818608E-02  0.8889174E-01
          4   -1    0    0  501    0  0.00000000000E+00  0.00000000000E+00  0.33334813613E+03  0.33334813613E+03  0.00000000000E+00 0. -1.
         -4   -1    0    0    0  501 -0.00000000000E+00 -0.00000000000E+00 -0.16715366877E+04  0.16715366877E+04  0.00000000000E+00 0.  1.
         23    2    1    2    0    0 -0.26894989201E+03 -0.15570220713E+03  0.23582687681E+03  0.40048406639E+03  0.90531485620E+02 0.  0.
         13    1    3    3    0    0 -0.19121552912E+03 -0.61761710076E+02  0.13287571385E+03  0.24090214349E+03  0.00000000000E+00 0. -1.
        -13    1    3    3    0    0 -0.77734362893E+02 -0.93940497059E+02  0.10295116296E+03  0.15958192290E+03  0.00000000000E+00 0.  1.
         22    1    1    2    0    0  0.26894989201E+03  0.15570220713E+03 -0.15740154283E+04  0.16044007574E+04  0.00000000000E+00 0.  1.
<mgrwt>
<rscale>  0 0.14929215E+04</rscale>
<asrwt>0</asrwt>
<pdfrwt beam="1">  1        4 0.51284328E-01 0.14929215E+04</pdfrwt>
<pdfrwt beam="2">  1       -4 0.25715949E+00 0.14929215E+04</pdfrwt>
<totfact> 0.40447870E-01</totfact>
</mgrwt>
</event>
<event>
 6    1  0.9988873E-007  0.4519974E+04  0.7818608E-02  0.7907149E-01
         -2   -1    0    0    0  501 -0.00000000000E+00  0.00000000000E+00  0.17402711477E+04  0.17402711477E+04  0.00000000000E+00 0.  1.
          2   -1    0    0  501    0  0.00000000000E+00 -0.00000000000E+00 -0.29349117692E+04  0.29349117692E+04  0.00000000000E+00 0. -1.
         23    2    1    2    0    0 -0.18738265148E+04  0.12618162131E+04 -0.59756301448E+03  0.23385383928E+04  0.90963150957E+02 0.  0.
         11    1    3    3    0    0 -0.72463928582E+03  0.49954357082E+03 -0.27770036035E+03  0.92291026857E+03  0.00000000000E+00 0.  1.
        -11    1    3    3    0    0 -0.11491872290E+04  0.76227264226E+03 -0.31986265413E+03  0.14156281242E+04  0.00000000000E+00 0. -1.
         22    1    1    2    0    0  0.18738265148E+04 -0.12618162131E+04 -0.59707760705E+03  0.23366445241E+04  0.00000000000E+00 0.  1.
<mgrwt>
<rscale>  0 0.45199745E+04</rscale>
<asrwt>0</asrwt>
<pdfrwt beam="1">  1        2 0.45152488E+00 0.45199745E+04</pdfrwt>
<pdfrwt beam="2">  1       -2 0.26773403E+00 0.45199745E+04</pdfrwt>
<totfact> 0.72332692E-02</totfact>
</mgrwt>
</event>
<event>
 6    1  0.9988873E-007  0.3198243E+04  0.7818608E-02  0.8189281E-01
         -2   -1    0    0    0  501 -0.00000000000E+00  0.00000000000E+00  0.18622590015E+04  0.18622590015E+04  0.00000000000E+00 0.  1.
          2   -1    0    0  501    0  0.00000000000E+00 -0.00000000000E+00 -0.13731654037E+04  0.13731654037E+04  0.00000000000E+00 0. -1.
         23    2    1    2    0    0 -0.87309457409E+03  0.12573126828E+04  0.70798169273E+03  0.16891251729E+04  0.93682734099E+02 0.  0.
         11    1    3    3    0    0 -0.41397392612E+03  0.64993303285E+03  0.39509778388E+03  0.86596167209E+03  0.00000000000E+00 0. -1.
        -11    1    3    3    0    0 -0.45912064797E+03  0.60737964998E+03  0.31288390885E+03  0.82316350078E+03  0.00000000000E+00 0.  1.
         22    1    1    2    0    0  0.87309457409E+03 -0.12573126828E+04 -0.21888809501E+03  0.15462992323E+04  0.00000000000E+00 0. -1.
<mgrwt>
<rscale>  0 0.31982430E+04</rscale>
<asrwt>0</asrwt>
<pdfrwt beam="1">  1        2 0.21125622E+00 0.31982430E+04</pdfrwt>
<pdfrwt beam="2">  1       -2 0.28650138E+00 0.31982430E+04</pdfrwt>
<totfact> 0.48530111E-01</totfact>
</mgrwt>
</event>
<event>
 6    1  0.9988873E-007  0.1334676E+04  0.7818608E-02  0.9002510E-01
          2   -1    0    0  501    0  0.00000000000E+00  0.00000000000E+00  0.36422654937E+04  0.36422654937E+04  0.00000000000E+00 0. -1.
         -2   -1    0    0    0  501 -0.00000000000E+00 -0.00000000000E+00 -0.12226998024E+03  0.12226998024E+03  0.00000000000E+00 0.  1.
         23    2    1    2    0    0  0.50981529866E+03  0.32248990772E+03  0.25512792350E+04  0.26233419726E+04  0.94794466944E+02 0.  0.
         13    1    3    3    0    0  0.37185018576E+03  0.27756031548E+03  0.20195437551E+04  0.20721653573E+04  0.00000000000E+00 0.  1.
        -13    1    3    3    0    0  0.13796511290E+03  0.44929592244E+02  0.53173547995E+03  0.55117661532E+03  0.00000000000E+00 0. -1.
         22    1    1    2    0    0 -0.50981529866E+03 -0.32248990772E+03  0.96871627840E+03  0.11411935013E+04  0.00000000000E+00 0.  1.
<mgrwt>
<rscale>  0 0.13346756E+04</rscale>
<asrwt>0</asrwt>
<pdfrwt beam="1">  1        2 0.56034845E+00 0.13346756E+04</pdfrwt>
<pdfrwt beam="2">  1       -2 0.18810769E-01 0.13346756E+04</pdfrwt>
<totfact> 0.15316798E+01</totfact>
</mgrwt>
</event>
<event>
 6    1  0.9988873E-007  0.2018918E+04  0.7818608E-02  0.8597827E-01
         -2   -1    0    0    0  501 -0.00000000000E+00  0.00000000000E+00  0.64315112709E+03  0.64315112709E+03  0.00000000000E+00 0.  1.
          2   -1    0    0  501    0  0.00000000000E+00 -0.00000000000E+00 -0.15843975437E+04  0.15843975437E+04  0.00000000000E+00 0. -1.
         23    2    1    2    0    0 -0.37446136109E+03 -0.93325717023E+03 -0.53325637520E+03  0.11423546187E+04  0.97064187617E+02 0.  0.
         11    1    3    3    0    0 -0.16747813092E+03 -0.38484401117E+03 -0.17052133020E+03  0.45302468070E+03  0.00000000000E+00 0.  1.
        -11    1    3    3    0    0 -0.20698323018E+03 -0.54841315906E+03 -0.36273504499E+03  0.68932993804E+03  0.00000000000E+00 0. -1.
         22    1    1    2    0    0  0.37446136109E+03  0.93325717023E+03 -0.40799004141E+03  0.10851940521E+04  0.00000000000E+00 0. -1.
<mgrwt>
<rscale>  0 0.20189176E+04</rscale>
<asrwt>0</asrwt>
<pdfrwt beam="1">  1        2 0.24375347E+00 0.20189176E+04</pdfrwt>
<pdfrwt beam="2">  1       -2 0.98946328E-01 0.20189176E+04</pdfrwt>
<totfact> 0.89407639E+00</totfact>
</mgrwt>
</event>
<event>
 6    1  0.9988873E-007  0.4620314E+04  0.7818608E-02  0.7889905E-01
         -1   -1    0    0    0  501 -0.00000000000E+00  0.00000000000E+00  0.16227529687E+04  0.16227529687E+04  0.00000000000E+00 0.  1.
          1   -1    0    0  501    0  0.00000000000E+00 -0.00000000000E+00 -0.32887477874E+04  0.32887477874E+04  0.00000000000E+00 0. -1.
         23    2    1    2    0    0 -0.55895481565E+03  0.22084295739E+04 -0.12354124572E+04  0.25930976766E+04  0.91213771308E+02 0.  0.
         13    1    3    3    0    0 -0.38022529938E+03  0.16068289361E+04 -0.93091427955E+03  0.18955400033E+04  0.00000000000E+00 0.  1.
        -13    1    3    3    0    0 -0.17872951627E+03  0.60160063785E+03 -0.30449817769E+03  0.69755767336E+03  0.00000000000E+00 0. -1.
         22    1    1    2    0    0  0.55895481565E+03 -0.22084295739E+04 -0.43058236145E+03  0.23184030795E+04  0.00000000000E+00 0.  1.
<mgrwt>
<rscale>  0 0.46203139E+04</rscale>
<asrwt>0</asrwt>
<pdfrwt beam="1">  1        1 0.50596120E+00 0.46203139E+04</pdfrwt>
<pdfrwt beam="2">  1       -1 0.24965430E+00 0.46203139E+04</pdfrwt>
<totfact> 0.18981842E-02</totfact>
</mgrwt>
</event>
<event>
 6    1  0.9988873E-007  0.1971996E+04  0.7818608E-02  0.8619826E-01
          2   -1    0    0  501    0  0.00000000000E+00  0.00000000000E+00  0.13877404030E+04  0.13877404030E+04  0.00000000000E+00 0. -1.
         -2   -1    0    0    0  501 -0.00000000000E+00 -0.00000000000E+00 -0.70055773225E+03  0.70055773225E+03  0.00000000000E+00 0.  1.
         23    2    1    2    0    0 -0.57257622912E+03 -0.79051271321E+03  0.21261300946E+03  0.10029547558E+04  0.89219182339E+02 0.  0.
         13    1    3    3    0    0 -0.20595848178E+02 -0.28939555191E+02  0.26074982423E+02  0.44063494247E+02  0.00000000000E+00 0.  1.
        -13    1    3    3    0    0 -0.55198038094E+03 -0.76157315802E+03  0.18653802704E+03  0.95889126156E+03  0.00000000000E+00 0. -1.
         22    1    1    2    0    0  0.57257622912E+03  0.79051271321E+03  0.47456966127E+03  0.10853433794E+04  0.00000000000E+00 0. -1.
<mgrwt>
<rscale>  0 0.19719962E+04</rscale>
<asrwt>0</asrwt>
<pdfrwt beam="1">  1        2 0.21349852E+00 0.19719962E+04</pdfrwt>
<pdfrwt beam="2">  1       -2 0.10777811E+00 0.19719962E+04</pdfrwt>
<totfact> 0.94544113E+00</totfact>
</mgrwt>
</event>
<event>
 6    1  0.9988873E-007  0.3083469E+04  0.7818608E-02  0.8220289E-01
          2   -1    0    0  501    0  0.00000000000E+00  0.00000000000E+00  0.15794526545E+04  0.15794526545E+04  0.00000000000E+00 0. -1.
         -2   -1    0    0    0  501 -0.00000000000E+00 -0.00000000000E+00 -0.15049175289E+04  0.15049175289E+04  0.00000000000E+00 0.  1.
         23    2    1    2    0    0  0.48970924204E+03 -0.20403392950E+03  0.14838970231E+04  0.15784664866E+04  0.90338739527E+02 0.  0.
         11    1    3    3    0    0  0.20941958235E+03 -0.60746782641E+02  0.71865682354E+03  0.75100889681E+03  0.00000000000E+00 0. -1.
        -11    1    3    3    0    0  0.28028965969E+03 -0.14328714686E+03  0.76524019958E+03  0.82745758975E+03  0.00000000000E+00 0.  1.
         22    1    1    2    0    0 -0.48970924204E+03  0.20403392950E+03 -0.14093618975E+04  0.15059036969E+04  0.00000000000E+00 0.  1.
<mgrwt>
<rscale>  0 0.30834695E+04</rscale>
<asrwt>0</asrwt>
<pdfrwt beam="1">  1        2 0.24299272E+00 0.30834695E+04</pdfrwt>
<pdfrwt beam="2">  1       -2 0.23152577E+00 0.30834695E+04</pdfrwt>
<totfact> 0.81434641E-01</totfact>
</mgrwt>
</event>
<event>
 6    1  0.9988873E-007  0.1342525E+04  0.7818608E-02  0.8996506E-01
         -1   -1    0    0    0  501 -0.00000000000E+00  0.00000000000E+00  0.53734059891E+03  0.53734059891E+03  0.00000000000E+00 0.  1.
          1   -1    0    0  501    0  0.00000000000E+00 -0.00000000000E+00 -0.83856165008E+03  0.83856165008E+03  0.00000000000E+00 0. -1.
         23    2    1    2    0    0 -0.31383371209E+03  0.45755845804E+03 -0.53193492018E+03  0.77500273101E+03  0.99111716772E+02 0.  0.
         11    1    3    3    0    0 -0.36238285524E+02  0.23683295224E+02 -0.74297704407E+02  0.85989887141E+02  0.00000000000E+00 0.  1.
        -11    1    3    3    0    0 -0.27759542656E+03  0.43387516282E+03 -0.45763721577E+03  0.68901284387E+03  0.00000000000E+00 0. -1.
         22    1    1    2    0    0  0.31383371209E+03 -0.45755845804E+03  0.23071386900E+03  0.60089951799E+03  0.00000000000E+00 0.  1.
<mgrwt>
<rscale>  0 0.13425248E+04</rscale>
<asrwt>0</asrwt>
<pdfrwt beam="1">  1        1 0.12900948E+00 0.13425248E+04</pdfrwt>
<pdfrwt beam="2">  1       -1 0.82667785E-01 0.13425248E+04</pdfrwt>
<totfact> 0.29175488E+01</totfact>
</mgrwt>
</event>
<event>
 6    1  0.9988873E-007  0.2133080E+04  0.7818608E-02  0.8546810E-01
          3   -1    0    0  501    0  0.00000000000E+00  0.00000000000E+00  0.28943198067E+04  0.28943198067E+04  0.00000000000E+00 0. -1.
         -3   -1    0    0    0  501 -0.00000000000E+00 -0.00000000000E+00 -0.39301391810E+03  0.39301391810E+03  0.00000000000E+00 0.  1.
         23    2    1    2    0    0 -0.43522388235E+03 -0.44293893218E+03 -0.79793804806E+02  0.63258508271E+03  0.90455017392E+02 0.  0.
         11    1    3    3    0    0 -0.41394869448E+02 -0.24195669998E+02  0.14422988500E+02  0.50069833838E+02  0.00000000000E+00 0. -1.
        -11    1    3    3    0    0 -0.39382901290E+03 -0.41874326218E+03 -0.94216793306E+02  0.58251524887E+03  0.00000000000E+00 0.  1.
         22    1    1    2    0    0  0.43522388235E+03  0.44293893218E+03  0.25810996934E+04  0.26547486420E+04  0.00000000000E+00 0. -1.
<mgrwt>
<rscale>  0 0.21330804E+04</rscale>
<asrwt>0</asrwt>
<pdfrwt beam="1">  1        3 0.44527996E+00 0.21330804E+04</pdfrwt>
<pdfrwt beam="2">  1       -3 0.60463682E-01 0.21330804E+04</pdfrwt>
<totfact> 0.41477222E-02</totfact>
</mgrwt>
</event>
<event>
 6    1  0.9988873E-007  0.3620867E+04  0.7818608E-02  0.8085729E-01
          2   -1    0    0  501    0  0.00000000000E+00  0.00000000000E+00  0.18247857528E+04  0.18247857528E+04  0.00000000000E+00 0. -1.
         -2   -1    0    0    0  501 -0.00000000000E+00 -0.00000000000E+00 -0.17961937304E+04  0.17961937304E+04  0.00000000000E+00 0.  1.
         23    2    1    2    0    0 -0.12949113417E+04  0.31624490204E+02 -0.12488717446E+04  0.18017188732E+04  0.93352945573E+02 0.  0.
         11    1    3    3    0    0 -0.82591350030E+03  0.58326455824E+02 -0.76380093034E+03  0.11264665759E+04  0.00000000000E+00 0.  1.
        -11    1    3    3    0    0 -0.46899784141E+03 -0.26701965621E+02 -0.48507081424E+03  0.67525229732E+03  0.00000000000E+00 0. -1.
         22    1    1    2    0    0  0.12949113417E+04 -0.31624490204E+02  0.12774637670E+04  0.18192606100E+04  0.00000000000E+00 0. -1.
<mgrwt>
<rscale>  0 0.36208666E+04</rscale>
<asrwt>0</asrwt>
<pdfrwt beam="1">  1        2 0.28073627E+00 0.36208666E+04</pdfrwt>
<pdfrwt beam="2">  1       -2 0.27633750E+00 0.36208666E+04</pdfrwt>
<totfact> 0.30157113E-01</totfact>
</mgrwt>
</event>
<event>
 6    1  0.9988873E-007  0.1483644E+04  0.7818608E-02  0.8895403E-01
          2   -1    0    0  501    0  0.00000000000E+00  0.00000000000E+00  0.11396192745E+04  0.11396192745E+04  0.00000000000E+00 0. -1.
         -2   -1    0    0    0  501 -0.00000000000E+00 -0.00000000000E+00 -0.48288022794E+03  0.48288022794E+03  0.00000000000E+00 0.  1.
         23    2    1    2    0    0 -0.13956454007E+03 -0.71870456180E+03  0.43803363669E+03  0.85840097193E+03  0.94679743034E+02 0.  0.
         13    1    3    3    0    0 -0.98458554288E+02 -0.63427956589E+03  0.35763632903E+03  0.73478459324E+03  0.00000000000E+00 0. -1.
        -13    1    3    3    0    0 -0.41105985784E+02 -0.84424995907E+02  0.80397307663E+02  0.12361637869E+03  0.00000000000E+00 0.  1.
         22    1    1    2    0    0  0.13956454007E+03  0.71870456180E+03  0.21870540985E+03  0.76409853049E+03  0.00000000000E+00 0.  1.
<mgrwt>
<rscale>  0 0.14836436E+04</rscale>
<asrwt>0</asrwt>
<pdfrwt beam="1">  1        2 0.17532604E+00 0.14836436E+04</pdfrwt>
<pdfrwt beam="2">  1       -2 0.74289266E-01 0.14836436E+04</pdfrwt>
<totfact> 0.32504584E+01</totfact>
</mgrwt>
</event>
<event>
 6    1  0.9988873E-007  0.3143853E+04  0.7818608E-02  0.8203805E-01
          2   -1    0    0  501    0  0.00000000000E+00  0.00000000000E+00  0.25966286628E+04  0.25966286628E+04  0.00000000000E+00 0. -1.
         -2   -1    0    0    0  501 -0.00000000000E+00 -0.00000000000E+00 -0.95160022246E+03  0.95160022246E+03  0.00000000000E+00 0.  1.
         23    2    1    2    0    0 -0.99301149160E+03  0.78185630322E+01  0.21966042968E+04  0.24122848383E+04  0.88964892392E+02 0.  0.
         13    1    3    3    0    0 -0.40079721825E+03  0.46381709683E+02  0.90391569636E+03  0.98987537563E+03  0.00000000000E+00 0. -1.
        -13    1    3    3    0    0 -0.59221427335E+03 -0.38563146651E+02  0.12926886005E+04  0.14224094627E+04  0.00000000000E+00 0.  1.
         22    1    1    2    0    0  0.99301149160E+03 -0.78185630322E+01 -0.55157585645E+03  0.11359440469E+04  0.00000000000E+00 0.  1.
<mgrwt>
<rscale>  0 0.31438527E+04</rscale>
<asrwt>0</asrwt>
<pdfrwt beam="1">  1        2 0.39948133E+00 0.31438527E+04</pdfrwt>
<pdfrwt beam="2">  1       -2 0.14640004E+00 0.31438527E+04</pdfrwt>
<totfact> 0.82605545E-01</totfact>
</mgrwt>
</event>
<event>
 6    1  0.9988873E-007  0.1018922E+04  0.7818608E-02  0.9288032E-01
          1   -1    0    0  501    0  0.00000000000E+00  0.00000000000E+00  0.39941609783E+03  0.39941609783E+03  0.00000000000E+00 0. -1.
         -1   -1    0    0    0  501 -0.00000000000E+00 -0.00000000000E+00 -0.64982468623E+03  0.64982468623E+03  0.00000000000E+00 0.  1.
         23    2    1    2    0    0 -0.44340334090E+03 -0.22462804777E+03 -0.32415964624E+02  0.50648387109E+03  0.91710601027E+02 0.  0.
         11    1    3    3    0    0 -0.33164509011E+03 -0.19515422463E+03  0.55043685963E+01  0.38484274095E+03  0.00000000000E+00 0. -1.
        -11    1    3    3    0    0 -0.11175825079E+03 -0.29473823142E+02 -0.37920333220E+02  0.12164113014E+03  0.00000000000E+00 0.  1.
         22    1    1    2    0    0  0.44340334090E+03  0.22462804777E+03 -0.21799262377E+03  0.54275691298E+03  0.00000000000E+00 0. -1.
<mgrwt>
<rscale>  0 0.10189219E+04</rscale>
<asrwt>0</asrwt>
<pdfrwt beam="1">  1        1 0.61448631E-01 0.10189219E+04</pdfrwt>
<pdfrwt beam="2">  1       -1 0.99973028E-01 0.10189219E+04</pdfrwt>
<totfact> 0.57451664E+01</totfact>
</mgrwt>
</event>
<event>
 6    1  0.9988873E-007  0.1885162E+04  0.7818608E-02  0.8662278E-01
          1   -1    0    0  501    0  0.00000000000E+00  0.00000000000E+00  0.53138051067E+03  0.53138051067E+03  0.00000000000E+00 0. -1.
         -1   -1    0    0    0  501 -0.00000000000E+00 -0.00000000000E+00 -0.16719818430E+04  0.16719818430E+04  0.00000000000E+00 0.  1.
         23    2    1    2    0    0  0.76435194088E+03  0.46230000209E+03 -0.91519312655E+03  0.12820784448E+04  0.90506896310E+02 0.  0.
         11    1    3    3    0    0  0.24968767437E+03  0.15268608800E+03 -0.24078491047E+03  0.37899122590E+03  0.00000000000E+00 0.  1.
        -11    1    3    3    0    0  0.51466426651E+03  0.30961391409E+03 -0.67440821609E+03  0.90308721890E+03  0.00000000000E+00 0. -1.
         22    1    1    2    0    0 -0.76435194088E+03 -0.46230000209E+03 -0.22540820574E+03  0.92128390883E+03  0.00000000000E+00 0. -1.
<mgrwt>
<rscale>  0 0.18851616E+04</rscale>
<asrwt>0</asrwt>
<pdfrwt beam="1">  1        1 0.81750849E-01 0.18851616E+04</pdfrwt>
<pdfrwt beam="2">  1       -1 0.25722797E+00 0.18851616E+04</pdfrwt>
<totfact> 0.23861974E+00</totfact>
</mgrwt>
</event>
<event>
 6    1  0.9988873E-007  0.4656697E+04  0.7818608E-02  0.7883764E-01
          2   -1    0    0  501    0  0.00000000000E+00  0.00000000000E+00  0.42705994798E+04  0.42705994798E+04  0.00000000000E+00 0. -1.
         -2   -1    0    0    0  501 -0.00000000000E+00 -0.00000000000E+00 -0.12694251221E+04  0.12694251221E+04  0.00000000000E+00 0.  1.
         23    2    1    2    0    0  0.61972183250E+03  0.19359131714E+04  0.28498382237E+04  0.35017121670E+04  0.92710529264E+02 0.  0.
         13    1    3    3    0    0  0.45832937158E+03  0.13703867594E+04  0.19596875316E+04  0.24348307754E+04  0.00000000000E+00 0.  1.
        -13    1    3    3    0    0  0.16139246092E+03  0.56552641200E+03  0.89015069213E+03  0.10668813916E+04  0.00000000000E+00 0. -1.
         22    1    1    2    0    0 -0.61972183250E+03 -0.19359131714E+04  0.15133613404E+03  0.20383124349E+04  0.00000000000E+00 0.  1.
<mgrwt>
<rscale>  0 0.46566968E+04</rscale>
<asrwt>0</asrwt>
<pdfrwt beam="1">  1        2 0.65701530E+00 0.46566968E+04</pdfrwt>
<pdfrwt beam="2">  1       -2 0.19529618E+00 0.46566968E+04</pdfrwt>
<totfact> 0.21402559E-02</totfact>
</mgrwt>
</event>
<event>
 6    1  0.9988873E-007  0.1497516E+04  0.7818608E-02  0.8886107E-01
         -2   -1    0    0    0  501 -0.00000000000E+00  0.00000000000E+00  0.25776931108E+03  0.25776931108E+03  0.00000000000E+00 0.  1.
          2   -1    0    0  501    0  0.00000000000E+00 -0.00000000000E+00 -0.21749613959E+04  0.21749613959E+04  0.00000000000E+00 0. -1.
         23    2    1    2    0    0  0.23858264243E+03  0.67604228412E+03 -0.63186399213E+03  0.96098916953E+03  0.10145556773E+03 0.  0.
         13    1    3    3    0    0  0.22859783768E+03  0.60811537885E+03 -0.53143885779E+03  0.83933815888E+03  0.00000000000E+00 0. -1.
        -13    1    3    3    0    0  0.99848047484E+01  0.67926905273E+02 -0.10042513434E+03  0.12165101065E+03  0.00000000000E+00 0.  1.
         22    1    1    2    0    0 -0.23858264243E+03 -0.67604228412E+03 -0.12853280927E+04  0.14717415375E+04  0.00000000000E+00 0.  1.
<mgrwt>
<rscale>  0 0.14975157E+04</rscale>
<asrwt>0</asrwt>
<pdfrwt beam="1">  1        2 0.33460945E+00 0.14975157E+04</pdfrwt>
<pdfrwt beam="2">  1       -2 0.39656817E-01 0.14975157E+04</pdfrwt>
<totfact> 0.31035625E+01</totfact>
</mgrwt>
</event>
<event>
 6    1  0.9988873E-007  0.9139920E+03  0.7818608E-02  0.9408258E-01
          2   -1    0    0  501    0  0.00000000000E+00  0.00000000000E+00  0.83045190331E+03  0.83045190331E+03  0.00000000000E+00 0. -1.
         -2   -1    0    0    0  501 -0.00000000000E+00 -0.00000000000E+00 -0.25148398247E+03  0.25148398247E+03  0.00000000000E+00 0.  1.
         23    2    1    2    0    0  0.19237786739E+02 -0.36928694842E+03 -0.16222791689E+02  0.38122558402E+03  0.91251434124E+02 0.  0.
         13    1    3    3    0    0  0.51112779322E+02 -0.13736567436E+03 -0.12435961945E+02  0.14709350038E+03  0.00000000000E+00 0. -1.
        -13    1    3    3    0    0 -0.31874992583E+02 -0.23192127405E+03 -0.37868297436E+01  0.23413208364E+03  0.00000000000E+00 0.  1.
         22    1    1    2    0    0 -0.19237786739E+02  0.36928694842E+03  0.59519071253E+03  0.70071030176E+03  0.00000000000E+00 0. -1.
<mgrwt>
<rscale>  0 0.91399202E+03</rscale>
<asrwt>0</asrwt>
<pdfrwt beam="1">  1        2 0.12776183E+00 0.91399202E+03</pdfrwt>
<pdfrwt beam="2">  1       -2 0.38689844E-01 0.91399202E+03</pdfrwt>
<totfact> 0.20709238E+02</totfact>
</mgrwt>
</event>
<event>
 6    1  0.9988873E-007  0.2564469E+04  0.7818608E-02  0.8380371E-01
          2   -1    0    0  501    0  0.00000000000E+00  0.00000000000E+00  0.12257243820E+04  0.12257243820E+04  0.00000000000E+00 0. -1.
         -2   -1    0    0    0  501 -0.00000000000E+00 -0.00000000000E+00 -0.13413501087E+04  0.13413501087E+04  0.00000000000E+00 0.  1.
         23    2    1    2    0    0  0.90713140655E+03  0.17036993415E+03 -0.94642983612E+03  0.13252416631E+04  0.92858644375E+02 0.  0.
         11    1    3    3    0    0  0.55473387900E+03  0.80419882605E+02 -0.62882016266E+03  0.84238460990E+03  0.00000000000E+00 0.  1.
        -11    1    3    3    0    0  0.35239752756E+03  0.89950051541E+02 -0.31760967346E+03  0.48285705325E+03  0.00000000000E+00 0. -1.
         22    1    1    2    0    0 -0.90713140655E+03 -0.17036993415E+03  0.83080410941E+03  0.12418328275E+04  0.00000000000E+00 0. -1.
<mgrwt>
<rscale>  0 0.25644692E+04</rscale>
<asrwt>0</asrwt>
<pdfrwt beam="1">  1        2 0.18857298E+00 0.25644692E+04</pdfrwt>
<pdfrwt beam="2">  1       -2 0.20636155E+00 0.25644692E+04</pdfrwt>
<totfact> 0.19605927E+00</totfact>
</mgrwt>
</event>
<event>
 6    1  0.9988873E-007  0.2342322E+04  0.7818608E-02  0.8461418E-01
         -1   -1    0    0    0  501 -0.00000000000E+00  0.00000000000E+00  0.14700906181E+04  0.14700906181E+04  0.00000000000E+00 0.  1.
          1   -1    0    0  501    0  0.00000000000E+00 -0.00000000000E+00 -0.93301638868E+03  0.93301638868E+03  0.00000000000E+00 0. -1.
         23    2    1    2    0    0 -0.10160427793E+04 -0.51134997989E+03 -0.88895833876E+01  0.11414025183E+04  0.94334261850E+02 0.  0.
         11    1    3    3    0    0 -0.52066050571E+03 -0.31016687229E+03 -0.23895567194E+02  0.60651615725E+03  0.00000000000E+00 0. -1.
        -11    1    3    3    0    0 -0.49538227354E+03 -0.20118310760E+03  0.15005983806E+02  0.53488636108E+03  0.00000000000E+00 0.  1.
         22    1    1    2    0    0  0.10160427793E+04  0.51134997989E+03  0.54596381277E+03  0.12617044884E+04  0.00000000000E+00 0.  1.
<mgrwt>
<rscale>  0 0.23423225E+04</rscale>
<asrwt>0</asrwt>
<pdfrwt beam="1">  1        1 0.14354098E+00 0.23423225E+04</pdfrwt>
<pdfrwt beam="2">  1       -1 0.22616779E+00 0.23423225E+04</pdfrwt>
<totfact> 0.15417123E+00</totfact>
</mgrwt>
</event>
<event>
 6    1  0.9988873E-007  0.1911941E+04  0.7818608E-02  0.8648936E-01
          1   -1    0    0  501    0  0.00000000000E+00  0.00000000000E+00  0.10383368981E+04  0.10383368981E+04  0.00000000000E+00 0. -1.
         -1   -1    0    0    0  501 -0.00000000000E+00 -0.00000000000E+00 -0.88013740825E+03  0.88013740825E+03  0.00000000000E+00 0.  1.
         23    2    1    2    0    0  0.45974252541E+03 -0.54926233687E+03 -0.55291581664E+03  0.90914914393E+03  0.88226760339E+02 0.  0.
         13    1    3    3    0    0  0.21737501146E+03 -0.30961280006E+03 -0.32885089742E+03  0.50125332349E+03  0.00000000000E+00 0. -1.
        -13    1    3    3    0    0  0.24236751395E+03 -0.23964953681E+03 -0.22406491922E+03  0.40789582044E+03  0.00000000000E+00 0.  1.
         22    1    1    2    0    0 -0.45974252541E+03  0.54926233687E+03  0.71111530653E+03  0.10093251625E+04  0.00000000000E+00 0. -1.
<mgrwt>
<rscale>  0 0.19119405E+04</rscale>
<asrwt>0</asrwt>
<pdfrwt beam="1">  1        1 0.15974414E+00 0.19119405E+04</pdfrwt>
<pdfrwt beam="2">  1       -1 0.13540575E+00 0.19119405E+04</pdfrwt>
<totfact> 0.60368074E+00</totfact>
</mgrwt>
</event>
<event>
 6    1  0.9988873E-007  0.1520184E+04  0.7818608E-02  0.8871141E-01
          1   -1    0    0  501    0  0.00000000000E+00  0.00000000000E+00  0.17758907765E+04  0.17758907765E+04  0.00000000000E+00 0. -1.
         -1   -1    0    0    0  501 -0.00000000000E+00 -0.00000000000E+00 -0.32532391255E+03  0.32532391255E+03  0.00000000000E+00 0.  1.
         23    2    1    2    0    0  0.73361803244E+03 -0.22868739188E+02  0.98941115065E+03  0.12343911842E+04  0.77902334746E+02 0.  0.
         11    1    3    3    0    0  0.28384772323E+03 -0.26384793936E+02  0.44111602512E+03  0.52521332328E+03  0.00000000000E+00 0.  1.
        -11    1    3    3    0    0  0.44977030921E+03  0.35160547478E+01  0.54829512553E+03  0.70917786089E+03  0.00000000000E+00 0. -1.
         22    1    1    2    0    0 -0.73361803244E+03  0.22868739188E+02  0.46115571335E+03  0.86682350493E+03  0.00000000000E+00 0.  1.
<mgrwt>
<rscale>  0 0.15201839E+04</rscale>
<asrwt>0</asrwt>
<pdfrwt beam="1">  1        1 0.27321396E+00 0.15201839E+04</pdfrwt>
<pdfrwt beam="2">  1       -1 0.50049834E-01 0.15201839E+04</pdfrwt>
<totfact> 0.16371948E+01</totfact>
</mgrwt>
</event>
<event>
 6    1  0.9988873E-007  0.8493804E+03  0.7818608E-02  0.9491169E-01
         -2   -1    0    0    0  501 -0.00000000000E+00  0.00000000000E+00  0.22742410603E+03  0.22742410603E+03  0.00000000000E+00 0.  1.
          2   -1    0    0  501    0  0.00000000000E+00 -0.00000000000E+00 -0.79306344417E+03  0.79306344417E+03  0.00000000000E+00 0. -1.
         23    2    1    2    0    0  0.96633233949E+02 -0.15633569095E+03 -0.73949774828E+03  0.76749431523E+03  0.91715723957E+02 0.  0.
         13    1    3    3    0    0  0.14187844683E+02 -0.64785188776E+02 -0.41744251086E+03  0.42267796902E+03  0.00000000000E+00 0. -1.
        -13    1    3    3    0    0  0.82445389266E+02 -0.91550502175E+02 -0.32205523742E+03  0.34481634620E+03  0.00000000000E+00 0.  1.
         22    1    1    2    0    0 -0.96633233949E+02  0.15633569095E+03  0.17385841014E+03  0.25299323498E+03  0.00000000000E+00 0.  1.
<mgrwt>
<rscale>  0 0.84938035E+03</rscale>
<asrwt>0</asrwt>
<pdfrwt beam="1">  1        2 0.12200976E+00 0.84938035E+03</pdfrwt>
<pdfrwt beam="2">  1       -2 0.34988323E-01 0.84938035E+03</pdfrwt>
<totfact> 0.26808332E+02</totfact>
</mgrwt>
</event>
<event>
 6    1  0.9988873E-007  0.3308302E+04  0.7818608E-02  0.8160786E-01
          2   -1    0    0  501    0  0.00000000000E+00  0.00000000000E+00  0.22767389278E+04  0.22767389278E+04  0.00000000000E+00 0. -1.
         -2   -1    0    0    0  501 -0.00000000000E+00 -0.00000000000E+00 -0.12018135430E+04  0.12018135430E+04  0.00000000000E+00 0.  1.
         23    2    1    2    0    0  0.13690745516E+03 -0.15236017484E+04  0.11960010883E+04  0.19440280282E+04  0.93383253657E+02 0.  0.
         13    1    3    3    0    0  0.51724885802E+02 -0.25509154791E+03  0.22928322181E+03  0.34686878993E+03  0.00000000000E+00 0. -1.
        -13    1    3    3    0    0  0.85182569354E+02 -0.12685102005E+04  0.96671786647E+03  0.15971592382E+04  0.00000000000E+00 0.  1.
         22    1    1    2    0    0 -0.13690745516E+03  0.15236017484E+04 -0.12107570344E+03  0.15345244426E+04  0.00000000000E+00 0.  1.
<mgrwt>
<rscale>  0 0.33083021E+04</rscale>
<asrwt>0</asrwt>
<pdfrwt beam="1">  1        2 0.35026753E+00 0.33083021E+04</pdfrwt>
<pdfrwt beam="2">  1       -2 0.18489439E+00 0.33083021E+04</pdfrwt>
<totfact> 0.65463156E-01</totfact>
</mgrwt>
</event>
<event>
 6    1  0.1643040E-006  0.3698854E+04  0.7818608E-02  0.8068216E-01
          2   -1    0    0  501    0  0.00000000000E+00  0.00000000000E+00  0.17872692648E+04  0.17872692648E+04  0.00000000000E+00 0. -1.
         -2   -1    0    0    0  501 -0.00000000000E+00 -0.00000000000E+00 -0.19137464973E+04  0.19137464973E+04  0.00000000000E+00 0.  1.
         23    2    1    2    0    0 -0.64773273703E+03  0.52188133402E+03  0.15883613744E+04  0.17950804869E+04  0.86627208334E+02 0.  0.
         11    1    3    3    0    0 -0.26294396251E+03  0.24482207263E+03  0.61168263208E+03  0.70938918589E+03  0.00000000000E+00 0.  1.
        -11    1    3    3    0    0 -0.38478877452E+03  0.27705926139E+03  0.97667874233E+03  0.10856913010E+04  0.00000000000E+00 0. -1.
         22    1    1    2    0    0  0.64773273703E+03 -0.52188133402E+03 -0.17148386069E+04  0.19059352752E+04  0.00000000000E+00 0.  1.
<mgrwt>
<rscale>  0 0.36988540E+04</rscale>
<asrwt>0</asrwt>
<pdfrwt beam="1">  1        2 0.27496450E+00 0.36988540E+04</pdfrwt>
<pdfrwt beam="2">  1       -2 0.29442254E+00 0.36988540E+04</pdfrwt>
<totfact> 0.24378323E-01</totfact>
</mgrwt>
</event>
<event>
 6    1  0.9988873E-007  0.3612426E+04  0.7818608E-02  0.8087651E-01
          1   -1    0    0  501    0  0.00000000000E+00  0.00000000000E+00  0.21198116571E+04  0.21198116571E+04  0.00000000000E+00 0. -1.
         -1   -1    0    0    0  501 -0.00000000000E+00 -0.00000000000E+00 -0.15390068464E+04  0.15390068464E+04  0.00000000000E+00 0.  1.
         23    2    1    2    0    0  0.11871474673E+04  0.60359137769E+03  0.15246432876E+04  0.20264972329E+04  0.92261695095E+02 0.  0.
         11    1    3    3    0    0  0.74832911300E+03  0.33951477432E+03  0.97855045118E+03  0.12778214777E+04  0.00000000000E+00 0.  1.
        -11    1    3    3    0    0  0.43881835429E+03  0.26407660337E+03  0.54609283638E+03  0.74867575522E+03  0.00000000000E+00 0. -1.
         22    1    1    2    0    0 -0.11871474673E+04 -0.60359137769E+03 -0.94383847686E+03  0.16323212707E+04  0.00000000000E+00 0.  1.
<mgrwt>
<rscale>  0 0.36124256E+04</rscale>
<asrwt>0</asrwt>
<pdfrwt beam="1">  1        1 0.32612487E+00 0.36124256E+04</pdfrwt>
<pdfrwt beam="2">  1       -1 0.23677028E+00 0.36124256E+04</pdfrwt>
<totfact> 0.17002275E-01</totfact>
</mgrwt>
</event>
<event>
 6    1  0.9988873E-007  0.4543282E+04  0.7818608E-02  0.7903103E-01
         -2   -1    0    0    0  501 -0.00000000000E+00  0.00000000000E+00  0.21140947959E+04  0.21140947959E+04  0.00000000000E+00 0.  1.
          2   -1    0    0  501    0  0.00000000000E+00 -0.00000000000E+00 -0.24409279554E+04  0.24409279554E+04  0.00000000000E+00 0. -1.
         23    2    1    2    0    0 -0.22535176903E+04 -0.25036176897E+03 -0.39838214506E+02  0.22695492566E+04  0.90795093542E+02 0.  0.
         13    1    3    3    0    0 -0.16850225983E+02 -0.11128700239E+01 -0.82985287050E+01  0.18815795865E+02  0.00000000000E+00 0. -1.
        -13    1    3    3    0    0 -0.22366674643E+04 -0.24924889895E+03 -0.31539685801E+02  0.22507334608E+04  0.00000000000E+00 0.  1.
         22    1    1    2    0    0  0.22535176903E+04  0.25036176897E+03 -0.28699494498E+03  0.22854734946E+04  0.00000000000E+00 0.  1.
<mgrwt>
<rscale>  0 0.45432821E+04</rscale>
<asrwt>0</asrwt>
<pdfrwt beam="1">  1        2 0.37552738E+00 0.45432821E+04</pdfrwt>
<pdfrwt beam="2">  1       -2 0.32524535E+00 0.45432821E+04</pdfrwt>
<totfact> 0.63179953E-02</totfact>
</mgrwt>
</event>
<event>
 6    1  0.9988873E-007  0.1376245E+04  0.7818608E-02  0.8971195E-01
          1   -1    0    0  501    0  0.00000000000E+00  0.00000000000E+00  0.30247032185E+03  0.30247032185E+03  0.00000000000E+00 0. -1.
         -1   -1    0    0    0  501 -0.00000000000E+00 -0.00000000000E+00 -0.15654850532E+04  0.15654850532E+04  0.00000000000E+00 0.  1.
         23    2    1    2    0    0  0.17714966982E+03  0.29782990669E+03 -0.14364543451E+04  0.14804428483E+04  0.90693344179E+02 0.  0.
         11    1    3    3    0    0  0.13185990048E+03  0.25912719119E+03 -0.12895154452E+04  0.13218865375E+04  0.00000000000E+00 0. -1.
        -11    1    3    3    0    0  0.45289769333E+02  0.38702715499E+02 -0.14693889981E+03  0.15855631072E+03  0.00000000000E+00 0.  1.
         22    1    1    2    0    0 -0.17714966982E+03 -0.29782990669E+03  0.17343961369E+03  0.38751252681E+03  0.00000000000E+00 0. -1.
<mgrwt>
<rscale>  0 0.13762453E+04</rscale>
<asrwt>0</asrwt>
<pdfrwt beam="1">  1        1 0.46533895E-01 0.13762453E+04</pdfrwt>
<pdfrwt beam="2">  1       -1 0.24084386E+00 0.13762453E+04</pdfrwt>
<totfact> 0.67878580E+00</totfact>
</mgrwt>
</event>
<event>
 6    1  0.9988873E-007  0.1926586E+04  0.7818608E-02  0.8641735E-01
          2   -1    0    0  501    0  0.00000000000E+00  0.00000000000E+00  0.36995984634E+04  0.36995984634E+04  0.00000000000E+00 0. -1.
         -2   -1    0    0    0  501 -0.00000000000E+00 -0.00000000000E+00 -0.25081992255E+03  0.25081992255E+03  0.00000000000E+00 0.  1.
         23    2    1    2    0    0  0.37965684793E+03  0.62987962178E+03  0.29972304653E+04  0.30874100866E+04  0.88447277736E+02 0.  0.
         13    1    3    3    0    0  0.28735721468E+03  0.53573283376E+03  0.25210951214E+04  0.25933577557E+04  0.00000000000E+00 0. -1.
        -13    1    3    3    0    0  0.92299633252E+02  0.94146788016E+02  0.47613534391E+03  0.49405233094E+03  0.00000000000E+00 0.  1.
         22    1    1    2    0    0 -0.37965684793E+03 -0.62987962178E+03  0.45154807555E+03  0.86300829929E+03  0.00000000000E+00 0.  1.
<mgrwt>
<rscale>  0 0.19265856E+04</rscale>
<asrwt>0</asrwt>
<pdfrwt beam="1">  1        2 0.56916896E+00 0.19265856E+04</pdfrwt>
<pdfrwt beam="2">  1       -2 0.38587683E-01 0.19265856E+04</pdfrwt>
<totfact> 0.34928341E+00</totfact>
</mgrwt>
</event>
<event>
 6    1  0.9988873E-007  0.8663619E+03  0.7818608E-02  0.9468636E-01
         -1   -1    0    0    0  501 -0.00000000000E+00  0.00000000000E+00  0.12484096932E+03  0.12484096932E+03  0.00000000000E+00 0.  1.
          1   -1    0    0  501    0  0.00000000000E+00 -0.00000000000E+00 -0.15030780892E+04  0.15030780892E+04  0.00000000000E+00 0. -1.
         23    2    1    2    0    0 -0.26999845321E+02  0.22299480725E+02 -0.14988107483E+04  0.15023632607E+04  0.97136241064E+02 0.  0.
         13    1    3    3    0    0 -0.61284243998E+02  0.29521758841E+02 -0.94470131097E+03  0.94714722180E+03  0.00000000000E+00 0.  1.
        -13    1    3    3    0    0  0.34284398677E+02 -0.72222781163E+01 -0.55410943736E+03  0.55521603891E+03  0.00000000000E+00 0. -1.
         22    1    1    2    0    0  0.26999845321E+02 -0.22299480725E+02  0.12057362845E+03  0.12555579782E+03  0.00000000000E+00 0.  1.
<mgrwt>
<rscale>  0 0.86636188E+03</rscale>
<asrwt>0</asrwt>
<pdfrwt beam="1">  1        1 0.23124278E+00 0.86636188E+03</pdfrwt>
<pdfrwt beam="2">  1       -1 0.19206303E-01 0.86636188E+03</pdfrwt>
<totfact> 0.14402900E+02</totfact>
</mgrwt>
</event>
<event>
 6    1  0.9988873E-007  0.1074119E+04  0.7818608E-02  0.9230791E-01
         -2   -1    0    0    0  501 -0.00000000000E+00  0.00000000000E+00  0.15747590945E+03  0.15747590945E+03  0.00000000000E+00 0.  1.
          2   -1    0    0  501    0  0.00000000000E+00 -0.00000000000E+00 -0.18316009437E+04  0.18316009437E+04  0.00000000000E+00 0. -1.
         23    2    1    2    0    0  0.22931329147E+03  0.13444618131E+03 -0.16991562167E+04  0.17220807457E+04  0.88146949996E+02 0.  0.
         13    1    3    3    0    0  0.14451552996E+03  0.35980613919E+02 -0.82813635419E+03  0.84142091970E+03  0.00000000000E+00 0. -1.
        -13    1    3    3    0    0  0.84797761512E+02  0.98465567394E+02 -0.87101986248E+03  0.88065982601E+03  0.00000000000E+00 0.  1.
         22    1    1    2    0    0 -0.22931329147E+03 -0.13444618131E+03  0.25031182375E+02  0.26699610747E+03  0.00000000000E+00 0.  1.
<mgrwt>
<rscale>  0 0.10741192E+04</rscale>
<asrwt>0</asrwt>
<pdfrwt beam="1">  1        2 0.28178476E+00 0.10741192E+04</pdfrwt>
<pdfrwt beam="2">  1       -2 0.24227063E-01 0.10741192E+04</pdfrwt>
<totfact> 0.12525653E+02</totfact>
</mgrwt>
</event>
<event>
 6    1  0.9988873E-007  0.2458754E+04  0.7818608E-02  0.8417829E-01
          1   -1    0    0  501    0  0.00000000000E+00  0.00000000000E+00  0.16212694158E+04  0.16212694158E+04  0.00000000000E+00 0. -1.
         -1   -1    0    0    0  501 -0.00000000000E+00 -0.00000000000E+00 -0.93221289909E+03  0.93221289909E+03  0.00000000000E+00 0.  1.
         23    2    1    2    0    0  0.99083866218E+03  0.72462249978E+03  0.32463176746E+03  0.12729963058E+04  0.91075728835E+02 0.  0.
         13    1    3    3    0    0  0.92841410339E+03  0.64889656271E+03  0.30225906560E+03  0.11723395580E+04  0.00000000000E+00 0. -1.
        -13    1    3    3    0    0  0.62424558790E+02  0.75725937075E+02  0.22372701866E+02  0.10065674779E+03  0.00000000000E+00 0.  1.
         22    1    1    2    0    0 -0.99083866218E+03 -0.72462249978E+03  0.36442474921E+03  0.12804860091E+04  0.00000000000E+00 0.  1.
<mgrwt>
<rscale>  0 0.24587544E+04</rscale>
<asrwt>0</asrwt>
<pdfrwt beam="1">  1        1 0.24942606E+00 0.24587544E+04</pdfrwt>
<pdfrwt beam="2">  1       -1 0.14341737E+00 0.24587544E+04</pdfrwt>
<totfact> 0.18923406E+00</totfact>
</mgrwt>
</event>
<event>
 6    1  0.9988873E-007  0.2829214E+04  0.7818608E-02  0.8294256E-01
         -1   -1    0    0    0  501 -0.00000000000E+00  0.00000000000E+00  0.12132061843E+04  0.12132061843E+04  0.00000000000E+00 0.  1.
          1   -1    0    0  501    0  0.00000000000E+00 -0.00000000000E+00 -0.16494419652E+04  0.16494419652E+04  0.00000000000E+00 0. -1.
         23    2    1    2    0    0 -0.38036376044E+03 -0.40005486048E+02  0.11581973365E+04  0.12229853809E+04  0.89415559326E+02 0.  0.
         13    1    3    3    0    0 -0.25794066615E+03 -0.16423812442E+02  0.64493158650E+03  0.69479484751E+03  0.00000000000E+00 0. -1.
        -13    1    3    3    0    0 -0.12242309428E+03 -0.23581673606E+02  0.51326575004E+03  0.52819053334E+03  0.00000000000E+00 0.  1.
         22    1    1    2    0    0  0.38036376044E+03  0.40005486048E+02 -0.15944331174E+04  0.16396627687E+04  0.00000000000E+00 0. -1.
<mgrwt>
<rscale>  0 0.28292142E+04</rscale>
<asrwt>0</asrwt>
<pdfrwt beam="1">  1        1 0.25376030E+00 0.28292142E+04</pdfrwt>
<pdfrwt beam="2">  1       -1 0.18664711E+00 0.28292142E+04</pdfrwt>
<totfact> 0.83161103E-01</totfact>
</mgrwt>
</event>
<event>
 6    1  0.9988873E-007  0.1179402E+04  0.7818608E-02  0.9131079E-01
          1   -1    0    0  501    0  0.00000000000E+00  0.00000000000E+00  0.10222429965E+04  0.10222429965E+04  0.00000000000E+00 0. -1.
         -1   -1    0    0    0  501 -0.00000000000E+00 -0.00000000000E+00 -0.34018072537E+03  0.34018072537E+03  0.00000000000E+00 0.  1.
         23    2    1    2    0    0  0.48119503170E+03 -0.16098890158E+03  0.68417116137E+03  0.85500817975E+03  0.74045421396E+02 0.  0.
         13    1    3    3    0    0  0.17567430989E+03 -0.71105990152E+02  0.20039654187E+03  0.27581932309E+03  0.00000000000E+00 0.  1.
        -13    1    3    3    0    0  0.30552072181E+03 -0.89882911427E+02  0.48377461950E+03  0.57918885667E+03  0.00000000000E+00 0. -1.
         22    1    1    2    0    0 -0.48119503170E+03  0.16098890158E+03 -0.21088902288E+01  0.50741554212E+03  0.00000000000E+00 0.  1.
<mgrwt>
<rscale>  0 0.11794022E+04</rscale>
<asrwt>0</asrwt>
<pdfrwt beam="1">  1        1 0.15726815E+00 0.11794022E+04</pdfrwt>
<pdfrwt beam="2">  1       -1 0.52335497E-01 0.11794022E+04</pdfrwt>
<totfact> 0.52986527E+01</totfact>
</mgrwt>
</event>
<event>
 6    1  0.9988873E-007  0.3914806E+04  0.7818608E-02  0.8021957E-01
          2   -1    0    0  501    0  0.00000000000E+00  0.00000000000E+00  0.21591281531E+04  0.21591281531E+04  0.00000000000E+00 0. -1.
         -2   -1    0    0    0  501 -0.00000000000E+00 -0.00000000000E+00 -0.17745250176E+04  0.17745250176E+04  0.00000000000E+00 0.  1.
         23    2    1    2    0    0 -0.25689960950E+02 -0.61744201612E+03 -0.16727060906E+04  0.17855340238E+04  0.91057493936E+02 0.  0.
         13    1    3    3    0    0 -0.95735212230E+01 -0.53422666684E+03 -0.13502656466E+04  0.14521388020E+04  0.00000000000E+00 0. -1.
        -13    1    3    3    0    0 -0.16116439727E+02 -0.83215349280E+02 -0.32244044402E+03  0.33339522181E+03  0.00000000000E+00 0.  1.
         22    1    1    2    0    0  0.25689960950E+02  0.61744201612E+03  0.20573092261E+04  0.21481191469E+04  0.00000000000E+00 0. -1.
<mgrwt>
<rscale>  0 0.39148062E+04</rscale>
<asrwt>0</asrwt>
<pdfrwt beam="1">  1        2 0.33217356E+00 0.39148062E+04</pdfrwt>
<pdfrwt beam="2">  1       -2 0.27300385E+00 0.39148062E+04</pdfrwt>
<totfact> 0.20094384E-01</totfact>
</mgrwt>
</event>
<event>
 6    1  0.9988873E-007  0.2547212E+04  0.7818608E-02  0.8386356E-01
          2   -1    0    0  501    0  0.00000000000E+00  0.00000000000E+00  0.24276351572E+04  0.24276351572E+04  0.00000000000E+00 0. -1.
         -2   -1    0    0    0  501 -0.00000000000E+00 -0.00000000000E+00 -0.66816982339E+03  0.66816982339E+03  0.00000000000E+00 0.  1.
         23    2    1    2    0    0  0.76556426894E+03  0.10606017282E+03 -0.34694086770E+03  0.85208385356E+03  0.91331909444E+02 0.  0.
         11    1    3    3    0    0  0.23905414048E+03 -0.38494650493E+00 -0.13565141270E+03  0.27486057563E+03  0.00000000000E+00 0. -1.
        -11    1    3    3    0    0  0.52651012845E+03  0.10644511933E+03 -0.21128945500E+03  0.57722327793E+03  0.00000000000E+00 0.  1.
         22    1    1    2    0    0 -0.76556426894E+03 -0.10606017282E+03  0.21064062015E+04  0.22437211271E+04  0.00000000000E+00 0. -1.
<mgrwt>
<rscale>  0 0.25472122E+04</rscale>
<asrwt>0</asrwt>
<pdfrwt beam="1">  1        2 0.37348233E+00 0.25472122E+04</pdfrwt>
<pdfrwt beam="2">  1       -2 0.10279536E+00 0.25472122E+04</pdfrwt>
<totfact> 0.26332173E+00</totfact>
</mgrwt>
</event>
<event>
 6    1  0.9988873E-007  0.2844799E+04  0.7818608E-02  0.8289493E-01
          1   -1    0    0  501    0  0.00000000000E+00  0.00000000000E+00  0.13803716190E+04  0.13803716190E+04  0.00000000000E+00 0. -1.
         -1   -1    0    0    0  501 -0.00000000000E+00 -0.00000000000E+00 -0.14657074619E+04  0.14657074619E+04  0.00000000000E+00 0.  1.
         23    2    1    2    0    0  0.78288524317E+03 -0.82069899353E+02  0.11401452610E+04  0.13895596995E+04  0.10630225787E+03 0.  0.
         11    1    3    3    0    0  0.31267403026E+03  0.37570249046E+01  0.38697702084E+03  0.49752424975E+03  0.00000000000E+00 0. -1.
        -11    1    3    3    0    0  0.47021121291E+03 -0.85826924257E+02  0.75316824017E+03  0.89203544979E+03  0.00000000000E+00 0.  1.
         22    1    1    2    0    0 -0.78288524317E+03  0.82069899353E+02 -0.12254811039E+04  0.14565193814E+04  0.00000000000E+00 0.  1.
<mgrwt>
<rscale>  0 0.28447995E+04</rscale>
<asrwt>0</asrwt>
<pdfrwt beam="1">  1        1 0.21236486E+00 0.28447995E+04</pdfrwt>
<pdfrwt beam="2">  1       -1 0.22549346E+00 0.28447995E+04</pdfrwt>
<totfact> 0.69176548E-01</totfact>
</mgrwt>
</event>
<event>
 6    1  0.9988873E-007  0.8322705E+03  0.7818608E-02  0.9514447E-01
         -1   -1    0    0    0  501 -0.00000000000E+00  0.00000000000E+00  0.33392787991E+03  0.33392787991E+03  0.00000000000E+00 0.  1.
          1   -1    0    0  501    0  0.00000000000E+00 -0.00000000000E+00 -0.51858065559E+03  0.51858065559E+03  0.00000000000E+00 0. -1.
         23    2    1    2    0    0 -0.16620923636E+03  0.30000408681E+03 -0.32563476346E+03  0.48169337503E+03  0.91446957389E+02 0.  0.
         13    1    3    3    0    0 -0.10707381085E+03  0.13850939590E+03 -0.21473093714E+03  0.27705419883E+03  0.00000000000E+00 0. -1.
        -13    1    3    3    0    0 -0.59135425511E+02  0.16149469091E+03 -0.11090382632E+03  0.20463917620E+03  0.00000000000E+00 0.  1.
         22    1    1    2    0    0  0.16620923636E+03 -0.30000408681E+03  0.14098198778E+03  0.37081516047E+03  0.00000000000E+00 0.  1.
<mgrwt>
<rscale>  0 0.83227048E+03</rscale>
<asrwt>0</asrwt>
<pdfrwt beam="1">  1        1 0.79781639E-01 0.83227048E+03</pdfrwt>
<pdfrwt beam="2">  1       -1 0.51373520E-01 0.83227048E+03</pdfrwt>
<totfact> 0.16225898E+02</totfact>
</mgrwt>
</event>
<event>
 6    1  0.9988873E-007  0.1054367E+04  0.7818608E-02  0.9250847E-01
          2   -1    0    0  501    0  0.00000000000E+00  0.00000000000E+00  0.18368480450E+04  0.18368480450E+04  0.00000000000E+00 0. -1.
         -2   -1    0    0    0  501 -0.00000000000E+00 -0.00000000000E+00 -0.15130389150E+03  0.15130389150E+03  0.00000000000E+00 0.  1.
         23    2    1    2    0    0  0.88845106500E+01  0.45061982129E+03  0.35046815477E+03  0.57905113093E+03  0.96618460250E+02 0.  0.
         11    1    3    3    0    0 -0.38415581584E+02  0.25184811670E+03  0.22018656192E+03  0.33672741623E+03  0.00000000000E+00 0. -1.
        -11    1    3    3    0    0  0.47300092234E+02  0.19877170459E+03  0.13028159285E+03  0.24232371470E+03  0.00000000000E+00 0.  1.
         22    1    1    2    0    0 -0.88845106500E+01 -0.45061982129E+03  0.13350759987E+04  0.14091008055E+04  0.00000000000E+00 0. -1.
<mgrwt>
<rscale>  0 0.10543666E+04</rscale>
<asrwt>0</asrwt>
<pdfrwt beam="1">  1        2 0.28259199E+00 0.10543666E+04</pdfrwt>
<pdfrwt beam="2">  1       -2 0.23277523E-01 0.10543666E+04</pdfrwt>
<totfact> 0.13389027E+02</totfact>
</mgrwt>
</event>
<event>
 6    1  0.9988873E-007  0.2257141E+04  0.7818608E-02  0.8495014E-01
         -2   -1    0    0    0  501 -0.00000000000E+00  0.00000000000E+00  0.88341709389E+03  0.88341709389E+03  0.00000000000E+00 0.  1.
          2   -1    0    0  501    0  0.00000000000E+00 -0.00000000000E+00 -0.14417550283E+04  0.14417550283E+04  0.00000000000E+00 0. -1.
         23    2    1    2    0    0  0.10201772656E+04  0.32628272277E+03  0.80916967703E+02  0.10778273830E+04  0.89119265723E+02 0.  0.
         13    1    3    3    0    0  0.92252494927E+03  0.31586723143E+03  0.57090097827E+02  0.97677206613E+03  0.00000000000E+00 0. -1.
        -13    1    3    3    0    0  0.97652316347E+02  0.10415491346E+02  0.23826869876E+02  0.10105531691E+03  0.00000000000E+00 0.  1.
         22    1    1    2    0    0 -0.10201772656E+04 -0.32628272277E+03 -0.63925490216E+03  0.12473447392E+04  0.00000000000E+00 0. -1.
<mgrwt>
<rscale>  0 0.22571407E+04</rscale>
<asrwt>0</asrwt>
<pdfrwt beam="1">  1        2 0.22180847E+00 0.22571407E+04</pdfrwt>
<pdfrwt beam="2">  1       -2 0.13591032E+00 0.22571407E+04</pdfrwt>
<totfact> 0.48332976E+00</totfact>
</mgrwt>
</event>
<event>
 6    1  0.1231920E-006  0.3003412E+04  0.7818608E-02  0.8242757E-01
         -2   -1    0    0    0  501 -0.00000000000E+00  0.00000000000E+00  0.11135355661E+04  0.11135355661E+04  0.00000000000E+00 0.  1.
          2   -1    0    0  501    0  0.00000000000E+00 -0.00000000000E+00 -0.20251902377E+04  0.20251902377E+04  0.00000000000E+00 0. -1.
         23    2    1    2    0    0 -0.10476605610E+04  0.57291599997E+03 -0.14055149696E+04  0.18465480343E+04  0.91879917570E+02 0.  0.
         11    1    3    3    0    0 -0.53238205934E+03  0.25093460576E+03 -0.64622146677E+03  0.87407151743E+03  0.00000000000E+00 0. -1.
        -11    1    3    3    0    0 -0.51527850163E+03  0.32198139421E+03 -0.75929350279E+03  0.97247651686E+03  0.00000000000E+00 0.  1.
         22    1    1    2    0    0  0.10476605610E+04 -0.57291599997E+03  0.49386029793E+03  0.12921777695E+04  0.00000000000E+00 0.  1.
<mgrwt>
<rscale>  0 0.30034123E+04</rscale>
<asrwt>0</asrwt>
<pdfrwt beam="1">  1        2 0.31156773E+00 0.30034123E+04</pdfrwt>
<pdfrwt beam="2">  1       -2 0.17131316E+00 0.30034123E+04</pdfrwt>
<totfact> 0.11548956E+00</totfact>
</mgrwt>
</event>
<event>
 6    1  0.9988873E-007  0.1440630E+04  0.7818608E-02  0.8924922E-01
         -2   -1    0    0    0  501 -0.00000000000E+00  0.00000000000E+00  0.45114171693E+03  0.45114171693E+03  0.00000000000E+00 0.  1.
          2   -1    0    0  501    0  0.00000000000E+00 -0.00000000000E+00 -0.11500909858E+04  0.11500909858E+04  0.00000000000E+00 0. -1.
         23    2    1    2    0    0 -0.15849551117E+03  0.38265654329E+03  0.30003077001E+03  0.51979478252E+03  0.92850933189E+02 0.  0.
         13    1    3    3    0    0 -0.98624683557E+02  0.19545793048E+03  0.21089928718E+03  0.30398871711E+03  0.00000000000E+00 0.  1.
        -13    1    3    3    0    0 -0.59870827618E+02  0.18719861281E+03  0.89131482834E+02  0.21580606541E+03  0.00000000000E+00 0. -1.
         22    1    1    2    0    0  0.15849551117E+03 -0.38265654329E+03 -0.99898003887E+03  0.10814379202E+04  0.00000000000E+00 0. -1.
<mgrwt>
<rscale>  0 0.14406304E+04</rscale>
<asrwt>0</asrwt>
<pdfrwt beam="1">  1        2 0.17693708E+00 0.14406304E+04</pdfrwt>
<pdfrwt beam="2">  1       -2 0.69406418E-01 0.14406304E+04</pdfrwt>
<totfact> 0.37312438E+01</totfact>
</mgrwt>
</event>
<event>
 6    1  0.9988873E-007  0.1142532E+04  0.7818608E-02  0.9164700E-01
         -3   -1    0    0    0  501 -0.00000000000E+00  0.00000000000E+00  0.16365246288E+04  0.16365246288E+04  0.00000000000E+00 0.  1.
          3   -1    0    0  501    0  0.00000000000E+00 -0.00000000000E+00 -0.19941348277E+03  0.19941348277E+03  0.00000000000E+00 0. -1.
         23    2    1    2    0    0 -0.50091566596E+03 -0.23936209497E+03  0.91620122421E+03  0.10746511331E+04  0.85086178598E+02 0.  0.
         11    1    3    3    0    0 -0.23640975970E+03 -0.15762534116E+03  0.43794235004E+03  0.52204293369E+03  0.00000000000E+00 0. -1.
        -11    1    3    3    0    0 -0.26450590627E+03 -0.81736753812E+02  0.47825887416E+03  0.55260819944E+03  0.00000000000E+00 0.  1.
         22    1    1    2    0    0  0.50091566596E+03  0.23936209497E+03  0.52090992186E+03  0.76128697849E+03  0.00000000000E+00 0. -1.
<mgrwt>
<rscale>  0 0.11425324E+04</rscale>
<asrwt>0</asrwt>
<pdfrwt beam="1">  1        3 0.30678998E-01 0.11425324E+04</pdfrwt>
<pdfrwt beam="2">  1       -3 0.25177301E+00 0.11425324E+04</pdfrwt>
<totfact> 0.19379793E+00</totfact>
</mgrwt>
</event>
<event>
 6    1  0.9988873E-007  0.1922629E+04  0.7818608E-02  0.8643674E-01
          1   -1    0    0  501    0  0.00000000000E+00  0.00000000000E+00  0.19610143432E+04  0.19610143432E+04  0.00000000000E+00 0. -1.
         -1   -1    0    0    0  501 -0.00000000000E+00 -0.00000000000E+00 -0.47124875254E+03  0.47124875254E+03  0.00000000000E+00 0.  1.
         23    2    1    2    0    0 -0.28804725947E+03 -0.83491115267E+03  0.12196458295E+04  0.15086763148E+04  0.92306104166E+02 0.  0.
         13    1    3    3    0    0 -0.51300513243E+02 -0.24057621018E+03  0.38848516651E+03  0.45981450626E+03  0.00000000000E+00 0. -1.
        -13    1    3    3    0    0 -0.23674674622E+03 -0.59433494249E+03  0.83116066298E+03  0.10488618085E+04  0.00000000000E+00 0.  1.
         22    1    1    2    0    0  0.28804725947E+03  0.83491115267E+03  0.27011976113E+03  0.92358678092E+03  0.00000000000E+00 0.  1.
<mgrwt>
<rscale>  0 0.19226290E+04</rscale>
<asrwt>0</asrwt>
<pdfrwt beam="1">  1        1 0.30169451E+00 0.19226290E+04</pdfrwt>
<pdfrwt beam="2">  1       -1 0.72499809E-01 0.19226290E+04</pdfrwt>
<totfact> 0.56751377E+00</totfact>
</mgrwt>
</event>
<event>
 6    1  0.9988873E-007  0.1586835E+04  0.7818608E-02  0.8828677E-01
         -2   -1    0    0    0  501 -0.00000000000E+00  0.00000000000E+00  0.81845338888E+03  0.81845338888E+03  0.00000000000E+00 0.  1.
          2   -1    0    0  501    0  0.00000000000E+00 -0.00000000000E+00 -0.76914750602E+03  0.76914750602E+03  0.00000000000E+00 0. -1.
         23    2    1    2    0    0  0.14848763512E+03 -0.23262650190E+02 -0.75202902979E+03  0.77229275013E+03  0.91097209561E+02 0.  0.
         11    1    3    3    0    0  0.59687406990E+02 -0.42679013556E+02 -0.20440770451E+03  0.21717871538E+03  0.00000000000E+00 0.  1.
        -11    1    3    3    0    0  0.88800228128E+02  0.19416363366E+02 -0.54762132527E+03  0.55511403475E+03  0.00000000000E+00 0. -1.
         22    1    1    2    0    0 -0.14848763512E+03  0.23262650190E+02  0.80133491265E+03  0.81530814476E+03  0.00000000000E+00 0.  1.
<mgrwt>
<rscale>  0 0.15868351E+04</rscale>
<asrwt>0</asrwt>
<pdfrwt beam="1">  1        2 0.11833039E+00 0.15868351E+04</pdfrwt>
<pdfrwt beam="2">  1       -2 0.12591591E+00 0.15868351E+04</pdfrwt>
<totfact> 0.16394092E+01</totfact>
</mgrwt>
</event>
<event>
 6    1  0.9988873E-007  0.2763938E+04  0.7818608E-02  0.8314552E-01
          1   -1    0    0  501    0  0.00000000000E+00  0.00000000000E+00  0.17177602576E+04  0.17177602576E+04  0.00000000000E+00 0. -1.
         -1   -1    0    0    0  501 -0.00000000000E+00 -0.00000000000E+00 -0.11118191199E+04  0.11118191199E+04  0.00000000000E+00 0.  1.
         23    2    1    2    0    0  0.29111647968E+03  0.12370342338E+04  0.85564653375E+03  0.15344518605E+04  0.86075669950E+02 0.  0.
         13    1    3    3    0    0  0.95453150841E+02  0.25302080606E+03  0.17708502869E+03  0.32324903664E+03  0.00000000000E+00 0.  1.
        -13    1    3    3    0    0  0.19566332884E+03  0.98401342778E+03  0.67856150506E+03  0.12112028238E+04  0.00000000000E+00 0. -1.
         22    1    1    2    0    0 -0.29111647968E+03 -0.12370342338E+04 -0.24970539604E+03  0.12951275170E+04  0.00000000000E+00 0.  1.
<mgrwt>
<rscale>  0 0.27639383E+04</rscale>
<asrwt>0</asrwt>
<pdfrwt beam="1">  1        1 0.26427081E+00 0.27639383E+04</pdfrwt>
<pdfrwt beam="2">  1       -1 0.17104909E+00 0.27639383E+04</pdfrwt>
<totfact> 0.97297013E-01</totfact>
</mgrwt>
</event>
<event>
 6    1  0.9988873E-007  0.1254494E+04  0.7818608E-02  0.9066451E-01
          1   -1    0    0  501    0  0.00000000000E+00  0.00000000000E+00  0.97531768734E+03  0.97531768734E+03  0.00000000000E+00 0. -1.
         -1   -1    0    0    0  501 -0.00000000000E+00 -0.00000000000E+00 -0.40339561721E+03  0.40339561721E+03  0.00000000000E+00 0.  1.
         23    2    1    2    0    0 -0.47729738043E+03  0.30309389867E+03 -0.27247512499E+01  0.57255099453E+03  0.90158284691E+02 0.  0.
         13    1    3    3    0    0 -0.24127508252E+03  0.16280204899E+03 -0.45729284263E+02  0.29463424790E+03  0.00000000000E+00 0. -1.
        -13    1    3    3    0    0 -0.23602229791E+03  0.14029184968E+03  0.43004533013E+02  0.27791674663E+03  0.00000000000E+00 0.  1.
         22    1    1    2    0    0  0.47729738043E+03 -0.30309389867E+03  0.57464682138E+03  0.80616231002E+03  0.00000000000E+00 0. -1.
<mgrwt>
<rscale>  0 0.12544941E+04</rscale>
<asrwt>0</asrwt>
<pdfrwt beam="1">  1        1 0.15004887E+00 0.12544941E+04</pdfrwt>
<pdfrwt beam="2">  1       -1 0.62060865E-01 0.12544941E+04</pdfrwt>
<totfact> 0.41081610E+01</totfact>
</mgrwt>
</event>
<event>
 6    1  0.9988873E-007  0.3509859E+04  0.7818608E-02  0.8111457E-01
          2   -1    0    0  501    0  0.00000000000E+00  0.00000000000E+00  0.23434598088E+04  0.23434598088E+04  0.00000000000E+00 0. -1.
         -2   -1    0    0    0  501 -0.00000000000E+00 -0.00000000000E+00 -0.13142014080E+04  0.13142014080E+04  0.00000000000E+00 0.  1.
         23    2    1    2    0    0  0.25671228101E+03 -0.15094546960E+04 -0.37625530668E+03  0.15792427180E+04  0.89915695625E+02 0.  0.
         11    1    3    3    0    0  0.63917402806E+02 -0.63951781453E+03 -0.15388593159E+03  0.66087014565E+03  0.00000000000E+00 0. -1.
        -11    1    3    3    0    0  0.19279487821E+03 -0.86993688143E+03 -0.22236937509E+03  0.91837257238E+03  0.00000000000E+00 0.  1.
         22    1    1    2    0    0 -0.25671228101E+03  0.15094546960E+04  0.14055137075E+04  0.20784184988E+04  0.00000000000E+00 0.  1.
<mgrwt>
<rscale>  0 0.35098594E+04</rscale>
<asrwt>0</asrwt>
<pdfrwt beam="1">  1        2 0.36053228E+00 0.35098594E+04</pdfrwt>
<pdfrwt beam="2">  1       -2 0.20218483E+00 0.35098594E+04</pdfrwt>
<totfact> 0.45248892E-01</totfact>
</mgrwt>
</event>
<event>
 6    1  0.9988873E-007  0.1301388E+04  0.7818608E-02  0.9028465E-01
          2   -1    0    0  501    0  0.00000000000E+00  0.00000000000E+00  0.38998070388E+04  0.38998070388E+04  0.00000000000E+00 0. -1.
         -2   -1    0    0    0  501 -0.00000000000E+00 -0.00000000000E+00 -0.10857013168E+03  0.10857013168E+03  0.00000000000E+00 0.  1.
         23    2    1    2    0    0  0.15940241239E+03  0.49411779134E+02  0.38318557244E+04  0.38366199542E+04  0.93186519615E+02 0.  0.
         11    1    3    3    0    0  0.79011598937E+02 -0.20747118580E+02  0.19902418975E+04  0.19919176906E+04  0.00000000000E+00 0.  1.
        -11    1    3    3    0    0  0.80390813456E+02  0.70158897714E+02  0.18416138269E+04  0.18447022636E+04  0.00000000000E+00 0. -1.
         22    1    1    2    0    0 -0.15940241239E+03 -0.49411779134E+02 -0.40618817352E+02  0.17175721620E+03  0.00000000000E+00 0.  1.
<mgrwt>
<rscale>  0 0.13013878E+04</rscale>
<asrwt>0</asrwt>
<pdfrwt beam="1">  1        2 0.59997021E+00 0.13013878E+04</pdfrwt>
<pdfrwt beam="2">  1       -2 0.16703100E-01 0.13013878E+04</pdfrwt>
<totfact> 0.12147479E+01</totfact>
</mgrwt>
</event>
<event>
 6    1  0.9988873E-007  0.1583259E+04  0.7818608E-02  0.8830899E-01
          2   -1    0    0  501    0  0.00000000000E+00  0.00000000000E+00  0.16102330901E+04  0.16102330901E+04  0.00000000000E+00 0. -1.
         -2   -1    0    0    0  501 -0.00000000000E+00 -0.00000000000E+00 -0.38918399711E+03  0.38918399711E+03  0.00000000000E+00 0.  1.
         23    2    1    2    0    0 -0.66786270363E+03 -0.55460146379E+02  0.83110280985E+02  0.67880315475E+03  0.68920137484E+02 0.  0.
         11    1    3    3    0    0 -0.17822762921E+03 -0.37678362382E+02  0.20054312411E+01  0.18217784871E+03  0.00000000000E+00 0.  1.
        -11    1    3    3    0    0 -0.48963507442E+03 -0.17781783996E+02  0.81104849744E+02  0.49662530604E+03  0.00000000000E+00 0. -1.
         22    1    1    2    0    0  0.66786270363E+03  0.55460146379E+02  0.11379388120E+04  0.13206139324E+04  0.00000000000E+00 0. -1.
<mgrwt>
<rscale>  0 0.15832586E+04</rscale>
<asrwt>0</asrwt>
<pdfrwt beam="1">  1        2 0.24772816E+00 0.15832586E+04</pdfrwt>
<pdfrwt beam="2">  1       -2 0.59874462E-01 0.15832586E+04</pdfrwt>
<totfact> 0.27486584E+01</totfact>
</mgrwt>
</event>
<event>
 6    1  0.9988873E-007  0.1852829E+04  0.7818608E-02  0.8678700E-01
          2   -1    0    0  501    0  0.00000000000E+00  0.00000000000E+00  0.23627173060E+04  0.23627173060E+04  0.00000000000E+00 0. -1.
         -2   -1    0    0    0  501 -0.00000000000E+00 -0.00000000000E+00 -0.36324424840E+03  0.36324424840E+03  0.00000000000E+00 0.  1.
         23    2    1    2    0    0  0.25209200634E+02 -0.54530456975E+03  0.20992973268E+04  0.21710224026E+04  0.91084732487E+02 0.  0.
         11    1    3    3    0    0  0.30768929306E+02 -0.31218981285E+03  0.13653046470E+04  0.14008804323E+04  0.00000000000E+00 0. -1.
        -11    1    3    3    0    0 -0.55597286714E+01 -0.23311475690E+03  0.73399267977E+03  0.77014197030E+03  0.00000000000E+00 0.  1.
         22    1    1    2    0    0 -0.25209200634E+02  0.54530456975E+03 -0.99824269166E+02  0.55493915189E+03  0.00000000000E+00 0.  1.
<mgrwt>
<rscale>  0 0.18528286E+04</rscale>
<asrwt>0</asrwt>
<pdfrwt beam="1">  1        2 0.36349496E+00 0.18528286E+04</pdfrwt>
<pdfrwt beam="2">  1       -2 0.55883732E-01 0.18528286E+04</pdfrwt>
<totfact> 0.11812064E+01</totfact>
</mgrwt>
</event>
<event>
 6    1  0.9988873E-007  0.8779076E+03  0.7818608E-02  0.9453627E-01
          2   -1    0    0  501    0  0.00000000000E+00  0.00000000000E+00  0.19260686157E+04  0.19260686157E+04  0.00000000000E+00 0. -1.
         -2   -1    0    0    0  501 -0.00000000000E+00 -0.00000000000E+00 -0.10003818960E+03  0.10003818960E+03  0.00000000000E+00 0.  1.
         23    2    1    2    0    0  0.23952509902E+03 -0.28521704301E+03  0.14333800574E+04  0.14849087392E+04  0.10795619598E+03 0.  0.
         11    1    3    3    0    0  0.57356947117E+02 -0.12779474795E+03  0.39886192419E+03  0.42274360025E+03  0.00000000000E+00 0. -1.
        -11    1    3    3    0    0  0.18216815190E+03 -0.15742229506E+03  0.10345181332E+04  0.10621651390E+04  0.00000000000E+00 0.  1.
         22    1    1    2    0    0 -0.23952509902E+03  0.28521704301E+03  0.39265036876E+03  0.54119806612E+03  0.00000000000E+00 0.  1.
<mgrwt>
<rscale>  0 0.87790755E+03</rscale>
<asrwt>0</asrwt>
<pdfrwt beam="1">  1        2 0.29631822E+00 0.87790755E+03</pdfrwt>
<pdfrwt beam="2">  1       -2 0.15390492E-01 0.87790755E+03</pdfrwt>
<totfact> 0.24931046E+02</totfact>
</mgrwt>
</event>
<event>
 6    1  0.9988873E-007  0.3934908E+04  0.7818608E-02  0.8017808E-01
          2   -1    0    0  501    0  0.00000000000E+00  0.00000000000E+00  0.15794590728E+04  0.15794590728E+04  0.00000000000E+00 0. -1.
         -2   -1    0    0    0  501 -0.00000000000E+00 -0.00000000000E+00 -0.24507606287E+04  0.24507606287E+04  0.00000000000E+00 0.  1.
         23    2    1    2    0    0 -0.38316111895E+03 -0.18431954055E+04  0.14570316396E+03  0.18904813188E+04  0.92241307797E+02 0.  0.
         11    1    3    3    0    0 -0.86350585355E+02 -0.45585000176E+03  0.75009511976E+02  0.46998093002E+03  0.00000000000E+00 0.  1.
        -11    1    3    3    0    0 -0.29681053360E+03 -0.13873454037E+04  0.70693651981E+02  0.14205003888E+04  0.00000000000E+00 0. -1.
         22    1    1    2    0    0  0.38316111895E+03  0.18431954055E+04 -0.10170047199E+04  0.21397383826E+04  0.00000000000E+00 0.  1.
<mgrwt>
<rscale>  0 0.39349084E+04</rscale>
<asrwt>0</asrwt>
<pdfrwt beam="1">  1        2 0.24299370E+00 0.39349084E+04</pdfrwt>
<pdfrwt beam="2">  1       -2 0.37704010E+00 0.39349084E+04</pdfrwt>
<totfact> 0.94965816E-02</totfact>
</mgrwt>
</event>
<event>
 6    1  0.9988873E-007  0.7985110E+03  0.7818608E-02  0.9562175E-01
          1   -1    0    0  501    0  0.00000000000E+00  0.00000000000E+00  0.58462122447E+03  0.58462122447E+03  0.00000000000E+00 0. -1.
         -1   -1    0    0    0  501 -0.00000000000E+00 -0.00000000000E+00 -0.27266366435E+03  0.27266366435E+03  0.00000000000E+00 0.  1.
         23    2    1    2    0    0 -0.14267675276E+02  0.11578900225E+03  0.56215770249E+03  0.58122190535E+03  0.90481827933E+02 0.  0.
         13    1    3    3    0    0  0.36769259996E+02  0.33096943147E+02  0.15899321104E+03  0.16651194336E+03  0.00000000000E+00 0. -1.
        -13    1    3    3    0    0 -0.51036935272E+02  0.82692059098E+02  0.40316449146E+03  0.41470996199E+03  0.00000000000E+00 0.  1.
         22    1    1    2    0    0  0.14267675276E+02 -0.11578900225E+03 -0.25020014237E+03  0.27606298347E+03  0.00000000000E+00 0.  1.
<mgrwt>
<rscale>  0 0.79851103E+03</rscale>
<asrwt>0</asrwt>
<pdfrwt beam="1">  1        1 0.89941727E-01 0.79851103E+03</pdfrwt>
<pdfrwt beam="2">  1       -1 0.41948256E-01 0.79851103E+03</pdfrwt>
<totfact> 0.20057201E+02</totfact>
</mgrwt>
</event>
<event>
 6    1  0.9988873E-007  0.4249267E+04  0.7818608E-02  0.7956066E-01
          1   -1    0    0  501    0  0.00000000000E+00  0.00000000000E+00  0.34865041890E+04  0.34865041890E+04  0.00000000000E+00 0. -1.
         -1   -1    0    0    0  501 -0.00000000000E+00 -0.00000000000E+00 -0.12947260545E+04  0.12947260545E+04  0.00000000000E+00 0.  1.
         23    2    1    2    0    0  0.20015821199E+04 -0.11126615452E+03  0.18847997178E+04  0.27531900841E+04  0.94204686850E+02 0.  0.
         11    1    3    3    0    0  0.11986817791E+04 -0.53419386189E+02  0.10669317106E+04  0.16056260192E+04  0.00000000000E+00 0. -1.
        -11    1    3    3    0    0  0.80290034077E+03 -0.57846768327E+02  0.81786800721E+03  0.11475640649E+04  0.00000000000E+00 0.  1.
         22    1    1    2    0    0 -0.20015821199E+04  0.11126615452E+03  0.30697841661E+03  0.20280401594E+04  0.00000000000E+00 0.  1.
<mgrwt>
<rscale>  0 0.42492671E+04</rscale>
<asrwt>0</asrwt>
<pdfrwt beam="1">  1        1 0.53638525E+00 0.42492671E+04</pdfrwt>
<pdfrwt beam="2">  1       -1 0.19918863E+00 0.42492671E+04</pdfrwt>
<totfact> 0.29899485E-02</totfact>
</mgrwt>
</event>
<event>
 6    1  0.9988873E-007  0.5733672E+04  0.7818608E-02  0.7724330E-01
          1   -1    0    0  501    0  0.00000000000E+00  0.00000000000E+00  0.36871385087E+04  0.36871385087E+04  0.00000000000E+00 0. -1.
         -1   -1    0    0    0  501 -0.00000000000E+00 -0.00000000000E+00 -0.22290313235E+04  0.22290313235E+04  0.00000000000E+00 0.  1.
         23    2    1    2    0    0  0.69743221256E+03 -0.83684006691E+03 -0.20061349077E+04  0.22846844244E+04  0.92155641984E+02 0.  0.
         11    1    3    3    0    0  0.32716115377E+03 -0.32430104119E+03 -0.81912212115E+03  0.93976945854E+03  0.00000000000E+00 0.  1.
        -11    1    3    3    0    0  0.37027105880E+03 -0.51253902572E+03 -0.11870127866E+04  0.13449149659E+04  0.00000000000E+00 0. -1.
         22    1    1    2    0    0 -0.69743221256E+03  0.83684006691E+03  0.34642420929E+04  0.36314854078E+04  0.00000000000E+00 0. -1.
<mgrwt>
<rscale>  0 0.57336715E+04</rscale>
<asrwt>0</asrwt>
<pdfrwt beam="1">  1        1 0.56725208E+00 0.57336715E+04</pdfrwt>
<pdfrwt beam="2">  1       -1 0.34292790E+00 0.57336715E+04</pdfrwt>
<totfact> 0.20816663E-03</totfact>
</mgrwt>
</event>
<event>
 6    1  0.9988873E-007  0.1092378E+04  0.7818608E-02  0.9212653E-01
         -1   -1    0    0    0  501 -0.00000000000E+00  0.00000000000E+00  0.38569392336E+03  0.38569392336E+03  0.00000000000E+00 0.  1.
          1   -1    0    0  501    0  0.00000000000E+00 -0.00000000000E+00 -0.77346961613E+03  0.77346961613E+03  0.00000000000E+00 0. -1.
         23    2    1    2    0    0 -0.50369622115E+03  0.19522382713E+03 -0.24833706948E+03  0.60125193758E+03  0.89500650736E+02 0.  0.
         13    1    3    3    0    0 -0.23988194366E+03  0.13662897982E+03 -0.14589515882E+03  0.31224385084E+03  0.00000000000E+00 0. -1.
        -13    1    3    3    0    0 -0.26381427750E+03  0.58594847311E+02 -0.10244191066E+03  0.28900808674E+03  0.00000000000E+00 0.  1.
         22    1    1    2    0    0  0.50369622115E+03 -0.19522382713E+03 -0.13943862329E+03  0.55791160191E+03  0.00000000000E+00 0. -1.
<mgrwt>
<rscale>  0 0.10923782E+04</rscale>
<asrwt>0</asrwt>
<pdfrwt beam="1">  1        1 0.11899532E+00 0.10923782E+04</pdfrwt>
<pdfrwt beam="2">  1       -1 0.59337527E-01 0.10923782E+04</pdfrwt>
<totfact> 0.66979949E+01</totfact>
</mgrwt>
</event>
<event>
 6    1  0.1358438E-006  0.3070164E+04  0.7818608E-02  0.8223974E-01
          2   -1    0    0  501    0  0.00000000000E+00  0.00000000000E+00  0.18349165874E+04  0.18349165874E+04  0.00000000000E+00 0. -1.
         -2   -1    0    0    0  501 -0.00000000000E+00 -0.00000000000E+00 -0.12842421699E+04  0.12842421699E+04  0.00000000000E+00 0.  1.
         23    2    1    2    0    0  0.56657137275E+03 -0.75488408606E+03  0.15038260495E+04  0.17777598093E+04  0.89911337357E+02 0.  0.
         13    1    3    3    0    0  0.34391332931E+03 -0.44626763792E+03  0.97790132468E+03  0.11285930106E+04  0.00000000000E+00 0.  1.
        -13    1    3    3    0    0  0.22265804345E+03 -0.30861644814E+03  0.52592472484E+03  0.64916679873E+03  0.00000000000E+00 0. -1.
         22    1    1    2    0    0 -0.56657137275E+03  0.75488408606E+03 -0.95315163205E+03  0.13413989479E+04  0.00000000000E+00 0.  1.
<mgrwt>
<rscale>  0 0.30701643E+04</rscale>
<asrwt>0</asrwt>
<pdfrwt beam="1">  1        2 0.28229486E+00 0.30701643E+04</pdfrwt>
<pdfrwt beam="2">  1       -2 0.19757572E+00 0.30701643E+04</pdfrwt>
<totfact> 0.96922330E-01</totfact>
</mgrwt>
</event>
<event>
 6    1  0.9988873E-007  0.2886322E+04  0.7818608E-02  0.8276959E-01
         -2   -1    0    0    0  501 -0.00000000000E+00  0.00000000000E+00  0.74358694664E+03  0.74358694664E+03  0.00000000000E+00 0.  1.
          2   -1    0    0  501    0  0.00000000000E+00 -0.00000000000E+00 -0.28009011732E+04  0.28009011732E+04  0.00000000000E+00 0. -1.
         23    2    1    2    0    0  0.10266583608E+04  0.50798349569E+03  0.45240532185E+02  0.11501591668E+04  0.93513536236E+02 0.  0.
         13    1    3    3    0    0  0.73726451785E+03  0.39882600564E+03  0.61162074743E+02  0.84045342015E+03  0.00000000000E+00 0.  1.
        -13    1    3    3    0    0  0.28939384299E+03  0.10915749005E+03 -0.15921542558E+02  0.30970574666E+03  0.00000000000E+00 0. -1.
         22    1    1    2    0    0 -0.10266583608E+04 -0.50798349569E+03 -0.21025547587E+04  0.23943289530E+04  0.00000000000E+00 0. -1.
<mgrwt>
<rscale>  0 0.28863219E+04</rscale>
<asrwt>0</asrwt>
<pdfrwt beam="1">  1        2 0.43090787E+00 0.28863219E+04</pdfrwt>
<pdfrwt beam="2">  1       -2 0.11439799E+00 0.28863219E+04</pdfrwt>
<totfact> 0.11913231E+00</totfact>
</mgrwt>
</event>
<event>
 6    1  0.9988873E-007  0.1031474E+04  0.7818608E-02  0.9274683E-01
          2   -1    0    0  501    0  0.00000000000E+00  0.00000000000E+00  0.35973794320E+03  0.35973794320E+03  0.00000000000E+00 0. -1.
         -2   -1    0    0    0  501 -0.00000000000E+00 -0.00000000000E+00 -0.73938425074E+03  0.73938425074E+03  0.00000000000E+00 0.  1.
         23    2    1    2    0    0  0.12051331992E+03 -0.13647379917E+03 -0.70098840811E+03  0.72978589225E+03  0.89744872196E+02 0.  0.
         11    1    3    3    0    0  0.90019091396E+02 -0.11794673932E+03 -0.39895929886E+03  0.42565642516E+03  0.00000000000E+00 0. -1.
        -11    1    3    3    0    0  0.30494228526E+02 -0.18527059855E+02 -0.30202910925E+03  0.30412946709E+03  0.00000000000E+00 0.  1.
         22    1    1    2    0    0 -0.12051331992E+03  0.13647379917E+03  0.32134210058E+03  0.36933630169E+03  0.00000000000E+00 0. -1.
<mgrwt>
<rscale>  0 0.10314738E+04</rscale>
<asrwt>0</asrwt>
<pdfrwt beam="1">  1        2 0.55344300E-01 0.10314738E+04</pdfrwt>
<pdfrwt beam="2">  1       -2 0.11375142E+00 0.10314738E+04</pdfrwt>
<totfact> 0.54075923E+01</totfact>
</mgrwt>
</event>
<event>
 6    1  0.9988873E-007  0.2897949E+04  0.7818608E-02  0.8273488E-01
         -2   -1    0    0    0  501 -0.00000000000E+00  0.00000000000E+00  0.17834348174E+04  0.17834348174E+04  0.00000000000E+00 0.  1.
          2   -1    0    0  501    0  0.00000000000E+00 -0.00000000000E+00 -0.11772379583E+04  0.11772379583E+04  0.00000000000E+00 0. -1.
         23    2    1    2    0    0  0.11270673943E+04  0.72397590472E+03  0.86383971460E+03  0.15965606605E+04  0.91459654880E+02 0.  0.
         13    1    3    3    0    0  0.65582409192E+03  0.47432410721E+03  0.52447273614E+03  0.96444815785E+03  0.00000000000E+00 0. -1.
        -13    1    3    3    0    0  0.47124330233E+03  0.24965179751E+03  0.33936697846E+03  0.63211250270E+03  0.00000000000E+00 0.  1.
         22    1    1    2    0    0 -0.11270673943E+04 -0.72397590472E+03 -0.25764285544E+03  0.13641121152E+04  0.00000000000E+00 0. -1.
<mgrwt>
<rscale>  0 0.28979490E+04</rscale>
<asrwt>0</asrwt>
<pdfrwt beam="1">  1        2 0.18111353E+00 0.28979490E+04</pdfrwt>
<pdfrwt beam="2">  1       -2 0.27437459E+00 0.28979490E+04</pdfrwt>
<totfact> 0.76896443E-01</totfact>
</mgrwt>
</event>
<event>
 6    1  0.9988873E-007  0.1792329E+04  0.7818608E-02  0.8710389E-01
          2   -1    0    0  501    0  0.00000000000E+00  0.00000000000E+00  0.48713152313E+03  0.48713152313E+03  0.00000000000E+00 0. -1.
         -2   -1    0    0    0  501 -0.00000000000E+00 -0.00000000000E+00 -0.16486536457E+04  0.16486536457E+04  0.00000000000E+00 0.  1.
         23    2    1    2    0    0  0.80745652685E+03  0.36173469599E+03 -0.43122947118E+03  0.98854265319E+03  0.91758854208E+02 0.  0.
         13    1    3    3    0    0  0.36233421697E+03  0.13725222378E+03 -0.23253225933E+03  0.45187997228E+03  0.00000000000E+00 0.  1.
        -13    1    3    3    0    0  0.44512230988E+03  0.22448247221E+03 -0.19869721185E+03  0.53666268091E+03  0.00000000000E+00 0. -1.
         22    1    1    2    0    0 -0.80745652685E+03 -0.36173469599E+03 -0.73029265143E+03  0.11472425157E+04  0.00000000000E+00 0.  1.
<mgrwt>
<rscale>  0 0.17923294E+04</rscale>
<asrwt>0</asrwt>
<pdfrwt beam="1">  1        2 0.74943312E-01 0.17923294E+04</pdfrwt>
<pdfrwt beam="2">  1       -2 0.25363902E+00 0.17923294E+04</pdfrwt>
<totfact> 0.36598622E+00</totfact>
</mgrwt>
</event>
<event>
 6    1  0.9988873E-007  0.2620607E+04  0.7818608E-02  0.8361235E-01
         -1   -1    0    0    0  501 -0.00000000000E+00  0.00000000000E+00  0.81291226519E+03  0.81291226519E+03  0.00000000000E+00 0.  1.
          1   -1    0    0  501    0  0.00000000000E+00 -0.00000000000E+00 -0.21120298922E+04  0.21120298922E+04  0.00000000000E+00 0. -1.
         23    2    1    2    0    0  0.76453340045E+03 -0.14718740887E+03  0.52383956668E+03  0.94268375250E+03  0.89829348645E+02 0.  0.
         11    1    3    3    0    0  0.32115360814E+03 -0.87595094590E+02  0.17990151722E+03  0.37838749519E+03  0.00000000000E+00 0.  1.
        -11    1    3    3    0    0  0.44337979231E+03 -0.59592314275E+02  0.34393804946E+03  0.56429625731E+03  0.00000000000E+00 0. -1.
         22    1    1    2    0    0 -0.76453340045E+03  0.14718740887E+03 -0.18229571937E+04  0.19822584049E+04  0.00000000000E+00 0. -1.
<mgrwt>
<rscale>  0 0.26206068E+04</rscale>
<asrwt>0</asrwt>
<pdfrwt beam="1">  1        1 0.32492768E+00 0.26206068E+04</pdfrwt>
<pdfrwt beam="2">  1       -1 0.12506343E+00 0.26206068E+04</pdfrwt>
<totfact> 0.12286310E+00</totfact>
</mgrwt>
</event>
<event>
 6    1  0.9988873E-007  0.1585251E+04  0.7818608E-02  0.8829660E-01
         -2   -1    0    0    0  501 -0.00000000000E+00  0.00000000000E+00  0.55178653611E+03  0.55178653611E+03  0.00000000000E+00 0.  1.
          2   -1    0    0  501    0  0.00000000000E+00 -0.00000000000E+00 -0.11385836915E+04  0.11385836915E+04  0.00000000000E+00 0. -1.
         23    2    1    2    0    0 -0.68085109113E+02  0.60156275195E+03  0.24717290320E+03  0.65982697998E+03  0.88112841459E+02 0.  0.
         11    1    3    3    0    0 -0.24950718331E+02  0.28677268125E+03  0.70839552188E+02  0.29644451625E+03  0.00000000000E+00 0.  1.
        -11    1    3    3    0    0 -0.43134390782E+02  0.31479007069E+03  0.17633335101E+03  0.36338246374E+03  0.00000000000E+00 0. -1.
         22    1    1    2    0    0  0.68085109113E+02 -0.60156275195E+03 -0.83397005856E+03  0.10305432476E+04  0.00000000000E+00 0. -1.
<mgrwt>
<rscale>  0 0.15852510E+04</rscale>
<asrwt>0</asrwt>
<pdfrwt beam="1">  1        2 0.17516672E+00 0.15852510E+04</pdfrwt>
<pdfrwt beam="2">  1       -2 0.84890237E-01 0.15852510E+04</pdfrwt>
<totfact> 0.23937676E+01</totfact>
</mgrwt>
</event>
<event>
 6    1  0.9988873E-007  0.1537158E+04  0.7818608E-02  0.8860113E-01
          1   -1    0    0  501    0  0.00000000000E+00  0.00000000000E+00  0.24420044390E+04  0.24420044390E+04  0.00000000000E+00 0. -1.
         -1   -1    0    0    0  501 -0.00000000000E+00 -0.00000000000E+00 -0.24189697569E+03  0.24189697569E+03  0.00000000000E+00 0.  1.
         23    2    1    2    0    0 -0.30410914482E+03  0.33888127697E+03  0.21792642763E+04  0.22280973665E+04  0.88894302823E+02 0.  0.
         11    1    3    3    0    0 -0.71732050948E+02  0.13324157437E+03  0.82214913447E+03  0.83595933130E+03  0.00000000000E+00 0. -1.
        -11    1    3    3    0    0 -0.23237709387E+03  0.20563970260E+03  0.13571151418E+04  0.13921380352E+04  0.00000000000E+00 0.  1.
         22    1    1    2    0    0  0.30410914482E+03 -0.33888127697E+03  0.20843187015E+02  0.45580404813E+03  0.00000000000E+00 0.  1.
<mgrwt>
<rscale>  0 0.15371578E+04</rscale>
<asrwt>0</asrwt>
<pdfrwt beam="1">  1        1 0.37569297E+00 0.15371578E+04</pdfrwt>
<pdfrwt beam="2">  1       -1 0.37214921E-01 0.15371578E+04</pdfrwt>
<totfact> 0.99774246E+00</totfact>
</mgrwt>
</event>
<event>
 6    1  0.9988873E-007  0.3154629E+04  0.7818608E-02  0.8200903E-01
          2   -1    0    0  501    0  0.00000000000E+00  0.00000000000E+00  0.13182881576E+04  0.13182881576E+04  0.00000000000E+00 0. -1.
         -2   -1    0    0    0  501 -0.00000000000E+00 -0.00000000000E+00 -0.18872356884E+04  0.18872356884E+04  0.00000000000E+00 0.  1.
         23    2    1    2    0    0  0.64109264939E+03 -0.12308056778E+02 -0.17476102795E+04  0.18637350591E+04  0.90638890104E+02 0.  0.
         13    1    3    3    0    0  0.22561698285E+03 -0.47680128271E+02 -0.62631202126E+03  0.66741528718E+03  0.00000000000E+00 0.  1.
        -13    1    3    3    0    0  0.41547566654E+03  0.35372071493E+02 -0.11212982582E+04  0.11963197720E+04  0.00000000000E+00 0. -1.
         22    1    1    2    0    0 -0.64109264939E+03  0.12308056778E+02  0.11786627487E+04  0.13417887868E+04  0.00000000000E+00 0. -1.
<mgrwt>
<rscale>  0 0.31546286E+04</rscale>
<asrwt>0</asrwt>
<pdfrwt beam="1">  1        2 0.20281356E+00 0.31546286E+04</pdfrwt>
<pdfrwt beam="2">  1       -2 0.29034395E+00 0.31546286E+04</pdfrwt>
<totfact> 0.49641432E-01</totfact>
</mgrwt>
</event>
<event>
 6    1  0.9988873E-007  0.4127098E+04  0.7818608E-02  0.7979386E-01
          1   -1    0    0  501    0  0.00000000000E+00  0.00000000000E+00  0.17052611877E+04  0.17052611877E+04  0.00000000000E+00 0. -1.
         -1   -1    0    0    0  501 -0.00000000000E+00 -0.00000000000E+00 -0.24971153923E+04  0.24971153923E+04  0.00000000000E+00 0.  1.
         23    2    1    2    0    0 -0.68421042691E+03  0.50010228751E+03 -0.23107806556E+04  0.24630135444E+04  0.92099270339E+02 0.  0.
         11    1    3    3    0    0 -0.34656151541E+03  0.30950683885E+03 -0.12789217611E+04  0.13607131359E+04  0.00000000000E+00 0. -1.
        -11    1    3    3    0    0 -0.33764891150E+03  0.19059544866E+03 -0.10318588945E+04  0.11023004085E+04  0.00000000000E+00 0.  1.
         22    1    1    2    0    0  0.68421042691E+03 -0.50010228751E+03  0.15189264509E+04  0.17393630356E+04  0.00000000000E+00 0. -1.
<mgrwt>
<rscale>  0 0.41270978E+04</rscale>
<asrwt>0</asrwt>
<pdfrwt beam="1">  1        1 0.26234787E+00 0.41270978E+04</pdfrwt>
<pdfrwt beam="2">  1       -1 0.38417160E+00 0.41270978E+04</pdfrwt>
<totfact> 0.33548729E-02</totfact>
</mgrwt>
</event>
<event>
 6    1  0.9988873E-007  0.2066265E+04  0.7818608E-02  0.8576251E-01
          2   -1    0    0  501    0  0.00000000000E+00  0.00000000000E+00  0.12095964372E+04  0.12095964372E+04  0.00000000000E+00 0. -1.
         -2   -1    0    0    0  501 -0.00000000000E+00 -0.00000000000E+00 -0.88241262755E+03  0.88241262755E+03  0.00000000000E+00 0.  1.
         23    2    1    2    0    0  0.66634301272E+03  0.40859138241E+03 -0.51688658111E+03  0.94161141485E+03  0.92197562204E+02 0.  0.
         11    1    3    3    0    0  0.12750326392E+03  0.96830389084E+02 -0.14779164919E+03  0.21788891236E+03  0.00000000000E+00 0. -1.
        -11    1    3    3    0    0  0.53883974880E+03  0.31176099333E+03 -0.36909493192E+03  0.72372250249E+03  0.00000000000E+00 0.  1.
         22    1    1    2    0    0 -0.66634301272E+03 -0.40859138241E+03  0.84407039079E+03  0.11503976499E+04  0.00000000000E+00 0. -1.
<mgrwt>
<rscale>  0 0.20662654E+04</rscale>
<asrwt>0</asrwt>
<pdfrwt beam="1">  1        2 0.18609176E+00 0.20662654E+04</pdfrwt>
<pdfrwt beam="2">  1       -2 0.13575579E+00 0.20662654E+04</pdfrwt>
<totfact> 0.67187007E+00</totfact>
</mgrwt>
</event>
<event>
 6    1  0.9988873E-007  0.3895495E+04  0.7818608E-02  0.8025967E-01
          2   -1    0    0  501    0  0.00000000000E+00  0.00000000000E+00  0.24169206968E+04  0.24169206968E+04  0.00000000000E+00 0. -1.
         -2   -1    0    0    0  501 -0.00000000000E+00 -0.00000000000E+00 -0.15696500739E+04  0.15696500739E+04  0.00000000000E+00 0.  1.
         23    2    1    2    0    0  0.60431635909E+03  0.68163643182E+03  0.21844782606E+04  0.23685625033E+04  0.91195251305E+02 0.  0.
         13    1    3    3    0    0  0.25954449146E+03  0.32097744022E+03  0.88288376721E+03  0.97461459387E+03  0.00000000000E+00 0.  1.
        -13    1    3    3    0    0  0.34477186763E+03  0.36065899160E+03  0.13015944934E+04  0.13939479094E+04  0.00000000000E+00 0. -1.
         22    1    1    2    0    0 -0.60431635909E+03 -0.68163643182E+03 -0.13372076377E+04  0.16180082674E+04  0.00000000000E+00 0.  1.
<mgrwt>
<rscale>  0 0.38954947E+04</rscale>
<asrwt>0</asrwt>
<pdfrwt beam="1">  1        2 0.37183395E+00 0.38954947E+04</pdfrwt>
<pdfrwt beam="2">  1       -2 0.24148463E+00 0.38954947E+04</pdfrwt>
<totfact> 0.22431142E-01</totfact>
</mgrwt>
</event>
<event>
 6    1  0.9988873E-007  0.2240784E+04  0.7818608E-02  0.8501642E-01
          2   -1    0    0  501    0  0.00000000000E+00  0.00000000000E+00  0.65757167323E+03  0.65757167323E+03  0.00000000000E+00 0. -1.
         -2   -1    0    0    0  501 -0.00000000000E+00 -0.00000000000E+00 -0.19089600400E+04  0.19089600400E+04  0.00000000000E+00 0.  1.
         23    2    1    2    0    0 -0.36304000785E+03 -0.29866703198E+03  0.53585566606E+03  0.71849457177E+03  0.89961722569E+02 0.  0.
         11    1    3    3    0    0 -0.38919266723E+02 -0.44056165107E+02  0.11653815268E+03  0.13052507819E+03  0.00000000000E+00 0.  1.
        -11    1    3    3    0    0 -0.32412074113E+03 -0.25461086687E+03  0.41931751338E+03  0.58796949358E+03  0.00000000000E+00 0. -1.
         22    1    1    2    0    0  0.36304000785E+03  0.29866703198E+03 -0.17872440328E+04  0.18480371414E+04  0.00000000000E+00 0.  1.
<mgrwt>
<rscale>  0 0.22407838E+04</rscale>
<asrwt>0</asrwt>
<pdfrwt beam="1">  1        2 0.10116487E+00 0.22407838E+04</pdfrwt>
<pdfrwt beam="2">  1       -2 0.29368616E+00 0.22407838E+04</pdfrwt>
<totfact> 0.14031914E+00</totfact>
</mgrwt>
</event>
<event>
 6    1  0.9988873E-007  0.8578489E+03  0.7818608E-02  0.9479863E-01
         -1   -1    0    0    0  501 -0.00000000000E+00  0.00000000000E+00  0.39396828620E+03  0.39396828620E+03  0.00000000000E+00 0.  1.
          1   -1    0    0  501    0  0.00000000000E+00 -0.00000000000E+00 -0.46698224621E+03  0.46698224621E+03  0.00000000000E+00 0. -1.
         23    2    1    2    0    0  0.27336346143E+03 -0.64206052431E+02 -0.35599516053E+03  0.46229233413E+03  0.90175654477E+02 0.  0.
         13    1    3    3    0    0  0.20698233822E+03 -0.30715108222E+02 -0.19986876254E+03  0.28936590754E+03  0.00000000000E+00 0.  1.
        -13    1    3    3    0    0  0.66381123206E+02 -0.33490944209E+02 -0.15612639799E+03  0.17292642659E+03  0.00000000000E+00 0. -1.
         22    1    1    2    0    0 -0.27336346143E+03  0.64206052431E+02  0.28298120052E+03  0.39865819829E+03  0.00000000000E+00 0.  1.
<mgrwt>
<rscale>  0 0.85784893E+03</rscale>
<asrwt>0</asrwt>
<pdfrwt beam="1">  1        1 0.71843423E-01 0.85784893E+03</pdfrwt>
<pdfrwt beam="2">  1       -1 0.60610506E-01 0.85784893E+03</pdfrwt>
<totfact> 0.13573896E+02</totfact>
</mgrwt>
</event>
<event>
 6    1  0.9988873E-007  0.2675595E+04  0.7818608E-02  0.8342967E-01
         -1   -1    0    0    0  501 -0.00000000000E+00  0.00000000000E+00  0.59792212570E+03  0.59792212570E+03  0.00000000000E+00 0.  1.
          1   -1    0    0  501    0  0.00000000000E+00 -0.00000000000E+00 -0.29932022811E+04  0.29932022811E+04  0.00000000000E+00 0. -1.
         23    2    1    2    0    0  0.55432095220E+03  0.10921223814E+04 -0.19157070157E+04  0.22758322680E+04  0.97345405684E+02 0.  0.
         11    1    3    3    0    0  0.52593611994E+03  0.97513986121E+03 -0.17426104012E+04  0.20649933563E+04  0.00000000000E+00 0.  1.
        -11    1    3    3    0    0  0.28384832268E+02  0.11698252019E+03 -0.17309661455E+03  0.21083891174E+03  0.00000000000E+00 0. -1.
         22    1    1    2    0    0 -0.55432095220E+03 -0.10921223814E+04 -0.47957313963E+03  0.13152921388E+04  0.00000000000E+00 0.  1.
<mgrwt>
<rscale>  0 0.26755948E+04</rscale>
<asrwt>0</asrwt>
<pdfrwt beam="1">  1        1 0.46049266E+00 0.26755948E+04</pdfrwt>
<pdfrwt beam="2">  1       -1 0.91988019E-01 0.26755948E+04</pdfrwt>
<totfact> 0.60854402E-01</totfact>
</mgrwt>
</event>
<event>
 6    1  0.9988873E-007  0.9495195E+03  0.7818608E-02  0.9365712E-01
          2   -1    0    0  501    0  0.00000000000E+00  0.00000000000E+00  0.90776322804E+03  0.90776322804E+03  0.00000000000E+00 0. -1.
         -2   -1    0    0    0  501 -0.00000000000E+00 -0.00000000000E+00 -0.24829915658E+03  0.24829915658E+03  0.00000000000E+00 0.  1.
         23    2    1    2    0    0 -0.20142342740E+03  0.14820609092E+02  0.84949252283E+03  0.87875053869E+03  0.98863114194E+02 0.  0.
         13    1    3    3    0    0 -0.73890805249E+02 -0.28195635009E+02  0.45774666648E+03  0.46452863809E+03  0.00000000000E+00 0. -1.
        -13    1    3    3    0    0 -0.12753262216E+03  0.43016244101E+02  0.39174585635E+03  0.41422190060E+03  0.00000000000E+00 0.  1.
         22    1    1    2    0    0  0.20142342740E+03 -0.14820609092E+02 -0.19002845137E+03  0.27731184593E+03  0.00000000000E+00 0.  1.
<mgrwt>
<rscale>  0 0.94951955E+03</rscale>
<asrwt>0</asrwt>
<pdfrwt beam="1">  1        2 0.13965588E+00 0.94951955E+03</pdfrwt>
<pdfrwt beam="2">  1       -2 0.38199871E-01 0.94951955E+03</pdfrwt>
<totfact> 0.18741726E+02</totfact>
</mgrwt>
</event>
<event>
 6    1  0.9988873E-007  0.2489011E+04  0.7818608E-02  0.8406911E-01
         -2   -1    0    0    0  501 -0.00000000000E+00  0.00000000000E+00  0.84905723790E+03  0.84905723790E+03  0.00000000000E+00 0.  1.
          2   -1    0    0  501    0  0.00000000000E+00 -0.00000000000E+00 -0.18241332513E+04  0.18241332513E+04  0.00000000000E+00 0. -1.
         23    2    1    2    0    0  0.69746845528E+03  0.90359790780E+03  0.38941010052E+02  0.11463696258E+04  0.98465687547E+02 0.  0.
         13    1    3    3    0    0  0.34646107948E+03  0.36892160821E+03  0.14900209988E+02  0.50632050013E+03  0.00000000000E+00 0.  1.
        -13    1    3    3    0    0  0.35100737580E+03  0.53467629960E+03  0.24040800064E+02  0.64004912568E+03  0.00000000000E+00 0. -1.
         22    1    1    2    0    0 -0.69746845528E+03 -0.90359790780E+03 -0.10140170235E+04  0.15268208634E+04  0.00000000000E+00 0. -1.
<mgrwt>
<rscale>  0 0.24890107E+04</rscale>
<asrwt>0</asrwt>
<pdfrwt beam="1">  1        2 0.28063588E+00 0.24890107E+04</pdfrwt>
<pdfrwt beam="2">  1       -2 0.13062419E+00 0.24890107E+04</pdfrwt>
<totfact> 0.32048662E+00</totfact>
</mgrwt>
</event>
<event>
 6    1  0.9988873E-007  0.2051329E+04  0.7818608E-02  0.8582992E-01
         -1   -1    0    0    0  501 -0.00000000000E+00  0.00000000000E+00  0.71363729897E+03  0.71363729897E+03  0.00000000000E+00 0.  1.
          1   -1    0    0  501    0  0.00000000000E+00 -0.00000000000E+00 -0.14741203558E+04  0.14741203558E+04  0.00000000000E+00 0. -1.
         23    2    1    2    0    0 -0.77261257685E+02 -0.83278940453E+03  0.24853105969E+03  0.87717878206E+03  0.90373855920E+02 0.  0.
         13    1    3    3    0    0 -0.48092589776E+02 -0.22798093263E+03  0.37793573046E+02  0.23604354895E+03  0.00000000000E+00 0.  1.
        -13    1    3    3    0    0 -0.29168667910E+02 -0.60480847190E+03  0.21073748665E+03  0.64113523312E+03  0.00000000000E+00 0. -1.
         22    1    1    2    0    0  0.77261257685E+02  0.83278940453E+03 -0.10090141165E+04  0.13105788727E+04  0.00000000000E+00 0. -1.
<mgrwt>
<rscale>  0 0.20513286E+04</rscale>
<asrwt>0</asrwt>
<pdfrwt beam="1">  1        1 0.22678775E+00 0.20513286E+04</pdfrwt>
<pdfrwt beam="2">  1       -1 0.10979035E+00 0.20513286E+04</pdfrwt>
<totfact> 0.48274793E+00</totfact>
</mgrwt>
</event>
<event>
 6    1  0.9988873E-007  0.1510919E+04  0.7818608E-02  0.8877224E-01
         -1   -1    0    0    0  501 -0.00000000000E+00  0.00000000000E+00  0.64651666360E+03  0.64651666360E+03  0.00000000000E+00 0.  1.
          1   -1    0    0  501    0  0.00000000000E+00 -0.00000000000E+00 -0.88275952848E+03  0.88275952848E+03  0.00000000000E+00 0. -1.
         23    2    1    2    0    0  0.34033661519E+03 -0.22330281514E+03  0.52260308192E+03  0.66814883224E+03  0.87268103518E+02 0.  0.
         13    1    3    3    0    0  0.23513106329E+03 -0.18496052216E+03  0.42420877754E+03  0.51908582973E+03  0.00000000000E+00 0.  1.
        -13    1    3    3    0    0  0.10520555190E+03 -0.38342292984E+02  0.98394304385E+02  0.14906300251E+03  0.00000000000E+00 0. -1.
         22    1    1    2    0    0 -0.34033661519E+03  0.22330281514E+03 -0.75884594680E+03  0.86112735984E+03  0.00000000000E+00 0. -1.
<mgrwt>
<rscale>  0 0.15109186E+04</rscale>
<asrwt>0</asrwt>
<pdfrwt beam="1">  1        1 0.13580916E+00 0.15109186E+04</pdfrwt>
<pdfrwt beam="2">  1       -1 0.99464102E-01 0.15109186E+04</pdfrwt>
<totfact> 0.17540716E+01</totfact>
</mgrwt>
</event>
<event>
 6    1  0.9988873E-007  0.2073392E+04  0.7818608E-02  0.8573056E-01
          2   -1    0    0  501    0  0.00000000000E+00  0.00000000000E+00  0.25397720141E+04  0.25397720141E+04  0.00000000000E+00 0. -1.
         -2   -1    0    0    0  501 -0.00000000000E+00 -0.00000000000E+00 -0.42316358467E+03  0.42316358467E+03  0.00000000000E+00 0.  1.
         23    2    1    2    0    0 -0.39132354804E+03 -0.45740955230E+03  0.22628649295E+04  0.23434611589E+04  0.94312759984E+02 0.  0.
         13    1    3    3    0    0 -0.37637477941E+03 -0.42409142478E+03  0.20281004550E+04  0.21058734450E+04  0.00000000000E+00 0. -1.
        -13    1    3    3    0    0 -0.14948768624E+02 -0.33318127520E+02  0.23476447452E+03  0.23758771391E+03  0.00000000000E+00 0.  1.
         22    1    1    2    0    0  0.39132354804E+03  0.45740955230E+03 -0.14625650005E+03  0.61947443982E+03  0.00000000000E+00 0.  1.
<mgrwt>
<rscale>  0 0.20733924E+04</rscale>
<asrwt>0</asrwt>
<pdfrwt beam="1">  1        2 0.39073415E+00 0.20733924E+04</pdfrwt>
<pdfrwt beam="2">  1       -2 0.65102091E-01 0.20733924E+04</pdfrwt>
<totfact> 0.66352898E+00</totfact>
</mgrwt>
</event>
<event>
 6    1  0.9988873E-007  0.3016948E+04  0.7818608E-02  0.8238908E-01
          2   -1    0    0  501    0  0.00000000000E+00  0.00000000000E+00  0.26604351001E+04  0.26604351001E+04  0.00000000000E+00 0. -1.
         -2   -1    0    0    0  501 -0.00000000000E+00 -0.00000000000E+00 -0.85530872884E+03  0.85530872884E+03  0.00000000000E+00 0.  1.
         23    2    1    2    0    0  0.47212484005E+03 -0.51977484252E+03  0.24574116217E+04  0.25573369218E+04  0.89624225746E+02 0.  0.
         11    1    3    3    0    0  0.69513472301E+02 -0.10954118760E+03  0.36316736721E+03  0.38564482522E+03  0.00000000000E+00 0. -1.
        -11    1    3    3    0    0  0.40261136775E+03 -0.41023365493E+03  0.20942442545E+04  0.21716920966E+04  0.00000000000E+00 0.  1.
         22    1    1    2    0    0 -0.47212484005E+03  0.51977484252E+03 -0.65228525047E+03  0.95840690706E+03  0.00000000000E+00 0.  1.
<mgrwt>
<rscale>  0 0.30169477E+04</rscale>
<asrwt>0</asrwt>
<pdfrwt beam="1">  1        2 0.40929770E+00 0.30169477E+04</pdfrwt>
<pdfrwt beam="2">  1       -2 0.13158596E+00 0.30169477E+04</pdfrwt>
<totfact> 0.10088418E+00</totfact>
</mgrwt>
</event>
<event>
 6    1  0.9988873E-007  0.3405987E+04  0.7818608E-02  0.8136439E-01
          1   -1    0    0  501    0  0.00000000000E+00  0.00000000000E+00  0.13629066106E+04  0.13629066106E+04  0.00000000000E+00 0. -1.
         -1   -1    0    0    0  501 -0.00000000000E+00 -0.00000000000E+00 -0.21279422449E+04  0.21279422449E+04  0.00000000000E+00 0.  1.
         23    2    1    2    0    0 -0.14813432789E+04  0.37885626585E+03 -0.11485394228E+04  0.19144652931E+04  0.90136411393E+02 0.  0.
         13    1    3    3    0    0 -0.27842516467E+03  0.10075216943E+03 -0.19615329688E+03  0.35517275775E+03  0.00000000000E+00 0.  1.
        -13    1    3    3    0    0 -0.12029181142E+04  0.27810409643E+03 -0.95238612589E+03  0.15592925353E+04  0.00000000000E+00 0. -1.
         22    1    1    2    0    0  0.14813432789E+04 -0.37885626585E+03  0.38350378853E+03  0.15763835624E+04  0.00000000000E+00 0. -1.
<mgrwt>
<rscale>  0 0.34059868E+04</rscale>
<asrwt>0</asrwt>
<pdfrwt beam="1">  1        1 0.20967794E+00 0.34059868E+04</pdfrwt>
<pdfrwt beam="2">  1       -1 0.32737573E+00 0.34059868E+04</pdfrwt>
<totfact> 0.14691382E-01</totfact>
</mgrwt>
</event>
<event>
 6    1  0.9988873E-007  0.9202609E+03  0.7818608E-02  0.9400603E-01
          2   -1    0    0  501    0  0.00000000000E+00  0.00000000000E+00  0.69430177995E+03  0.69430177995E+03  0.00000000000E+00 0. -1.
         -2   -1    0    0    0  501 -0.00000000000E+00 -0.00000000000E+00 -0.30493951752E+03  0.30493951752E+03  0.00000000000E+00 0.  1.
         23    2    1    2    0    0  0.29676890082E+02 -0.45402744247E+03  0.21596717842E+03  0.51232498897E+03  0.93879901227E+02 0.  0.
         13    1    3    3    0    0  0.29738150315E+02 -0.19246768242E+03  0.14034764785E+03  0.24005338702E+03  0.00000000000E+00 0. -1.
        -13    1    3    3    0    0 -0.61260232699E-01 -0.26155976005E+03  0.75619530561E+02  0.27227160196E+03  0.00000000000E+00 0.  1.
         22    1    1    2    0    0 -0.29676890082E+02  0.45402744247E+03  0.17339508402E+03  0.48691630850E+03  0.00000000000E+00 0.  1.
<mgrwt>
<rscale>  0 0.92026094E+03</rscale>
<asrwt>0</asrwt>
<pdfrwt beam="1">  1        2 0.10681566E+00 0.92026094E+03</pdfrwt>
<pdfrwt beam="2">  1       -2 0.46913772E-01 0.92026094E+03</pdfrwt>
<totfact> 0.17868710E+02</totfact>
</mgrwt>
</event>
<event>
 6    1  0.9988873E-007  0.3230954E+04  0.7818608E-02  0.8180690E-01
          2   -1    0    0  501    0  0.00000000000E+00  0.00000000000E+00  0.16841232379E+04  0.16841232379E+04  0.00000000000E+00 0. -1.
         -2   -1    0    0    0  501 -0.00000000000E+00 -0.00000000000E+00 -0.15496290203E+04  0.15496290203E+04  0.00000000000E+00 0.  1.
         23    2    1    2    0    0 -0.51105788242E+03  0.69699247517E+03 -0.12972119124E+04  0.15614002879E+04  0.90738325342E+02 0.  0.
         11    1    3    3    0    0 -0.80129724027E+02  0.89333513750E+02 -0.23684024125E+03  0.26550809635E+03  0.00000000000E+00 0. -1.
        -11    1    3    3    0    0 -0.43092815839E+03  0.60765896142E+03 -0.10603716712E+04  0.12958921916E+04  0.00000000000E+00 0.  1.
         22    1    1    2    0    0  0.51105788242E+03 -0.69699247517E+03  0.14317061301E+04  0.16723519703E+04  0.00000000000E+00 0. -1.
<mgrwt>
<rscale>  0 0.32309542E+04</rscale>
<asrwt>0</asrwt>
<pdfrwt beam="1">  1        2 0.25909588E+00 0.32309542E+04</pdfrwt>
<pdfrwt beam="2">  1       -2 0.23840446E+00 0.32309542E+04</pdfrwt>
<totfact> 0.63709462E-01</totfact>
</mgrwt>
</event>
<event>
 6    1  0.9988873E-007  0.1890028E+04  0.7818608E-02  0.8659836E-01
          1   -1    0    0  501    0  0.00000000000E+00  0.00000000000E+00  0.76738812052E+03  0.76738812052E+03  0.00000000000E+00 0. -1.
         -1   -1    0    0    0  501 -0.00000000000E+00 -0.00000000000E+00 -0.11637544272E+04  0.11637544272E+04  0.00000000000E+00 0.  1.
         23    2    1    2    0    0 -0.61827943605E+03  0.42303895963E+03  0.38627285101E+03  0.84774258760E+03  0.90715803406E+02 0.  0.
         11    1    3    3    0    0 -0.21033838062E+03  0.95700303367E+02  0.13275306894E+03  0.26650358297E+03  0.00000000000E+00 0. -1.
        -11    1    3    3    0    0 -0.40794105543E+03  0.32733865626E+03  0.25351978208E+03  0.58123900462E+03  0.00000000000E+00 0.  1.
         22    1    1    2    0    0  0.61827943605E+03 -0.42303895963E+03 -0.78263915764E+03  0.10833999601E+04  0.00000000000E+00 0. -1.
<mgrwt>
<rscale>  0 0.18900279E+04</rscale>
<asrwt>0</asrwt>
<pdfrwt beam="1">  1        1 0.11805971E+00 0.18900279E+04</pdfrwt>
<pdfrwt beam="2">  1       -1 0.17903914E+00 0.18900279E+04</pdfrwt>
<totfact> 0.46778248E+00</totfact>
</mgrwt>
</event>
<event>
 6    1  0.9988873E-007  0.2583084E+04  0.7818608E-02  0.8373970E-01
         -2   -1    0    0    0  501 -0.00000000000E+00  0.00000000000E+00  0.22883610331E+04  0.22883610331E+04  0.00000000000E+00 0.  1.
          2   -1    0    0  501    0  0.00000000000E+00 -0.00000000000E+00 -0.72894115772E+03  0.72894115772E+03  0.00000000000E+00 0. -1.
         23    2    1    2    0    0  0.95102622801E+03 -0.50265607786E+03  0.16123104462E+04  0.19403103471E+04  0.90251033308E+02 0.  0.
         13    1    3    3    0    0  0.72209318594E+03 -0.41143132706E+03  0.12910058822E+04  0.15353795928E+04  0.00000000000E+00 0. -1.
        -13    1    3    3    0    0  0.22893304206E+03 -0.91224750798E+02  0.32130456397E+03  0.40493075424E+03  0.00000000000E+00 0.  1.
         22    1    1    2    0    0 -0.95102622801E+03  0.50265607786E+03 -0.52890570859E+02  0.10769918437E+04  0.00000000000E+00 0. -1.
<mgrwt>
<rscale>  0 0.25830838E+04</rscale>
<asrwt>0</asrwt>
<pdfrwt beam="1">  1        2 0.11214479E+00 0.25830838E+04</pdfrwt>
<pdfrwt beam="2">  1       -2 0.35205554E+00 0.25830838E+04</pdfrwt>
<totfact> 0.52056655E-01</totfact>
</mgrwt>
</event>
<event>
 6    1  0.9988873E-007  0.3099694E+04  0.7818608E-02  0.8215822E-01
         -2   -1    0    0    0  501 -0.00000000000E+00  0.00000000000E+00  0.11634535364E+04  0.11634535364E+04  0.00000000000E+00 0.  1.
          2   -1    0    0  501    0  0.00000000000E+00 -0.00000000000E+00 -0.20645648913E+04  0.20645648913E+04  0.00000000000E+00 0. -1.
         23    2    1    2    0    0  0.80889061989E+03 -0.12538640265E+04 -0.19820885810E+02  0.14950579772E+04  0.91249415836E+02 0.  0.
         11    1    3    3    0    0  0.33638531666E+03 -0.59233898932E+03 -0.33285466236E+02  0.68200328577E+03  0.00000000000E+00 0. -1.
        -11    1    3    3    0    0  0.47250530323E+03 -0.66152503715E+03  0.13464580426E+02  0.81305469145E+03  0.00000000000E+00 0.  1.
         22    1    1    2    0    0 -0.80889061989E+03  0.12538640265E+04 -0.88129046909E+03  0.17329604504E+04  0.00000000000E+00 0.  1.
<mgrwt>
<rscale>  0 0.30996937E+04</rscale>
<asrwt>0</asrwt>
<pdfrwt beam="1">  1        2 0.31762536E+00 0.30996937E+04</pdfrwt>
<pdfrwt beam="2">  1       -2 0.17899285E+00 0.30996937E+04</pdfrwt>
<totfact> 0.96219297E-01</totfact>
</mgrwt>
</event>
<event>
 6    1  0.9988873E-007  0.3727278E+04  0.7818608E-02  0.8061944E-01
          1   -1    0    0  501    0  0.00000000000E+00  0.00000000000E+00  0.21934690419E+04  0.21934690419E+04  0.00000000000E+00 0. -1.
         -1   -1    0    0    0  501 -0.00000000000E+00 -0.00000000000E+00 -0.15834049508E+04  0.15834049508E+04  0.00000000000E+00 0.  1.
         23    2    1    2    0    0 -0.15968037884E+03  0.10754320260E+04  0.18375979371E+04  0.21370901019E+04  0.91302021693E+02 0.  0.
         13    1    3    3    0    0 -0.16234913724E+03  0.94330061404E+03  0.16517262072E+04  0.19090240319E+04  0.00000000000E+00 0. -1.
        -13    1    3    3    0    0  0.26687583958E+01  0.13213141195E+03  0.18587172983E+03  0.22806606992E+03  0.00000000000E+00 0.  1.
         22    1    1    2    0    0  0.15968037884E+03 -0.10754320260E+04 -0.12275338460E+04  0.16397838909E+04  0.00000000000E+00 0.  1.
<mgrwt>
<rscale>  0 0.37272777E+04</rscale>
<asrwt>0</asrwt>
<pdfrwt beam="1">  1        1 0.33745678E+00 0.37272777E+04</pdfrwt>
<pdfrwt beam="2">  1       -1 0.24360076E+00 0.37272777E+04</pdfrwt>
<totfact> 0.13528764E-01</totfact>
</mgrwt>
</event>
<event>
 6    1  0.9988873E-007  0.2257996E+04  0.7818608E-02  0.8494669E-01
          2   -1    0    0  501    0  0.00000000000E+00  0.00000000000E+00  0.19059276065E+04  0.19059276065E+04  0.00000000000E+00 0. -1.
         -2   -1    0    0    0  501 -0.00000000000E+00 -0.00000000000E+00 -0.66877503085E+03  0.66877503085E+03  0.00000000000E+00 0.  1.
         23    2    1    2    0    0  0.97821841118E+03  0.30657317955E+03  0.11502602970E+04  0.15458933049E+04  0.12565422757E+03 0.  0.
         11    1    3    3    0    0  0.55818125925E+03  0.11004101040E+03  0.64632943020E+03  0.86105579058E+03  0.00000000000E+00 0. -1.
        -11    1    3    3    0    0  0.42003715192E+03  0.19653216916E+03  0.50393086679E+03  0.68483751432E+03  0.00000000000E+00 0.  1.
         22    1    1    2    0    0 -0.97821841118E+03 -0.30657317955E+03  0.86892278632E+02  0.10288093324E+04  0.00000000000E+00 0.  1.
<mgrwt>
<rscale>  0 0.22579963E+04</rscale>
<asrwt>0</asrwt>
<pdfrwt beam="1">  1        2 0.29321963E+00 0.22579963E+04</pdfrwt>
<pdfrwt beam="2">  1       -2 0.10288847E+00 0.22579963E+04</pdfrwt>
<totfact> 0.52909928E+00</totfact>
</mgrwt>
</event>
<event>
 6    1  0.9988873E-007  0.5926358E+04  0.7818608E-02  0.7699600E-01
         -1   -1    0    0    0  501 -0.00000000000E+00  0.00000000000E+00  0.28664207533E+04  0.28664207533E+04  0.00000000000E+00 0.  1.
          1   -1    0    0  501    0  0.00000000000E+00 -0.00000000000E+00 -0.30632029734E+04  0.30632029734E+04  0.00000000000E+00 0. -1.
         23    2    1    2    0    0 -0.18490767130E+04  0.91135964767E+03  0.20306762965E+04  0.28946224844E+04  0.74377469381E+02 0.  0.
         13    1    3    3    0    0 -0.59945356354E+03  0.31300737519E+03  0.62268550378E+03  0.91926896411E+03  0.00000000000E+00 0. -1.
        -13    1    3    3    0    0 -0.12496231495E+04  0.59835227248E+03  0.14079907927E+04  0.19753535203E+04  0.00000000000E+00 0.  1.
         22    1    1    2    0    0  0.18490767130E+04 -0.91135964767E+03 -0.22274585165E+04  0.30350012423E+04  0.00000000000E+00 0. -1.
<mgrwt>
<rscale>  0 0.59263576E+04</rscale>
<asrwt>0</asrwt>
<pdfrwt beam="1">  1        1 0.47126199E+00 0.59263576E+04</pdfrwt>
<pdfrwt beam="2">  1       -1 0.44098781E+00 0.59263576E+04</pdfrwt>
<totfact> 0.13516996E-03</totfact>
</mgrwt>
</event>
<event>
 6    1  0.9988873E-007  0.2652309E+04  0.7818608E-02  0.8350647E-01
          1   -1    0    0  501    0  0.00000000000E+00  0.00000000000E+00  0.17918502225E+04  0.17918502225E+04  0.00000000000E+00 0. -1.
         -1   -1    0    0    0  501 -0.00000000000E+00 -0.00000000000E+00 -0.98149155788E+03  0.98149155788E+03  0.00000000000E+00 0.  1.
         23    2    1    2    0    0  0.76081256430E+03 -0.11613554886E+03 -0.72153848115E+03  0.10589812323E+04  0.92196783082E+02 0.  0.
         11    1    3    3    0    0  0.25859049651E+03 -0.55547009624E+02 -0.19335229032E+03  0.32762726281E+03  0.00000000000E+00 0.  1.
        -11    1    3    3    0    0  0.50222206779E+03 -0.60588539231E+02 -0.52818619082E+03  0.73135396946E+03  0.00000000000E+00 0. -1.
         22    1    1    2    0    0 -0.76081256430E+03  0.11613554886E+03  0.15318971458E+04  0.17143605481E+04  0.00000000000E+00 0. -1.
<mgrwt>
<rscale>  0 0.26523091E+04</rscale>
<asrwt>0</asrwt>
<pdfrwt beam="1">  1        1 0.27566926E+00 0.26523091E+04</pdfrwt>
<pdfrwt beam="2">  1       -1 0.15099870E+00 0.26523091E+04</pdfrwt>
<totfact> 0.12397698E+00</totfact>
</mgrwt>
</event>
<event>
 6    1  0.9988873E-007  0.2740606E+04  0.7818608E-02  0.8321949E-01
          1   -1    0    0  501    0  0.00000000000E+00  0.00000000000E+00  0.20135285051E+04  0.20135285051E+04  0.00000000000E+00 0. -1.
         -1   -1    0    0    0  501 -0.00000000000E+00 -0.00000000000E+00 -0.93255689562E+03  0.93255689562E+03  0.00000000000E+00 0.  1.
         23    2    1    2    0    0 -0.44874018054E+03 -0.12281846722E+04  0.10597336300E+03  0.13150038824E+04  0.90551191901E+02 0.  0.
         13    1    3    3    0    0 -0.21766873810E+03 -0.72280554098E+03  0.50947039071E+02  0.75658649896E+03  0.00000000000E+00 0. -1.
        -13    1    3    3    0    0 -0.23107144244E+03 -0.50537913125E+03  0.55026323932E+02  0.55841738345E+03  0.00000000000E+00 0.  1.
         22    1    1    2    0    0  0.44874018054E+03  0.12281846722E+04  0.97499824649E+03  0.16310815183E+04  0.00000000000E+00 0. -1.
<mgrwt>
<rscale>  0 0.27406057E+04</rscale>
<asrwt>0</asrwt>
<pdfrwt beam="1">  1        1 0.30977362E+00 0.27406057E+04</pdfrwt>
<pdfrwt beam="2">  1       -1 0.14347029E+00 0.27406057E+04</pdfrwt>
<totfact> 0.99755757E-01</totfact>
</mgrwt>
</event>
<event>
 6    1  0.9988873E-007  0.1496091E+04  0.7818608E-02  0.8887057E-01
         -2   -1    0    0    0  501 -0.00000000000E+00  0.00000000000E+00  0.41495690908E+03  0.41495690908E+03  0.00000000000E+00 0.  1.
          2   -1    0    0  501    0  0.00000000000E+00 -0.00000000000E+00 -0.13485057837E+04  0.13485057837E+04  0.00000000000E+00 0. -1.
         23    2    1    2    0    0  0.42967947322E+03 -0.54974228651E+03 -0.16014017511E+03  0.72182837702E+03  0.92467826299E+02 0.  0.
         11    1    3    3    0    0  0.82225131635E+02 -0.60750407946E+02 -0.41549147759E+02  0.11035359540E+03  0.00000000000E+00 0.  1.
        -11    1    3    3    0    0  0.34745434159E+03 -0.48899187857E+03 -0.11859102735E+03  0.61147478162E+03  0.00000000000E+00 0. -1.
         22    1    1    2    0    0 -0.42967947322E+03  0.54974228651E+03 -0.77340869947E+03  0.10416343157E+04  0.00000000000E+00 0. -1.
<mgrwt>
<rscale>  0 0.14960906E+04</rscale>
<asrwt>0</asrwt>
<pdfrwt beam="1">  1        2 0.20746243E+00 0.14960906E+04</pdfrwt>
<pdfrwt beam="2">  1       -2 0.63839525E-01 0.14960906E+04</pdfrwt>
<totfact> 0.33977254E+01</totfact>
</mgrwt>
</event>
<event>
 6    1  0.9988873E-007  0.1227904E+04  0.7818608E-02  0.9088777E-01
          2   -1    0    0  501    0  0.00000000000E+00  0.00000000000E+00  0.11663098246E+04  0.11663098246E+04  0.00000000000E+00 0. -1.
         -2   -1    0    0    0  501 -0.00000000000E+00 -0.00000000000E+00 -0.32318759181E+03  0.32318759181E+03  0.00000000000E+00 0.  1.
         23    2    1    2    0    0 -0.73396524790E+02  0.25373399618E+03 -0.24397330607E+03  0.37077282954E+03  0.90451790356E+02 0.  0.
         11    1    3    3    0    0 -0.19619390309E+02  0.71812715528E+02 -0.19658048086E+02  0.76996269014E+02  0.00000000000E+00 0.  1.
        -11    1    3    3    0    0 -0.53777134480E+02  0.18192128065E+03 -0.22431525799E+03  0.29377656052E+03  0.00000000000E+00 0. -1.
         22    1    1    2    0    0  0.73396524790E+02 -0.25373399618E+03  0.10870955388E+04  0.11187245868E+04  0.00000000000E+00 0. -1.
<mgrwt>
<rscale>  0 0.12279037E+04</rscale>
<asrwt>0</asrwt>
<pdfrwt beam="1">  1        2 0.17943228E+00 0.12279037E+04</pdfrwt>
<pdfrwt beam="2">  1       -2 0.49721169E-01 0.12279037E+04</pdfrwt>
<totfact> 0.74799655E+01</totfact>
</mgrwt>
</event>
<event>
 6    1  0.9988873E-007  0.1679973E+04  0.7818608E-02  0.8772869E-01
          4   -1    0    0  501    0  0.00000000000E+00  0.00000000000E+00  0.79747323555E+03  0.79747323555E+03  0.00000000000E+00 0. -1.
         -4   -1    0    0    0  501 -0.00000000000E+00 -0.00000000000E+00 -0.88476638201E+03  0.88476638201E+03  0.00000000000E+00 0.  1.
         23    2    1    2    0    0 -0.68237242738E+03  0.36969958108E+03  0.27122989489E+03  0.82734273427E+03  0.92846293205E+02 0.  0.
         11    1    3    3    0    0 -0.36876656975E+03  0.20983587153E+03  0.19609828286E+03  0.46741246505E+03  0.00000000000E+00 0. -1.
        -11    1    3    3    0    0 -0.31360585762E+03  0.15986370955E+03  0.75131612036E+02  0.35993026921E+03  0.00000000000E+00 0.  1.
         22    1    1    2    0    0  0.68237242738E+03 -0.36969958108E+03 -0.35852304135E+03  0.85489688330E+03  0.00000000000E+00 0. -1.
<mgrwt>
<rscale>  0 0.16799732E+04</rscale>
<asrwt>0</asrwt>
<pdfrwt beam="1">  1        4 0.12268819E+00 0.16799732E+04</pdfrwt>
<pdfrwt beam="2">  1       -4 0.13611790E+00 0.16799732E+04</pdfrwt>
<totfact> 0.36717546E-01</totfact>
</mgrwt>
</event>
<event>
 6    1  0.9988873E-007  0.1903610E+04  0.7818608E-02  0.8653062E-01
         -2   -1    0    0    0  501 -0.00000000000E+00  0.00000000000E+00  0.57064479267E+03  0.57064479267E+03  0.00000000000E+00 0.  1.
          2   -1    0    0  501    0  0.00000000000E+00 -0.00000000000E+00 -0.15875591987E+04  0.15875591987E+04  0.00000000000E+00 0. -1.
         23    2    1    2    0    0 -0.82015119943E+03 -0.45900251586E+03 -0.35569785132E+03  0.10090570766E+04  0.91345076180E+02 0.  0.
         13    1    3    3    0    0 -0.52324275223E+03 -0.25457260870E+03 -0.25072478928E+03  0.63360327558E+03  0.00000000000E+00 0. -1.
        -13    1    3    3    0    0 -0.29690844720E+03 -0.20442990716E+03 -0.10497306204E+03  0.37545380104E+03  0.00000000000E+00 0.  1.
         22    1    1    2    0    0  0.82015119943E+03  0.45900251586E+03 -0.66121655476E+03  0.11491469148E+04  0.00000000000E+00 0.  1.
<mgrwt>
<rscale>  0 0.19036096E+04</rscale>
<asrwt>0</asrwt>
<pdfrwt beam="1">  1        2 0.24423988E+00 0.19036096E+04</pdfrwt>
<pdfrwt beam="2">  1       -2 0.87791507E-01 0.19036096E+04</pdfrwt>
<totfact> 0.11873574E+01</totfact>
</mgrwt>
</event>
<event>
 6    1  0.1301854E-006  0.2848017E+04  0.7818608E-02  0.8288514E-01
          2   -1    0    0  501    0  0.00000000000E+00  0.00000000000E+00  0.18047527572E+04  0.18047527572E+04  0.00000000000E+00 0. -1.
         -2   -1    0    0    0  501 -0.00000000000E+00 -0.00000000000E+00 -0.11235887448E+04  0.11235887448E+04  0.00000000000E+00 0.  1.
         23    2    1    2    0    0  0.51721260363E+02  0.97778324227E+03  0.14019708860E+04  0.17124888354E+04  0.91435706376E+02 0.  0.
         11    1    3    3    0    0 -0.14735556897E+02  0.39291306669E+03  0.51423707103E+03  0.64733112071E+03  0.00000000000E+00 0.  1.
        -11    1    3    3    0    0  0.66456817259E+02  0.58487017558E+03  0.88773381500E+03  0.10651577147E+04  0.00000000000E+00 0. -1.
         22    1    1    2    0    0 -0.51721260363E+02 -0.97778324227E+03 -0.72080687365E+03  0.12158526665E+04  0.00000000000E+00 0.  1.
<mgrwt>
<rscale>  0 0.28480168E+04</rscale>
<asrwt>0</asrwt>
<pdfrwt beam="1">  1        2 0.27765427E+00 0.28480168E+04</pdfrwt>
<pdfrwt beam="2">  1       -2 0.17285981E+00 0.28480168E+04</pdfrwt>
<totfact> 0.15123519E+00</totfact>
</mgrwt>
</event>
<event>
 6    1  0.9988873E-007  0.1933454E+04  0.7818608E-02  0.8638381E-01
          2   -1    0    0  501    0  0.00000000000E+00  0.00000000000E+00  0.17829677993E+04  0.17829677993E+04  0.00000000000E+00 0. -1.
         -2   -1    0    0    0  501 -0.00000000000E+00 -0.00000000000E+00 -0.52416023530E+03  0.52416023530E+03  0.00000000000E+00 0.  1.
         23    2    1    2    0    0 -0.37200034823E+03 -0.53001492429E+03  0.14839711555E+04  0.16215635067E+04  0.89430067270E+02 0.  0.
         13    1    3    3    0    0 -0.23197511691E+03 -0.25640097889E+03  0.75228160094E+03  0.82793811601E+03  0.00000000000E+00 0.  1.
        -13    1    3    3    0    0 -0.14002523132E+03 -0.27361394540E+03  0.73168955453E+03  0.79362539068E+03  0.00000000000E+00 0. -1.
         22    1    1    2    0    0  0.37200034823E+03  0.53001492429E+03 -0.22516359144E+03  0.68556452794E+03  0.00000000000E+00 0.  1.
<mgrwt>
<rscale>  0 0.19334537E+04</rscale>
<asrwt>0</asrwt>
<pdfrwt beam="1">  1        2 0.27430273E+00 0.19334537E+04</pdfrwt>
<pdfrwt beam="2">  1       -2 0.80640037E-01 0.19334537E+04</pdfrwt>
<totfact> 0.11182856E+01</totfact>
</mgrwt>
</event>
<event>
 6    1  0.1298124E-006  0.2860386E+04  0.7818608E-02  0.8284762E-01
         -2   -1    0    0    0  501 -0.00000000000E+00  0.00000000000E+00  0.70991640196E+03  0.70991640196E+03  0.00000000000E+00 0.  1.
          2   -1    0    0  501    0  0.00000000000E+00 -0.00000000000E+00 -0.28812579912E+04  0.28812579912E+04  0.00000000000E+00 0. -1.
         23    2    1    2    0    0 -0.90871993257E+03  0.51714618050E+03  0.13582888155E+03  0.10581430730E+04  0.89471726966E+02 0.  0.
         13    1    3    3    0    0 -0.51350521940E+03  0.30817610665E+03  0.12009846435E+03  0.61080583183E+03  0.00000000000E+00 0. -1.
        -13    1    3    3    0    0 -0.39521471317E+03  0.20897007385E+03  0.15730417199E+02  0.44733724112E+03  0.00000000000E+00 0.  1.
         22    1    1    2    0    0  0.90871993257E+03 -0.51714618050E+03 -0.23071704707E+04  0.25330313202E+04  0.00000000000E+00 0. -1.
<mgrwt>
<rscale>  0 0.28603862E+04</rscale>
<asrwt>0</asrwt>
<pdfrwt beam="1">  1        2 0.44327046E+00 0.28603862E+04</pdfrwt>
<pdfrwt beam="2">  1       -2 0.10921791E+00 0.28603862E+04</pdfrwt>
<totfact> 0.11936075E+00</totfact>
</mgrwt>
</event>
<event>
 6    1  0.1039737E-006  0.3858692E+04  0.7818608E-02  0.8033676E-01
          2   -1    0    0  501    0  0.00000000000E+00  0.00000000000E+00  0.19168989852E+04  0.19168989852E+04  0.00000000000E+00 0. -1.
         -2   -1    0    0    0  501 -0.00000000000E+00 -0.00000000000E+00 -0.19418742799E+04  0.19418742799E+04  0.00000000000E+00 0.  1.
         23    2    1    2    0    0 -0.15988350303E+04  0.10470314493E+04  0.24345268977E+03  0.19288504966E+04  0.92987721393E+02 0.  0.
         11    1    3    3    0    0 -0.10266914056E+04  0.70765886403E+03  0.12544072538E+03  0.12532404740E+04  0.00000000000E+00 0. -1.
        -11    1    3    3    0    0 -0.57214362471E+03  0.33937258526E+03  0.11801196439E+03  0.67561002261E+03  0.00000000000E+00 0.  1.
         22    1    1    2    0    0  0.15988350303E+04 -0.10470314493E+04 -0.26842798447E+03  0.19299227686E+04  0.00000000000E+00 0.  1.
<mgrwt>
<rscale>  0 0.38586924E+04</rscale>
<asrwt>0</asrwt>
<pdfrwt beam="1">  1        2 0.29490753E+00 0.38586924E+04</pdfrwt>
<pdfrwt beam="2">  1       -2 0.29874989E+00 0.38586924E+04</pdfrwt>
<totfact> 0.19182227E-01</totfact>
</mgrwt>
</event>
<event>
 6    1  0.9988873E-007  0.2784348E+04  0.7818608E-02  0.8308144E-01
          3   -1    0    0  501    0  0.00000000000E+00  0.00000000000E+00  0.24383417357E+04  0.24383417357E+04  0.00000000000E+00 0. -1.
         -3   -1    0    0    0  501 -0.00000000000E+00 -0.00000000000E+00 -0.79486329770E+03  0.79486329770E+03  0.00000000000E+00 0.  1.
         23    2    1    2    0    0  0.66473034106E+03  0.10862487248E+04  0.14704382507E+04  0.19480024716E+04  0.10354835546E+03 0.  0.
         11    1    3    3    0    0  0.36264074556E+03  0.67020042108E+03  0.83097035397E+03  0.11274700191E+04  0.00000000000E+00 0. -1.
        -11    1    3    3    0    0  0.30208959549E+03  0.41604830369E+03  0.63946789676E+03  0.82053245256E+03  0.00000000000E+00 0.  1.
         22    1    1    2    0    0 -0.66473034106E+03 -0.10862487248E+04  0.17304018729E+03  0.12852025618E+04  0.00000000000E+00 0.  1.
<mgrwt>
<rscale>  0 0.27843479E+04</rscale>
<asrwt>0</asrwt>
<pdfrwt beam="1">  1        3 0.37512949E+00 0.27843479E+04</pdfrwt>
<pdfrwt beam="2">  1       -3 0.12228666E+00 0.27843479E+04</pdfrwt>
<totfact> 0.18468218E-02</totfact>
</mgrwt>
</event>
<event>
 6    1  0.9988873E-007  0.1249593E+04  0.7818608E-02  0.9070522E-01
         -2   -1    0    0    0  501 -0.00000000000E+00  0.00000000000E+00  0.39466823155E+03  0.39466823155E+03  0.00000000000E+00 0.  1.
          2   -1    0    0  501    0  0.00000000000E+00 -0.00000000000E+00 -0.98911042956E+03  0.98911042956E+03  0.00000000000E+00 0. -1.
         23    2    1    2    0    0  0.40764035684E+03 -0.11586954363E+03 -0.80224396637E+03  0.91178503128E+03  0.90333548808E+02 0.  0.
         13    1    3    3    0    0  0.26117142003E+03 -0.66592117388E+02 -0.59561375011E+03  0.65375894645E+03  0.00000000000E+00 0. -1.
        -13    1    3    3    0    0  0.14646893681E+03 -0.49277426238E+02 -0.20663021626E+03  0.25802608484E+03  0.00000000000E+00 0.  1.
         22    1    1    2    0    0 -0.40764035684E+03  0.11586954363E+03  0.20780176836E+03  0.47199362983E+03  0.00000000000E+00 0.  1.
<mgrwt>
<rscale>  0 0.12495927E+04</rscale>
<asrwt>0</asrwt>
<pdfrwt beam="1">  1        2 0.15217083E+00 0.12495927E+04</pdfrwt>
<pdfrwt beam="2">  1       -2 0.60718190E-01 0.12495927E+04</pdfrwt>
<totfact> 0.63593522E+01</totfact>
</mgrwt>
</event>
<event>
 6    1  0.9988873E-007  0.3784063E+04  0.7818608E-02  0.8049584E-01
         -2   -1    0    0    0  501 -0.00000000000E+00  0.00000000000E+00  0.17182570508E+04  0.17182570508E+04  0.00000000000E+00 0.  1.
          2   -1    0    0  501    0  0.00000000000E+00 -0.00000000000E+00 -0.20833800680E+04  0.20833800680E+04  0.00000000000E+00 0. -1.
         23    2    1    2    0    0 -0.40583508039E+02  0.12523834747E+04 -0.16054514377E+04  0.20385358797E+04  0.89681799090E+02 0.  0.
         13    1    3    3    0    0 -0.67293344868E+02  0.90526708964E+03 -0.11390288734E+04  0.14565107869E+04  0.00000000000E+00 0. -1.
        -13    1    3    3    0    0  0.26709836829E+02  0.34711638505E+03 -0.46642256429E+03  0.58202509278E+03  0.00000000000E+00 0.  1.
         22    1    1    2    0    0  0.40583508039E+02 -0.12523834747E+04  0.12403284205E+04  0.17631012391E+04  0.00000000000E+00 0.  1.
<mgrwt>
<rscale>  0 0.37840626E+04</rscale>
<asrwt>0</asrwt>
<pdfrwt beam="1">  1        2 0.32052001E+00 0.37840626E+04</pdfrwt>
<pdfrwt beam="2">  1       -2 0.26434724E+00 0.37840626E+04</pdfrwt>
<totfact> 0.25294470E-01</totfact>
</mgrwt>
</event>
<event>
 6    1  0.9988873E-007  0.3518631E+04  0.7818608E-02  0.8109389E-01
         -1   -1    0    0    0  501 -0.00000000000E+00  0.00000000000E+00  0.14222928785E+04  0.14222928785E+04  0.00000000000E+00 0.  1.
          1   -1    0    0  501    0  0.00000000000E+00 -0.00000000000E+00 -0.21761977184E+04  0.21761977184E+04  0.00000000000E+00 0. -1.
         23    2    1    2    0    0 -0.24117200392E+03 -0.89057326815E+03 -0.19076033909E+04  0.21212279161E+04  0.96811640113E+02 0.  0.
         11    1    3    3    0    0 -0.16181217169E+03 -0.60450115907E+03 -0.13935207258E+04  0.15275813705E+04  0.00000000000E+00 0.  1.
        -11    1    3    3    0    0 -0.79359832229E+02 -0.28607210908E+03 -0.51408266510E+03  0.59364654562E+03  0.00000000000E+00 0. -1.
         22    1    1    2    0    0  0.24117200392E+03  0.89057326815E+03  0.11536985510E+04  0.14772626808E+04  0.00000000000E+00 0.  1.
<mgrwt>
<rscale>  0 0.35186307E+04</rscale>
<asrwt>0</asrwt>
<pdfrwt beam="1">  1        1 0.33479965E+00 0.35186307E+04</pdfrwt>
<pdfrwt beam="2">  1       -1 0.21881429E+00 0.35186307E+04</pdfrwt>
<totfact> 0.20648978E-01</totfact>
</mgrwt>
</event>
<event>
 6    1  0.9988873E-007  0.2425355E+04  0.7818608E-02  0.8430072E-01
         -2   -1    0    0    0  501 -0.00000000000E+00  0.00000000000E+00  0.11014037464E+04  0.11014037464E+04  0.00000000000E+00 0.  1.
          2   -1    0    0  501    0  0.00000000000E+00 -0.00000000000E+00 -0.13351933897E+04  0.13351933897E+04  0.00000000000E+00 0. -1.
         23    2    1    2    0    0  0.62969931284E+03  0.76263731032E+03  0.58531367269E+03  0.11524370472E+04  0.85919500702E+02 0.  0.
         11    1    3    3    0    0  0.43742527155E+03  0.56501610936E+03  0.45805191179E+03  0.84876123022E+03  0.00000000000E+00 0. -1.
        -11    1    3    3    0    0  0.19227404129E+03  0.19762120097E+03  0.12726176091E+03  0.30367581697E+03  0.00000000000E+00 0.  1.
         22    1    1    2    0    0 -0.62969931284E+03 -0.76263731032E+03 -0.81910331597E+03  0.12841600889E+04  0.00000000000E+00 0. -1.
<mgrwt>
<rscale>  0 0.24253552E+04</rscale>
<asrwt>0</asrwt>
<pdfrwt beam="1">  1        2 0.20541437E+00 0.24253552E+04</pdfrwt>
<pdfrwt beam="2">  1       -2 0.16944673E+00 0.24253552E+04</pdfrwt>
<totfact> 0.30439906E+00</totfact>
</mgrwt>
</event>
<event>
 6    1  0.9988873E-007  0.1798709E+04  0.7818608E-02  0.8706986E-01
         -2   -1    0    0    0  501 -0.00000000000E+00  0.00000000000E+00  0.34818175349E+03  0.34818175349E+03  0.00000000000E+00 0.  1.
          2   -1    0    0  501    0  0.00000000000E+00 -0.00000000000E+00 -0.23230362118E+04  0.23230362118E+04  0.00000000000E+00 0. -1.
         23    2    1    2    0    0  0.87369176029E+02 -0.11498242155E+03 -0.23047456920E+04  0.23111033221E+04  0.92149499299E+02 0.  0.
         11    1    3    3    0    0  0.37825242586E+02 -0.46987630683E+02 -0.40217752337E+03  0.40667597264E+03  0.00000000000E+00 0. -1.
        -11    1    3    3    0    0  0.49543933443E+02 -0.67994790865E+02 -0.19025681687E+04  0.19044273494E+04  0.00000000000E+00 0.  1.
         22    1    1    2    0    0 -0.87369176029E+02  0.11498242155E+03  0.32989123370E+03  0.36011464322E+03  0.00000000000E+00 0.  1.
<mgrwt>
<rscale>  0 0.17987093E+04</rscale>
<asrwt>0</asrwt>
<pdfrwt beam="1">  1        2 0.35739018E+00 0.17987093E+04</pdfrwt>
<pdfrwt beam="2">  1       -2 0.53566425E-01 0.17987093E+04</pdfrwt>
<totfact> 0.13648641E+01</totfact>
</mgrwt>
</event>
<event>
 6    1  0.9988873E-007  0.2381638E+04  0.7818608E-02  0.8446410E-01
         -2   -1    0    0    0  501 -0.00000000000E+00  0.00000000000E+00  0.81481785769E+03  0.81481785769E+03  0.00000000000E+00 0.  1.
          2   -1    0    0  501    0  0.00000000000E+00 -0.00000000000E+00 -0.17403279847E+04  0.17403279847E+04  0.00000000000E+00 0. -1.
         23    2    1    2    0    0  0.10509246017E+04 -0.34434249982E+02  0.13260736969E+03  0.10634217148E+04  0.87480242519E+02 0.  0.
         13    1    3    3    0    0  0.39764601743E+03 -0.11197740251E+02  0.75506556163E+01  0.39787530328E+03  0.00000000000E+00 0. -1.
        -13    1    3    3    0    0  0.65327858431E+03 -0.23236509731E+02  0.12505671407E+03  0.66554641148E+03  0.00000000000E+00 0.  1.
         22    1    1    2    0    0 -0.10509246017E+04  0.34434249982E+02 -0.10581174967E+04  0.14917241276E+04  0.00000000000E+00 0.  1.
<mgrwt>
<rscale>  0 0.23816384E+04</rscale>
<asrwt>0</asrwt>
<pdfrwt beam="1">  1        2 0.26774276E+00 0.23816384E+04</pdfrwt>
<pdfrwt beam="2">  1       -2 0.12535660E+00 0.23816384E+04</pdfrwt>
<totfact> 0.39933281E+00</totfact>
</mgrwt>
</event>
<event>
 6    1  0.9988873E-007  0.1211993E+04  0.7818608E-02  0.9102423E-01
         -1   -1    0    0    0  501 -0.00000000000E+00  0.00000000000E+00  0.26455787205E+03  0.26455787205E+03  0.00000000000E+00 0.  1.
          1   -1    0    0  501    0  0.00000000000E+00 -0.00000000000E+00 -0.13880964049E+04  0.13880964049E+04  0.00000000000E+00 0. -1.
         23    2    1    2    0    0  0.29857819808E+03  0.46270495034E+02 -0.12760962723E+04  0.13141815854E+04  0.85800023699E+02 0.  0.
         11    1    3    3    0    0  0.13782022530E+03 -0.10505619834E+02 -0.45317226606E+03  0.47378252951E+03  0.00000000000E+00 0. -1.
        -11    1    3    3    0    0  0.16075797279E+03  0.56776114868E+02 -0.82292400623E+03  0.84039905585E+03  0.00000000000E+00 0.  1.
         22    1    1    2    0    0 -0.29857819808E+03 -0.46270495034E+02  0.15255773945E+03  0.33847269158E+03  0.00000000000E+00 0.  1.
<mgrwt>
<rscale>  0 0.12119931E+04</rscale>
<asrwt>0</asrwt>
<pdfrwt beam="1">  1        1 0.21355329E+00 0.12119931E+04</pdfrwt>
<pdfrwt beam="2">  1       -1 0.40701211E-01 0.12119931E+04</pdfrwt>
<totfact> 0.45678717E+01</totfact>
</mgrwt>
</event>
<event>
 6    1  0.9988873E-007  0.3906872E+04  0.7818608E-02  0.8023602E-01
         -2   -1    0    0    0  501 -0.00000000000E+00  0.00000000000E+00  0.11236443437E+04  0.11236443437E+04  0.00000000000E+00 0.  1.
          2   -1    0    0  501    0  0.00000000000E+00 -0.00000000000E+00 -0.33960138225E+04  0.33960138225E+04  0.00000000000E+00 0. -1.
         23    2    1    2    0    0 -0.11101790084E+04 -0.15858358767E+04 -0.14315595249E+04  0.24091287925E+04  0.84652269182E+02 0.  0.
         13    1    3    3    0    0 -0.39995097922E+03 -0.61562575451E+03 -0.58302157707E+03  0.93748067432E+03  0.00000000000E+00 0. -1.
        -13    1    3    3    0    0 -0.71022802921E+03 -0.97021012223E+03 -0.84853794778E+03  0.14716481181E+04  0.00000000000E+00 0.  1.
         22    1    1    2    0    0  0.11101790084E+04  0.15858358767E+04 -0.84080995389E+03  0.21105293737E+04  0.00000000000E+00 0.  1.
<mgrwt>
<rscale>  0 0.39068718E+04</rscale>
<asrwt>0</asrwt>
<pdfrwt beam="1">  1        2 0.52246366E+00 0.39068718E+04</pdfrwt>
<pdfrwt beam="2">  1       -2 0.17286836E+00 0.39068718E+04</pdfrwt>
<totfact> 0.15486100E-01</totfact>
</mgrwt>
</event>
<event>
 6    1  0.9988873E-007  0.4503356E+04  0.7818608E-02  0.7910049E-01
         -1   -1    0    0    0  501 -0.00000000000E+00  0.00000000000E+00  0.17176921742E+04  0.17176921742E+04  0.00000000000E+00 0.  1.
          1   -1    0    0  501    0  0.00000000000E+00 -0.00000000000E+00 -0.29516665355E+04  0.29516665355E+04  0.00000000000E+00 0. -1.
         23    2    1    2    0    0 -0.34136551221E+03  0.22199413244E+04 -0.46587338931E+03  0.22956171484E+04  0.90278351966E+02 0.  0.
         13    1    3    3    0    0 -0.25514647017E+03  0.15361461906E+04 -0.28483772326E+03  0.15830279115E+04  0.00000000000E+00 0. -1.
        -13    1    3    3    0    0 -0.86219042034E+02  0.68379513380E+03 -0.18103566604E+03  0.71258923693E+03  0.00000000000E+00 0.  1.
         22    1    1    2    0    0  0.34136551221E+03 -0.22199413244E+04 -0.76810097197E+03  0.23737415613E+04  0.00000000000E+00 0.  1.
<mgrwt>
<rscale>  0 0.45033563E+04</rscale>
<asrwt>0</asrwt>
<pdfrwt beam="1">  1        1 0.45410254E+00 0.45033563E+04</pdfrwt>
<pdfrwt beam="2">  1       -1 0.26426034E+00 0.45033563E+04</pdfrwt>
<totfact> 0.27408323E-02</totfact>
</mgrwt>
</event>
<event>
 6    1  0.9988873E-007  0.1460570E+04  0.7818608E-02  0.8911105E-01
         -1   -1    0    0    0  501 -0.00000000000E+00  0.00000000000E+00  0.47053397566E+03  0.47053397566E+03  0.00000000000E+00 0.  1.
          1   -1    0    0  501    0  0.00000000000E+00 -0.00000000000E+00 -0.11334277267E+04  0.11334277267E+04  0.00000000000E+00 0. -1.
         23    2    1    2    0    0  0.36505191120E+03  0.25381204083E+03  0.29953334735E+03  0.54379691816E+03  0.91166946241E+02 0.  0.
         13    1    3    3    0    0  0.20347816416E+03  0.19523012944E+03  0.18427389768E+03  0.33686055884E+03  0.00000000000E+00 0.  1.
        -13    1    3    3    0    0  0.16157374703E+03  0.58581911389E+02  0.11525944966E+03  0.20693635932E+03  0.00000000000E+00 0. -1.
         22    1    1    2    0    0 -0.36505191120E+03 -0.25381204083E+03 -0.96242709837E+03  0.10601647842E+04  0.00000000000E+00 0. -1.
<mgrwt>
<rscale>  0 0.14605701E+04</rscale>
<asrwt>0</asrwt>
<pdfrwt beam="1">  1        1 0.17437349E+00 0.14605701E+04</pdfrwt>
<pdfrwt beam="2">  1       -1 0.72389843E-01 0.14605701E+04</pdfrwt>
<totfact> 0.22357636E+01</totfact>
</mgrwt>
</event>
<event>
 6    1  0.9988873E-007  0.1527932E+04  0.7818608E-02  0.8866088E-01
          2   -1    0    0  501    0  0.00000000000E+00  0.00000000000E+00  0.58122734824E+03  0.58122734824E+03  0.00000000000E+00 0. -1.
         -2   -1    0    0    0  501 -0.00000000000E+00 -0.00000000000E+00 -0.10041573391E+04  0.10041573391E+04  0.00000000000E+00 0.  1.
         23    2    1    2    0    0 -0.20760326451E+03 -0.29235992972E+03 -0.90901934137E+03  0.98135132689E+03  0.90337256172E+02 0.  0.
         13    1    3    3    0    0 -0.21516455803E+03 -0.27464122081E+03 -0.83708316411E+03  0.90688026268E+03  0.00000000000E+00 0. -1.
        -13    1    3    3    0    0  0.75612935200E+01 -0.17718708909E+02 -0.71936177263E+02  0.74471064208E+02  0.00000000000E+00 0.  1.
         22    1    1    2    0    0  0.20760326451E+03  0.29235992972E+03  0.48608935047E+03  0.60403336049E+03  0.00000000000E+00 0. -1.
<mgrwt>
<rscale>  0 0.15279316E+04</rscale>
<asrwt>0</asrwt>
<pdfrwt beam="1">  1        2 0.89419594E-01 0.15279316E+04</pdfrwt>
<pdfrwt beam="2">  1       -2 0.15448574E+00 0.15279316E+04</pdfrwt>
<totfact> 0.13752029E+01</totfact>
</mgrwt>
</event>
<event>
 6    1  0.9988873E-007  0.2054024E+04  0.7818608E-02  0.8581771E-01
          2   -1    0    0  501    0  0.00000000000E+00  0.00000000000E+00  0.90818540968E+03  0.90818540968E+03  0.00000000000E+00 0. -1.
         -2   -1    0    0    0  501 -0.00000000000E+00 -0.00000000000E+00 -0.11613859749E+04  0.11613859749E+04  0.00000000000E+00 0.  1.
         23    2    1    2    0    0  0.82829432535E+03  0.36595861709E+03 -0.60733989712E+03  0.10972484623E+04  0.12286268154E+03 0.  0.
         13    1    3    3    0    0  0.40321199937E+03  0.20788538376E+03 -0.36984776113E+03  0.58530642883E+03  0.00000000000E+00 0.  1.
        -13    1    3    3    0    0  0.42508232599E+03  0.15807323333E+03 -0.23749213599E+03  0.51194203346E+03  0.00000000000E+00 0. -1.
         22    1    1    2    0    0 -0.82829432535E+03 -0.36595861709E+03  0.35413933190E+03  0.97232292230E+03  0.00000000000E+00 0. -1.
<mgrwt>
<rscale>  0 0.20540241E+04</rscale>
<asrwt>0</asrwt>
<pdfrwt beam="1">  1        2 0.13972083E+00 0.20540241E+04</pdfrwt>
<pdfrwt beam="2">  1       -2 0.17867477E+00 0.20540241E+04</pdfrwt>
<totfact> 0.49578844E+00</totfact>
</mgrwt>
</event>
<event>
 6    1  0.9988873E-007  0.2161431E+04  0.7818608E-02  0.8534655E-01
         -3   -1    0    0    0  501 -0.00000000000E+00  0.00000000000E+00  0.11553945023E+04  0.11553945023E+04  0.00000000000E+00 0.  1.
          3   -1    0    0  501    0  0.00000000000E+00 -0.00000000000E+00 -0.10108638196E+04  0.10108638196E+04  0.00000000000E+00 0. -1.
         23    2    1    2    0    0  0.55066599783E+03  0.39903555134E+03  0.91170603346E+03  0.11410654468E+04  0.91433309612E+02 0.  0.
         13    1    3    3    0    0  0.31075665502E+03  0.17713507634E+03  0.43656832934E+03  0.56439209783E+03  0.00000000000E+00 0. -1.
        -13    1    3    3    0    0  0.23990934281E+03  0.22190047501E+03  0.47513770412E+03  0.57667334900E+03  0.00000000000E+00 0.  1.
         22    1    1    2    0    0 -0.55066599783E+03 -0.39903555134E+03 -0.76717535075E+03  0.10251928751E+04  0.00000000000E+00 0. -1.
<mgrwt>
<rscale>  0 0.21614315E+04</rscale>
<asrwt>0</asrwt>
<pdfrwt beam="1">  1        3 0.15551751E+00 0.21614315E+04</pdfrwt>
<pdfrwt beam="2">  1       -3 0.17775300E+00 0.21614315E+04</pdfrwt>
<totfact> 0.14427177E-01</totfact>
</mgrwt>
</event>
<event>
 6    1  0.1222168E-006  0.2399939E+04  0.7818608E-02  0.8439526E-01
          2   -1    0    0  501    0  0.00000000000E+00  0.00000000000E+00  0.15699307298E+04  0.15699307298E+04  0.00000000000E+00 0. -1.
         -2   -1    0    0    0  501 -0.00000000000E+00 -0.00000000000E+00 -0.91719119966E+03  0.91719119966E+03  0.00000000000E+00 0.  1.
         23    2    1    2    0    0  0.68718184003E+03  0.60164144624E+03  0.11298382025E+04  0.14566781153E+04  0.10576131859E+03 0.  0.
         11    1    3    3    0    0  0.12142101231E+03  0.16420710779E+03  0.24331774515E+03  0.31766422774E+03  0.00000000000E+00 0. -1.
        -11    1    3    3    0    0  0.56576082772E+03  0.43743433845E+03  0.88652045739E+03  0.11390138875E+04  0.00000000000E+00 0.  1.
         22    1    1    2    0    0 -0.68718184003E+03 -0.60164144624E+03 -0.47709867236E+03  0.10304438142E+04  0.00000000000E+00 0.  1.
<mgrwt>
<rscale>  0 0.23999389E+04</rscale>
<asrwt>0</asrwt>
<pdfrwt beam="1">  1        2 0.24152780E+00 0.23999389E+04</pdfrwt>
<pdfrwt beam="2">  1       -2 0.14110634E+00 0.23999389E+04</pdfrwt>
<totfact> 0.36689486E+00</totfact>
</mgrwt>
</event>
<event>
 6    1  0.9988873E-007  0.3770312E+04  0.7818608E-02  0.8052556E-01
         -1   -1    0    0    0  501 -0.00000000000E+00  0.00000000000E+00  0.32253377513E+04  0.32253377513E+04  0.00000000000E+00 0.  1.
          1   -1    0    0  501    0  0.00000000000E+00 -0.00000000000E+00 -0.11018419446E+04  0.11018419446E+04  0.00000000000E+00 0. -1.
         23    2    1    2    0    0  0.16398394477E+03  0.14882060699E+04 -0.25021461250E+03  0.15207319064E+04  0.91488459806E+02 0.  0.
         11    1    3    3    0    0  0.52483365145E+02  0.32220443826E+03 -0.89026733018E+02  0.33837252081E+03  0.00000000000E+00 0. -1.
        -11    1    3    3    0    0  0.11150057963E+03  0.11660016316E+04 -0.16118787949E+03  0.11823593856E+04  0.00000000000E+00 0.  1.
         22    1    1    2    0    0 -0.16398394477E+03 -0.14882060699E+04  0.23737104192E+04  0.28064477895E+04  0.00000000000E+00 0.  1.
<mgrwt>
<rscale>  0 0.37703116E+04</rscale>
<asrwt>0</asrwt>
<pdfrwt beam="1">  1        1 0.16951415E+00 0.37703116E+04</pdfrwt>
<pdfrwt beam="2">  1       -1 0.49620580E+00 0.37703116E+04</pdfrwt>
<totfact> 0.15899477E-02</totfact>
</mgrwt>
</event>
<event>
 6    1  0.9988873E-007  0.2630147E+04  0.7818608E-02  0.8358032E-01
         -2   -1    0    0    0  501 -0.00000000000E+00  0.00000000000E+00  0.50622646830E+03  0.50622646830E+03  0.00000000000E+00 0.  1.
          2   -1    0    0  501    0  0.00000000000E+00 -0.00000000000E+00 -0.34162939545E+04  0.34162939545E+04  0.00000000000E+00 0. -1.
         23    2    1    2    0    0 -0.90471570416E+03  0.44809361404E+03 -0.27098660897E+04  0.28932590413E+04  0.90968475878E+02 0.  0.
         13    1    3    3    0    0 -0.30382591268E+03  0.16337953442E+03 -0.10475446910E+04  0.11028839183E+04  0.00000000000E+00 0.  1.
        -13    1    3    3    0    0 -0.60088979148E+03  0.28471407961E+03 -0.16623213987E+04  0.17903751231E+04  0.00000000000E+00 0. -1.
         22    1    1    2    0    0  0.90471570416E+03 -0.44809361404E+03 -0.20020139648E+03  0.10292613815E+04  0.00000000000E+00 0.  1.
<mgrwt>
<rscale>  0 0.26301471E+04</rscale>
<asrwt>0</asrwt>
<pdfrwt beam="1">  1        2 0.52558367E+00 0.26301471E+04</pdfrwt>
<pdfrwt beam="2">  1       -2 0.77880997E-01 0.26301471E+04</pdfrwt>
<totfact> 0.12041982E+00</totfact>
</mgrwt>
</event>
<event>
 6    1  0.9988873E-007  0.6474945E+03  0.7818608E-02  0.9811492E-01
          1   -1    0    0  501    0  0.00000000000E+00  0.00000000000E+00  0.22142127504E+04  0.22142127504E+04  0.00000000000E+00 0. -1.
         -1   -1    0    0    0  501 -0.00000000000E+00 -0.00000000000E+00 -0.47336142321E+02  0.47336142321E+02  0.00000000000E+00 0.  1.
         23    2    1    2    0    0 -0.73298293703E+02 -0.80918596700E+01  0.21829085315E+04  0.21860827373E+04  0.91814810207E+02 0.  0.
         11    1    3    3    0    0 -0.43941930453E+02  0.38152030930E+01  0.33363774022E+03  0.33654062270E+03  0.00000000000E+00 0.  1.
        -11    1    3    3    0    0 -0.29356363249E+02 -0.11907062763E+02  0.18492707913E+04  0.18495421146E+04  0.00000000000E+00 0. -1.
         22    1    1    2    0    0  0.73298293703E+02  0.80918596700E+01 -0.16031923382E+02  0.75466155460E+02  0.00000000000E+00 0.  1.
<mgrwt>
<rscale>  0 0.64749452E+03</rscale>
<asrwt>0</asrwt>
<pdfrwt beam="1">  1        1 0.34064804E+00 0.64749452E+03</pdfrwt>
<pdfrwt beam="2">  1       -1 0.72824851E-02 0.64749452E+03</pdfrwt>
<totfact> 0.23103665E+02</totfact>
</mgrwt>
</event>
<event>
 6    1  0.9988873E-007  0.2090616E+04  0.7818608E-02  0.8565388E-01
          2   -1    0    0  501    0  0.00000000000E+00  0.00000000000E+00  0.10312408095E+04  0.10312408095E+04  0.00000000000E+00 0. -1.
         -2   -1    0    0    0  501 -0.00000000000E+00 -0.00000000000E+00 -0.10595675384E+04  0.10595675384E+04  0.00000000000E+00 0.  1.
         23    2    1    2    0    0  0.85277978594E+03  0.19512468674E+03 -0.58287814758E+03  0.10550312085E+04  0.89648811129E+02 0.  0.
         13    1    3    3    0    0  0.49385703874E+03  0.84082340226E+02 -0.37392241480E+03  0.62512605684E+03  0.00000000000E+00 0. -1.
        -13    1    3    3    0    0  0.35892274720E+03  0.11104234651E+03 -0.20895573278E+03  0.42990515168E+03  0.00000000000E+00 0.  1.
         22    1    1    2    0    0 -0.85277978594E+03 -0.19512468674E+03  0.55455141867E+03  0.10357771395E+04  0.00000000000E+00 0. -1.
<mgrwt>
<rscale>  0 0.20906165E+04</rscale>
<asrwt>0</asrwt>
<pdfrwt beam="1">  1        2 0.15865243E+00 0.20906165E+04</pdfrwt>
<pdfrwt beam="2">  1       -2 0.16301039E+00 0.20906165E+04</pdfrwt>
<totfact> 0.53101290E+00</totfact>
</mgrwt>
</event>
<event>
 6    1  0.9988873E-007  0.3066428E+04  0.7818608E-02  0.8225012E-01
          2   -1    0    0  501    0  0.00000000000E+00  0.00000000000E+00  0.25002804004E+04  0.25002804004E+04  0.00000000000E+00 0. -1.
         -2   -1    0    0    0  501 -0.00000000000E+00 -0.00000000000E+00 -0.94019234542E+03  0.94019234542E+03  0.00000000000E+00 0.  1.
         23    2    1    2    0    0  0.67729133455E+03 -0.32488812153E+03 -0.71725833468E+03  0.10424355439E+04  0.89087042181E+02 0.  0.
         11    1    3    3    0    0  0.50186061443E+03 -0.21198648940E+03 -0.47561689070E+03  0.72319691283E+03  0.00000000000E+00 0.  1.
        -11    1    3    3    0    0  0.17543072012E+03 -0.11290163213E+03 -0.24164144399E+03  0.31923863104E+03  0.00000000000E+00 0. -1.
         22    1    1    2    0    0 -0.67729133455E+03  0.32488812153E+03  0.22773463896E+04  0.23980372019E+04  0.00000000000E+00 0. -1.
<mgrwt>
<rscale>  0 0.30664276E+04</rscale>
<asrwt>0</asrwt>
<pdfrwt beam="1">  1        2 0.38465852E+00 0.30664276E+04</pdfrwt>
<pdfrwt beam="2">  1       -2 0.14464498E+00 0.30664276E+04</pdfrwt>
<totfact> 0.97683802E-01</totfact>
</mgrwt>
</event>
<event>
 6    1  0.9988873E-007  0.7453097E+03  0.7818608E-02  0.9642737E-01
         -2   -1    0    0    0  501 -0.00000000000E+00  0.00000000000E+00  0.80065115130E+02  0.80065115130E+02  0.00000000000E+00 0.  1.
          2   -1    0    0  501    0  0.00000000000E+00 -0.00000000000E+00 -0.17344838901E+04  0.17344838901E+04  0.00000000000E+00 0. -1.
         23    2    1    2    0    0 -0.68217778624E+02  0.39939887234E+02 -0.17123026346E+04  0.17165724717E+04  0.91607195641E+02 0.  0.
         13    1    3    3    0    0 -0.26573196848E+02  0.65039869811E+02 -0.11637970223E+04  0.11659158755E+04  0.00000000000E+00 0.  1.
        -13    1    3    3    0    0 -0.41644581775E+02 -0.25099982577E+02 -0.54850561227E+03  0.55065659627E+03  0.00000000000E+00 0. -1.
         22    1    1    2    0    0  0.68217778624E+02 -0.39939887234E+02  0.57883859632E+02  0.97976533509E+02  0.00000000000E+00 0.  1.
<mgrwt>
<rscale>  0 0.74530974E+03</rscale>
<asrwt>0</asrwt>
<pdfrwt beam="1">  1        2 0.26684368E+00 0.74530974E+03</pdfrwt>
<pdfrwt beam="2">  1       -2 0.12317710E-01 0.74530974E+03</pdfrwt>
<totfact> 0.46531878E+02</totfact>
</mgrwt>
</event>
<event>
 6    1  0.9988873E-007  0.1282287E+04  0.7818608E-02  0.9043731E-01
         -4   -1    0    0    0  501 -0.00000000000E+00  0.00000000000E+00  0.19591999299E+04  0.19591999299E+04  0.00000000000E+00 0.  1.
          4   -1    0    0  501    0  0.00000000000E+00 -0.00000000000E+00 -0.20981271819E+03  0.20981271819E+03  0.00000000000E+00 0. -1.
         23    2    1    2    0    0  0.47572017822E+03  0.41585172697E+03  0.72936189597E+03  0.96914015839E+03  0.89562963963E+02 0.  0.
         11    1    3    3    0    0  0.25717128479E+03  0.19983047402E+03  0.31341586291E+03  0.45199423801E+03  0.00000000000E+00 0.  1.
        -11    1    3    3    0    0  0.21854889343E+03  0.21602125295E+03  0.41594603306E+03  0.51714592038E+03  0.00000000000E+00 0. -1.
         22    1    1    2    0    0 -0.47572017822E+03 -0.41585172697E+03  0.10200253157E+04  0.11998724897E+04  0.00000000000E+00 0.  1.
<mgrwt>
<rscale>  0 0.12822871E+04</rscale>
<asrwt>0</asrwt>
<pdfrwt beam="1">  1        4 0.32278881E-01 0.12822871E+04</pdfrwt>
<pdfrwt beam="2">  1       -4 0.30141536E+00 0.12822871E+04</pdfrwt>
<totfact> 0.55977850E-01</totfact>
</mgrwt>
</event>
<event>
 6    1  0.9988873E-007  0.2194415E+04  0.7818608E-02  0.8520756E-01
         -1   -1    0    0    0  501 -0.00000000000E+00  0.00000000000E+00  0.44844513548E+03  0.44844513548E+03  0.00000000000E+00 0.  1.
          1   -1    0    0  501    0  0.00000000000E+00 -0.00000000000E+00 -0.26845303497E+04  0.26845303497E+04  0.00000000000E+00 0. -1.
         23    2    1    2    0    0  0.21171777563E+03 -0.44850586617E+03  0.27441027190E+03  0.57395819052E+03  0.90250089415E+02 0.  0.
         11    1    3    3    0    0  0.91054349251E+02 -0.13369511975E+03  0.12854530172E+03  0.20661358657E+03  0.00000000000E+00 0. -1.
        -11    1    3    3    0    0  0.12066342638E+03 -0.31481074642E+03  0.14586497018E+03  0.36734460395E+03  0.00000000000E+00 0.  1.
         22    1    1    2    0    0 -0.21171777563E+03  0.44850586617E+03 -0.25104954861E+04  0.25590172946E+04  0.00000000000E+00 0. -1.
<mgrwt>
<rscale>  0 0.21944153E+04</rscale>
<asrwt>0</asrwt>
<pdfrwt beam="1">  1        1 0.41300466E+00 0.21944153E+04</pdfrwt>
<pdfrwt beam="2">  1       -1 0.68991561E-01 0.21944153E+04</pdfrwt>
<totfact> 0.19518393E+00</totfact>
</mgrwt>
</event>
<event>
 6    1  0.9988873E-007  0.4757573E+04  0.7818608E-02  0.7867032E-01
         -2   -1    0    0    0  501 -0.00000000000E+00  0.00000000000E+00  0.24278132477E+04  0.24278132477E+04  0.00000000000E+00 0.  1.
          2   -1    0    0  501    0  0.00000000000E+00 -0.00000000000E+00 -0.23307500321E+04  0.23307500321E+04  0.00000000000E+00 0. -1.
         23    2    1    2    0    0 -0.32577981915E+03  0.22183851713E+04 -0.74381134469E+03  0.23638951848E+04  0.85906167307E+02 0.  0.
         11    1    3    3    0    0 -0.14678702467E+03  0.73720892174E+03 -0.23465583144E+03  0.78745589345E+03  0.00000000000E+00 0.  1.
        -11    1    3    3    0    0 -0.17899279447E+03  0.14811762495E+04 -0.50915551325E+03  0.15764392914E+04  0.00000000000E+00 0. -1.
         22    1    1    2    0    0  0.32577981915E+03 -0.22183851713E+04  0.84087456032E+03  0.23946680949E+04  0.00000000000E+00 0.  1.
<mgrwt>
<rscale>  0 0.47575732E+04</rscale>
<asrwt>0</asrwt>
<pdfrwt beam="1">  1        2 0.35857693E+00 0.47575732E+04</pdfrwt>
<pdfrwt beam="2">  1       -2 0.37350973E+00 0.47575732E+04</pdfrwt>
<totfact> 0.35632814E-02</totfact>
</mgrwt>
</event>
<event>
 6    1  0.9988873E-007  0.3118178E+04  0.7818608E-02  0.8210767E-01
          2   -1    0    0  501    0  0.00000000000E+00  0.00000000000E+00  0.14462292760E+04  0.14462292760E+04  0.00000000000E+00 0. -1.
         -2   -1    0    0    0  501 -0.00000000000E+00 -0.00000000000E+00 -0.16807556371E+04  0.16807556371E+04  0.00000000000E+00 0.  1.
         23    2    1    2    0    0 -0.11825818207E+04 -0.58081334706E+03  0.71609975704E+03  0.15023206636E+04  0.91239286537E+02 0.  0.
         13    1    3    3    0    0 -0.91585297403E+03 -0.40826234557E+03  0.53087671154E+03  0.11345901884E+04  0.00000000000E+00 0.  1.
        -13    1    3    3    0    0 -0.26672884669E+03 -0.17255100149E+03  0.18522304551E+03  0.36773047515E+03  0.00000000000E+00 0. -1.
         22    1    1    2    0    0  0.11825818207E+04  0.58081334706E+03 -0.95062611815E+03  0.16246642494E+04  0.00000000000E+00 0.  1.
<mgrwt>
<rscale>  0 0.31181777E+04</rscale>
<asrwt>0</asrwt>
<pdfrwt beam="1">  1        2 0.22249681E+00 0.31181777E+04</pdfrwt>
<pdfrwt beam="2">  1       -2 0.25857779E+00 0.31181777E+04</pdfrwt>
<totfact> 0.65712074E-01</totfact>
</mgrwt>
</event>
<event>
 6    1  0.9988873E-007  0.9447514E+03  0.7818608E-02  0.9371307E-01
          2   -1    0    0  501    0  0.00000000000E+00  0.00000000000E+00  0.60349283284E+03  0.60349283284E+03  0.00000000000E+00 0. -1.
         -2   -1    0    0    0  501 -0.00000000000E+00 -0.00000000000E+00 -0.36974555325E+03  0.36974555325E+03  0.00000000000E+00 0.  1.
         23    2    1    2    0    0 -0.25438630134E+02  0.14407081145E+03 -0.34033496346E+03  0.38080784636E+03  0.88222479455E+02 0.  0.
         11    1    3    3    0    0 -0.41356852758E+02  0.12348514680E+03 -0.20407900801E+03  0.24208926507E+03  0.00000000000E+00 0. -1.
        -11    1    3    3    0    0  0.15918222624E+02  0.20585664651E+02 -0.13625595545E+03  0.13871858129E+03  0.00000000000E+00 0.  1.
         22    1    1    2    0    0  0.25438630134E+02 -0.14407081145E+03  0.57408224306E+03  0.59243053973E+03  0.00000000000E+00 0. -1.
<mgrwt>
<rscale>  0 0.94475138E+03</rscale>
<asrwt>0</asrwt>
<pdfrwt beam="1">  1        2 0.92845051E-01 0.94475138E+03</pdfrwt>
<pdfrwt beam="2">  1       -2 0.56883931E-01 0.94475138E+03</pdfrwt>
<totfact> 0.14294926E+02</totfact>
</mgrwt>
</event>
<event>
 6    1  0.9988873E-007  0.2850361E+04  0.7818608E-02  0.8287802E-01
         -1   -1    0    0    0  501 -0.00000000000E+00  0.00000000000E+00  0.81171224753E+03  0.81171224753E+03  0.00000000000E+00 0.  1.
          1   -1    0    0  501    0  0.00000000000E+00 -0.00000000000E+00 -0.25022905297E+04  0.25022905297E+04  0.00000000000E+00 0. -1.
         23    2    1    2    0    0  0.13993929607E+04 -0.17021036849E+03 -0.61602213145E+03  0.15414500561E+04  0.96502751109E+02 0.  0.
         11    1    3    3    0    0  0.57052945517E+03 -0.11235692504E+03 -0.23087994490E+03  0.62564645510E+03  0.00000000000E+00 0.  1.
        -11    1    3    3    0    0  0.82886350558E+03 -0.57853443443E+02 -0.38514218655E+03  0.91580360103E+03  0.00000000000E+00 0. -1.
         22    1    1    2    0    0 -0.13993929607E+04  0.17021036849E+03 -0.10745561508E+04  0.17725527211E+04  0.00000000000E+00 0. -1.
<mgrwt>
<rscale>  0 0.28503613E+04</rscale>
<asrwt>0</asrwt>
<pdfrwt beam="1">  1        1 0.38496777E+00 0.28503613E+04</pdfrwt>
<pdfrwt beam="2">  1       -1 0.12487881E+00 0.28503613E+04</pdfrwt>
<totfact> 0.65243795E-01</totfact>
</mgrwt>
</event>
<event>
 6    1  0.9988873E-007  0.3155348E+04  0.7818608E-02  0.8200710E-01
          1   -1    0    0  501    0  0.00000000000E+00  0.00000000000E+00  0.12950183836E+04  0.12950183836E+04  0.00000000000E+00 0. -1.
         -1   -1    0    0    0  501 -0.00000000000E+00 -0.00000000000E+00 -0.19220232850E+04  0.19220232850E+04  0.00000000000E+00 0.  1.
         23    2    1    2    0    0  0.14747274888E+04 -0.47703048781E+03 -0.60700022519E+03  0.16669515295E+04  0.88875619910E+02 0.  0.
         11    1    3    3    0    0  0.97078184348E+03 -0.33330724977E+03 -0.36096017732E+03  0.10880272791E+04  0.00000000000E+00 0.  1.
        -11    1    3    3    0    0  0.50394564528E+03 -0.14372323803E+03 -0.24604004787E+03  0.57892425040E+03  0.00000000000E+00 0. -1.
         22    1    1    2    0    0 -0.14747274888E+04  0.47703048781E+03 -0.20004676208E+02  0.15500901391E+04  0.00000000000E+00 0.  1.
<mgrwt>
<rscale>  0 0.31553482E+04</rscale>
<asrwt>0</asrwt>
<pdfrwt beam="1">  1        1 0.19923360E+00 0.31553482E+04</pdfrwt>
<pdfrwt beam="2">  1       -1 0.29569589E+00 0.31553482E+04</pdfrwt>
<totfact> 0.26970926E-01</totfact>
</mgrwt>
</event>
<event>
 6    1  0.9988873E-007  0.4585473E+04  0.7818608E-02  0.7895842E-01
          2   -1    0    0  501    0  0.00000000000E+00  0.00000000000E+00  0.20940391983E+04  0.20940391983E+04  0.00000000000E+00 0. -1.
         -2   -1    0    0    0  501 -0.00000000000E+00 -0.00000000000E+00 -0.25102876912E+04  0.25102876912E+04  0.00000000000E+00 0.  1.
         23    2    1    2    0    0 -0.19336204530E+04  0.71508244833E+03  0.79701116239E+03  0.22122085907E+04  0.91701099461E+02 0.  0.
         13    1    3    3    0    0 -0.54825847772E+03  0.23876931640E+03  0.25717739934E+03  0.65095188730E+03  0.00000000000E+00 0. -1.
        -13    1    3    3    0    0 -0.13853619753E+04  0.47631313192E+03  0.53983376304E+03  0.15612567034E+04  0.00000000000E+00 0.  1.
         22    1    1    2    0    0  0.19336204530E+04 -0.71508244833E+03 -0.12132596553E+04  0.23921182988E+04  0.00000000000E+00 0.  1.
<mgrwt>
<rscale>  0 0.45854731E+04</rscale>
<asrwt>0</asrwt>
<pdfrwt beam="1">  1        2 0.32215988E+00 0.45854731E+04</pdfrwt>
<pdfrwt beam="2">  1       -2 0.38619811E+00 0.45854731E+04</pdfrwt>
<totfact> 0.40681120E-02</totfact>
</mgrwt>
</event>
<event>
 6    1  0.9988873E-007  0.3678963E+04  0.7818608E-02  0.8072640E-01
         -2   -1    0    0    0  501 -0.00000000000E+00  0.00000000000E+00  0.12590274095E+04  0.12590274095E+04  0.00000000000E+00 0.  1.
          2   -1    0    0  501    0  0.00000000000E+00 -0.00000000000E+00 -0.26875437874E+04  0.26875437874E+04  0.00000000000E+00 0. -1.
         23    2    1    2    0    0  0.13757530098E+04  0.51470879494E+03  0.47102408036E+03  0.15453474588E+04  0.92809464248E+02 0.  0.
         13    1    3    3    0    0  0.59116753877E+03  0.17404676075E+03  0.18447722368E+03  0.64327535308E+03  0.00000000000E+00 0. -1.
        -13    1    3    3    0    0  0.78458547103E+03  0.34066203419E+03  0.28654685668E+03  0.90207210575E+03  0.00000000000E+00 0.  1.
         22    1    1    2    0    0 -0.13757530098E+04 -0.51470879494E+03 -0.18995404583E+04  0.24012237381E+04  0.00000000000E+00 0. -1.
<mgrwt>
<rscale>  0 0.36789625E+04</rscale>
<asrwt>0</asrwt>
<pdfrwt beam="1">  1        2 0.41346827E+00 0.36789625E+04</pdfrwt>
<pdfrwt beam="2">  1       -2 0.19369653E+00 0.36789625E+04</pdfrwt>
<totfact> 0.32020526E-01</totfact>
</mgrwt>
</event>
<event>
 6    1  0.1145160E-006  0.3076389E+04  0.7818608E-02  0.8222248E-01
         -1   -1    0    0    0  501 -0.00000000000E+00  0.00000000000E+00  0.22285294210E+04  0.22285294210E+04  0.00000000000E+00 0.  1.
          1   -1    0    0  501    0  0.00000000000E+00 -0.00000000000E+00 -0.10617055541E+04  0.10617055541E+04  0.00000000000E+00 0. -1.
         23    2    1    2    0    0  0.15151588124E+04  0.22152995694E+03  0.72374945366E+03  0.16961532068E+04  0.91327325443E+02 0.  0.
         13    1    3    3    0    0  0.10094492857E+04  0.15476617894E+03  0.52920184175E+03  0.11502152059E+04  0.00000000000E+00 0. -1.
        -13    1    3    3    0    0  0.50570952677E+03  0.66763777999E+02  0.19454761191E+03  0.54593800089E+03  0.00000000000E+00 0.  1.
         22    1    1    2    0    0 -0.15151588124E+04 -0.22152995694E+03  0.44307441321E+03  0.15940817684E+04  0.00000000000E+00 0. -1.
<mgrwt>
<rscale>  0 0.30763888E+04</rscale>
<asrwt>0</asrwt>
<pdfrwt beam="1">  1        1 0.16333932E+00 0.30763888E+04</pdfrwt>
<pdfrwt beam="2">  1       -1 0.34285068E+00 0.30763888E+04</pdfrwt>
<totfact> 0.19854330E-01</totfact>
</mgrwt>
</event>
<event>
 6    1  0.9988873E-007  0.4151178E+04  0.7818608E-02  0.7974725E-01
         -2   -1    0    0    0  501 -0.00000000000E+00  0.00000000000E+00  0.10011270707E+04  0.10011270707E+04  0.00000000000E+00 0.  1.
          2   -1    0    0  501    0  0.00000000000E+00 -0.00000000000E+00 -0.43032191155E+04  0.43032191155E+04  0.00000000000E+00 0. -1.
         23    2    1    2    0    0  0.61264405032E+03 -0.69674531100E+03 -0.40228618997E+04  0.41294862182E+04  0.91933679521E+02 0.  0.
         11    1    3    3    0    0  0.47733880892E+03 -0.57613613907E+03 -0.31019124248E+04  0.31908691419E+04  0.00000000000E+00 0.  1.
        -11    1    3    3    0    0  0.13530524140E+03 -0.12060917193E+03 -0.92094947486E+03  0.93861707632E+03  0.00000000000E+00 0. -1.
         22    1    1    2    0    0 -0.61264405032E+03  0.69674531100E+03  0.72076985484E+03  0.11748599680E+04  0.00000000000E+00 0.  1.
<mgrwt>
<rscale>  0 0.41511777E+04</rscale>
<asrwt>0</asrwt>
<pdfrwt beam="1">  1        2 0.66203372E+00 0.41511777E+04</pdfrwt>
<pdfrwt beam="2">  1       -2 0.15401955E+00 0.41511777E+04</pdfrwt>
<totfact> 0.40760176E-02</totfact>
</mgrwt>
</event>
<event>
 6    1  0.9988873E-007  0.3325436E+03  0.7818608E-02  0.1070017E+00
          1   -1    0    0  501    0  0.00000000000E+00  0.00000000000E+00  0.17668664122E+04  0.17668664122E+04  0.00000000000E+00 0. -1.
         -1   -1    0    0    0  501 -0.00000000000E+00 -0.00000000000E+00 -0.15647090716E+02  0.15647090716E+02  0.00000000000E+00 0.  1.
         23    2    1    2    0    0  0.59449858227E+02 -0.88134771012E+02  0.15368972529E+04  0.15432730954E+04  0.91305298498E+02 0.  0.
         11    1    3    3    0    0  0.18270663447E+02 -0.94365605654E+02  0.93182311092E+03  0.93676731087E+03  0.00000000000E+00 0. -1.
        -11    1    3    3    0    0  0.41179194780E+02  0.62308346417E+01  0.60507414199E+03  0.60650578454E+03  0.00000000000E+00 0.  1.
         22    1    1    2    0    0 -0.59449858227E+02  0.88134771012E+02  0.21432206862E+03  0.23924040755E+03  0.00000000000E+00 0.  1.
<mgrwt>
<rscale>  0 0.33254365E+03</rscale>
<asrwt>0</asrwt>
<pdfrwt beam="1">  1        1 0.27182544E+00 0.33254365E+03</pdfrwt>
<pdfrwt beam="2">  1       -1 0.24072461E-02 0.33254365E+03</pdfrwt>
<totfact> 0.24940380E+03</totfact>
</mgrwt>
</event>
<event>
 6    1  0.9988873E-007  0.1779123E+04  0.7818608E-02  0.8717481E-01
          1   -1    0    0  501    0  0.00000000000E+00  0.00000000000E+00  0.70036626712E+03  0.70036626712E+03  0.00000000000E+00 0. -1.
         -1   -1    0    0    0  501 -0.00000000000E+00 -0.00000000000E+00 -0.11298655825E+04  0.11298655825E+04  0.00000000000E+00 0.  1.
         23    2    1    2    0    0  0.23822049412E+03  0.39163319617E+03 -0.99718923358E+03  0.11005761724E+04  0.82194765205E+02 0.  0.
         13    1    3    3    0    0  0.11535049808E+03  0.13066303547E+03 -0.31707541319E+03  0.36182230984E+03  0.00000000000E+00 0.  1.
        -13    1    3    3    0    0  0.12286999605E+03  0.26097016070E+03 -0.68011382039E+03  0.73875386252E+03  0.00000000000E+00 0. -1.
         22    1    1    2    0    0 -0.23822049412E+03 -0.39163319617E+03  0.56768991818E+03  0.72965567727E+03  0.00000000000E+00 0. -1.
<mgrwt>
<rscale>  0 0.17791231E+04</rscale>
<asrwt>0</asrwt>
<pdfrwt beam="1">  1        1 0.10774866E+00 0.17791231E+04</pdfrwt>
<pdfrwt beam="2">  1       -1 0.17382547E+00 0.17791231E+04</pdfrwt>
<totfact> 0.59359832E+00</totfact>
</mgrwt>
</event>
<event>
 6    1  0.9988873E-007  0.4913299E+03  0.7818608E-02  0.1016067E+00
         -1   -1    0    0    0  501 -0.00000000000E+00  0.00000000000E+00  0.15293715796E+03  0.15293715796E+03  0.00000000000E+00 0.  1.
          1   -1    0    0  501    0  0.00000000000E+00 -0.00000000000E+00 -0.39461488479E+03  0.39461488479E+03  0.00000000000E+00 0. -1.
         23    2    1    2    0    0  0.22912390489E+03  0.35630246348E+02 -0.18099190348E+03  0.30786464758E+03  0.90858647686E+02 0.  0.
         13    1    3    3    0    0  0.79236251823E+02 -0.21559163216E+02 -0.95947042188E+02  0.12628941375E+03  0.00000000000E+00 0. -1.
        -13    1    3    3    0    0  0.14988765306E+03  0.57189409565E+02 -0.85044861292E+02  0.18157523383E+03  0.00000000000E+00 0.  1.
         22    1    1    2    0    0 -0.22912390489E+03 -0.35630246348E+02 -0.60685823349E+02  0.23968739516E+03  0.00000000000E+00 0.  1.
<mgrwt>
<rscale>  0 0.49132995E+03</rscale>
<asrwt>0</asrwt>
<pdfrwt beam="1">  1        1 0.60709981E-01 0.49132995E+03</pdfrwt>
<pdfrwt beam="2">  1       -1 0.23528794E-01 0.49132995E+03</pdfrwt>
<totfact> 0.95247079E+02</totfact>
</mgrwt>
</event>
<event>
 6    1  0.9988873E-007  0.4441999E+04  0.7818608E-02  0.7920870E-01
         -2   -1    0    0    0  501 -0.00000000000E+00  0.00000000000E+00  0.10576936777E+04  0.10576936777E+04  0.00000000000E+00 0.  1.
          2   -1    0    0  501    0  0.00000000000E+00 -0.00000000000E+00 -0.46637684251E+04  0.46637684251E+04  0.00000000000E+00 0. -1.
         23    2    1    2    0    0 -0.15758752890E+04 -0.15182079345E+04 -0.13210017130E+04  0.25576199716E+04  0.89644488072E+02 0.  0.
         11    1    3    3    0    0 -0.12902492929E+04 -0.12266605702E+04 -0.10356191728E+04  0.20595986171E+04  0.00000000000E+00 0. -1.
        -11    1    3    3    0    0 -0.28562599612E+03 -0.29154736430E+03 -0.28538254017E+03  0.49802135449E+03  0.00000000000E+00 0.  1.
         22    1    1    2    0    0  0.15758752890E+04  0.15182079345E+04 -0.22850730344E+04  0.31638421313E+04  0.00000000000E+00 0.  1.
<mgrwt>
<rscale>  0 0.44419988E+04</rscale>
<asrwt>0</asrwt>
<pdfrwt beam="1">  1        2 0.71750284E+00 0.44419988E+04</pdfrwt>
<pdfrwt beam="2">  1       -2 0.16272210E+00 0.44419988E+04</pdfrwt>
<totfact> 0.15201725E-02</totfact>
</mgrwt>
</event>
<event>
 6    1  0.9988873E-007  0.6722142E+04  0.7818608E-02  0.7606790E-01
          2   -1    0    0  501    0  0.00000000000E+00  0.00000000000E+00  0.21174121462E+04  0.21174121462E+04  0.00000000000E+00 0. -1.
         -2   -1    0    0    0  501 -0.00000000000E+00 -0.00000000000E+00 -0.53351905754E+04  0.53351905754E+04  0.00000000000E+00 0.  1.
         23    2    1    2    0    0 -0.72035757390E+03 -0.12404873511E+04 -0.49782847997E+04  0.51816763505E+04  0.93414947085E+02 0.  0.
         13    1    3    3    0    0 -0.37567302567E+03 -0.61477616195E+03 -0.23417088336E+04  0.24500367778E+04  0.00000000000E+00 0.  1.
        -13    1    3    3    0    0 -0.34468454823E+03 -0.62571118913E+03 -0.26365759661E+04  0.27316395727E+04  0.00000000000E+00 0. -1.
         22    1    1    2    0    0  0.72035757390E+03  0.12404873511E+04  0.17605063704E+04  0.22709263711E+04  0.00000000000E+00 0. -1.
<mgrwt>
<rscale>  0 0.67221417E+04</rscale>
<asrwt>0</asrwt>
<pdfrwt beam="1">  1        2 0.32575572E+00 0.67221417E+04</pdfrwt>
<pdfrwt beam="2">  1       -2 0.82079854E+00 0.67221417E+04</pdfrwt>
<totfact> 0.20717439E-04</totfact>
</mgrwt>
</event>
<event>
 6    1  0.9988873E-007  0.1417547E+04  0.7818608E-02  0.8941214E-01
         -2   -1    0    0    0  501 -0.00000000000E+00  0.00000000000E+00  0.28094042498E+03  0.28094042498E+03  0.00000000000E+00 0.  1.
          2   -1    0    0  501    0  0.00000000000E+00 -0.00000000000E+00 -0.17881359890E+04  0.17881359890E+04  0.00000000000E+00 0. -1.
         23    2    1    2    0    0 -0.47489203779E+03 -0.45746365291E+03 -0.11242142430E+04  0.13065345243E+04  0.91538831472E+02 0.  0.
         13    1    3    3    0    0 -0.30396641756E+03 -0.30658708466E+03 -0.64932425037E+03  0.77975201545E+03  0.00000000000E+00 0. -1.
        -13    1    3    3    0    0 -0.17092562023E+03 -0.15087656824E+03 -0.47488999266E+03  0.52678250884E+03  0.00000000000E+00 0.  1.
         22    1    1    2    0    0  0.47489203779E+03  0.45746365291E+03 -0.38298132099E+03  0.76254188968E+03  0.00000000000E+00 0.  1.
<mgrwt>
<rscale>  0 0.14175467E+04</rscale>
<asrwt>0</asrwt>
<pdfrwt beam="1">  1        2 0.27509785E+00 0.14175467E+04</pdfrwt>
<pdfrwt beam="2">  1       -2 0.43221602E-01 0.14175467E+04</pdfrwt>
<totfact> 0.43223939E+01</totfact>
</mgrwt>
</event>
<event>
 6    1  0.9988873E-007  0.2927428E+04  0.7818608E-02  0.8264763E-01
          1   -1    0    0  501    0  0.00000000000E+00  0.00000000000E+00  0.93961799205E+03  0.93961799205E+03  0.00000000000E+00 0. -1.
         -1   -1    0    0    0  501 -0.00000000000E+00 -0.00000000000E+00 -0.22801384054E+04  0.22801384054E+04  0.00000000000E+00 0.  1.
         23    2    1    2    0    0  0.16556946841E+03 -0.46952212899E+03 -0.21831545573E+04  0.22410344864E+04  0.90595087194E+02 0.  0.
         13    1    3    3    0    0  0.61110327341E+02 -0.72833227833E+02 -0.36511316236E+03  0.37728871241E+03  0.00000000000E+00 0. -1.
        -13    1    3    3    0    0  0.10445914106E+03 -0.39668890116E+03 -0.18180413949E+04  0.18637457740E+04  0.00000000000E+00 0.  1.
         22    1    1    2    0    0 -0.16556946841E+03  0.46952212899E+03  0.84263414398E+03  0.97872191100E+03  0.00000000000E+00 0. -1.
<mgrwt>
<rscale>  0 0.29274283E+04</rscale>
<asrwt>0</asrwt>
<pdfrwt beam="1">  1        1 0.14455662E+00 0.29274283E+04</pdfrwt>
<pdfrwt beam="2">  1       -1 0.35079052E+00 0.29274283E+04</pdfrwt>
<totfact> 0.22206123E-01</totfact>
</mgrwt>
</event>
<event>
 6    1  0.9988873E-007  0.3308783E+04  0.7818608E-02  0.8160664E-01
         -1   -1    0    0    0  501 -0.00000000000E+00  0.00000000000E+00  0.95381877883E+03  0.95381877883E+03  0.00000000000E+00 0.  1.
          1   -1    0    0  501    0  0.00000000000E+00 -0.00000000000E+00 -0.28695294525E+04  0.28695294525E+04  0.00000000000E+00 0. -1.
         23    2    1    2    0    0  0.15322447685E+04  0.59465905117E+03 -0.75420878096E+03  0.18107677821E+04  0.93035787587E+02 0.  0.
         11    1    3    3    0    0  0.11371924834E+04  0.47403725984E+03 -0.59364748145E+03  0.13676020621E+04  0.00000000000E+00 0.  1.
        -11    1    3    3    0    0  0.39505228514E+03  0.12062179133E+03 -0.16056129951E+03  0.44316572007E+03  0.00000000000E+00 0. -1.
         22    1    1    2    0    0 -0.15322447685E+04 -0.59465905117E+03 -0.11615018927E+04  0.20125804492E+04  0.00000000000E+00 0.  1.
<mgrwt>
<rscale>  0 0.33087829E+04</rscale>
<asrwt>0</asrwt>
<pdfrwt beam="1">  1        1 0.44146607E+00 0.33087829E+04</pdfrwt>
<pdfrwt beam="2">  1       -1 0.14674135E+00 0.33087829E+04</pdfrwt>
<totfact> 0.22784810E-01</totfact>
</mgrwt>
</event>
<event>
 6    1  0.9988873E-007  0.4952309E+03  0.7818608E-02  0.1015031E+00
         -2   -1    0    0    0  501 -0.00000000000E+00  0.00000000000E+00  0.29489537902E+03  0.29489537902E+03  0.00000000000E+00 0.  1.
          2   -1    0    0  501    0  0.00000000000E+00 -0.00000000000E+00 -0.20791580837E+03  0.20791580837E+03  0.00000000000E+00 0. -1.
         23    2    1    2    0    0 -0.24018891564E+03 -0.38410020510E+01  0.29986051361E+02  0.25592309587E+03  0.83018065677E+02 0.  0.
         11    1    3    3    0    0 -0.75387684726E+02 -0.67738023651E+01  0.48748818362E+02  0.90031298438E+02  0.00000000000E+00 0.  1.
        -11    1    3    3    0    0 -0.16480123091E+03  0.29328003141E+01 -0.18762767001E+02  0.16589179743E+03  0.00000000000E+00 0. -1.
         22    1    1    2    0    0  0.24018891564E+03  0.38410020510E+01  0.56993519289E+02  0.24688809152E+03  0.00000000000E+00 0.  1.
<mgrwt>
<rscale>  0 0.49523090E+03</rscale>
<asrwt>0</asrwt>
<pdfrwt beam="1">  1        2 0.31987048E-01 0.49523090E+03</pdfrwt>
<pdfrwt beam="2">  1       -2 0.45368520E-01 0.49523090E+03</pdfrwt>
<totfact> 0.76602789E+02</totfact>
</mgrwt>
</event>
<event>
 6    1  0.9988873E-007  0.2454543E+03  0.7818608E-02  0.1116212E+00
         -1   -1    0    0    0  501 -0.00000000000E+00  0.00000000000E+00  0.43121978924E+02  0.43121978924E+02  0.00000000000E+00 0.  1.
          1   -1    0    0  501    0  0.00000000000E+00 -0.00000000000E+00 -0.34928703263E+03  0.34928703263E+03  0.00000000000E+00 0. -1.
         23    2    1    2    0    0 -0.50748987342E+02  0.28792467821E+02 -0.34445565099E+02  0.11449545232E+03  0.92294342874E+02 0.  0.
         13    1    3    3    0    0 -0.59072904115E+02 -0.10943417257E+02 -0.41863273615E+02  0.73224996140E+02  0.00000000000E+00 0. -1.
        -13    1    3    3    0    0  0.83239167731E+01  0.39735885078E+02  0.74177085165E+01  0.41270456176E+02  0.00000000000E+00 0.  1.
         22    1    1    2    0    0  0.50748987342E+02 -0.28792467821E+02 -0.27171948861E+03  0.27791355924E+03  0.00000000000E+00 0. -1.
<mgrwt>
<rscale>  0 0.24545426E+03</rscale>
<asrwt>0</asrwt>
<pdfrwt beam="1">  1        1 0.53736468E-01 0.24545426E+03</pdfrwt>
<pdfrwt beam="2">  1       -1 0.66341504E-02 0.24545426E+03</pdfrwt>
<totfact> 0.81665475E+03</totfact>
</mgrwt>
</event>
<event>
 6    1  0.9988873E-007  0.3431055E+04  0.7818608E-02  0.8130326E-01
          1   -1    0    0  501    0  0.00000000000E+00  0.00000000000E+00  0.19031247585E+04  0.19031247585E+04  0.00000000000E+00 0. -1.
         -1   -1    0    0    0  501 -0.00000000000E+00 -0.00000000000E+00 -0.15464219327E+04  0.15464219327E+04  0.00000000000E+00 0.  1.
         23    2    1    2    0    0  0.32635155376E+03 -0.52071330987E+03 -0.14306615225E+04  0.15594887553E+04  0.86977571908E+02 0.  0.
         13    1    3    3    0    0  0.91676420671E+02 -0.22383367154E+03 -0.58335689267E+03  0.63151511688E+03  0.00000000000E+00 0. -1.
        -13    1    3    3    0    0  0.23467513308E+03 -0.29687963833E+03 -0.84730462986E+03  0.92797363838E+03  0.00000000000E+00 0.  1.
         22    1    1    2    0    0 -0.32635155376E+03  0.52071330987E+03  0.17873643483E+04  0.18900579359E+04  0.00000000000E+00 0. -1.
<mgrwt>
<rscale>  0 0.34310546E+04</rscale>
<asrwt>0</asrwt>
<pdfrwt beam="1">  1        1 0.29278842E+00 0.34310546E+04</pdfrwt>
<pdfrwt beam="2">  1       -1 0.23791107E+00 0.34310546E+04</pdfrwt>
<totfact> 0.23808956E-01</totfact>
</mgrwt>
</event>
<event>
 6    1  0.9988873E-007  0.2532286E+04  0.7818608E-02  0.8391573E-01
          2   -1    0    0  501    0  0.00000000000E+00  0.00000000000E+00  0.98334958305E+03  0.98334958305E+03  0.00000000000E+00 0. -1.
         -2   -1    0    0    0  501 -0.00000000000E+00 -0.00000000000E+00 -0.16302629594E+04  0.16302629594E+04  0.00000000000E+00 0.  1.
         23    2    1    2    0    0  0.93328628119E+03 -0.12952254129E+03 -0.11947647743E+04  0.15236856983E+04  0.79723709225E+02 0.  0.
         13    1    3    3    0    0  0.40353069950E+03 -0.16764497027E+02 -0.49962322626E+03  0.64244956379E+03  0.00000000000E+00 0. -1.
        -13    1    3    3    0    0  0.52975558169E+03 -0.11275804426E+03 -0.69514154805E+03  0.88123613448E+03  0.00000000000E+00 0.  1.
         22    1    1    2    0    0 -0.93328628119E+03  0.12952254129E+03  0.54785139797E+03  0.10899268442E+04  0.00000000000E+00 0. -1.
<mgrwt>
<rscale>  0 0.25322862E+04</rscale>
<asrwt>0</asrwt>
<pdfrwt beam="1">  1        2 0.15128455E+00 0.25322862E+04</pdfrwt>
<pdfrwt beam="2">  1       -2 0.25080968E+00 0.25322862E+04</pdfrwt>
<totfact> 0.14589266E+00</totfact>
</mgrwt>
</event>
<event>
 6    1  0.9988873E-007  0.1516519E+04  0.7818608E-02  0.8873542E-01
         -2   -1    0    0    0  501 -0.00000000000E+00  0.00000000000E+00  0.40882154110E+03  0.40882154110E+03  0.00000000000E+00 0.  1.
          2   -1    0    0  501    0  0.00000000000E+00 -0.00000000000E+00 -0.14063767773E+04  0.14063767773E+04  0.00000000000E+00 0. -1.
         23    2    1    2    0    0  0.63783361690E+02 -0.33025764484E+03  0.30907740494E+03  0.46596620786E+03  0.91963228603E+02 0.  0.
         13    1    3    3    0    0  0.66933287681E+00 -0.11242902633E+03  0.15622778708E+03  0.19247819467E+03  0.00000000000E+00 0. -1.
        -13    1    3    3    0    0  0.63114028813E+02 -0.21782861852E+03  0.15284961786E+03  0.27348801319E+03  0.00000000000E+00 0.  1.
         22    1    1    2    0    0 -0.63783361690E+02  0.33025764484E+03 -0.13066326411E+04  0.13492321105E+04  0.00000000000E+00 0. -1.
<mgrwt>
<rscale>  0 0.15165185E+04</rscale>
<asrwt>0</asrwt>
<pdfrwt beam="1">  1        2 0.21636566E+00 0.15165185E+04</pdfrwt>
<pdfrwt beam="2">  1       -2 0.62895622E-01 0.15165185E+04</pdfrwt>
<totfact> 0.32439057E+01</totfact>
</mgrwt>
</event>
<event>
 6    1  0.9988873E-007  0.1083601E+04  0.7818608E-02  0.9221324E-01
          1   -1    0    0  501    0  0.00000000000E+00  0.00000000000E+00  0.23961312217E+03  0.23961312217E+03  0.00000000000E+00 0. -1.
         -1   -1    0    0    0  501 -0.00000000000E+00 -0.00000000000E+00 -0.12250914635E+04  0.12250914635E+04  0.00000000000E+00 0.  1.
         23    2    1    2    0    0 -0.51595608962E+03  0.15107093398E+03 -0.46886844882E+03  0.71910489780E+03  0.90780604970E+02 0.  0.
         13    1    3    3    0    0 -0.60807363111E+02  0.41949568657E+02 -0.38654483642E+02  0.83375480956E+02  0.00000000000E+00 0. -1.
        -13    1    3    3    0    0 -0.45514872651E+03  0.10912136532E+03 -0.43021396518E+03  0.63572941684E+03  0.00000000000E+00 0.  1.
         22    1    1    2    0    0  0.51595608962E+03 -0.15107093398E+03 -0.51660989250E+03  0.74559968786E+03  0.00000000000E+00 0. -1.
<mgrwt>
<rscale>  0 0.10836014E+04</rscale>
<asrwt>0</asrwt>
<pdfrwt beam="1">  1        1 0.36863558E-01 0.10836014E+04</pdfrwt>
<pdfrwt beam="2">  1       -1 0.18847561E+00 0.10836014E+04</pdfrwt>
<totfact> 0.21247561E+01</totfact>
</mgrwt>
</event>
<event>
 6    1  0.9988873E-007  0.1184235E+04  0.7818608E-02  0.9126768E-01
         -3   -1    0    0    0  501 -0.00000000000E+00  0.00000000000E+00  0.72310769822E+03  0.72310769822E+03  0.00000000000E+00 0.  1.
          3   -1    0    0  501    0  0.00000000000E+00 -0.00000000000E+00 -0.48485613970E+03  0.48485613970E+03  0.00000000000E+00 0. -1.
         23    2    1    2    0    0  0.10382033797E+03 -0.48233812010E+03 -0.20746916461E+03  0.54306107232E+03  0.91886611255E+02 0.  0.
         11    1    3    3    0    0  0.83714064518E+02 -0.17675836187E+03 -0.84519005770E+02  0.21306108379E+03  0.00000000000E+00 0.  1.
        -11    1    3    3    0    0  0.20106273453E+02 -0.30557975823E+03 -0.12295015884E+03  0.32999998853E+03  0.00000000000E+00 0. -1.
         22    1    1    2    0    0 -0.10382033797E+03  0.48233812010E+03  0.44572072313E+03  0.66490276560E+03  0.00000000000E+00 0. -1.
<mgrwt>
<rscale>  0 0.11842351E+04</rscale>
<asrwt>0</asrwt>
<pdfrwt beam="1">  1        3 0.74593253E-01 0.11842351E+04</pdfrwt>
<pdfrwt beam="2">  1       -3 0.11124734E+00 0.11842351E+04</pdfrwt>
<totfact> 0.29851985E+00</totfact>
</mgrwt>
</event>
<event>
 6    1  0.9988873E-007  0.4395319E+04  0.7818608E-02  0.7929224E-01
          2   -1    0    0  501    0  0.00000000000E+00  0.00000000000E+00  0.30879357104E+04  0.30879357104E+04  0.00000000000E+00 0. -1.
         -2   -1    0    0    0  501 -0.00000000000E+00 -0.00000000000E+00 -0.15640571318E+04  0.15640571318E+04  0.00000000000E+00 0.  1.
         23    2    1    2    0    0 -0.61210980769E+03 -0.71131873920E+03  0.28644337796E+04  0.30156123815E+04  0.91018637645E+02 0.  0.
         11    1    3    3    0    0 -0.95442283181E+02 -0.10342024069E+03  0.54184953211E+03  0.55982666161E+03  0.00000000000E+00 0.  1.
        -11    1    3    3    0    0 -0.51666752451E+03 -0.60789849851E+03  0.23225842475E+04  0.24557857199E+04  0.00000000000E+00 0. -1.
         22    1    1    2    0    0  0.61210980769E+03  0.71131873920E+03 -0.13405552010E+04  0.16363804607E+04  0.00000000000E+00 0.  1.
<mgrwt>
<rscale>  0 0.43953193E+04</rscale>
<asrwt>0</asrwt>
<pdfrwt beam="1">  1        2 0.47506703E+00 0.43953193E+04</pdfrwt>
<pdfrwt beam="2">  1       -2 0.24062417E+00 0.43953193E+04</pdfrwt>
<totfact> 0.85874792E-02</totfact>
</mgrwt>
</event>
<event>
 6    1  0.9988873E-007  0.2608839E+04  0.7818608E-02  0.8365205E-01
         -2   -1    0    0    0  501 -0.00000000000E+00  0.00000000000E+00  0.66134165880E+03  0.66134165880E+03  0.00000000000E+00 0.  1.
          2   -1    0    0  501    0  0.00000000000E+00 -0.00000000000E+00 -0.25728159099E+04  0.25728159099E+04  0.00000000000E+00 0. -1.
         23    2    1    2    0    0 -0.80150473433E+03  0.28958402015E+03  0.26532224564E+03  0.89648527941E+03  0.83792710191E+02 0.  0.
         11    1    3    3    0    0 -0.35833603647E+03  0.17374911555E+03  0.12704578958E+03  0.41801208456E+03  0.00000000000E+00 0. -1.
        -11    1    3    3    0    0 -0.44316869786E+03  0.11583490460E+03  0.13827645606E+03  0.47847319485E+03  0.00000000000E+00 0.  1.
         22    1    1    2    0    0  0.80150473433E+03 -0.28958402015E+03 -0.21767964968E+04  0.23376722893E+04  0.00000000000E+00 0. -1.
<mgrwt>
<rscale>  0 0.26088391E+04</rscale>
<asrwt>0</asrwt>
<pdfrwt beam="1">  1        2 0.39581783E+00 0.26088391E+04</pdfrwt>
<pdfrwt beam="2">  1       -2 0.10174487E+00 0.26088391E+04</pdfrwt>
<totfact> 0.22114855E+00</totfact>
</mgrwt>
</event>
<event>
 6    1  0.9988873E-007  0.2466052E+04  0.7818608E-02  0.8415180E-01
          2   -1    0    0  501    0  0.00000000000E+00  0.00000000000E+00  0.95733346312E+03  0.95733346312E+03  0.00000000000E+00 0. -1.
         -2   -1    0    0    0  501 -0.00000000000E+00 -0.00000000000E+00 -0.15881123697E+04  0.15881123697E+04  0.00000000000E+00 0.  1.
         23    2    1    2    0    0 -0.86844918933E+03 -0.17452728080E+03  0.56689584241E+03  0.10557852773E+04  0.92994029383E+02 0.  0.
         11    1    3    3    0    0 -0.21666063517E+03 -0.85613246083E+01  0.11446112722E+03  0.24518661619E+03  0.00000000000E+00 0.  1.
        -11    1    3    3    0    0 -0.65178855416E+03 -0.16596595619E+03  0.45243471518E+03  0.81059866114E+03  0.00000000000E+00 0. -1.
         22    1    1    2    0    0  0.86844918933E+03  0.17452728080E+03 -0.11976747490E+04  0.14896605555E+04  0.00000000000E+00 0.  1.
<mgrwt>
<rscale>  0 0.24660520E+04</rscale>
<asrwt>0</asrwt>
<pdfrwt beam="1">  1        2 0.14728207E+00 0.24660520E+04</pdfrwt>
<pdfrwt beam="2">  1       -2 0.24432497E+00 0.24660520E+04</pdfrwt>
<totfact> 0.16723441E+00</totfact>
</mgrwt>
</event>
<event>
 6    1  0.9988873E-007  0.6994531E+03  0.7818608E-02  0.9718168E-01
          1   -1    0    0  501    0  0.00000000000E+00  0.00000000000E+00  0.13796924053E+03  0.13796924053E+03  0.00000000000E+00 0. -1.
         -1   -1    0    0    0  501 -0.00000000000E+00 -0.00000000000E+00 -0.88649226239E+03  0.88649226239E+03  0.00000000000E+00 0.  1.
         23    2    1    2    0    0 -0.15727773247E+03 -0.36773737702E+02 -0.82514802234E+03  0.84568794892E+03  0.90720754293E+02 0.  0.
         11    1    3    3    0    0 -0.14326121827E+03 -0.36366567437E+00 -0.70342080314E+03  0.71786122280E+03  0.00000000000E+00 0.  1.
        -11    1    3    3    0    0 -0.14016514193E+02 -0.36410072028E+02 -0.12172721920E+03  0.12782672611E+03  0.00000000000E+00 0. -1.
         22    1    1    2    0    0  0.15727773247E+03  0.36773737702E+02  0.76625000478E+02  0.17877355401E+03  0.00000000000E+00 0. -1.
<mgrwt>
<rscale>  0 0.69945311E+03</rscale>
<asrwt>0</asrwt>
<pdfrwt beam="1">  1        1 0.21226036E-01 0.69945311E+03</pdfrwt>
<pdfrwt beam="2">  1       -1 0.13638343E+00 0.69945311E+03</pdfrwt>
<totfact> 0.11076339E+02</totfact>
</mgrwt>
</event>
<event>
 6    1  0.9988873E-007  0.3381395E+04  0.7818608E-02  0.8142488E-01
          2   -1    0    0  501    0  0.00000000000E+00  0.00000000000E+00  0.13343666079E+04  0.13343666079E+04  0.00000000000E+00 0. -1.
         -2   -1    0    0    0  501 -0.00000000000E+00 -0.00000000000E+00 -0.21421840052E+04  0.21421840052E+04  0.00000000000E+00 0.  1.
         23    2    1    2    0    0 -0.64602445779E+03  0.82380755481E+03 -0.17675388738E+04  0.20563140836E+04  0.90705307626E+02 0.  0.
         11    1    3    3    0    0 -0.18538359635E+03  0.24348098422E+03 -0.43901992173E+03  0.53515283718E+03  0.00000000000E+00 0. -1.
        -11    1    3    3    0    0 -0.46064086144E+03  0.58032657060E+03 -0.13285189520E+04  0.15211612464E+04  0.00000000000E+00 0.  1.
         22    1    1    2    0    0  0.64602445779E+03 -0.82380755481E+03  0.95972147640E+03  0.14202365295E+04  0.00000000000E+00 0. -1.
<mgrwt>
<rscale>  0 0.33813955E+04</rscale>
<asrwt>0</asrwt>
<pdfrwt beam="1">  1        2 0.20528717E+00 0.33813955E+04</pdfrwt>
<pdfrwt beam="2">  1       -2 0.32956677E+00 0.33813955E+04</pdfrwt>
<totfact> 0.27352873E-01</totfact>
</mgrwt>
</event>
<event>
 6    1  0.9988873E-007  0.5035093E+04  0.7818608E-02  0.7823116E-01
          1   -1    0    0  501    0  0.00000000000E+00  0.00000000000E+00  0.27174395943E+04  0.27174395943E+04  0.00000000000E+00 0. -1.
         -1   -1    0    0    0  501 -0.00000000000E+00 -0.00000000000E+00 -0.23323575415E+04  0.23323575415E+04  0.00000000000E+00 0.  1.
         23    2    1    2    0    0 -0.64971020380E+03  0.12307041263E+03 -0.22428415183E+04  0.23399536033E+04  0.88176607072E+02 0.  0.
         11    1    3    3    0    0 -0.23553590671E+03  0.43183176382E+02 -0.96625458097E+03  0.99548473887E+03  0.00000000000E+00 0.  1.
        -11    1    3    3    0    0 -0.41417429710E+03  0.79887236249E+02 -0.12765869373E+04  0.13444688644E+04  0.00000000000E+00 0. -1.
         22    1    1    2    0    0  0.64971020380E+03 -0.12307041263E+03  0.26279235711E+04  0.27098435325E+04  0.00000000000E+00 0. -1.
<mgrwt>
<rscale>  0 0.50350931E+04</rscale>
<asrwt>0</asrwt>
<pdfrwt beam="1">  1        1 0.41806763E+00 0.50350931E+04</pdfrwt>
<pdfrwt beam="2">  1       -1 0.35882424E+00 0.50350931E+04</pdfrwt>
<totfact> 0.93237212E-03</totfact>
</mgrwt>
</event>
<event>
 6    1  0.9988873E-007  0.8006001E+03  0.7818608E-02  0.9559149E-01
         -3   -1    0    0    0  501 -0.00000000000E+00  0.00000000000E+00  0.16557154891E+04  0.16557154891E+04  0.00000000000E+00 0.  1.
          3   -1    0    0  501    0  0.00000000000E+00 -0.00000000000E+00 -0.96779980467E+02  0.96779980467E+02  0.00000000000E+00 0. -1.
         23    2    1    2    0    0 -0.20257402940E+03  0.24731819866E+03  0.28203642746E+03  0.43618479489E+03  0.92250203784E+02 0.  0.
         13    1    3    3    0    0 -0.15741182997E+03  0.12213878372E+03  0.17974042087E+03  0.26833372058E+03  0.00000000000E+00 0. -1.
        -13    1    3    3    0    0 -0.45162199428E+02  0.12517941494E+03  0.10229600659E+03  0.16785107431E+03  0.00000000000E+00 0.  1.
         22    1    1    2    0    0  0.20257402940E+03 -0.24731819866E+03  0.12768990812E+04  0.13163106747E+04  0.00000000000E+00 0. -1.
<mgrwt>
<rscale>  0 0.80060006E+03</rscale>
<asrwt>0</asrwt>
<pdfrwt beam="1">  1        3 0.14889229E-01 0.80060006E+03</pdfrwt>
<pdfrwt beam="2">  1       -3 0.25472544E+00 0.80060006E+03</pdfrwt>
<totfact> 0.71268136E+00</totfact>
</mgrwt>
</event>
<event>
 6    1  0.9988873E-007  0.1336636E+04  0.7818608E-02  0.9001006E-01
         -2   -1    0    0    0  501 -0.00000000000E+00  0.00000000000E+00  0.17907631132E+03  0.17907631132E+03  0.00000000000E+00 0.  1.
          2   -1    0    0  501    0  0.00000000000E+00 -0.00000000000E+00 -0.24941837944E+04  0.24941837944E+04  0.00000000000E+00 0. -1.
         23    2    1    2    0    0  0.44989642082E+03 -0.11145500649E+03 -0.21173370244E+04  0.21693333628E+04  0.89789509704E+02 0.  0.
         13    1    3    3    0    0  0.12035185831E+03  0.86546375528E+01 -0.49191488175E+03  0.50649750586E+03  0.00000000000E+00 0. -1.
        -13    1    3    3    0    0  0.32954456251E+03 -0.12010964405E+03 -0.16254221426E+04  0.16628358569E+04  0.00000000000E+00 0.  1.
         22    1    1    2    0    0 -0.44989642082E+03  0.11145500649E+03 -0.19777045871E+03  0.50392674297E+03  0.00000000000E+00 0.  1.
<mgrwt>
<rscale>  0 0.13366364E+04</rscale>
<asrwt>0</asrwt>
<pdfrwt beam="1">  1        2 0.38372058E+00 0.13366364E+04</pdfrwt>
<pdfrwt beam="2">  1       -2 0.27550202E-01 0.13366364E+04</pdfrwt>
<totfact> 0.41373841E+01</totfact>
</mgrwt>
</event>
<event>
 6    1  0.9988873E-007  0.3639452E+04  0.7818608E-02  0.8081514E-01
          2   -1    0    0  501    0  0.00000000000E+00  0.00000000000E+00  0.19962618050E+04  0.19962618050E+04  0.00000000000E+00 0. -1.
         -2   -1    0    0    0  501 -0.00000000000E+00 -0.00000000000E+00 -0.16588015030E+04  0.16588015030E+04  0.00000000000E+00 0.  1.
         23    2    1    2    0    0 -0.69898608280E+03  0.85249326313E+03  0.16213388159E+04  0.19628250429E+04  0.92823947615E+02 0.  0.
         11    1    3    3    0    0 -0.36079403189E+03  0.46034475461E+03  0.93859132005E+03  0.11059128775E+04  0.00000000000E+00 0. -1.
        -11    1    3    3    0    0 -0.33819205091E+03  0.39214850852E+03  0.68274749588E+03  0.85691216537E+03  0.00000000000E+00 0.  1.
         22    1    1    2    0    0  0.69898608280E+03 -0.85249326313E+03 -0.12838785139E+04  0.16922382652E+04  0.00000000000E+00 0.  1.
<mgrwt>
<rscale>  0 0.36394517E+04</rscale>
<asrwt>0</asrwt>
<pdfrwt beam="1">  1        2 0.30711720E+00 0.36394517E+04</pdfrwt>
<pdfrwt beam="2">  1       -2 0.25520023E+00 0.36394517E+04</pdfrwt>
<totfact> 0.32563646E-01</totfact>
</mgrwt>
</event>
<event>
 6    1  0.9988873E-007  0.4096687E+04  0.7818608E-02  0.7985321E-01
         -2   -1    0    0    0  501 -0.00000000000E+00  0.00000000000E+00  0.11172516178E+04  0.11172516178E+04  0.00000000000E+00 0.  1.
          2   -1    0    0  501    0  0.00000000000E+00 -0.00000000000E+00 -0.37553863458E+04  0.37553863458E+04  0.00000000000E+00 0. -1.
         23    2    1    2    0    0  0.91438013693E+03 -0.84292963965E+03  0.61448013254E+03  0.13903793800E+04  0.94591620962E+02 0.  0.
         13    1    3    3    0    0  0.44018742995E+03 -0.45034569778E+03  0.34873981521E+03  0.71985809693E+03  0.00000000000E+00 0. -1.
        -13    1    3    3    0    0  0.47419270697E+03 -0.39258394187E+03  0.26574031732E+03  0.67052128304E+03  0.00000000000E+00 0.  1.
         22    1    1    2    0    0 -0.91438013693E+03  0.84292963965E+03 -0.32526148606E+04  0.34822585837E+04  0.00000000000E+00 0. -1.
<mgrwt>
<rscale>  0 0.40966872E+04</rscale>
<asrwt>0</asrwt>
<pdfrwt beam="1">  1        2 0.57775175E+00 0.40966872E+04</pdfrwt>
<pdfrwt beam="2">  1       -2 0.17188486E+00 0.40966872E+04</pdfrwt>
<totfact> 0.85631899E-02</totfact>
</mgrwt>
</event>
<event>
 6    1  0.9988873E-007  0.2904782E+04  0.7818608E-02  0.8271456E-01
          2   -1    0    0  501    0  0.00000000000E+00  0.00000000000E+00  0.16111212441E+04  0.16111212441E+04  0.00000000000E+00 0. -1.
         -2   -1    0    0    0  501 -0.00000000000E+00 -0.00000000000E+00 -0.13092992252E+04  0.13092992252E+04  0.00000000000E+00 0.  1.
         23    2    1    2    0    0  0.13274332165E+04  0.39344928237E+03 -0.28527459593E+03  0.14165708368E+04  0.91706370023E+02 0.  0.
         11    1    3    3    0    0  0.86419321528E+03  0.24518801596E+03 -0.22828967703E+03  0.92685665188E+03  0.00000000000E+00 0. -1.
        -11    1    3    3    0    0  0.46324000127E+03  0.14826126641E+03 -0.56984918907E+02  0.48971418488E+03  0.00000000000E+00 0.  1.
         22    1    1    2    0    0 -0.13274332165E+04 -0.39344928237E+03  0.58709661477E+03  0.15038496325E+04  0.00000000000E+00 0. -1.
<mgrwt>
<rscale>  0 0.29047821E+04</rscale>
<asrwt>0</asrwt>
<pdfrwt beam="1">  1        2 0.24786481E+00 0.29047821E+04</pdfrwt>
<pdfrwt beam="2">  1       -2 0.20143065E+00 0.29047821E+04</pdfrwt>
<totfact> 0.12345532E+00</totfact>
</mgrwt>
</event>
<event>
 6    1  0.9988873E-007  0.3183514E+04  0.7818608E-02  0.8193185E-01
         -2   -1    0    0    0  501 -0.00000000000E+00  0.00000000000E+00  0.20825271932E+04  0.20825271932E+04  0.00000000000E+00 0.  1.
          2   -1    0    0  501    0  0.00000000000E+00 -0.00000000000E+00 -0.12166424588E+04  0.12166424588E+04  0.00000000000E+00 0. -1.
         23    2    1    2    0    0  0.88706976050E+03 -0.41809105618E+03  0.17309359706E+04  0.19914974711E+04  0.90719082541E+02 0.  0.
         13    1    3    3    0    0  0.25467392729E+03 -0.15744019114E+03  0.57738838402E+03  0.65040262071E+03  0.00000000000E+00 0.  1.
        -13    1    3    3    0    0  0.63239583321E+03 -0.26065086505E+03  0.11535475866E+04  0.13410948504E+04  0.00000000000E+00 0. -1.
         22    1    1    2    0    0 -0.88706976050E+03  0.41809105618E+03 -0.86505123620E+03  0.13076721808E+04  0.00000000000E+00 0. -1.
<mgrwt>
<rscale>  0 0.31835144E+04</rscale>
<asrwt>0</asrwt>
<pdfrwt beam="1">  1        2 0.18717576E+00 0.31835144E+04</pdfrwt>
<pdfrwt beam="2">  1       -2 0.32038880E+00 0.31835144E+04</pdfrwt>
<totfact> 0.37162559E-01</totfact>
</mgrwt>
</event>
<event>
 6    1  0.9988873E-007  0.1470192E+04  0.7818608E-02  0.8904520E-01
         -2   -1    0    0    0  501 -0.00000000000E+00  0.00000000000E+00  0.28711024616E+03  0.28711024616E+03  0.00000000000E+00 0.  1.
          2   -1    0    0  501    0  0.00000000000E+00 -0.00000000000E+00 -0.18820862822E+04  0.18820862822E+04  0.00000000000E+00 0. -1.
         23    2    1    2    0    0 -0.12335495570E+03 -0.45909622421E+03  0.21639862391E+02  0.48413488223E+03  0.89064652753E+02 0.  0.
         13    1    3    3    0    0 -0.10656390355E+03 -0.29142918686E+03 -0.18712443216E+02  0.31086490961E+03  0.00000000000E+00 0.  1.
        -13    1    3    3    0    0 -0.16791052154E+02 -0.16766703734E+03  0.40352305608E+02  0.17326997262E+03  0.00000000000E+00 0. -1.
         22    1    1    2    0    0  0.12335495570E+03  0.45909622421E+03 -0.16166158985E+04  0.16850616462E+04  0.00000000000E+00 0. -1.
<mgrwt>
<rscale>  0 0.14701922E+04</rscale>
<asrwt>0</asrwt>
<pdfrwt beam="1">  1        2 0.28955174E+00 0.14701922E+04</pdfrwt>
<pdfrwt beam="2">  1       -2 0.44170807E-01 0.14701922E+04</pdfrwt>
<totfact> 0.36573223E+01</totfact>
</mgrwt>
</event>
<event>
 6    1  0.9988873E-007  0.1668788E+04  0.7818608E-02  0.8779369E-01
         -2   -1    0    0    0  501 -0.00000000000E+00  0.00000000000E+00  0.50924011998E+03  0.50924011998E+03  0.00000000000E+00 0.  1.
          2   -1    0    0  501    0  0.00000000000E+00 -0.00000000000E+00 -0.13671604449E+04  0.13671604449E+04  0.00000000000E+00 0. -1.
         23    2    1    2    0    0 -0.26615682390E+03  0.66183490405E+03  0.51002796947E+02  0.72097590848E+03  0.91324039503E+02 0.  0.
         11    1    3    3    0    0 -0.91054051757E+02  0.24547342359E+03  0.62394655722E+02  0.26914890878E+03  0.00000000000E+00 0. -1.
        -11    1    3    3    0    0 -0.17510277215E+03  0.41636148045E+03 -0.11391858776E+02  0.45182699971E+03  0.00000000000E+00 0.  1.
         22    1    1    2    0    0  0.26615682390E+03 -0.66183490405E+03 -0.90892312183E+03  0.11554246564E+04  0.00000000000E+00 0. -1.
<mgrwt>
<rscale>  0 0.16687875E+04</rscale>
<asrwt>0</asrwt>
<pdfrwt beam="1">  1        2 0.21033237E+00 0.16687875E+04</pdfrwt>
<pdfrwt beam="2">  1       -2 0.78344635E-01 0.16687875E+04</pdfrwt>
<totfact> 0.20886141E+01</totfact>
</mgrwt>
</event>
<event>
 6    1  0.9988873E-007  0.1724709E+04  0.7818608E-02  0.8747396E-01
         -2   -1    0    0    0  501 -0.00000000000E+00  0.00000000000E+00  0.10529634640E+04  0.10529634640E+04  0.00000000000E+00 0.  1.
          2   -1    0    0  501    0  0.00000000000E+00 -0.00000000000E+00 -0.70624997105E+03  0.70624997105E+03  0.00000000000E+00 0. -1.
         23    2    1    2    0    0 -0.42107654305E+03 -0.33730302043E+03 -0.50944296127E+03  0.74724374341E+03  0.88103907819E+02 0.  0.
         11    1    3    3    0    0 -0.24374331310E+03 -0.15651239663E+03 -0.22796861290E+03  0.36861446180E+03  0.00000000000E+00 0.  1.
        -11    1    3    3    0    0 -0.17733322994E+03 -0.18079062380E+03 -0.28147434837E+03  0.37862928161E+03  0.00000000000E+00 0. -1.
         22    1    1    2    0    0  0.42107654305E+03  0.33730302043E+03  0.85615645425E+03  0.10119696917E+04  0.00000000000E+00 0.  1.
<mgrwt>
<rscale>  0 0.17247092E+04</rscale>
<asrwt>0</asrwt>
<pdfrwt beam="1">  1        2 0.10865384E+00 0.17247092E+04</pdfrwt>
<pdfrwt beam="2">  1       -2 0.16199438E+00 0.17247092E+04</pdfrwt>
<totfact> 0.93631331E+00</totfact>
</mgrwt>
</event>
<event>
 6    1  0.9988873E-007  0.5704555E+04  0.7818608E-02  0.7728153E-01
         -2   -1    0    0    0  501 -0.00000000000E+00  0.00000000000E+00  0.21679431467E+04  0.21679431467E+04  0.00000000000E+00 0.  1.
          2   -1    0    0  501    0  0.00000000000E+00 -0.00000000000E+00 -0.37526299052E+04  0.37526299052E+04  0.00000000000E+00 0. -1.
         23    2    1    2    0    0  0.27837401711E+04  0.61785109946E+02 -0.15412439814E+03  0.27901520888E+04  0.90374820872E+02 0.  0.
         11    1    3    3    0    0  0.18665200164E+04  0.23790214558E+02 -0.64578756908E+02  0.18677883611E+04  0.00000000000E+00 0.  1.
        -11    1    3    3    0    0  0.91722015468E+03  0.37994895388E+02 -0.89545641231E+02  0.92236372766E+03  0.00000000000E+00 0. -1.
         22    1    1    2    0    0 -0.27837401711E+04 -0.61785109946E+02 -0.14305623603E+04  0.31304209632E+04  0.00000000000E+00 0. -1.
<mgrwt>
<rscale>  0 0.57045555E+04</rscale>
<asrwt>0</asrwt>
<pdfrwt beam="1">  1        2 0.57732767E+00 0.57045555E+04</pdfrwt>
<pdfrwt beam="2">  1       -2 0.33352972E+00 0.57045555E+04</pdfrwt>
<totfact> 0.72228437E-03</totfact>
</mgrwt>
</event>
<event>
 6    1  0.9988873E-007  0.2818369E+04  0.7818608E-02  0.8297588E-01
          2   -1    0    0  501    0  0.00000000000E+00  0.00000000000E+00  0.21677320235E+04  0.21677320235E+04  0.00000000000E+00 0. -1.
         -2   -1    0    0    0  501 -0.00000000000E+00 -0.00000000000E+00 -0.91607297581E+03  0.91607297581E+03  0.00000000000E+00 0.  1.
         23    2    1    2    0    0 -0.10131478321E+04  0.24709769588E+03  0.16611219718E+04  0.19634543010E+04  0.91108648813E+02 0.  0.
         11    1    3    3    0    0 -0.18217864209E+03  0.14526909782E+02  0.32662844405E+03  0.37428094956E+03  0.00000000000E+00 0. -1.
        -11    1    3    3    0    0 -0.83096919001E+03  0.23257078610E+03  0.13344935277E+04  0.15891733514E+04  0.00000000000E+00 0.  1.
         22    1    1    2    0    0  0.10131478321E+04 -0.24709769588E+03 -0.40946292410E+03  0.11203506983E+04  0.00000000000E+00 0.  1.
<mgrwt>
<rscale>  0 0.28183688E+04</rscale>
<asrwt>0</asrwt>
<pdfrwt beam="1">  1        2 0.33349723E+00 0.28183688E+04</pdfrwt>
<pdfrwt beam="2">  1       -2 0.14093430E+00 0.28183688E+04</pdfrwt>
<totfact> 0.16512673E+00</totfact>
</mgrwt>
</event>
<event>
 6    1  0.9988873E-007  0.3358968E+04  0.7818608E-02  0.8148051E-01
          1   -1    0    0  501    0  0.00000000000E+00  0.00000000000E+00  0.37196139385E+04  0.37196139385E+04  0.00000000000E+00 0. -1.
         -1   -1    0    0    0  501 -0.00000000000E+00 -0.00000000000E+00 -0.75832238277E+03  0.75832238277E+03  0.00000000000E+00 0.  1.
         23    2    1    2    0    0  0.94689812375E+03 -0.40453876728E+03 -0.28501707050E+03  0.10722370733E+04  0.90498286540E+02 0.  0.
         11    1    3    3    0    0  0.74705253115E+03 -0.28938767154E+03 -0.19413527317E+03  0.82433076676E+03  0.00000000000E+00 0. -1.
        -11    1    3    3    0    0  0.19984559261E+03 -0.11515109574E+03 -0.90881797329E+02  0.24790630654E+03  0.00000000000E+00 0.  1.
         22    1    1    2    0    0 -0.94689812375E+03  0.40453876728E+03  0.32463086262E+04  0.34056992480E+04  0.00000000000E+00 0. -1.
<mgrwt>
<rscale>  0 0.33589680E+04</rscale>
<asrwt>0</asrwt>
<pdfrwt beam="1">  1        1 0.57224829E+00 0.33589680E+04</pdfrwt>
<pdfrwt beam="2">  1       -1 0.11666498E+00 0.33589680E+04</pdfrwt>
<totfact> 0.90835450E-02</totfact>
</mgrwt>
</event>
<event>
 6    1  0.9988873E-007  0.3192412E+04  0.7818608E-02  0.8190824E-01
         -2   -1    0    0    0  501 -0.00000000000E+00  0.00000000000E+00  0.19736645155E+04  0.19736645155E+04  0.00000000000E+00 0.  1.
          2   -1    0    0  501    0  0.00000000000E+00 -0.00000000000E+00 -0.12909352275E+04  0.12909352275E+04  0.00000000000E+00 0. -1.
         23    2    1    2    0    0 -0.15473816533E+04 -0.38555121036E+03  0.36596039304E+03  0.16387515798E+04  0.92412198186E+02 0.  0.
         11    1    3    3    0    0 -0.19419637236E+03 -0.26033857144E+02  0.23408947387E+02  0.19732706752E+03  0.00000000000E+00 0. -1.
        -11    1    3    3    0    0 -0.13531852809E+04 -0.35951735322E+03  0.34255144565E+03  0.14414245123E+04  0.00000000000E+00 0.  1.
         22    1    1    2    0    0  0.15473816533E+04  0.38555121036E+03  0.31676889501E+03  0.16258481631E+04  0.00000000000E+00 0. -1.
<mgrwt>
<rscale>  0 0.31924117E+04</rscale>
<asrwt>0</asrwt>
<pdfrwt beam="1">  1        2 0.19860542E+00 0.31924117E+04</pdfrwt>
<pdfrwt beam="2">  1       -2 0.30364070E+00 0.31924117E+04</pdfrwt>
<totfact> 0.42566021E-01</totfact>
</mgrwt>
</event>
<event>
 6    1  0.9988873E-007  0.2369880E+04  0.7818608E-02  0.8450867E-01
          2   -1    0    0  501    0  0.00000000000E+00  0.00000000000E+00  0.13983479011E+04  0.13983479011E+04  0.00000000000E+00 0. -1.
         -2   -1    0    0    0  501 -0.00000000000E+00 -0.00000000000E+00 -0.10041011142E+04  0.10041011142E+04  0.00000000000E+00 0.  1.
         23    2    1    2    0    0  0.57595772190E+03  0.86355174619E+03 -0.37836428552E+03  0.11084718961E+04  0.90008310809E+02 0.  0.
         13    1    3    3    0    0  0.49977464345E+03  0.70109229823E+03 -0.29048724626E+03  0.90867372864E+03  0.00000000000E+00 0.  1.
        -13    1    3    3    0    0  0.76183078450E+02  0.16245944796E+03 -0.87877039262E+02  0.19979816742E+03  0.00000000000E+00 0. -1.
         22    1    1    2    0    0 -0.57595772190E+03 -0.86355174619E+03  0.77261107247E+03  0.12939771192E+04  0.00000000000E+00 0.  1.
<mgrwt>
<rscale>  0 0.23698799E+04</rscale>
<asrwt>0</asrwt>
<pdfrwt beam="1">  1        2 0.21513045E+00 0.23698799E+04</pdfrwt>
<pdfrwt beam="2">  1       -2 0.15447709E+00 0.23698799E+04</pdfrwt>
<totfact> 0.36220715E+00</totfact>
</mgrwt>
</event>
<event>
 6    1  0.9988873E-007  0.4014097E+04  0.7818608E-02  0.8001709E-01
          2   -1    0    0  501    0  0.00000000000E+00  0.00000000000E+00  0.25708682010E+04  0.25708682010E+04  0.00000000000E+00 0. -1.
         -2   -1    0    0    0  501 -0.00000000000E+00 -0.00000000000E+00 -0.15668807720E+04  0.15668807720E+04  0.00000000000E+00 0.  1.
         23    2    1    2    0    0 -0.19422105999E+04 -0.22690068103E+03  0.40697252862E+02  0.19579338668E+04  0.90458978824E+02 0.  0.
         13    1    3    3    0    0 -0.14179849292E+04 -0.14312818682E+03  0.63077562923E+02  0.14265853344E+04  0.00000000000E+00 0.  1.
        -13    1    3    3    0    0 -0.52422567075E+03 -0.83772494200E+02 -0.22380310061E+02  0.53134853245E+03  0.00000000000E+00 0. -1.
         22    1    1    2    0    0  0.19422105999E+04  0.22690068103E+03  0.96329017613E+03  0.21798151061E+04  0.00000000000E+00 0. -1.
<mgrwt>
<rscale>  0 0.40140971E+04</rscale>
<asrwt>0</asrwt>
<pdfrwt beam="1">  1        2 0.39551818E+00 0.40140971E+04</pdfrwt>
<pdfrwt beam="2">  1       -2 0.24105858E+00 0.40140971E+04</pdfrwt>
<totfact> 0.18198706E-01</totfact>
</mgrwt>
</event>
<event>
 6    1  0.9988873E-007  0.3104798E+04  0.7818608E-02  0.8214422E-01
         -1   -1    0    0    0  501 -0.00000000000E+00  0.00000000000E+00  0.11289801222E+04  0.11289801222E+04  0.00000000000E+00 0.  1.
          1   -1    0    0  501    0  0.00000000000E+00 -0.00000000000E+00 -0.21346195585E+04  0.21346195585E+04  0.00000000000E+00 0. -1.
         23    2    1    2    0    0 -0.31895995183E+03  0.14007109095E+04  0.11170303682E+03  0.14436599275E+04  0.89162295545E+02 0.  0.
         13    1    3    3    0    0 -0.30268201408E+03  0.12653023025E+04  0.12303317666E+03  0.13068065966E+04  0.00000000000E+00 0. -1.
        -13    1    3    3    0    0 -0.16277937751E+02  0.13540860704E+03 -0.11330139839E+02  0.13685333093E+03  0.00000000000E+00 0.  1.
         22    1    1    2    0    0  0.31895995183E+03 -0.14007109095E+04 -0.11173424732E+04  0.18199397532E+04  0.00000000000E+00 0. -1.
<mgrwt>
<rscale>  0 0.31047983E+04</rscale>
<asrwt>0</asrwt>
<pdfrwt beam="1">  1        1 0.32840300E+00 0.31047983E+04</pdfrwt>
<pdfrwt beam="2">  1       -1 0.17368925E+00 0.31047983E+04</pdfrwt>
<totfact> 0.47075843E-01</totfact>
</mgrwt>
</event>
<event>
 6    1  0.9988873E-007  0.4274056E+04  0.7818608E-02  0.7951433E-01
          2   -1    0    0  501    0  0.00000000000E+00  0.00000000000E+00  0.29693471430E+04  0.29693471430E+04  0.00000000000E+00 0. -1.
         -2   -1    0    0    0  501 -0.00000000000E+00 -0.00000000000E+00 -0.15380110316E+04  0.15380110316E+04  0.00000000000E+00 0.  1.
         23    2    1    2    0    0 -0.71454206372E+01 -0.10038814173E+04 -0.12727238913E+04  0.16229571179E+04  0.79591117049E+02 0.  0.
         11    1    3    3    0    0 -0.35258860126E+02 -0.38428281868E+03 -0.52221628235E+03  0.64932758874E+03  0.00000000000E+00 0. -1.
        -11    1    3    3    0    0  0.28113439489E+02 -0.61959859866E+03 -0.75050760898E+03  0.97362952918E+03  0.00000000000E+00 0.  1.
         22    1    1    2    0    0  0.71454206372E+01  0.10038814173E+04  0.27040600027E+04  0.28844010566E+04  0.00000000000E+00 0. -1.
<mgrwt>
<rscale>  0 0.42740560E+04</rscale>
<asrwt>0</asrwt>
<pdfrwt beam="1">  1        2 0.45682264E+00 0.42740560E+04</pdfrwt>
<pdfrwt beam="2">  1       -2 0.23661708E+00 0.42740560E+04</pdfrwt>
<totfact> 0.10911382E-01</totfact>
</mgrwt>
</event>
<event>
 6    1  0.9988873E-007  0.1210126E+04  0.7818608E-02  0.9104040E-01
          1   -1    0    0  501    0  0.00000000000E+00  0.00000000000E+00  0.91125286921E+03  0.91125286921E+03  0.00000000000E+00 0. -1.
         -1   -1    0    0    0  501 -0.00000000000E+00 -0.00000000000E+00 -0.40175564827E+03  0.40175564827E+03  0.00000000000E+00 0.  1.
         23    2    1    2    0    0  0.41011776405E+02 -0.48594892638E+03  0.63840819938E+03  0.80858174854E+03  0.91711995850E+02 0.  0.
         11    1    3    3    0    0 -0.16323698369E+02 -0.23160232938E+03  0.34756760296E+03  0.41798246462E+03  0.00000000000E+00 0.  1.
        -11    1    3    3    0    0  0.57335474774E+02 -0.25434659700E+03  0.29084059643E+03  0.39059928393E+03  0.00000000000E+00 0. -1.
         22    1    1    2    0    0 -0.41011776405E+02  0.48594892638E+03 -0.12891097844E+03  0.50442676893E+03  0.00000000000E+00 0.  1.
<mgrwt>
<rscale>  0 0.12101256E+04</rscale>
<asrwt>0</asrwt>
<pdfrwt beam="1">  1        1 0.14019275E+00 0.12101256E+04</pdfrwt>
<pdfrwt beam="2">  1       -1 0.61808562E-01 0.12101256E+04</pdfrwt>
<totfact> 0.46780667E+01</totfact>
</mgrwt>
</event>
<event>
 6    1  0.9988873E-007  0.2659564E+04  0.7818608E-02  0.8348246E-01
         -2   -1    0    0    0  501 -0.00000000000E+00  0.00000000000E+00  0.32358975376E+04  0.32358975376E+04  0.00000000000E+00 0.  1.
          2   -1    0    0  501    0  0.00000000000E+00 -0.00000000000E+00 -0.54646979749E+03  0.54646979749E+03  0.00000000000E+00 0. -1.
         23    2    1    2    0    0  0.81642135232E+03 -0.10021829473E+04  0.17808285616E+04  0.22023461480E+04  0.89798138031E+02 0.  0.
         13    1    3    3    0    0  0.47754593991E+03 -0.64405354580E+03  0.11428585416E+04  0.13960590033E+04  0.00000000000E+00 0. -1.
        -13    1    3    3    0    0  0.33887541241E+03 -0.35812940150E+03  0.63797001993E+03  0.80628714468E+03  0.00000000000E+00 0.  1.
         22    1    1    2    0    0 -0.81642135232E+03  0.10021829473E+04  0.90859917855E+03  0.15800211871E+04  0.00000000000E+00 0.  1.
<mgrwt>
<rscale>  0 0.26595641E+04</rscale>
<asrwt>0</asrwt>
<pdfrwt beam="1">  1        2 0.84072279E-01 0.26595641E+04</pdfrwt>
<pdfrwt beam="2">  1       -2 0.49783038E+00 0.26595641E+04</pdfrwt>
<totfact> 0.82770221E-02</totfact>
</mgrwt>
</event>
<event>
 6    1  0.9988873E-007  0.4621403E+04  0.7818608E-02  0.7889721E-01
         -2   -1    0    0    0  501 -0.00000000000E+00  0.00000000000E+00  0.23573164083E+04  0.23573164083E+04  0.00000000000E+00 0.  1.
          2   -1    0    0  501    0  0.00000000000E+00 -0.00000000000E+00 -0.22650081537E+04  0.22650081537E+04  0.00000000000E+00 0. -1.
         23    2    1    2    0    0  0.86598130396E+03  0.78391886870E+02  0.21865225686E+04  0.23547702628E+04  0.89404368001E+02 0.  0.
         11    1    3    3    0    0  0.28263354511E+03  0.29846735766E+02  0.60608072044E+03  0.66940749036E+03  0.00000000000E+00 0. -1.
        -11    1    3    3    0    0  0.58334775884E+03  0.48545151104E+02  0.15804418481E+04  0.16853627724E+04  0.00000000000E+00 0.  1.
         22    1    1    2    0    0 -0.86598130396E+03 -0.78391886870E+02 -0.20942143140E+04  0.22675542991E+04  0.00000000000E+00 0. -1.
<mgrwt>
<rscale>  0 0.46214028E+04</rscale>
<asrwt>0</asrwt>
<pdfrwt beam="1">  1        2 0.34846279E+00 0.46214028E+04</pdfrwt>
<pdfrwt beam="2">  1       -2 0.36266406E+00 0.46214028E+04</pdfrwt>
<totfact> 0.46050326E-02</totfact>
</mgrwt>
</event>
<event>
 6    1  0.9988873E-007  0.6000580E+04  0.7818608E-02  0.7690330E-01
         -1   -1    0    0    0  501 -0.00000000000E+00  0.00000000000E+00  0.20972714791E+04  0.20972714791E+04  0.00000000000E+00 0.  1.
          1   -1    0    0  501    0  0.00000000000E+00 -0.00000000000E+00 -0.42921199294E+04  0.42921199294E+04  0.00000000000E+00 0. -1.
         23    2    1    2    0    0  0.15515199298E+04  0.11510489187E+04  0.13456817100E+04  0.23560948013E+04  0.90530339840E+02 0.  0.
         13    1    3    3    0    0  0.11277976133E+04  0.80088877455E+03  0.92734881559E+03  0.16653306313E+04  0.00000000000E+00 0.  1.
        -13    1    3    3    0    0  0.42372231642E+03  0.35016014418E+03  0.41833289440E+03  0.69076416999E+03  0.00000000000E+00 0. -1.
         22    1    1    2    0    0 -0.15515199298E+04 -0.11510489187E+04 -0.35405301603E+04  0.40332966072E+04  0.00000000000E+00 0. -1.
<mgrwt>
<rscale>  0 0.60005802E+04</rscale>
<asrwt>0</asrwt>
<pdfrwt beam="1">  1        1 0.66032614E+00 0.60005802E+04</pdfrwt>
<pdfrwt beam="2">  1       -1 0.32265715E+00 0.60005802E+04</pdfrwt>
<totfact> 0.80812468E-04</totfact>
</mgrwt>
</event>
<event>
 6    1  0.9988873E-007  0.7928519E+03  0.7818608E-02  0.9570422E-01
          2   -1    0    0  501    0  0.00000000000E+00  0.00000000000E+00  0.59553441050E+02  0.59553441050E+02  0.00000000000E+00 0. -1.
         -2   -1    0    0    0  501 -0.00000000000E+00 -0.00000000000E+00 -0.26388654261E+04  0.26388654261E+04  0.00000000000E+00 0.  1.
         23    2    1    2    0    0 -0.34361960284E+03  0.77107300579E+02 -0.18853572905E+04  0.19202202516E+04  0.93025449769E+02 0.  0.
         11    1    3    3    0    0 -0.19782470429E+03  0.33145685929E+02 -0.12998304181E+04  0.13152157108E+04  0.00000000000E+00 0.  1.
        -11    1    3    3    0    0 -0.14579489855E+03  0.43961614650E+02 -0.58552687247E+03  0.60500454080E+03  0.00000000000E+00 0. -1.
         22    1    1    2    0    0  0.34361960284E+03 -0.77107300579E+02 -0.69395469457E+03  0.77819861564E+03  0.00000000000E+00 0. -1.
<mgrwt>
<rscale>  0 0.79285186E+03</rscale>
<asrwt>0</asrwt>
<pdfrwt beam="1">  1        2 0.91620658E-02 0.79285186E+03</pdfrwt>
<pdfrwt beam="2">  1       -2 0.40597939E+00 0.79285186E+03</pdfrwt>
<totfact> 0.53415533E+00</totfact>
</mgrwt>
</event>
<event>
 6    1  0.9988873E-007  0.8998070E+03  0.7818608E-02  0.9425823E-01
         -2   -1    0    0    0  501 -0.00000000000E+00  0.00000000000E+00  0.29359747161E+03  0.29359747161E+03  0.00000000000E+00 0.  1.
          2   -1    0    0  501    0  0.00000000000E+00 -0.00000000000E+00 -0.68942410186E+03  0.68942410186E+03  0.00000000000E+00 0. -1.
         23    2    1    2    0    0  0.27984643383E+03  0.88797907758E+02  0.16476836834E+03  0.35019786390E+03  0.96388970991E+02 0.  0.
         13    1    3    3    0    0  0.10995690799E+03  0.71847122836E+02  0.35539439055E+02  0.13607197509E+03  0.00000000000E+00 0.  1.
        -13    1    3    3    0    0  0.16988952583E+03  0.16950784921E+02  0.12922892929E+03  0.21412588882E+03  0.00000000000E+00 0. -1.
         22    1    1    2    0    0 -0.27984643383E+03 -0.88797907758E+02 -0.56059499859E+03  0.63282370957E+03  0.00000000000E+00 0. -1.
<mgrwt>
<rscale>  0 0.89980703E+03</rscale>
<asrwt>0</asrwt>
<pdfrwt beam="1">  1        2 0.10606525E+00 0.89980703E+03</pdfrwt>
<pdfrwt beam="2">  1       -2 0.45168842E-01 0.89980703E+03</pdfrwt>
<totfact> 0.19471368E+02</totfact>
</mgrwt>
</event>
<event>
 6    1  0.9988873E-007  0.2148933E+04  0.7818608E-02  0.8539989E-01
          2   -1    0    0  501    0  0.00000000000E+00  0.00000000000E+00  0.67129974618E+03  0.67129974618E+03  0.00000000000E+00 0. -1.
         -2   -1    0    0    0  501 -0.00000000000E+00 -0.00000000000E+00 -0.17197656294E+04  0.17197656294E+04  0.00000000000E+00 0.  1.
         23    2    1    2    0    0 -0.15252114032E+03  0.10227912481E+04 -0.84187134129E+03  0.13365294871E+04  0.90548766058E+02 0.  0.
         11    1    3    3    0    0 -0.13938622303E+03  0.63871948950E+03 -0.53300493768E+03  0.84349592116E+03  0.00000000000E+00 0. -1.
        -11    1    3    3    0    0 -0.13134917292E+02  0.38407175862E+03 -0.30886640361E+03  0.49303356590E+03  0.00000000000E+00 0.  1.
         22    1    1    2    0    0  0.15252114032E+03 -0.10227912481E+04 -0.20659454198E+03  0.10545358886E+04  0.00000000000E+00 0. -1.
<mgrwt>
<rscale>  0 0.21489330E+04</rscale>
<asrwt>0</asrwt>
<pdfrwt beam="1">  1        2 0.10327688E+00 0.21489330E+04</pdfrwt>
<pdfrwt beam="2">  1       -2 0.26457933E+00 0.21489330E+04</pdfrwt>
<totfact> 0.20737861E+00</totfact>
</mgrwt>
</event>
<event>
 6    1  0.9988873E-007  0.4846094E+04  0.7818608E-02  0.7852697E-01
         -2   -1    0    0    0  501 -0.00000000000E+00  0.00000000000E+00  0.16741616286E+04  0.16741616286E+04  0.00000000000E+00 0.  1.
          2   -1    0    0  501    0  0.00000000000E+00 -0.00000000000E+00 -0.35069230015E+04  0.35069230015E+04  0.00000000000E+00 0. -1.
         23    2    1    2    0    0  0.72265370241E+03  0.21895323202E+04 -0.17099176741E+04  0.28721085087E+04  0.94385796306E+02 0.  0.
         11    1    3    3    0    0  0.17319737978E+03  0.46633310377E+03 -0.41209644404E+03  0.64597784422E+03  0.00000000000E+00 0. -1.
        -11    1    3    3    0    0  0.54945632262E+03  0.17231992165E+04 -0.12978212300E+04  0.22261306645E+04  0.00000000000E+00 0.  1.
         22    1    1    2    0    0 -0.72265370241E+03 -0.21895323202E+04 -0.12284369886E+03  0.23089761214E+04  0.00000000000E+00 0.  1.
<mgrwt>
<rscale>  0 0.48460937E+04</rscale>
<asrwt>0</asrwt>
<pdfrwt beam="1">  1        2 0.53952661E+00 0.48460937E+04</pdfrwt>
<pdfrwt beam="2">  1       -2 0.25756333E+00 0.48460937E+04</pdfrwt>
<totfact> 0.34143430E-02</totfact>
</mgrwt>
</event>
<event>
 6    1  0.9988873E-007  0.2358537E+04  0.7818608E-02  0.8455192E-01
          2   -1    0    0  501    0  0.00000000000E+00  0.00000000000E+00  0.79693732189E+03  0.79693732189E+03  0.00000000000E+00 0. -1.
         -2   -1    0    0    0  501 -0.00000000000E+00 -0.00000000000E+00 -0.17450227507E+04  0.17450227507E+04  0.00000000000E+00 0.  1.
         23    2    1    2    0    0 -0.62841777648E+03 -0.21965816941E+03 -0.15213768271E+04  0.16634262710E+04  0.96129579264E+02 0.  0.
         11    1    3    3    0    0 -0.13122455740E+03 -0.69545058409E+01 -0.27476132218E+03  0.30456860275E+03  0.00000000000E+00 0.  1.
        -11    1    3    3    0    0 -0.49719321908E+03 -0.21270366357E+03 -0.12466155049E+04  0.13588576683E+04  0.00000000000E+00 0. -1.
         22    1    1    2    0    0  0.62841777648E+03  0.21965816941E+03  0.57329139825E+03  0.87853380157E+03  0.00000000000E+00 0. -1.
<mgrwt>
<rscale>  0 0.23585366E+04</rscale>
<asrwt>0</asrwt>
<pdfrwt beam="1">  1        2 0.12260574E+00 0.23585366E+04</pdfrwt>
<pdfrwt beam="2">  1       -2 0.26846503E+00 0.23585366E+04</pdfrwt>
<totfact> 0.15470965E+00</totfact>
</mgrwt>
</event>
<event>
 6    1  0.9988873E-007  0.2297097E+04  0.7818608E-02  0.8479066E-01
         -1   -1    0    0    0  501 -0.00000000000E+00  0.00000000000E+00  0.16015236681E+04  0.16015236681E+04  0.00000000000E+00 0.  1.
          1   -1    0    0  501    0  0.00000000000E+00 -0.00000000000E+00 -0.82369316722E+03  0.82369316722E+03  0.00000000000E+00 0. -1.
         23    2    1    2    0    0 -0.64123760846E+03 -0.16836130962E+03  0.13773813270E+04  0.15313530905E+04  0.91278510841E+02 0.  0.
         11    1    3    3    0    0 -0.33360262128E+03 -0.10879158204E+03  0.63392619409E+03  0.72456106492E+03  0.00000000000E+00 0. -1.
        -11    1    3    3    0    0 -0.30763498718E+03 -0.59569727576E+02  0.74345513296E+03  0.80679202556E+03  0.00000000000E+00 0.  1.
         22    1    1    2    0    0  0.64123760846E+03  0.16836130962E+03 -0.59955082620E+03  0.89386374481E+03  0.00000000000E+00 0. -1.
<mgrwt>
<rscale>  0 0.22970974E+04</rscale>
<asrwt>0</asrwt>
<pdfrwt beam="1">  1        1 0.12672203E+00 0.22970974E+04</pdfrwt>
<pdfrwt beam="2">  1       -1 0.24638826E+00 0.22970974E+04</pdfrwt>
<totfact> 0.14035668E+00</totfact>
</mgrwt>
</event>
<event>
 6    1  0.9988873E-007  0.1087360E+04  0.7818608E-02  0.9217600E-01
          2   -1    0    0  501    0  0.00000000000E+00  0.00000000000E+00  0.72168167883E+03  0.72168167883E+03  0.00000000000E+00 0. -1.
         -2   -1    0    0    0  501 -0.00000000000E+00 -0.00000000000E+00 -0.40958183470E+03  0.40958183470E+03  0.00000000000E+00 0.  1.
         23    2    1    2    0    0 -0.26884504692E+03  0.31604666067E+02  0.64309389043E+03  0.70367308701E+03  0.91156718348E+02 0.  0.
         13    1    3    3    0    0 -0.13099493763E+03  0.50147590798E+02  0.24949445837E+03  0.28622008892E+03  0.00000000000E+00 0. -1.
        -13    1    3    3    0    0 -0.13785010928E+03 -0.18542924731E+02  0.39359943206E+03  0.41745299808E+03  0.00000000000E+00 0.  1.
         22    1    1    2    0    0  0.26884504692E+03 -0.31604666067E+02 -0.33099404631E+03  0.42759042653E+03  0.00000000000E+00 0.  1.
<mgrwt>
<rscale>  0 0.10873596E+04</rscale>
<asrwt>0</asrwt>
<pdfrwt beam="1">  1        2 0.11102795E+00 0.10873596E+04</pdfrwt>
<pdfrwt beam="2">  1       -2 0.63012590E-01 0.10873596E+04</pdfrwt>
<totfact> 0.91422151E+01</totfact>
</mgrwt>
</event>
<event>
 6    1  0.9988873E-007  0.4042896E+04  0.7818608E-02  0.7995949E-01
         -1   -1    0    0    0  501 -0.00000000000E+00  0.00000000000E+00  0.16043017403E+04  0.16043017403E+04  0.00000000000E+00 0.  1.
          1   -1    0    0  501    0  0.00000000000E+00 -0.00000000000E+00 -0.25470595792E+04  0.25470595792E+04  0.00000000000E+00 0. -1.
         23    2    1    2    0    0 -0.56562022069E+03 -0.19304159352E+04 -0.27745519116E+03  0.20326212387E+04  0.90198670126E+02 0.  0.
         11    1    3    3    0    0 -0.29290629499E+03 -0.99537579419E+03 -0.97617045404E+02  0.10421593721E+04  0.00000000000E+00 0. -1.
        -11    1    3    3    0    0 -0.27271392570E+03 -0.93504014102E+03 -0.17983814576E+03  0.99046186664E+03  0.00000000000E+00 0.  1.
         22    1    1    2    0    0  0.56562022069E+03  0.19304159352E+04 -0.66530264772E+03  0.21187400808E+04  0.00000000000E+00 0. -1.
<mgrwt>
<rscale>  0 0.40428960E+04</rscale>
<asrwt>0</asrwt>
<pdfrwt beam="1">  1        1 0.39185532E+00 0.40428960E+04</pdfrwt>
<pdfrwt beam="2">  1       -1 0.24681565E+00 0.40428960E+04</pdfrwt>
<totfact> 0.71672581E-02</totfact>
</mgrwt>
</event>
<event>
 6    1  0.9988873E-007  0.5013450E+04  0.7818608E-02  0.7826436E-01
          1   -1    0    0  501    0  0.00000000000E+00  0.00000000000E+00  0.29069932184E+04  0.29069932184E+04  0.00000000000E+00 0. -1.
         -1   -1    0    0    0  501 -0.00000000000E+00 -0.00000000000E+00 -0.21615699243E+04  0.21615699243E+04  0.00000000000E+00 0.  1.
         23    2    1    2    0    0  0.24616743088E+02  0.13849334509E+04  0.24842966291E+04  0.28454286162E+04  0.78023208267E+02 0.  0.
         13    1    3    3    0    0  0.39968258846E+02  0.88550674242E+03  0.16467092343E+04  0.18701259196E+04  0.00000000000E+00 0.  1.
        -13    1    3    3    0    0 -0.15351515758E+02  0.49942670850E+03  0.83758739480E+03  0.97530269666E+03  0.00000000000E+00 0. -1.
         22    1    1    2    0    0 -0.24616743088E+02 -0.13849334509E+04 -0.17388733351E+04  0.22231345265E+04  0.00000000000E+00 0.  1.
<mgrwt>
<rscale>  0 0.50134496E+04</rscale>
<asrwt>0</asrwt>
<pdfrwt beam="1">  1        1 0.44722973E+00 0.50134496E+04</pdfrwt>
<pdfrwt beam="2">  1       -1 0.33254922E+00 0.50134496E+04</pdfrwt>
<totfact> 0.10201362E-02</totfact>
</mgrwt>
</event>
<event>
 6    1  0.9988873E-007  0.1032965E+04  0.7818608E-02  0.9273110E-01
          2   -1    0    0  501    0  0.00000000000E+00  0.00000000000E+00  0.12561964988E+04  0.12561964988E+04  0.00000000000E+00 0. -1.
         -2   -1    0    0    0  501 -0.00000000000E+00 -0.00000000000E+00 -0.21235079984E+03  0.21235079984E+03  0.00000000000E+00 0.  1.
         23    2    1    2    0    0 -0.30159660609E+03  0.40063064202E+03  0.67601294014E+03  0.84664186968E+03  0.91342958865E+02 0.  0.
         11    1    3    3    0    0 -0.54560201019E+02  0.13918092582E+03  0.21622549097E+03  0.26287184823E+03  0.00000000000E+00 0.  1.
        -11    1    3    3    0    0 -0.24703640507E+03  0.26144971619E+03  0.45978744917E+03  0.58377002145E+03  0.00000000000E+00 0. -1.
         22    1    1    2    0    0  0.30159660609E+03 -0.40063064202E+03  0.36783275885E+03  0.62190542899E+03  0.00000000000E+00 0.  1.
<mgrwt>
<rscale>  0 0.10329653E+04</rscale>
<asrwt>0</asrwt>
<pdfrwt beam="1">  1        2 0.19326100E+00 0.10329653E+04</pdfrwt>
<pdfrwt beam="2">  1       -2 0.32669355E-01 0.10329653E+04</pdfrwt>
<totfact> 0.15250625E+02</totfact>
</mgrwt>
</event>
<event>
 6    1  0.9988873E-007  0.9327537E+03  0.7818608E-02  0.9385539E-01
          2   -1    0    0  501    0  0.00000000000E+00  0.00000000000E+00  0.69358425206E+03  0.69358425206E+03  0.00000000000E+00 0. -1.
         -2   -1    0    0    0  501 -0.00000000000E+00 -0.00000000000E+00 -0.31359904358E+03  0.31359904358E+03  0.00000000000E+00 0.  1.
         23    2    1    2    0    0  0.41143295251E+03  0.69530894104E+02 -0.23073669080E+02  0.42703841854E+03  0.87850993477E+02 0.  0.
         13    1    3    3    0    0  0.33066144647E+03  0.20722767520E+02 -0.28329453039E+02  0.33251914710E+03  0.00000000000E+00 0.  1.
        -13    1    3    3    0    0  0.80771506037E+02  0.48808126584E+02  0.52557839596E+01  0.94519271438E+02  0.00000000000E+00 0. -1.
         22    1    1    2    0    0 -0.41143295251E+03 -0.69530894104E+02  0.40305887756E+03  0.58014487710E+03  0.00000000000E+00 0. -1.
<mgrwt>
<rscale>  0 0.93275368E+03</rscale>
<asrwt>0</asrwt>
<pdfrwt beam="1">  1        2 0.10670527E+00 0.93275368E+03</pdfrwt>
<pdfrwt beam="2">  1       -2 0.48246007E-01 0.93275368E+03</pdfrwt>
<totfact> 0.16898476E+02</totfact>
</mgrwt>
</event>
<event>
 6    1  0.9988873E-007  0.3319184E+04  0.7818608E-02  0.8158031E-01
          2   -1    0    0  501    0  0.00000000000E+00  0.00000000000E+00  0.23308343180E+04  0.23308343180E+04  0.00000000000E+00 0. -1.
         -2   -1    0    0    0  501 -0.00000000000E+00 -0.00000000000E+00 -0.11816562311E+04  0.11816562311E+04  0.00000000000E+00 0.  1.
         23    2    1    2    0    0  0.13093231763E+03  0.16192242653E+04  0.93014743799E+03  0.18732819236E+04  0.70572061045E+02 0.  0.
         11    1    3    3    0    0  0.76692146704E+02  0.12763322570E+04  0.74495766119E+03  0.14798201352E+04  0.00000000000E+00 0.  1.
        -11    1    3    3    0    0  0.54240170922E+02  0.34289200824E+03  0.18518977680E+03  0.39346178834E+03  0.00000000000E+00 0. -1.
         22    1    1    2    0    0 -0.13093231763E+03 -0.16192242653E+04  0.21903064890E+03  0.16392086256E+04  0.00000000000E+00 0.  1.
<mgrwt>
<rscale>  0 0.33191836E+04</rscale>
<asrwt>0</asrwt>
<pdfrwt beam="1">  1        2 0.35858989E+00 0.33191836E+04</pdfrwt>
<pdfrwt beam="2">  1       -2 0.18179327E+00 0.33191836E+04</pdfrwt>
<totfact> 0.63988908E-01</totfact>
</mgrwt>
</event>
<event>
 6    1  0.9988873E-007  0.3546919E+04  0.7818608E-02  0.8102760E-01
         -2   -1    0    0    0  501 -0.00000000000E+00  0.00000000000E+00  0.16670282157E+04  0.16670282157E+04  0.00000000000E+00 0.  1.
          2   -1    0    0  501    0  0.00000000000E+00 -0.00000000000E+00 -0.18866858512E+04  0.18866858512E+04  0.00000000000E+00 0. -1.
         23    2    1    2    0    0 -0.14338175575E+03 -0.11800068861E+04  0.12071893592E+04  0.16966015432E+04  0.90421613273E+02 0.  0.
         13    1    3    3    0    0 -0.55151859772E+02 -0.58106436435E+03  0.53210541701E+03  0.78981877539E+03  0.00000000000E+00 0. -1.
        -13    1    3    3    0    0 -0.88229895974E+02 -0.59894252175E+03  0.67508394222E+03  0.90678276778E+03  0.00000000000E+00 0.  1.
         22    1    1    2    0    0  0.14338175575E+03  0.11800068861E+04 -0.14268469948E+04  0.18571125237E+04  0.00000000000E+00 0. -1.
<mgrwt>
<rscale>  0 0.35469190E+04</rscale>
<asrwt>0</asrwt>
<pdfrwt beam="1">  1        2 0.29025936E+00 0.35469190E+04</pdfrwt>
<pdfrwt beam="2">  1       -2 0.25646588E+00 0.35469190E+04</pdfrwt>
<totfact> 0.37080120E-01</totfact>
</mgrwt>
</event>
<event>
 6    1  0.9988873E-007  0.2527665E+04  0.7818608E-02  0.8393195E-01
         -2   -1    0    0    0  501 -0.00000000000E+00  0.00000000000E+00  0.95020761027E+03  0.95020761027E+03  0.00000000000E+00 0.  1.
          2   -1    0    0  501    0  0.00000000000E+00 -0.00000000000E+00 -0.16809723428E+04  0.16809723428E+04  0.00000000000E+00 0. -1.
         23    2    1    2    0    0  0.10119608375E+04  0.59293056784E+03 -0.85106235814E+03  0.14521536965E+04  0.93871326602E+02 0.  0.
         11    1    3    3    0    0  0.26237327447E+03  0.11887607124E+03 -0.17600487959E+03  0.33756328756E+03  0.00000000000E+00 0.  1.
        -11    1    3    3    0    0  0.74958756303E+03  0.47405449660E+03 -0.67505747855E+03  0.11145904090E+04  0.00000000000E+00 0. -1.
         22    1    1    2    0    0 -0.10119608375E+04 -0.59293056784E+03  0.12029762561E+03  0.11790262566E+04  0.00000000000E+00 0.  1.
<mgrwt>
<rscale>  0 0.25276651E+04</rscale>
<asrwt>0</asrwt>
<pdfrwt beam="1">  1        2 0.25861113E+00 0.25276651E+04</pdfrwt>
<pdfrwt beam="2">  1       -2 0.14618579E+00 0.25276651E+04</pdfrwt>
<totfact> 0.28685141E+00</totfact>
</mgrwt>
</event>
<event>
 6    1  0.9988873E-007  0.1662940E+04  0.7818608E-02  0.8782788E-01
          2   -1    0    0  501    0  0.00000000000E+00  0.00000000000E+00  0.51546712907E+03  0.51546712907E+03  0.00000000000E+00 0. -1.
         -2   -1    0    0    0  501 -0.00000000000E+00 -0.00000000000E+00 -0.13411962182E+04  0.13411962182E+04  0.00000000000E+00 0.  1.
         23    2    1    2    0    0 -0.32581893727E+03 -0.43771026058E+03  0.28297855300E+03  0.62095266600E+03  0.88074399539E+02 0.  0.
         11    1    3    3    0    0 -0.17533474156E+03 -0.23224282146E+03  0.10135063562E+03  0.30814112198E+03  0.00000000000E+00 0.  1.
        -11    1    3    3    0    0 -0.15048419571E+03 -0.20546743912E+03  0.18162791738E+03  0.31281154401E+03  0.00000000000E+00 0. -1.
         22    1    1    2    0    0  0.32581893727E+03  0.43771026058E+03 -0.11087076422E+04  0.12357106813E+04  0.00000000000E+00 0.  1.
<mgrwt>
<rscale>  0 0.16629402E+04</rscale>
<asrwt>0</asrwt>
<pdfrwt beam="1">  1        2 0.79302636E-01 0.16629402E+04</pdfrwt>
<pdfrwt beam="2">  1       -2 0.20633788E+00 0.16629402E+04</pdfrwt>
<totfact> 0.68511949E+00</totfact>
</mgrwt>
</event>
<event>
 6    1  0.9988873E-007  0.3165993E+04  0.7818608E-02  0.8197856E-01
          1   -1    0    0  501    0  0.00000000000E+00  0.00000000000E+00  0.30195811309E+04  0.30195811309E+04  0.00000000000E+00 0. -1.
         -1   -1    0    0    0  501 -0.00000000000E+00 -0.00000000000E+00 -0.82987625957E+03  0.82987625957E+03  0.00000000000E+00 0.  1.
         23    2    1    2    0    0 -0.36655011335E+03 -0.14462052165E+04  0.45700033300E+03  0.15629461767E+04  0.89905133609E+02 0.  0.
         11    1    3    3    0    0 -0.26352618192E+03 -0.87616416714E+03  0.29802140453E+03  0.96225072299E+03  0.00000000000E+00 0.  1.
        -11    1    3    3    0    0 -0.10302393143E+03 -0.57004104932E+03  0.15897892846E+03  0.60069545367E+03  0.00000000000E+00 0. -1.
         22    1    1    2    0    0  0.36655011335E+03  0.14462052165E+04  0.17327045384E+04  0.22865112138E+04  0.00000000000E+00 0. -1.
<mgrwt>
<rscale>  0 0.31659935E+04</rscale>
<asrwt>0</asrwt>
<pdfrwt beam="1">  1        1 0.46455094E+00 0.31659935E+04</pdfrwt>
<pdfrwt beam="2">  1       -1 0.12767327E+00 0.31659935E+04</pdfrwt>
<totfact> 0.25735751E-01</totfact>
</mgrwt>
</event>
<event>
 6    1  0.9988873E-007  0.2039203E+04  0.7818608E-02  0.8588508E-01
          1   -1    0    0  501    0  0.00000000000E+00  0.00000000000E+00  0.23583884785E+04  0.23583884785E+04  0.00000000000E+00 0. -1.
         -1   -1    0    0    0  501 -0.00000000000E+00 -0.00000000000E+00 -0.44080402106E+03  0.44080402106E+03  0.00000000000E+00 0.  1.
         23    2    1    2    0    0  0.28599133998E+03 -0.11438846117E+03  0.22919384305E+04  0.23144073268E+04  0.92864087371E+02 0.  0.
         11    1    3    3    0    0  0.48492747968E+01 -0.18463105754E+02  0.28088265463E+03  0.28153057989E+03  0.00000000000E+00 0.  1.
        -11    1    3    3    0    0  0.28114206518E+03 -0.95925355419E+02  0.20110557759E+04  0.20328767470E+04  0.00000000000E+00 0. -1.
         22    1    1    2    0    0 -0.28599133998E+03  0.11438846117E+03 -0.37435397303E+03  0.48478517274E+03  0.00000000000E+00 0.  1.
<mgrwt>
<rscale>  0 0.20392029E+04</rscale>
<asrwt>0</asrwt>
<pdfrwt beam="1">  1        1 0.36282899E+00 0.20392029E+04</pdfrwt>
<pdfrwt beam="2">  1       -1 0.67816005E-01 0.20392029E+04</pdfrwt>
<totfact> 0.34549844E+00</totfact>
</mgrwt>
</event>
<event>
 6    1  0.9988873E-007  0.2515057E+04  0.7818608E-02  0.8397641E-01
          1   -1    0    0  501    0  0.00000000000E+00  0.00000000000E+00  0.21078579046E+04  0.21078579046E+04  0.00000000000E+00 0. -1.
         -1   -1    0    0    0  501 -0.00000000000E+00 -0.00000000000E+00 -0.75022992748E+03  0.75022992748E+03  0.00000000000E+00 0.  1.
         23    2    1    2    0    0  0.11042983115E+04 -0.33370443604E+03  0.11559216762E+03  0.11629517422E+04  0.90894411697E+02 0.  0.
         13    1    3    3    0    0  0.53214822122E+03 -0.20363357411E+03  0.76654048972E+02  0.57491234556E+03  0.00000000000E+00 0.  1.
        -13    1    3    3    0    0  0.57215009023E+03 -0.13007086193E+03  0.38938118651E+02  0.58803939660E+03  0.00000000000E+00 0. -1.
         22    1    1    2    0    0 -0.11042983115E+04  0.33370443604E+03  0.12420358095E+04  0.16951360900E+04  0.00000000000E+00 0. -1.
<mgrwt>
<rscale>  0 0.25150571E+04</rscale>
<asrwt>0</asrwt>
<pdfrwt beam="1">  1        1 0.32428583E+00 0.25150571E+04</pdfrwt>
<pdfrwt beam="2">  1       -1 0.11541999E+00 0.25150571E+04</pdfrwt>
<totfact> 0.15193250E+00</totfact>
</mgrwt>
</event>
<event>
 6    1  0.9988873E-007  0.1760643E+04  0.7818608E-02  0.8727513E-01
         -2   -1    0    0    0  501 -0.00000000000E+00  0.00000000000E+00  0.38776411305E+03  0.38776411305E+03  0.00000000000E+00 0.  1.
          2   -1    0    0  501    0  0.00000000000E+00 -0.00000000000E+00 -0.19985508743E+04  0.19985508743E+04  0.00000000000E+00 0. -1.
         23    2    1    2    0    0 -0.74755176958E+03 -0.42525060424E+03 -0.56812591157E+03  0.10347183863E+04  0.90572417696E+02 0.  0.
         11    1    3    3    0    0 -0.68739285468E+03 -0.38745573951E+03 -0.48867341248E+03  0.92813392935E+03  0.00000000000E+00 0.  1.
        -11    1    3    3    0    0 -0.60158914896E+02 -0.37794864729E+02 -0.79452499093E+02  0.10658445690E+03  0.00000000000E+00 0. -1.
         22    1    1    2    0    0  0.74755176958E+03  0.42525060424E+03 -0.10426608497E+04  0.13515966011E+04  0.00000000000E+00 0. -1.
<mgrwt>
<rscale>  0 0.17606434E+04</rscale>
<asrwt>0</asrwt>
<pdfrwt beam="1">  1        2 0.30746936E+00 0.17606434E+04</pdfrwt>
<pdfrwt beam="2">  1       -2 0.59656018E-01 0.17606434E+04</pdfrwt>
<totfact> 0.16619256E+01</totfact>
</mgrwt>
</event>
<event>
 6    1  0.9988873E-007  0.2533638E+04  0.7818608E-02  0.8391099E-01
         -2   -1    0    0    0  501 -0.00000000000E+00  0.00000000000E+00  0.41505806164E+03  0.41505806164E+03  0.00000000000E+00 0.  1.
          2   -1    0    0  501    0  0.00000000000E+00 -0.00000000000E+00 -0.38665191879E+04  0.38665191879E+04  0.00000000000E+00 0. -1.
         23    2    1    2    0    0 -0.39776943727E+03  0.50424780166E+03  0.11408026919E+03  0.65865414611E+03  0.91239276960E+02 0.  0.
         11    1    3    3    0    0 -0.14454041093E+03  0.24291002202E+03  0.76436048130E+02  0.29281338536E+03  0.00000000000E+00 0. -1.
        -11    1    3    3    0    0 -0.25322902634E+03  0.26133777964E+03  0.37644221064E+02  0.36584076075E+03  0.00000000000E+00 0.  1.
         22    1    1    2    0    0  0.39776943727E+03 -0.50424780166E+03 -0.35655413954E+04  0.36229231034E+04  0.00000000000E+00 0. -1.
<mgrwt>
<rscale>  0 0.25336377E+04</rscale>
<asrwt>0</asrwt>
<pdfrwt beam="1">  1        2 0.59484911E+00 0.25336377E+04</pdfrwt>
<pdfrwt beam="2">  1       -2 0.63855086E-01 0.25336377E+04</pdfrwt>
<totfact> 0.88286430E-01</totfact>
</mgrwt>
</event>
<event>
 6    1  0.9988873E-007  0.3444238E+04  0.7818608E-02  0.8127133E-01
          1   -1    0    0  501    0  0.00000000000E+00  0.00000000000E+00  0.21698067900E+04  0.21698067900E+04  0.00000000000E+00 0. -1.
         -1   -1    0    0    0  501 -0.00000000000E+00 -0.00000000000E+00 -0.13668008309E+04  0.13668008309E+04  0.00000000000E+00 0.  1.
         23    2    1    2    0    0  0.91305342736E+03  0.12978039395E+04  0.10850175763E+04  0.19249339012E+04  0.10072614715E+03 0.  0.
         11    1    3    3    0    0  0.55990988877E+03  0.80816746585E+03  0.73031584437E+03  0.12247428175E+04  0.00000000000E+00 0. -1.
        -11    1    3    3    0    0  0.35314353859E+03  0.48963647363E+03  0.35470173189E+03  0.70019108375E+03  0.00000000000E+00 0.  1.
         22    1    1    2    0    0 -0.91305342736E+03 -0.12978039395E+04 -0.28201161714E+03  0.16116737197E+04  0.00000000000E+00 0. -1.
<mgrwt>
<rscale>  0 0.34442379E+04</rscale>
<asrwt>0</asrwt>
<pdfrwt beam="1">  1        1 0.33381643E+00 0.34442379E+04</pdfrwt>
<pdfrwt beam="2">  1       -1 0.21027705E+00 0.34442379E+04</pdfrwt>
<totfact> 0.23967757E-01</totfact>
</mgrwt>
</event>
<event>
 6    1  0.9988873E-007  0.1750763E+04  0.7818608E-02  0.8732930E-01
         -2   -1    0    0    0  501 -0.00000000000E+00  0.00000000000E+00  0.12079107127E+04  0.12079107127E+04  0.00000000000E+00 0.  1.
          2   -1    0    0  501    0  0.00000000000E+00 -0.00000000000E+00 -0.63439549796E+03  0.63439549796E+03  0.00000000000E+00 0. -1.
         23    2    1    2    0    0 -0.22574654560E+03  0.86662690431E+02  0.11701878614E+04  0.11984970992E+04  0.92648481017E+02 0.  0.
         13    1    3    3    0    0 -0.12047226499E+03  0.51346571229E+02  0.41452476178E+03  0.43471923713E+03  0.00000000000E+00 0.  1.
        -13    1    3    3    0    0 -0.10527428061E+03  0.35316119201E+02  0.75566309961E+03  0.76377786204E+03  0.00000000000E+00 0. -1.
         22    1    1    2    0    0  0.22574654560E+03 -0.86662690431E+02 -0.59667264665E+03  0.64380911148E+03  0.00000000000E+00 0. -1.
<mgrwt>
<rscale>  0 0.17507634E+04</rscale>
<asrwt>0</asrwt>
<pdfrwt beam="1">  1        2 0.97599307E-01 0.17507634E+04</pdfrwt>
<pdfrwt beam="2">  1       -2 0.18583242E+00 0.17507634E+04</pdfrwt>
<totfact> 0.72560707E+00</totfact>
</mgrwt>
</event>
<event>
 6    1  0.9988873E-007  0.1096012E+04  0.7818608E-02  0.9209088E-01
         -2   -1    0    0    0  501 -0.00000000000E+00  0.00000000000E+00  0.14682186413E+04  0.14682186413E+04  0.00000000000E+00 0.  1.
          2   -1    0    0  501    0  0.00000000000E+00 -0.00000000000E+00 -0.20454069891E+03  0.20454069891E+03  0.00000000000E+00 0. -1.
         23    2    1    2    0    0  0.78021093986E+02 -0.51495946758E+03  0.87589804810E+03  0.10234182967E+04  0.94430265372E+02 0.  0.
         11    1    3    3    0    0 -0.16580610283E+02 -0.19088846413E+03  0.30655894666E+03  0.36151308434E+03  0.00000000000E+00 0.  1.
        -11    1    3    3    0    0  0.94601704269E+02 -0.32407100345E+03  0.56933910144E+03  0.66190521237E+03  0.00000000000E+00 0. -1.
         22    1    1    2    0    0 -0.78021093986E+02  0.51495946758E+03  0.38777989429E+03  0.64934104350E+03  0.00000000000E+00 0. -1.
<mgrwt>
<rscale>  0 0.10960118E+04</rscale>
<asrwt>0</asrwt>
<pdfrwt beam="1">  1        2 0.31467801E-01 0.10960118E+04</pdfrwt>
<pdfrwt beam="2">  1       -2 0.22587978E+00 0.10960118E+04</pdfrwt>
<totfact> 0.15231664E+01</totfact>
</mgrwt>
</event>
<event>
 6    1  0.9988873E-007  0.8628592E+03  0.7818608E-02  0.9473238E-01
         -2   -1    0    0    0  501 -0.00000000000E+00  0.00000000000E+00  0.11738012967E+03  0.11738012967E+03  0.00000000000E+00 0.  1.
          2   -1    0    0  501    0  0.00000000000E+00 -0.00000000000E+00 -0.15857156269E+04  0.15857156269E+04  0.00000000000E+00 0. -1.
         23    2    1    2    0    0 -0.62538734445E+02 -0.30596504336E+02 -0.15731138573E+04  0.15772953426E+04  0.91247741938E+02 0.  0.
         13    1    3    3    0    0 -0.43269585382E+01 -0.20949845218E+02 -0.11377520501E+04  0.11379531388E+04  0.00000000000E+00 0.  1.
        -13    1    3    3    0    0 -0.58211775906E+02 -0.96466591177E+01 -0.43536180726E+03  0.43934220387E+03  0.00000000000E+00 0. -1.
         22    1    1    2    0    0  0.62538734445E+02  0.30596504336E+02  0.10477836013E+03  0.12580041389E+03  0.00000000000E+00 0.  1.
<mgrwt>
<rscale>  0 0.86285921E+03</rscale>
<asrwt>0</asrwt>
<pdfrwt beam="1">  1        2 0.24395624E+00 0.86285921E+03</pdfrwt>
<pdfrwt beam="2">  1       -2 0.18058482E-01 0.86285921E+03</pdfrwt>
<totfact> 0.29179344E+02</totfact>
</mgrwt>
</event>
<event>
 6    1  0.9988873E-007  0.1271927E+04  0.7818608E-02  0.9052129E-01
          1   -1    0    0  501    0  0.00000000000E+00  0.00000000000E+00  0.67938586312E+03  0.67938586312E+03  0.00000000000E+00 0. -1.
         -1   -1    0    0    0  501 -0.00000000000E+00 -0.00000000000E+00 -0.59531623961E+03  0.59531623961E+03  0.00000000000E+00 0.  1.
         23    2    1    2    0    0 -0.61477669115E+02  0.16498871868E+03 -0.56675838840E+03  0.60047819173E+03  0.91423229156E+02 0.  0.
         13    1    3    3    0    0 -0.69683888134E+02  0.15579003028E+03 -0.42211227098E+03  0.45530774989E+03  0.00000000000E+00 0.  1.
        -13    1    3    3    0    0  0.82062190195E+01  0.91986884054E+01 -0.14464611742E+03  0.14517044183E+03  0.00000000000E+00 0. -1.
         22    1    1    2    0    0  0.61477669115E+02 -0.16498871868E+03  0.65082801190E+03  0.67422391100E+03  0.00000000000E+00 0. -1.
<mgrwt>
<rscale>  0 0.12719268E+04</rscale>
<asrwt>0</asrwt>
<pdfrwt beam="1">  1        1 0.10452090E+00 0.12719268E+04</pdfrwt>
<pdfrwt beam="2">  1       -1 0.91587114E-01 0.12719268E+04</pdfrwt>
<totfact> 0.32631564E+01</totfact>
</mgrwt>
</event>
<event>
 6    1  0.9988873E-007  0.3402195E+04  0.7818608E-02  0.8137368E-01
         -2   -1    0    0    0  501 -0.00000000000E+00  0.00000000000E+00  0.13944580537E+04  0.13944580537E+04  0.00000000000E+00 0.  1.
          2   -1    0    0  501    0  0.00000000000E+00 -0.00000000000E+00 -0.20751666911E+04  0.20751666911E+04  0.00000000000E+00 0. -1.
         23    2    1    2    0    0  0.73804865334E+03 -0.13222553448E+04 -0.11284020122E+04  0.18905413495E+04  0.88207039104E+02 0.  0.
         11    1    3    3    0    0  0.71206052595E+03 -0.12418062820E+04 -0.10794038654E+04  0.17928261877E+04  0.00000000000E+00 0.  1.
        -11    1    3    3    0    0  0.25988127383E+02 -0.80449062786E+02 -0.48998146766E+02  0.97715161846E+02  0.00000000000E+00 0. -1.
         22    1    1    2    0    0 -0.73804865334E+03  0.13222553448E+04  0.44769337469E+03  0.15790833953E+04  0.00000000000E+00 0.  1.
<mgrwt>
<rscale>  0 0.34021951E+04</rscale>
<asrwt>0</asrwt>
<pdfrwt beam="1">  1        2 0.31925641E+00 0.34021951E+04</pdfrwt>
<pdfrwt beam="2">  1       -2 0.21453201E+00 0.34021951E+04</pdfrwt>
<totfact> 0.53813404E-01</totfact>
</mgrwt>
</event>
<event>
 6    1  0.9988873E-007  0.1978723E+04  0.7818608E-02  0.8616634E-01
         -2   -1    0    0    0  501 -0.00000000000E+00  0.00000000000E+00  0.23071808589E+03  0.23071808589E+03  0.00000000000E+00 0.  1.
          2   -1    0    0  501    0  0.00000000000E+00 -0.00000000000E+00 -0.42425624428E+04  0.42425624428E+04  0.00000000000E+00 0. -1.
         23    2    1    2    0    0 -0.97714100672E+03  0.74794132065E+02 -0.22824820653E+04  0.24855449716E+04  0.88378268136E+02 0.  0.
         13    1    3    3    0    0 -0.42359029975E+03  0.92445280701E+01 -0.89267341161E+03  0.98811943769E+03  0.00000000000E+00 0.  1.
        -13    1    3    3    0    0 -0.55355070697E+03  0.65549603995E+02 -0.13898086537E+04  0.14974255340E+04  0.00000000000E+00 0. -1.
         22    1    1    2    0    0  0.97714100672E+03 -0.74794132065E+02 -0.17293622915E+04  0.19877355570E+04  0.00000000000E+00 0.  1.
<mgrwt>
<rscale>  0 0.19787227E+04</rscale>
<asrwt>0</asrwt>
<pdfrwt beam="1">  1        2 0.65270188E+00 0.19787227E+04</pdfrwt>
<pdfrwt beam="2">  1       -2 0.35495092E-01 0.19787227E+04</pdfrwt>
<totfact> 0.15017648E+00</totfact>
</mgrwt>
</event>
<event>
 6    1  0.9988873E-007  0.2534780E+04  0.7818608E-02  0.8390699E-01
          1   -1    0    0  501    0  0.00000000000E+00  0.00000000000E+00  0.17498103920E+04  0.17498103920E+04  0.00000000000E+00 0. -1.
         -1   -1    0    0    0  501 -0.00000000000E+00 -0.00000000000E+00 -0.91797209990E+03  0.91797209990E+03  0.00000000000E+00 0.  1.
         23    2    1    2    0    0  0.25168377890E+03 -0.97623679145E+03 -0.38892681359E+03  0.10845420045E+04  0.92651474625E+02 0.  0.
         11    1    3    3    0    0  0.20485433755E+03 -0.63891512364E+03 -0.23629731448E+03  0.71134679001E+03  0.00000000000E+00 0. -1.
        -11    1    3    3    0    0  0.46829441346E+02 -0.33732166781E+03 -0.15262949911E+03  0.37319521453E+03  0.00000000000E+00 0.  1.
         22    1    1    2    0    0 -0.25168377890E+03  0.97623679145E+03  0.12207651057E+04  0.15832404874E+04  0.00000000000E+00 0. -1.
<mgrwt>
<rscale>  0 0.25347798E+04</rscale>
<asrwt>0</asrwt>
<pdfrwt beam="1">  1        1 0.26920160E+00 0.25347798E+04</pdfrwt>
<pdfrwt beam="2">  1       -1 0.14122648E+00 0.25347798E+04</pdfrwt>
<totfact> 0.15992203E+00</totfact>
</mgrwt>
</event>
<event>
 6    1  0.1306465E-006  0.3053342E+04  0.7818608E-02  0.8228661E-01
         -2   -1    0    0    0  501 -0.00000000000E+00  0.00000000000E+00  0.15691439476E+04  0.15691439476E+04  0.00000000000E+00 0.  1.
          2   -1    0    0  501    0  0.00000000000E+00 -0.00000000000E+00 -0.14853480755E+04  0.14853480755E+04  0.00000000000E+00 0. -1.
         23    2    1    2    0    0 -0.73580337778E+03 -0.31133310138E+03 -0.12578673425E+04  0.14929558909E+04  0.91389988929E+02 0.  0.
         11    1    3    3    0    0 -0.18323392542E+03 -0.11540612420E+03 -0.37855576261E+03  0.43611662469E+03  0.00000000000E+00 0.  1.
        -11    1    3    3    0    0 -0.55256945235E+03 -0.19592697718E+03 -0.87931157984E+03  0.10568392662E+04  0.00000000000E+00 0. -1.
         22    1    1    2    0    0  0.73580337778E+03  0.31133310138E+03  0.13416632146E+04  0.15615361322E+04  0.00000000000E+00 0.  1.
<mgrwt>
<rscale>  0 0.30533424E+04</rscale>
<asrwt>0</asrwt>
<pdfrwt beam="1">  1        2 0.22851509E+00 0.30533424E+04</pdfrwt>
<pdfrwt beam="2">  1       -2 0.24140676E+00 0.30533424E+04</pdfrwt>
<totfact> 0.80064990E-01</totfact>
</mgrwt>
</event>
<event>
 6    1  0.9988873E-007  0.5425588E+04  0.7818608E-02  0.7766012E-01
         -1   -1    0    0    0  501 -0.00000000000E+00  0.00000000000E+00  0.20110188157E+04  0.20110188157E+04  0.00000000000E+00 0.  1.
          1   -1    0    0  501    0  0.00000000000E+00 -0.00000000000E+00 -0.36594639242E+04  0.36594639242E+04  0.00000000000E+00 0. -1.
         23    2    1    2    0    0 -0.13372927987E+04  0.12939052120E+04 -0.28864505187E+04  0.34354883052E+04  0.91872583246E+02 0.  0.
         13    1    3    3    0    0 -0.87250098137E+03  0.88439187416E+03 -0.18659639017E+04  0.22417020837E+04  0.00000000000E+00 0.  1.
        -13    1    3    3    0    0 -0.46479181734E+03  0.40951333782E+03 -0.10204866170E+04  0.11937862215E+04  0.00000000000E+00 0. -1.
         22    1    1    2    0    0  0.13372927987E+04 -0.12939052120E+04  0.12380054102E+04  0.22349944346E+04  0.00000000000E+00 0.  1.
<mgrwt>
<rscale>  0 0.54255878E+04</rscale>
<asrwt>0</asrwt>
<pdfrwt beam="1">  1        1 0.56299444E+00 0.54255878E+04</pdfrwt>
<pdfrwt beam="2">  1       -1 0.30938752E+00 0.54255878E+04</pdfrwt>
<totfact> 0.37248710E-03</totfact>
</mgrwt>
</event>
<event>
 6    1  0.9988873E-007  0.1416453E+04  0.7818608E-02  0.8941995E-01
          1   -1    0    0  501    0  0.00000000000E+00  0.00000000000E+00  0.19030620000E+04  0.19030620000E+04  0.00000000000E+00 0. -1.
         -1   -1    0    0    0  501 -0.00000000000E+00 -0.00000000000E+00 -0.26356709242E+03  0.26356709242E+03  0.00000000000E+00 0.  1.
         23    2    1    2    0    0 -0.29732318170E+03  0.48036758342E+03  0.17727116649E+03  0.59906653909E+03  0.91112909164E+02 0.  0.
         13    1    3    3    0    0 -0.79374246499E+02  0.21190936572E+03  0.77037728295E+02  0.23904113008E+03  0.00000000000E+00 0. -1.
        -13    1    3    3    0    0 -0.21794893520E+03  0.26845821769E+03  0.10023343819E+03  0.36002540901E+03  0.00000000000E+00 0.  1.
         22    1    1    2    0    0  0.29732318170E+03 -0.48036758342E+03  0.14622237411E+04  0.15675625533E+04  0.00000000000E+00 0. -1.
<mgrwt>
<rscale>  0 0.14164526E+04</rscale>
<asrwt>0</asrwt>
<pdfrwt beam="1">  1        1 0.29277876E+00 0.14164526E+04</pdfrwt>
<pdfrwt beam="2">  1       -1 0.40548785E-01 0.14164526E+04</pdfrwt>
<totfact> 0.20070258E+01</totfact>
</mgrwt>
</event>
<event>
 6    1  0.9988873E-007  0.3231170E+04  0.7818608E-02  0.8180633E-01
          2   -1    0    0  501    0  0.00000000000E+00  0.00000000000E+00  0.23003226256E+04  0.23003226256E+04  0.00000000000E+00 0. -1.
         -2   -1    0    0    0  501 -0.00000000000E+00 -0.00000000000E+00 -0.11346736443E+04  0.11346736443E+04  0.00000000000E+00 0.  1.
         23    2    1    2    0    0  0.31679496359E+03  0.11699975679E+04 -0.55002578904E+03  0.13343313095E+04  0.93050078914E+02 0.  0.
         11    1    3    3    0    0  0.18187845219E+03  0.76427996191E+03 -0.39678560885E+03  0.88013774543E+03  0.00000000000E+00 0.  1.
        -11    1    3    3    0    0  0.13491651140E+03  0.40571760599E+03 -0.15324018019E+03  0.45419356412E+03  0.00000000000E+00 0. -1.
         22    1    1    2    0    0 -0.31679496359E+03 -0.11699975679E+04  0.17156747704E+04  0.21006649604E+04  0.00000000000E+00 0. -1.
<mgrwt>
<rscale>  0 0.32311703E+04</rscale>
<asrwt>0</asrwt>
<pdfrwt beam="1">  1        2 0.35389579E+00 0.32311703E+04</pdfrwt>
<pdfrwt beam="2">  1       -2 0.17456518E+00 0.32311703E+04</pdfrwt>
<totfact> 0.75308149E-01</totfact>
</mgrwt>
</event>
<event>
 6    1  0.9988873E-007  0.1396885E+04  0.7818608E-02  0.8956077E-01
         -2   -1    0    0    0  501 -0.00000000000E+00  0.00000000000E+00  0.77837650751E+03  0.77837650751E+03  0.00000000000E+00 0.  1.
          2   -1    0    0  501    0  0.00000000000E+00 -0.00000000000E+00 -0.62671692484E+03  0.62671692484E+03  0.00000000000E+00 0. -1.
         23    2    1    2    0    0  0.54132976563E+03  0.43327243711E+03  0.24442406366E+02  0.70014866156E+03  0.94062729837E+02 0.  0.
         13    1    3    3    0    0  0.18870060686E+03  0.99889142772E+02 -0.92235790409E+01  0.21370735665E+03  0.00000000000E+00 0.  1.
        -13    1    3    3    0    0  0.35262915876E+03  0.33338329434E+03  0.33665985407E+02  0.48644130492E+03  0.00000000000E+00 0. -1.
         22    1    1    2    0    0 -0.54132976563E+03 -0.43327243711E+03  0.12721717631E+03  0.70494477079E+03  0.00000000000E+00 0.  1.
<mgrwt>
<rscale>  0 0.13968847E+04</rscale>
<asrwt>0</asrwt>
<pdfrwt beam="1">  1        2 0.96417989E-01 0.13968847E+04</pdfrwt>
<pdfrwt beam="2">  1       -2 0.11975023E+00 0.13968847E+04</pdfrwt>
<totfact> 0.24434042E+01</totfact>
</mgrwt>
</event>
<event>
 6    1  0.9988873E-007  0.6454001E+03  0.7818608E-02  0.9815449E-01
          2   -1    0    0  501    0  0.00000000000E+00  0.00000000000E+00  0.16245169828E+04  0.16245169828E+04  0.00000000000E+00 0. -1.
         -2   -1    0    0    0  501 -0.00000000000E+00 -0.00000000000E+00 -0.64102329410E+02  0.64102329410E+02  0.00000000000E+00 0.  1.
         23    2    1    2    0    0 -0.10452515690E+03  0.29834462003E+03  0.80053843928E+03  0.86560844868E+03  0.92093283857E+02 0.  0.
         13    1    3    3    0    0 -0.18275908005E+02  0.16037520918E+03  0.47491501650E+03  0.50159594240E+03  0.00000000000E+00 0.  1.
        -13    1    3    3    0    0 -0.86249248897E+02  0.13796941084E+03  0.32562342278E+03  0.36401250628E+03  0.00000000000E+00 0. -1.
         22    1    1    2    0    0  0.10452515690E+03 -0.29834462003E+03  0.75987621412E+03  0.82301086354E+03  0.00000000000E+00 0. -1.
<mgrwt>
<rscale>  0 0.64540010E+03</rscale>
<asrwt>0</asrwt>
<pdfrwt beam="1">  1        2 0.24992566E+00 0.64540010E+03</pdfrwt>
<pdfrwt beam="2">  1       -2 0.98618981E-02 0.64540010E+03</pdfrwt>
<totfact> 0.77403982E+02</totfact>
</mgrwt>
</event>
<event>
 6    1  0.9988873E-007  0.1261781E+04  0.7818608E-02  0.9060435E-01
         -1   -1    0    0    0  501 -0.00000000000E+00  0.00000000000E+00  0.53944874704E+03  0.53944874704E+03  0.00000000000E+00 0.  1.
          1   -1    0    0  501    0  0.00000000000E+00 -0.00000000000E+00 -0.73783259132E+03  0.73783259132E+03  0.00000000000E+00 0. -1.
         23    2    1    2    0    0  0.14300122459E+03  0.57444755898E+03 -0.31149761481E+03  0.67459230301E+03  0.87204718895E+02 0.  0.
         13    1    3    3    0    0  0.14726269362E+03  0.50793276618E+03 -0.29642230560E+03  0.60625751884E+03  0.00000000000E+00 0. -1.
        -13    1    3    3    0    0 -0.42614690391E+01  0.66514792801E+02 -0.15075309204E+02  0.68334784168E+02  0.00000000000E+00 0.  1.
         22    1    1    2    0    0 -0.14300122459E+03 -0.57444755898E+03  0.11311377052E+03  0.60268903535E+03  0.00000000000E+00 0.  1.
<mgrwt>
<rscale>  0 0.12617811E+04</rscale>
<asrwt>0</asrwt>
<pdfrwt beam="1">  1        1 0.11351271E+00 0.12617811E+04</pdfrwt>
<pdfrwt beam="2">  1       -1 0.82992115E-01 0.12617811E+04</pdfrwt>
<totfact> 0.35709299E+01</totfact>
</mgrwt>
</event>
<event>
 6    1  0.9988873E-007  0.1064401E+04  0.7818608E-02  0.9240601E-01
          2   -1    0    0  501    0  0.00000000000E+00  0.00000000000E+00  0.13988016460E+04  0.13988016460E+04  0.00000000000E+00 0. -1.
         -2   -1    0    0    0  501 -0.00000000000E+00 -0.00000000000E+00 -0.20248560399E+03  0.20248560399E+03  0.00000000000E+00 0.  1.
         23    2    1    2    0    0 -0.19212246530E+03 -0.35607040127E+03  0.91614349788E+02  0.42482518043E+03  0.91575501664E+02 0.  0.
         13    1    3    3    0    0 -0.55567718643E+02 -0.19825573238E+03  0.52731048845E+02  0.21254098497E+03  0.00000000000E+00 0. -1.
        -13    1    3    3    0    0 -0.13655474666E+03 -0.15781466888E+03  0.38883300943E+02  0.21228419546E+03  0.00000000000E+00 0.  1.
         22    1    1    2    0    0  0.19212246530E+03  0.35607040127E+03  0.11047016922E+04  0.11764620696E+04  0.00000000000E+00 0. -1.
<mgrwt>
<rscale>  0 0.10644007E+04</rscale>
<asrwt>0</asrwt>
<pdfrwt beam="1">  1        2 0.21520025E+00 0.10644007E+04</pdfrwt>
<pdfrwt beam="2">  1       -2 0.31151632E-01 0.10644007E+04</pdfrwt>
<totfact> 0.13764578E+02</totfact>
</mgrwt>
</event>
<event>
 6    1  0.9988873E-007  0.3094505E+04  0.7818608E-02  0.8217248E-01
          2   -1    0    0  501    0  0.00000000000E+00  0.00000000000E+00  0.20951544142E+04  0.20951544142E+04  0.00000000000E+00 0. -1.
         -2   -1    0    0    0  501 -0.00000000000E+00 -0.00000000000E+00 -0.11426320766E+04  0.11426320766E+04  0.00000000000E+00 0.  1.
         23    2    1    2    0    0  0.16794439615E+03 -0.22552492463E+03  0.20671401183E+04  0.20882476230E+04  0.92968028982E+02 0.  0.
         13    1    3    3    0    0  0.46028644378E+02 -0.92804469935E+01  0.39496453688E+03  0.39774583366E+03  0.00000000000E+00 0. -1.
        -13    1    3    3    0    0  0.12191575177E+03 -0.21624447763E+03  0.16721755814E+04  0.16905017893E+04  0.00000000000E+00 0.  1.
         22    1    1    2    0    0 -0.16794439615E+03  0.22552492463E+03 -0.11146177806E+04  0.11495388678E+04  0.00000000000E+00 0.  1.
<mgrwt>
<rscale>  0 0.30945052E+04</rscale>
<asrwt>0</asrwt>
<pdfrwt beam="1">  1        2 0.32233145E+00 0.30945052E+04</pdfrwt>
<pdfrwt beam="2">  1       -2 0.17578955E+00 0.30945052E+04</pdfrwt>
<totfact> 0.97429205E-01</totfact>
</mgrwt>
</event>
<event>
 6    1  0.9988873E-007  0.4566196E+04  0.7818608E-02  0.7899149E-01
          1   -1    0    0  501    0  0.00000000000E+00  0.00000000000E+00  0.24448057994E+04  0.24448057994E+04  0.00000000000E+00 0. -1.
         -1   -1    0    0    0  501 -0.00000000000E+00 -0.00000000000E+00 -0.21320864770E+04  0.21320864770E+04  0.00000000000E+00 0.  1.
         23    2    1    2    0    0 -0.93367225344E+03 -0.79244771422E+03  0.20867440214E+04  0.24212297590E+04  0.90197996995E+02 0.  0.
         11    1    3    3    0    0 -0.56038938527E+03 -0.50734207576E+03  0.12139764860E+04  0.14300948058E+04  0.00000000000E+00 0.  1.
        -11    1    3    3    0    0 -0.37328286817E+03 -0.28510563846E+03  0.87276753539E+03  0.99113495326E+03  0.00000000000E+00 0. -1.
         22    1    1    2    0    0  0.93367225344E+03  0.79244771422E+03 -0.17740246989E+04  0.21556625174E+04  0.00000000000E+00 0.  1.
<mgrwt>
<rscale>  0 0.45661964E+04</rscale>
<asrwt>0</asrwt>
<pdfrwt beam="1">  1        1 0.37612397E+00 0.45661964E+04</pdfrwt>
<pdfrwt beam="2">  1       -1 0.32801331E+00 0.45661964E+04</pdfrwt>
<totfact> 0.23987427E-02</totfact>
</mgrwt>
</event>
<event>
 6    1  0.9988873E-007  0.6975675E+03  0.7818608E-02  0.9721401E-01
         -3   -1    0    0    0  501 -0.00000000000E+00  0.00000000000E+00  0.45352316713E+03  0.45352316713E+03  0.00000000000E+00 0.  1.
          3   -1    0    0  501    0  0.00000000000E+00 -0.00000000000E+00 -0.26823347513E+03  0.26823347513E+03  0.00000000000E+00 0. -1.
         23    2    1    2    0    0  0.12158957714E+03 -0.11209360858E+03 -0.21569056694E+03  0.28801228159E+03  0.95287204404E+02 0.  0.
         11    1    3    3    0    0  0.12460049603E+03 -0.60751391697E+02 -0.14510866846E+03  0.20068019550E+03  0.00000000000E+00 0. -1.
        -11    1    3    3    0    0 -0.30109188853E+01 -0.51342216886E+02 -0.70581898485E+02  0.87332086091E+02  0.00000000000E+00 0.  1.
         22    1    1    2    0    0 -0.12158957714E+03  0.11209360858E+03  0.40098025894E+03  0.43374436068E+03  0.00000000000E+00 0.  1.
<mgrwt>
<rscale>  0 0.69756747E+03</rscale>
<asrwt>0</asrwt>
<pdfrwt beam="1">  1        3 0.41266688E-01 0.69756747E+03</pdfrwt>
<pdfrwt beam="2">  1       -3 0.69772795E-01 0.69756747E+03</pdfrwt>
<totfact> 0.30249726E+01</totfact>
</mgrwt>
</event>
<event>
 6    1  0.9988873E-007  0.1854478E+04  0.7818608E-02  0.8677853E-01
          2   -1    0    0  501    0  0.00000000000E+00  0.00000000000E+00  0.28337980105E+04  0.28337980105E+04  0.00000000000E+00 0. -1.
         -2   -1    0    0    0  501 -0.00000000000E+00 -0.00000000000E+00 -0.30339933456E+03  0.30339933456E+03  0.00000000000E+00 0.  1.
         23    2    1    2    0    0  0.11738824696E+03  0.59160613479E+03  0.24546316111E+04  0.25293170383E+04  0.91926680634E+02 0.  0.
         11    1    3    3    0    0  0.58558269673E+02  0.27669459427E+03  0.13422703448E+04  0.13717429235E+04  0.00000000000E+00 0. -1.
        -11    1    3    3    0    0  0.58829977287E+02  0.31491154051E+03  0.11123612663E+04  0.11575741148E+04  0.00000000000E+00 0.  1.
         22    1    1    2    0    0 -0.11738824696E+03 -0.59160613479E+03  0.75767064809E+02  0.60788030676E+03  0.00000000000E+00 0.  1.
<mgrwt>
<rscale>  0 0.18544783E+04</rscale>
<asrwt>0</asrwt>
<pdfrwt beam="1">  1        2 0.43596891E+00 0.18544783E+04</pdfrwt>
<pdfrwt beam="2">  1       -2 0.46676823E-01 0.18544783E+04</pdfrwt>
<totfact> 0.90430280E+00</totfact>
</mgrwt>
</event>
<event>
 6    1  0.9988873E-007  0.2919772E+04  0.7818608E-02  0.8267019E-01
          2   -1    0    0  501    0  0.00000000000E+00  0.00000000000E+00  0.32724091249E+04  0.32724091249E+04  0.00000000000E+00 0. -1.
         -2   -1    0    0    0  501 -0.00000000000E+00 -0.00000000000E+00 -0.65128393204E+03  0.65128393204E+03  0.00000000000E+00 0.  1.
         23    2    1    2    0    0  0.95412622126E+03 -0.80115059096E+03  0.23307024608E+04  0.26444180752E+04  0.92595251583E+02 0.  0.
         11    1    3    3    0    0  0.69227940959E+03 -0.52589714700E+03  0.16141938741E+04  0.18334231517E+04  0.00000000000E+00 0.  1.
        -11    1    3    3    0    0  0.26184681167E+03 -0.27525344396E+03  0.71650858668E+03  0.81099492353E+03  0.00000000000E+00 0. -1.
         22    1    1    2    0    0 -0.95412622126E+03  0.80115059096E+03  0.29042273212E+03  0.12792749817E+04  0.00000000000E+00 0.  1.
<mgrwt>
<rscale>  0 0.29197722E+04</rscale>
<asrwt>0</asrwt>
<pdfrwt beam="1">  1        2 0.50344755E+00 0.29197722E+04</pdfrwt>
<pdfrwt beam="2">  1       -2 0.10019753E+00 0.29197722E+04</pdfrwt>
<totfact> 0.82266809E-01</totfact>
</mgrwt>
</event>
<event>
 6    1  0.9988873E-007  0.1772862E+04  0.7818608E-02  0.8720866E-01
         -2   -1    0    0    0  501 -0.00000000000E+00  0.00000000000E+00  0.68130153384E+03  0.68130153384E+03  0.00000000000E+00 0.  1.
          2   -1    0    0  501    0  0.00000000000E+00 -0.00000000000E+00 -0.11533212642E+04  0.11533212642E+04  0.00000000000E+00 0. -1.
         23    2    1    2    0    0  0.67000839869E+03  0.25010306230E+03  0.30131368107E+03  0.78129124468E+03  0.90350863454E+02 0.  0.
         13    1    3    3    0    0  0.18345422180E+03  0.48689251045E+02  0.42382919872E+02  0.19447983588E+03  0.00000000000E+00 0.  1.
        -13    1    3    3    0    0  0.48655417689E+03  0.20141381125E+03  0.25893076120E+03  0.58681140880E+03  0.00000000000E+00 0. -1.
         22    1    1    2    0    0 -0.67000839869E+03 -0.25010306230E+03 -0.77333341144E+03  0.10533315534E+04  0.00000000000E+00 0. -1.
<mgrwt>
<rscale>  0 0.17728616E+04</rscale>
<asrwt>0</asrwt>
<pdfrwt beam="1">  1        2 0.17743404E+00 0.17728616E+04</pdfrwt>
<pdfrwt beam="2">  1       -2 0.10481562E+00 0.17728616E+04</pdfrwt>
<totfact> 0.14116196E+01</totfact>
</mgrwt>
</event>
<event>
 6    1  0.9988873E-007  0.1874202E+04  0.7818608E-02  0.8667805E-01
          1   -1    0    0  501    0  0.00000000000E+00  0.00000000000E+00  0.21664076708E+04  0.21664076708E+04  0.00000000000E+00 0. -1.
         -1   -1    0    0    0  501 -0.00000000000E+00 -0.00000000000E+00 -0.40535238733E+03  0.40535238733E+03  0.00000000000E+00 0.  1.
         23    2    1    2    0    0 -0.38368154526E+03  0.66159026416E+03  0.16203636214E+04  0.17941307444E+04  0.91725986270E+02 0.  0.
         13    1    3    3    0    0 -0.89126742529E+02  0.23594024278E+03  0.55945445452E+03  0.61367797832E+03  0.00000000000E+00 0. -1.
        -13    1    3    3    0    0 -0.29455480273E+03  0.42565002138E+03  0.10609091669E+04  0.11804527660E+04  0.00000000000E+00 0.  1.
         22    1    1    2    0    0  0.38368154526E+03 -0.66159026416E+03  0.14069166207E+03  0.77762931374E+03  0.00000000000E+00 0.  1.
<mgrwt>
<rscale>  0 0.18742023E+04</rscale>
<asrwt>0</asrwt>
<pdfrwt beam="1">  1        1 0.33329348E+00 0.18742023E+04</pdfrwt>
<pdfrwt beam="2">  1       -1 0.62361907E-01 0.18742023E+04</pdfrwt>
<totfact> 0.56173425E+00</totfact>
</mgrwt>
</event>
<event>
 6    1  0.9988873E-007  0.8469908E+03  0.7818608E-02  0.9494385E-01
         -2   -1    0    0    0  501 -0.00000000000E+00  0.00000000000E+00  0.14058360302E+03  0.14058360302E+03  0.00000000000E+00 0.  1.
          2   -1    0    0  501    0  0.00000000000E+00 -0.00000000000E+00 -0.12757416705E+04  0.12757416705E+04  0.00000000000E+00 0. -1.
         23    2    1    2    0    0  0.36449642676E+03  0.13764921260E+03 -0.31829987949E+03  0.51130469357E+03  0.91174149445E+02 0.  0.
         13    1    3    3    0    0  0.33313174686E+03  0.15118518711E+03 -0.29497304326E+03  0.46993916396E+03  0.00000000000E+00 0. -1.
        -13    1    3    3    0    0  0.31364679904E+02 -0.13535974514E+02 -0.23326836227E+02  0.41365529610E+02  0.00000000000E+00 0.  1.
         22    1    1    2    0    0 -0.36449642676E+03 -0.13764921260E+03 -0.81685818797E+03  0.90502057993E+03  0.00000000000E+00 0. -1.
<mgrwt>
<rscale>  0 0.84699082E+03</rscale>
<asrwt>0</asrwt>
<pdfrwt beam="1">  1        2 0.19626795E+00 0.84699082E+03</pdfrwt>
<pdfrwt beam="2">  1       -2 0.21628246E-01 0.84699082E+03</pdfrwt>
<totfact> 0.31895337E+02</totfact>
</mgrwt>
</event>
<event>
 6    1  0.9988873E-007  0.3216904E+04  0.7818608E-02  0.8184367E-01
         -1   -1    0    0    0  501 -0.00000000000E+00  0.00000000000E+00  0.15522407837E+04  0.15522407837E+04  0.00000000000E+00 0.  1.
          1   -1    0    0  501    0  0.00000000000E+00 -0.00000000000E+00 -0.16666991723E+04  0.16666991723E+04  0.00000000000E+00 0. -1.
         23    2    1    2    0    0  0.62304578518E+03 -0.32499107009E+03 -0.15035485324E+04  0.16622201117E+04  0.92261932962E+02 0.  0.
         11    1    3    3    0    0  0.38165972927E+03 -0.14945421907E+03 -0.89750353703E+03  0.98666778174E+03  0.00000000000E+00 0. -1.
        -11    1    3    3    0    0  0.24138605591E+03 -0.17553685102E+03 -0.60604499537E+03  0.67555232992E+03  0.00000000000E+00 0.  1.
         22    1    1    2    0    0 -0.62304578518E+03  0.32499107009E+03  0.13890901438E+04  0.15567198443E+04  0.00000000000E+00 0.  1.
<mgrwt>
<rscale>  0 0.32169044E+04</rscale>
<asrwt>0</asrwt>
<pdfrwt beam="1">  1        1 0.25641526E+00 0.32169044E+04</pdfrwt>
<pdfrwt beam="2">  1       -1 0.23880627E+00 0.32169044E+04</pdfrwt>
<totfact> 0.34640423E-01</totfact>
</mgrwt>
</event>
<event>
 6    1  0.9988873E-007  0.3322130E+04  0.7818608E-02  0.8157287E-01
          1   -1    0    0  501    0  0.00000000000E+00  0.00000000000E+00  0.20424275771E+04  0.20424275771E+04  0.00000000000E+00 0. -1.
         -1   -1    0    0    0  501 -0.00000000000E+00 -0.00000000000E+00 -0.13509106914E+04  0.13509106914E+04  0.00000000000E+00 0.  1.
         23    2    1    2    0    0  0.66184537416E+03  0.44298718364E+03 -0.11413581488E+04  0.13949119285E+04  0.93829208167E+02 0.  0.
         11    1    3    3    0    0  0.57280890668E+03  0.37597626678E+03 -0.92028967136E+03  0.11473453168E+04  0.00000000000E+00 0. -1.
        -11    1    3    3    0    0  0.89036467484E+02  0.67010916861E+02 -0.22106847746E+03  0.24756661174E+03  0.00000000000E+00 0.  1.
         22    1    1    2    0    0 -0.66184537416E+03 -0.44298718364E+03  0.18328750345E+04  0.19984263400E+04  0.00000000000E+00 0. -1.
<mgrwt>
<rscale>  0 0.33221302E+04</rscale>
<asrwt>0</asrwt>
<pdfrwt beam="1">  1        1 0.31421963E+00 0.33221302E+04</pdfrwt>
<pdfrwt beam="2">  1       -1 0.20783241E+00 0.33221302E+04</pdfrwt>
<totfact> 0.30714614E-01</totfact>
</mgrwt>
</event>
<event>
 6    1  0.9988873E-007  0.9136030E+03  0.7818608E-02  0.9408735E-01
         -2   -1    0    0    0  501 -0.00000000000E+00  0.00000000000E+00  0.54681222196E+03  0.54681222196E+03  0.00000000000E+00 0.  1.
          2   -1    0    0  501    0  0.00000000000E+00 -0.00000000000E+00 -0.38160740070E+03  0.38160740070E+03  0.00000000000E+00 0. -1.
         23    2    1    2    0    0  0.33524736025E+03  0.24283167386E+02  0.39050499566E+03  0.52377084488E+03  0.94134380202E+02 0.  0.
         11    1    3    3    0    0  0.22589389141E+03  0.21031081220E+02  0.19241989157E+03  0.29748238809E+03  0.00000000000E+00 0.  1.
        -11    1    3    3    0    0  0.10935346884E+03  0.32520861660E+01  0.19808510409E+03  0.22628845679E+03  0.00000000000E+00 0. -1.
         22    1    1    2    0    0 -0.33524736025E+03 -0.24283167386E+02 -0.22530017440E+03  0.40464877778E+03  0.00000000000E+00 0. -1.
<mgrwt>
<rscale>  0 0.91360296E+03</rscale>
<asrwt>0</asrwt>
<pdfrwt beam="1">  1        2 0.58708831E-01 0.91360296E+03</pdfrwt>
<pdfrwt beam="2">  1       -2 0.84124957E-01 0.91360296E+03</pdfrwt>
<totfact> 0.10378325E+02</totfact>
</mgrwt>
</event>
<event>
 6    1  0.9988873E-007  0.2708407E+04  0.7818608E-02  0.8332282E-01
         -1   -1    0    0    0  501 -0.00000000000E+00  0.00000000000E+00  0.11354613913E+04  0.11354613913E+04  0.00000000000E+00 0.  1.
          1   -1    0    0  501    0  0.00000000000E+00 -0.00000000000E+00 -0.16150856635E+04  0.16150856635E+04  0.00000000000E+00 0. -1.
         23    2    1    2    0    0  0.21397149727E+03  0.42526104491E+03  0.10458289551E+04  0.11525363207E+04  0.89168431842E+02 0.  0.
         13    1    3    3    0    0  0.17517629150E+03  0.30967247247E+03  0.85513009976E+03  0.92619180564E+03  0.00000000000E+00 0. -1.
        -13    1    3    3    0    0  0.38795205768E+02  0.11558857244E+03  0.19069885531E+03  0.22634451503E+03  0.00000000000E+00 0.  1.
         22    1    1    2    0    0 -0.21397149727E+03 -0.42526104491E+03 -0.15254532272E+04  0.15980107341E+04  0.00000000000E+00 0. -1.
<mgrwt>
<rscale>  0 0.27084072E+04</rscale>
<asrwt>0</asrwt>
<pdfrwt beam="1">  1        1 0.24847472E+00 0.27084072E+04</pdfrwt>
<pdfrwt beam="2">  1       -1 0.17468637E+00 0.27084072E+04</pdfrwt>
<totfact> 0.10810204E+00</totfact>
</mgrwt>
</event>
<event>
 6    1  0.9988873E-007  0.7531468E+03  0.7818608E-02  0.9630426E-01
          1   -1    0    0  501    0  0.00000000000E+00  0.00000000000E+00  0.22866476740E+04  0.22866476740E+04  0.00000000000E+00 0. -1.
         -1   -1    0    0    0  501 -0.00000000000E+00 -0.00000000000E+00 -0.62015474970E+02  0.62015474970E+02  0.00000000000E+00 0.  1.
         23    2    1    2    0    0  0.25688807049E+03 -0.15455069531E+03  0.45121031455E+03  0.55007965674E+03  0.95495982221E+02 0.  0.
         11    1    3    3    0    0  0.21621451722E+03 -0.16469889381E+03  0.37561309571E+03  0.46363740223E+03  0.00000000000E+00 0. -1.
        -11    1    3    3    0    0  0.40673553267E+02  0.10148198494E+02  0.75597218841E+02  0.86442254508E+02  0.00000000000E+00 0.  1.
         22    1    1    2    0    0 -0.25688807049E+03  0.15455069531E+03  0.17734218844E+04  0.17985834922E+04  0.00000000000E+00 0. -1.
<mgrwt>
<rscale>  0 0.75314684E+03</rscale>
<asrwt>0</asrwt>
<pdfrwt beam="1">  1        1 0.35179189E+00 0.75314684E+03</pdfrwt>
<pdfrwt beam="2">  1       -1 0.95408441E-02 0.75314684E+03</pdfrwt>
<totfact> 0.13390069E+02</totfact>
</mgrwt>
</event>
<event>
 6    1  0.9988873E-007  0.5081881E+04  0.7818608E-02  0.7815999E-01
          2   -1    0    0  501    0  0.00000000000E+00  0.00000000000E+00  0.45462450759E+04  0.45462450759E+04  0.00000000000E+00 0. -1.
         -2   -1    0    0    0  501 -0.00000000000E+00 -0.00000000000E+00 -0.14201564719E+04  0.14201564719E+04  0.00000000000E+00 0.  1.
         23    2    1    2    0    0 -0.15299702954E+04  0.28112099168E+03 -0.79416922380E+03  0.17487885318E+04  0.87854745019E+02 0.  0.
         13    1    3    3    0    0 -0.92290044445E+03  0.12909737044E+03 -0.45663079006E+03  0.10377490255E+04  0.00000000000E+00 0.  1.
        -13    1    3    3    0    0 -0.60706985097E+03  0.15202362124E+03 -0.33753843374E+03  0.71103950637E+03  0.00000000000E+00 0. -1.
         22    1    1    2    0    0  0.15299702954E+04 -0.28112099168E+03  0.39202578277E+04  0.42176130160E+04  0.00000000000E+00 0. -1.
<mgrwt>
<rscale>  0 0.50818813E+04</rscale>
<asrwt>0</asrwt>
<pdfrwt beam="1">  1        2 0.69942231E+00 0.50818813E+04</pdfrwt>
<pdfrwt beam="2">  1       -2 0.21848561E+00 0.50818813E+04</pdfrwt>
<totfact> 0.80109616E-03</totfact>
</mgrwt>
</event>
<event>
 6    1  0.9988873E-007  0.4593152E+04  0.7818608E-02  0.7894529E-01
         -2   -1    0    0    0  501 -0.00000000000E+00  0.00000000000E+00  0.28621771894E+04  0.28621771894E+04  0.00000000000E+00 0.  1.
          2   -1    0    0  501    0  0.00000000000E+00 -0.00000000000E+00 -0.18427444775E+04  0.18427444775E+04  0.00000000000E+00 0. -1.
         23    2    1    2    0    0  0.47829728262E+03  0.20006313887E+04  0.15538992253E+04  0.25796102315E+04  0.92151505881E+02 0.  0.
         13    1    3    3    0    0  0.42287639295E+03  0.18250893168E+04  0.13852898874E+04  0.23299792982E+04  0.00000000000E+00 0. -1.
        -13    1    3    3    0    0  0.55420889669E+02  0.17554207185E+03  0.16860933789E+03  0.24963093323E+03  0.00000000000E+00 0.  1.
         22    1    1    2    0    0 -0.47829728262E+03 -0.20006313887E+04 -0.53446651337E+03  0.21253114355E+04  0.00000000000E+00 0. -1.
<mgrwt>
<rscale>  0 0.45931520E+04</rscale>
<asrwt>0</asrwt>
<pdfrwt beam="1">  1        2 0.28349915E+00 0.45931520E+04</pdfrwt>
<pdfrwt beam="2">  1       -2 0.44033495E+00 0.45931520E+04</pdfrwt>
<totfact> 0.24739351E-02</totfact>
</mgrwt>
</event>
<event>
 6    1  0.9988873E-007  0.1798142E+04  0.7818608E-02  0.8707288E-01
         -1   -1    0    0    0  501 -0.00000000000E+00  0.00000000000E+00  0.54154794760E+03  0.54154794760E+03  0.00000000000E+00 0.  1.
          1   -1    0    0  501    0  0.00000000000E+00 -0.00000000000E+00 -0.14926269418E+04  0.14926269418E+04  0.00000000000E+00 0. -1.
         23    2    1    2    0    0  0.50242784901E+01 -0.14331624691E+03 -0.14781602184E+04  0.14879337276E+04  0.91784292704E+02 0.  0.
         11    1    3    3    0    0  0.18012174885E+02 -0.55912281006E+02 -0.99685883308E+03  0.99858808059E+03  0.00000000000E+00 0. -1.
        -11    1    3    3    0    0 -0.12987896395E+02 -0.87403965899E+02 -0.48130138530E+03  0.48934564696E+03  0.00000000000E+00 0.  1.
         22    1    1    2    0    0 -0.50242784901E+01  0.14331624691E+03  0.52708122419E+03  0.54624116185E+03  0.00000000000E+00 0.  1.
<mgrwt>
<rscale>  0 0.17981424E+04</rscale>
<asrwt>0</asrwt>
<pdfrwt beam="1">  1        1 0.22963491E+00 0.17981424E+04</pdfrwt>
<pdfrwt beam="2">  1       -1 0.83315070E-01 0.17981424E+04</pdfrwt>
<totfact> 0.89312032E+00</totfact>
</mgrwt>
</event>
<event>
 6    1  0.9988873E-007  0.4471526E+04  0.7818608E-02  0.7915641E-01
          2   -1    0    0  501    0  0.00000000000E+00  0.00000000000E+00  0.15094891792E+04  0.15094891792E+04  0.00000000000E+00 0. -1.
         -2   -1    0    0    0  501 -0.00000000000E+00 -0.00000000000E+00 -0.33114758181E+04  0.33114758181E+04  0.00000000000E+00 0.  1.
         23    2    1    2    0    0  0.12646900277E+04 -0.15891268033E+04 -0.19068233417E+04  0.27873092748E+04  0.91394058727E+02 0.  0.
         13    1    3    3    0    0  0.77907390644E+03 -0.10491688944E+04 -0.12286613963E+04  0.17936890331E+04  0.00000000000E+00 0.  1.
        -13    1    3    3    0    0  0.48561612122E+03 -0.53995790895E+03 -0.67816194541E+03  0.99362024176E+03  0.00000000000E+00 0. -1.
         22    1    1    2    0    0 -0.12646900277E+04  0.15891268033E+04  0.10483670275E+03  0.20336557224E+04  0.00000000000E+00 0.  1.
<mgrwt>
<rscale>  0 0.44715263E+04</rscale>
<asrwt>0</asrwt>
<pdfrwt beam="1">  1        2 0.23222910E+00 0.44715263E+04</pdfrwt>
<pdfrwt beam="2">  1       -2 0.50945782E+00 0.44715263E+04</pdfrwt>
<totfact> 0.13803131E-02</totfact>
</mgrwt>
</event>
<event>
 6    1  0.9988873E-007  0.2693440E+04  0.7818608E-02  0.8337136E-01
          1   -1    0    0  501    0  0.00000000000E+00  0.00000000000E+00  0.29189567521E+04  0.29189567521E+04  0.00000000000E+00 0. -1.
         -1   -1    0    0    0  501 -0.00000000000E+00 -0.00000000000E+00 -0.62133681859E+03  0.62133681859E+03  0.00000000000E+00 0.  1.
         23    2    1    2    0    0 -0.10426459360E+04 -0.76848128759E+03  0.16273891246E+04  0.20819097479E+04  0.90987901658E+02 0.  0.
         13    1    3    3    0    0 -0.46745238407E+03 -0.29256518537E+03  0.71794820436E+03  0.90529318081E+03  0.00000000000E+00 0.  1.
        -13    1    3    3    0    0 -0.57519355197E+03 -0.47591610222E+03  0.90944092026E+03  0.11766165671E+04  0.00000000000E+00 0. -1.
         22    1    1    2    0    0  0.10426459360E+04  0.76848128759E+03  0.67023080889E+03  0.14583838228E+04  0.00000000000E+00 0.  1.
<mgrwt>
<rscale>  0 0.26934404E+04</rscale>
<asrwt>0</asrwt>
<pdfrwt beam="1">  1        1 0.44907026E+00 0.26934404E+04</pdfrwt>
<pdfrwt beam="2">  1       -1 0.95590281E-01 0.26934404E+04</pdfrwt>
<totfact> 0.63120734E-01</totfact>
</mgrwt>
</event>
<event>
 6    1  0.9988873E-007  0.2895397E+04  0.7818608E-02  0.8274248E-01
         -4   -1    0    0    0  501 -0.00000000000E+00  0.00000000000E+00  0.22525973037E+04  0.22525973037E+04  0.00000000000E+00 0.  1.
          4   -1    0    0  501    0  0.00000000000E+00 -0.00000000000E+00 -0.93040655080E+03  0.93040655080E+03  0.00000000000E+00 0. -1.
         23    2    1    2    0    0  0.96233258301E+03  0.84562424202E+03  0.13996437519E+04  0.18995852454E+04  0.90868660417E+02 0.  0.
         13    1    3    3    0    0  0.41378891718E+03  0.42382707300E+03  0.64895772954E+03  0.87863347906E+03  0.00000000000E+00 0.  1.
        -13    1    3    3    0    0  0.54854366583E+03  0.42179716902E+03  0.75068602234E+03  0.10209517664E+04  0.00000000000E+00 0. -1.
         22    1    1    2    0    0 -0.96233258301E+03 -0.84562424202E+03 -0.77452998984E+02  0.12834186091E+04  0.00000000000E+00 0. -1.
<mgrwt>
<rscale>  0 0.28953972E+04</rscale>
<asrwt>0</asrwt>
<pdfrwt beam="1">  1        4 0.14313947E+00 0.28953972E+04</pdfrwt>
<pdfrwt beam="2">  1       -4 0.34655343E+00 0.28953972E+04</pdfrwt>
<totfact> 0.90325680E-03</totfact>
</mgrwt>
</event>
<event>
 6    1  0.9988873E-007  0.2388032E+04  0.7818608E-02  0.8443998E-01
          2   -1    0    0  501    0  0.00000000000E+00  0.00000000000E+00  0.12564082192E+04  0.12564082192E+04  0.00000000000E+00 0. -1.
         -2   -1    0    0    0  501 -0.00000000000E+00 -0.00000000000E+00 -0.11347225049E+04  0.11347225049E+04  0.00000000000E+00 0.  1.
         23    2    1    2    0    0 -0.85927386778E+03 -0.46292987557E+03 -0.62485307329E+03  0.11623199939E+04  0.88829924208E+02 0.  0.
         11    1    3    3    0    0 -0.14948678058E+03 -0.10973749352E+03 -0.14700383058E+03  0.23664053173E+03  0.00000000000E+00 0.  1.
        -11    1    3    3    0    0 -0.70978708720E+03 -0.35319238205E+03 -0.47784924271E+03  0.92567946215E+03  0.00000000000E+00 0. -1.
         22    1    1    2    0    0  0.85927386778E+03  0.46292987557E+03  0.74653878756E+03  0.12288107303E+04  0.00000000000E+00 0.  1.
<mgrwt>
<rscale>  0 0.23880324E+04</rscale>
<asrwt>0</asrwt>
<pdfrwt beam="1">  1        2 0.19329357E+00 0.23880324E+04</pdfrwt>
<pdfrwt beam="2">  1       -2 0.17457269E+00 0.23880324E+04</pdfrwt>
<totfact> 0.31226874E+00</totfact>
</mgrwt>
</event>
<event>
 6    1  0.9988873E-007  0.5713363E+04  0.7818608E-02  0.7726994E-01
          2   -1    0    0  501    0  0.00000000000E+00  0.00000000000E+00  0.26684118935E+04  0.26684118935E+04  0.00000000000E+00 0. -1.
         -2   -1    0    0    0  501 -0.00000000000E+00 -0.00000000000E+00 -0.30582342022E+04  0.30582342022E+04  0.00000000000E+00 0.  1.
         23    2    1    2    0    0 -0.24761255872E+04 -0.45843259865E+03  0.11554058679E+04  0.27721430090E+04  0.91955269424E+02 0.  0.
         13    1    3    3    0    0 -0.16075557171E+04 -0.27115967969E+03  0.70872861556E+03  0.17776555364E+04  0.00000000000E+00 0.  1.
        -13    1    3    3    0    0 -0.86856987012E+03 -0.18727291896E+03  0.44667725239E+03  0.99448747265E+03  0.00000000000E+00 0. -1.
         22    1    1    2    0    0  0.24761255872E+04  0.45843259865E+03 -0.15452281766E+04  0.29545030867E+04  0.00000000000E+00 0.  1.
<mgrwt>
<rscale>  0 0.57133628E+04</rscale>
<asrwt>0</asrwt>
<pdfrwt beam="1">  1        2 0.41052491E+00 0.57133628E+04</pdfrwt>
<pdfrwt beam="2">  1       -2 0.47049757E+00 0.57133628E+04</pdfrwt>
<totfact> 0.48876033E-03</totfact>
</mgrwt>
</event>
<event>
 6    1  0.9988873E-007  0.1336195E+04  0.7818608E-02  0.9001344E-01
          3   -1    0    0  501    0  0.00000000000E+00  0.00000000000E+00  0.14264332462E+04  0.14264332462E+04  0.00000000000E+00 0. -1.
         -3   -1    0    0    0  501 -0.00000000000E+00 -0.00000000000E+00 -0.31291651735E+03  0.31291651735E+03  0.00000000000E+00 0.  1.
         23    2    1    2    0    0 -0.34467645702E+03 -0.56789881335E+03  0.60012283276E+03  0.89977593429E+03  0.90213055069E+02 0.  0.
         13    1    3    3    0    0 -0.99210374097E+02 -0.24797936636E+03  0.24599918332E+03  0.36311439336E+03  0.00000000000E+00 0. -1.
        -13    1    3    3    0    0 -0.24546608292E+03 -0.31991944699E+03  0.35412364943E+03  0.53666154093E+03  0.00000000000E+00 0.  1.
         22    1    1    2    0    0  0.34467645702E+03  0.56789881335E+03  0.51339389607E+03  0.83957382924E+03  0.00000000000E+00 0. -1.
<mgrwt>
<rscale>  0 0.13361954E+04</rscale>
<asrwt>0</asrwt>
<pdfrwt beam="1">  1        3 0.21945126E+00 0.13361954E+04</pdfrwt>
<pdfrwt beam="2">  1       -3 0.48141004E-01 0.13361954E+04</pdfrwt>
<totfact> 0.12295357E+00</totfact>
</mgrwt>
</event>
<event>
 6    1  0.9988873E-007  0.3158714E+04  0.7818608E-02  0.8199807E-01
         -1   -1    0    0    0  501 -0.00000000000E+00  0.00000000000E+00  0.15847039466E+04  0.15847039466E+04  0.00000000000E+00 0.  1.
          1   -1    0    0  501    0  0.00000000000E+00 -0.00000000000E+00 -0.15740276136E+04  0.15740276136E+04  0.00000000000E+00 0. -1.
         23    2    1    2    0    0 -0.50181021178E+03 -0.10331115998E+04 -0.10768693611E+04  0.15769955826E+04  0.90190799387E+02 0.  0.
         13    1    3    3    0    0 -0.44150788744E+03 -0.84222902801E+03 -0.91335165235E+03  0.13185181801E+04  0.00000000000E+00 0. -1.
        -13    1    3    3    0    0 -0.60302324335E+02 -0.19088257182E+03 -0.16351770872E+03  0.25847740252E+03  0.00000000000E+00 0.  1.
         22    1    1    2    0    0  0.50181021178E+03  0.10331115998E+04  0.10875456940E+04  0.15817359776E+04  0.00000000000E+00 0.  1.
<mgrwt>
<rscale>  0 0.31587135E+04</rscale>
<asrwt>0</asrwt>
<pdfrwt beam="1">  1        1 0.24215809E+00 0.31587135E+04</pdfrwt>
<pdfrwt beam="2">  1       -1 0.24380061E+00 0.31587135E+04</pdfrwt>
<totfact> 0.37370414E-01</totfact>
</mgrwt>
</event>
<event>
 6    1  0.9988873E-007  0.2283158E+03  0.7818608E-02  0.1127831E+00
         -1   -1    0    0    0  501 -0.00000000000E+00  0.00000000000E+00  0.10900087110E+03  0.10900087110E+03  0.00000000000E+00 0.  1.
          1   -1    0    0  501    0  0.00000000000E+00 -0.00000000000E+00 -0.11955890204E+03  0.11955890204E+03  0.00000000000E+00 0. -1.
         23    2    1    2    0    0 -0.60045555726E+02 -0.74467069491E+02  0.18976198025E+01  0.13209238778E+03  0.91071316825E+02 0.  0.
         11    1    3    3    0    0 -0.71502735675E+02 -0.21281351538E+02  0.15082255595E+02  0.76111835914E+02  0.00000000000E+00 0. -1.
        -11    1    3    3    0    0  0.11457179949E+02 -0.53185717953E+02 -0.13184635793E+02  0.55980551869E+02  0.00000000000E+00 0.  1.
         22    1    1    2    0    0  0.60045555726E+02  0.74467069491E+02 -0.12455650741E+02  0.96467385351E+02  0.00000000000E+00 0.  1.
<mgrwt>
<rscale>  0 0.22831579E+03</rscale>
<asrwt>0</asrwt>
<pdfrwt beam="1">  1        1 0.18393677E-01 0.22831579E+03</pdfrwt>
<pdfrwt beam="2">  1       -1 0.16769365E-01 0.22831579E+03</pdfrwt>
<totfact> 0.75003665E+03</totfact>
</mgrwt>
</event>
<event>
 6    1  0.9988873E-007  0.3533656E+04  0.7818608E-02  0.8105860E-01
          2   -1    0    0  501    0  0.00000000000E+00  0.00000000000E+00  0.28142118007E+04  0.28142118007E+04  0.00000000000E+00 0. -1.
         -2   -1    0    0    0  501 -0.00000000000E+00 -0.00000000000E+00 -0.11092561296E+04  0.11092561296E+04  0.00000000000E+00 0.  1.
         23    2    1    2    0    0 -0.72557715865E+03 -0.69535839413E+03 -0.75886263018E+03  0.12625684337E+04  0.90670000171E+02 0.  0.
         11    1    3    3    0    0 -0.28589727312E+03 -0.26686885287E+03 -0.35091980161E+03  0.52545308313E+03  0.00000000000E+00 0.  1.
        -11    1    3    3    0    0 -0.43967988553E+03 -0.42848954127E+03 -0.40794282857E+03  0.73711535060E+03  0.00000000000E+00 0. -1.
         22    1    1    2    0    0  0.72557715865E+03  0.69535839413E+03  0.24638183013E+04  0.26608994966E+04  0.00000000000E+00 0. -1.
<mgrwt>
<rscale>  0 0.35336563E+04</rscale>
<asrwt>0</asrwt>
<pdfrwt beam="1">  1        2 0.43295566E+00 0.35336563E+04</pdfrwt>
<pdfrwt beam="2">  1       -2 0.17065479E+00 0.35336563E+04</pdfrwt>
<totfact> 0.39154459E-01</totfact>
</mgrwt>
</event>
<event>
 6    1  0.9988873E-007  0.2009762E+04  0.7818608E-02  0.8602070E-01
         -1   -1    0    0    0  501 -0.00000000000E+00  0.00000000000E+00  0.14634655092E+04  0.14634655092E+04  0.00000000000E+00 0.  1.
          1   -1    0    0  501    0  0.00000000000E+00 -0.00000000000E+00 -0.68999653839E+03  0.68999653839E+03  0.00000000000E+00 0. -1.
         23    2    1    2    0    0 -0.63693750912E+03 -0.45191372547E+03  0.10615678617E+04  0.13210460597E+04  0.91219302465E+02 0.  0.
         11    1    3    3    0    0 -0.24284713684E+03 -0.14934614481E+03  0.45538094048E+03  0.53726232307E+03  0.00000000000E+00 0.  1.
        -11    1    3    3    0    0 -0.39409037228E+03 -0.30256758066E+03  0.60618692123E+03  0.78378373667E+03  0.00000000000E+00 0. -1.
         22    1    1    2    0    0  0.63693750912E+03  0.45191372547E+03 -0.28809889096E+03  0.83241598781E+03  0.00000000000E+00 0. -1.
<mgrwt>
<rscale>  0 0.20097623E+04</rscale>
<asrwt>0</asrwt>
<pdfrwt beam="1">  1        1 0.10615331E+00 0.20097623E+04</pdfrwt>
<pdfrwt beam="2">  1       -1 0.22514854E+00 0.20097623E+04</pdfrwt>
<totfact> 0.26237243E+00</totfact>
</mgrwt>
</event>
<event>
 6    1  0.9988873E-007  0.2070284E+04  0.7818608E-02  0.8574448E-01
          1   -1    0    0  501    0  0.00000000000E+00  0.00000000000E+00  0.22375022426E+04  0.22375022426E+04  0.00000000000E+00 0. -1.
         -1   -1    0    0    0  501 -0.00000000000E+00 -0.00000000000E+00 -0.47889068318E+03  0.47889068318E+03  0.00000000000E+00 0.  1.
         23    2    1    2    0    0  0.35567654065E+03 -0.84033123620E+03  0.15163066264E+04  0.17722668385E+04  0.95297289846E+02 0.  0.
         11    1    3    3    0    0  0.20974325278E+03 -0.50217120512E+03  0.81253492201E+03  0.97794741721E+03  0.00000000000E+00 0. -1.
        -11    1    3    3    0    0  0.14593328787E+03 -0.33816003108E+03  0.70377170440E+03  0.79431942129E+03  0.00000000000E+00 0.  1.
         22    1    1    2    0    0 -0.35567654065E+03  0.84033123620E+03  0.24230493300E+03  0.94412608726E+03  0.00000000000E+00 0.  1.
<mgrwt>
<rscale>  0 0.20702840E+04</rscale>
<asrwt>0</asrwt>
<pdfrwt beam="1">  1        1 0.34423111E+00 0.20702840E+04</pdfrwt>
<pdfrwt beam="2">  1       -1 0.73675491E-01 0.20702840E+04</pdfrwt>
<totfact> 0.35142277E+00</totfact>
</mgrwt>
</event>
<event>
 6    1  0.9988873E-007  0.1258218E+04  0.7818608E-02  0.9063371E-01
          1   -1    0    0  501    0  0.00000000000E+00  0.00000000000E+00  0.46315889779E+03  0.46315889779E+03  0.00000000000E+00 0. -1.
         -1   -1    0    0    0  501 -0.00000000000E+00 -0.00000000000E+00 -0.85451932589E+03  0.85451932589E+03  0.00000000000E+00 0.  1.
         23    2    1    2    0    0  0.43494116199E+03 -0.12555572519E+03 -0.64942716383E+03  0.79658658624E+03  0.88636864444E+02 0.  0.
         13    1    3    3    0    0  0.28978565087E+03 -0.11196578894E+03 -0.38579500684E+03  0.49532802126E+03  0.00000000000E+00 0. -1.
        -13    1    3    3    0    0  0.14515551112E+03 -0.13589936251E+02 -0.26363215699E+03  0.30125856498E+03  0.00000000000E+00 0.  1.
         22    1    1    2    0    0 -0.43494116199E+03  0.12555572519E+03  0.25806673573E+03  0.52109163744E+03  0.00000000000E+00 0. -1.
<mgrwt>
<rscale>  0 0.12582182E+04</rscale>
<asrwt>0</asrwt>
<pdfrwt beam="1">  1        1 0.71255216E-01 0.12582182E+04</pdfrwt>
<pdfrwt beam="2">  1       -1 0.13146451E+00 0.12582182E+04</pdfrwt>
<totfact> 0.23926157E+01</totfact>
</mgrwt>
</event>
<event>
 6    1  0.9988873E-007  0.1799299E+04  0.7818608E-02  0.8706672E-01
          1   -1    0    0  501    0  0.00000000000E+00  0.00000000000E+00  0.46926679744E+03  0.46926679744E+03  0.00000000000E+00 0. -1.
         -1   -1    0    0    0  501 -0.00000000000E+00 -0.00000000000E+00 -0.17247532474E+04  0.17247532474E+04  0.00000000000E+00 0.  1.
         23    2    1    2    0    0  0.70282588255E+03 -0.27780716748E+03 -0.38346591625E+02  0.76134056979E+03  0.83832920972E+02 0.  0.
         13    1    3    3    0    0  0.10538758248E+03 -0.16696866918E+02 -0.23009387664E+02  0.10915475173E+03  0.00000000000E+00 0.  1.
        -13    1    3    3    0    0  0.59743830007E+03 -0.26111030056E+03 -0.15337203961E+02  0.65218581806E+03  0.00000000000E+00 0. -1.
         22    1    1    2    0    0 -0.70282588255E+03  0.27780716748E+03 -0.12171398583E+04  0.14326794750E+04  0.00000000000E+00 0.  1.
<mgrwt>
<rscale>  0 0.17992992E+04</rscale>
<asrwt>0</asrwt>
<pdfrwt beam="1">  1        1 0.72194891E-01 0.17992992E+04</pdfrwt>
<pdfrwt beam="2">  1       -1 0.26534666E+00 0.17992992E+04</pdfrwt>
<totfact> 0.25288225E+00</totfact>
</mgrwt>
</event>
<event>
 6    1  0.9988873E-007  0.4725931E+04  0.7818608E-02  0.7872234E-01
          2   -1    0    0  501    0  0.00000000000E+00  0.00000000000E+00  0.24596255110E+04  0.24596255110E+04  0.00000000000E+00 0. -1.
         -2   -1    0    0    0  501 -0.00000000000E+00 -0.00000000000E+00 -0.22701040189E+04  0.22701040189E+04  0.00000000000E+00 0.  1.
         23    2    1    2    0    0 -0.19779371570E+04  0.62698194600E+03 -0.10349061873E+04  0.23204630649E+04  0.90422681981E+02 0.  0.
         13    1    3    3    0    0 -0.15686860895E+04  0.49787781241E+03 -0.77936152926E+03  0.18210059738E+04  0.00000000000E+00 0.  1.
        -13    1    3    3    0    0 -0.40925106752E+03  0.12910413360E+03 -0.25554465802E+03  0.49945709107E+03  0.00000000000E+00 0. -1.
         22    1    1    2    0    0  0.19779371570E+04 -0.62698194600E+03  0.12244276793E+04  0.24092664650E+04  0.00000000000E+00 0. -1.
<mgrwt>
<rscale>  0 0.47259309E+04</rscale>
<asrwt>0</asrwt>
<pdfrwt beam="1">  1        2 0.37840392E+00 0.47259309E+04</pdfrwt>
<pdfrwt beam="2">  1       -2 0.34924677E+00 0.47259309E+04</pdfrwt>
<totfact> 0.42993366E-02</totfact>
</mgrwt>
</event>
<event>
 6    1  0.9988873E-007  0.2162295E+04  0.7818608E-02  0.8534288E-01
         -1   -1    0    0    0  501 -0.00000000000E+00  0.00000000000E+00  0.35432352965E+03  0.35432352965E+03  0.00000000000E+00 0.  1.
          1   -1    0    0  501    0  0.00000000000E+00 -0.00000000000E+00 -0.32989061814E+04  0.32989061814E+04  0.00000000000E+00 0. -1.
         23    2    1    2    0    0  0.10353905687E+04 -0.29242724294E+03 -0.16179996331E+04  0.19451987314E+04  0.91257710430E+02 0.  0.
         11    1    3    3    0    0  0.14733062181E+03 -0.67158441563E+02 -0.28326323236E+03  0.32627385308E+03  0.00000000000E+00 0. -1.
        -11    1    3    3    0    0  0.88805994688E+03 -0.22526880138E+03 -0.13347364007E+04  0.16189248783E+04  0.00000000000E+00 0.  1.
         22    1    1    2    0    0 -0.10353905687E+04  0.29242724294E+03 -0.13265830186E+04  0.17080309797E+04  0.00000000000E+00 0.  1.
<mgrwt>
<rscale>  0 0.21622952E+04</rscale>
<asrwt>0</asrwt>
<pdfrwt beam="1">  1        1 0.50752403E+00 0.21622952E+04</pdfrwt>
<pdfrwt beam="2">  1       -1 0.54511312E-01 0.21622952E+04</pdfrwt>
<totfact> 0.11150010E+00</totfact>
</mgrwt>
</event>
<event>
 6    1  0.9988873E-007  0.1388592E+04  0.7818608E-02  0.8962118E-01
          2   -1    0    0  501    0  0.00000000000E+00  0.00000000000E+00  0.21964908332E+04  0.21964908332E+04  0.00000000000E+00 0. -1.
         -2   -1    0    0    0  501 -0.00000000000E+00 -0.00000000000E+00 -0.21946238991E+03  0.21946238991E+03  0.00000000000E+00 0.  1.
         23    2    1    2    0    0 -0.29070811397E+03 -0.44583093664E+03  0.17603390229E+04  0.18412961632E+04  0.91113409801E+02 0.  0.
         11    1    3    3    0    0 -0.10953650625E+03 -0.24915487526E+03  0.85222098657E+03  0.89462674229E+03  0.00000000000E+00 0. -1.
        -11    1    3    3    0    0 -0.18117160772E+03 -0.19667606137E+03  0.90811803634E+03  0.94666942091E+03  0.00000000000E+00 0.  1.
         22    1    1    2    0    0  0.29070811397E+03  0.44583093664E+03  0.21668942038E+03  0.57465705990E+03  0.00000000000E+00 0.  1.
<mgrwt>
<rscale>  0 0.13885923E+04</rscale>
<asrwt>0</asrwt>
<pdfrwt beam="1">  1        2 0.33792165E+00 0.13885923E+04</pdfrwt>
<pdfrwt beam="2">  1       -2 0.33763446E-01 0.13885923E+04</pdfrwt>
<totfact> 0.41528761E+01</totfact>
</mgrwt>
</event>
<event>
 6    1  0.9988873E-007  0.3198814E+04  0.7818608E-02  0.8189131E-01
         -1   -1    0    0    0  501 -0.00000000000E+00  0.00000000000E+00  0.32200893823E+04  0.32200893823E+04  0.00000000000E+00 0.  1.
          1   -1    0    0  501    0  0.00000000000E+00 -0.00000000000E+00 -0.79441962051E+03  0.79441962051E+03  0.00000000000E+00 0. -1.
         23    2    1    2    0    0 -0.11358969107E+04 -0.61964220498E+03  0.36839057405E+02  0.12977590349E+04  0.92753127532E+02 0.  0.
         13    1    3    3    0    0 -0.64832040028E+03 -0.37148567996E+03  0.64339530588E+02  0.74997368423E+03  0.00000000000E+00 0. -1.
        -13    1    3    3    0    0 -0.48757651040E+03 -0.24815652501E+03 -0.27500473184E+02  0.54778535069E+03  0.00000000000E+00 0.  1.
         22    1    1    2    0    0  0.11358969107E+04  0.61964220498E+03  0.23888307044E+04  0.27167499679E+04  0.00000000000E+00 0.  1.
<mgrwt>
<rscale>  0 0.31988136E+04</rscale>
<asrwt>0</asrwt>
<pdfrwt beam="1">  1        1 0.12221840E+00 0.31988136E+04</pdfrwt>
<pdfrwt beam="2">  1       -1 0.49539836E+00 0.31988136E+04</pdfrwt>
<totfact> 0.29807755E-02</totfact>
</mgrwt>
</event>
<event>
 6    1  0.9988873E-007  0.4581794E+03  0.7818608E-02  0.1025311E+00
          3   -1    0    0  501    0  0.00000000000E+00  0.00000000000E+00  0.59567856614E+03  0.59567856614E+03  0.00000000000E+00 0. -1.
         -3   -1    0    0    0  501 -0.00000000000E+00 -0.00000000000E+00 -0.88104701862E+02  0.88104701862E+02  0.00000000000E+00 0.  1.
         23    2    1    2    0    0 -0.12166464580E+03  0.12806543092E+03  0.45980524450E+03  0.50079452062E+03  0.90394957688E+02 0.  0.
         11    1    3    3    0    0 -0.54242564756E+02  0.10285322160E+03  0.20146852788E+03  0.23261687117E+03  0.00000000000E+00 0. -1.
        -11    1    3    3    0    0 -0.67422081041E+02  0.25212209320E+02  0.25833671662E+03  0.26817764945E+03  0.00000000000E+00 0.  1.
         22    1    1    2    0    0  0.12166464580E+03 -0.12806543092E+03  0.47768619771E+02  0.18298874738E+03  0.00000000000E+00 0.  1.
<mgrwt>
<rscale>  0 0.45817936E+03</rscale>
<asrwt>0</asrwt>
<pdfrwt beam="1">  1        3 0.91642854E-01 0.45817936E+03</pdfrwt>
<pdfrwt beam="2">  1       -3 0.13554570E-01 0.45817936E+03</pdfrwt>
<totfact> 0.12707176E+02</totfact>
</mgrwt>
</event>
<event>
 6    1  0.9988873E-007  0.7811349E+03  0.7818608E-02  0.9587732E-01
         -4   -1    0    0    0  501 -0.00000000000E+00  0.00000000000E+00  0.19203088576E+03  0.19203088576E+03  0.00000000000E+00 0.  1.
          4   -1    0    0  501    0  0.00000000000E+00 -0.00000000000E+00 -0.79436671134E+03  0.79436671134E+03  0.00000000000E+00 0. -1.
         23    2    1    2    0    0 -0.26508331130E+03 -0.24820242884E+03 -0.47000628224E+03  0.59989440739E+03  0.84224622670E+02 0.  0.
         13    1    3    3    0    0 -0.94371980286E+02 -0.83031753020E+02 -0.10196507864E+03  0.16185555269E+03  0.00000000000E+00 0. -1.
        -13    1    3    3    0    0 -0.17071133101E+03 -0.16517067582E+03 -0.36804120359E+03  0.43803885471E+03  0.00000000000E+00 0.  1.
         22    1    1    2    0    0  0.26508331130E+03  0.24820242884E+03 -0.13232954334E+03  0.38650318971E+03  0.00000000000E+00 0.  1.
<mgrwt>
<rscale>  0 0.78113493E+03</rscale>
<asrwt>0</asrwt>
<pdfrwt beam="1">  1        4 0.12221026E+00 0.78113493E+03</pdfrwt>
<pdfrwt beam="2">  1       -4 0.29543213E-01 0.78113493E+03</pdfrwt>
<totfact> 0.11157336E+01</totfact>
</mgrwt>
</event>
<event>
 6    1  0.9988873E-007  0.1324681E+04  0.7818608E-02  0.9010219E-01
          2   -1    0    0  501    0  0.00000000000E+00  0.00000000000E+00  0.38644316905E+03  0.38644316905E+03  0.00000000000E+00 0. -1.
         -2   -1    0    0    0  501 -0.00000000000E+00 -0.00000000000E+00 -0.11352113470E+04  0.11352113470E+04  0.00000000000E+00 0.  1.
         23    2    1    2    0    0 -0.19727098189E+03 -0.34065483550E+03 -0.98392706331E+03  0.10631119787E+04  0.84457421305E+02 0.  0.
         13    1    3    3    0    0 -0.14857902594E+03 -0.24956473860E+03 -0.61733090591E+03  0.68224316273E+03  0.00000000000E+00 0. -1.
        -13    1    3    3    0    0 -0.48691955956E+02 -0.91090096900E+02 -0.36659615740E+03  0.38086881593E+03  0.00000000000E+00 0.  1.
         22    1    1    2    0    0  0.19727098189E+03  0.34065483550E+03  0.23515888534E+03  0.45854253740E+03  0.00000000000E+00 0. -1.
<mgrwt>
<rscale>  0 0.13246806E+04</rscale>
<asrwt>0</asrwt>
<pdfrwt beam="1">  1        2 0.59452795E-01 0.13246806E+04</pdfrwt>
<pdfrwt beam="2">  1       -2 0.17464790E+00 0.13246806E+04</pdfrwt>
<totfact> 0.15966248E+01</totfact>
</mgrwt>
</event>
<event>
 6    1  0.9988873E-007  0.2279265E+04  0.7818608E-02  0.8486142E-01
         -2   -1    0    0    0  501 -0.00000000000E+00  0.00000000000E+00  0.97278630536E+03  0.97278630536E+03  0.00000000000E+00 0.  1.
          2   -1    0    0  501    0  0.00000000000E+00 -0.00000000000E+00 -0.13350949968E+04  0.13350949968E+04  0.00000000000E+00 0. -1.
         23    2    1    2    0    0 -0.28309744566E+03 -0.10706378321E+04  0.82938979260E+02  0.11142921687E+04  0.91425553589E+02 0.  0.
         11    1    3    3    0    0 -0.19060539067E+03 -0.56653472506E+03  0.67541555207E+02  0.60154290897E+03  0.00000000000E+00 0.  1.
        -11    1    3    3    0    0 -0.92492054983E+02 -0.50410310701E+03  0.15397424054E+02  0.51274925978E+03  0.00000000000E+00 0. -1.
         22    1    1    2    0    0  0.28309744566E+03  0.10706378321E+04 -0.44524767074E+03  0.11935891334E+04  0.00000000000E+00 0. -1.
<mgrwt>
<rscale>  0 0.22792649E+04</rscale>
<asrwt>0</asrwt>
<pdfrwt beam="1">  1        2 0.20539923E+00 0.22792649E+04</pdfrwt>
<pdfrwt beam="2">  1       -2 0.14965943E+00 0.22792649E+04</pdfrwt>
<totfact> 0.43181575E+00</totfact>
</mgrwt>
</event>
<event>
 6    1  0.9988873E-007  0.1905349E+04  0.7818608E-02  0.8652199E-01
         -1   -1    0    0    0  501 -0.00000000000E+00  0.00000000000E+00  0.60682241391E+03  0.60682241391E+03  0.00000000000E+00 0.  1.
          1   -1    0    0  501    0  0.00000000000E+00 -0.00000000000E+00 -0.14956406640E+04  0.14956406640E+04  0.00000000000E+00 0. -1.
         23    2    1    2    0    0  0.66901827268E+03 -0.61154174354E+03 -0.13049223924E+03  0.92067329458E+03  0.95091206655E+02 0.  0.
         13    1    3    3    0    0  0.16222089403E+03 -0.18262897882E+03 -0.69366175236E+02  0.25393036178E+03  0.00000000000E+00 0. -1.
        -13    1    3    3    0    0  0.50679737865E+03 -0.42891276472E+03 -0.61126064003E+02  0.66674293280E+03  0.00000000000E+00 0.  1.
         22    1    1    2    0    0 -0.66901827268E+03  0.61154174354E+03 -0.75832601089E+03  0.11817897834E+04  0.00000000000E+00 0. -1.
<mgrwt>
<rscale>  0 0.19053486E+04</rscale>
<asrwt>0</asrwt>
<pdfrwt beam="1">  1        1 0.23009856E+00 0.19053486E+04</pdfrwt>
<pdfrwt beam="2">  1       -1 0.93357295E-01 0.19053486E+04</pdfrwt>
<totfact> 0.68592988E+00</totfact>
</mgrwt>
</event>
<event>
 6    1  0.9988873E-007  0.8615097E+03  0.7818608E-02  0.9475018E-01
         -1   -1    0    0    0  501 -0.00000000000E+00  0.00000000000E+00  0.43452581721E+03  0.43452581721E+03  0.00000000000E+00 0.  1.
          1   -1    0    0  501    0  0.00000000000E+00 -0.00000000000E+00 -0.42701657230E+03  0.42701657230E+03  0.00000000000E+00 0. -1.
         23    2    1    2    0    0 -0.76299377191E+02  0.18705431620E+03  0.37928562280E+03  0.43842469037E+03  0.86877576450E+02 0.  0.
         13    1    3    3    0    0 -0.61255733904E+02  0.14617525371E+03  0.20694217781E+03  0.26066172464E+03  0.00000000000E+00 0. -1.
        -13    1    3    3    0    0 -0.15043643287E+02  0.40879062487E+02  0.17234344499E+03  0.17776296573E+03  0.00000000000E+00 0.  1.
         22    1    1    2    0    0  0.76299377191E+02 -0.18705431620E+03 -0.37177637789E+03  0.42311769914E+03  0.00000000000E+00 0. -1.
<mgrwt>
<rscale>  0 0.86150966E+03</rscale>
<asrwt>0</asrwt>
<pdfrwt beam="1">  1        1 0.65694857E-01 0.86150966E+03</pdfrwt>
<pdfrwt beam="2">  1       -1 0.66850126E-01 0.86150966E+03</pdfrwt>
<totfact> 0.12585337E+02</totfact>
</mgrwt>
</event>
<event>
 6    1  0.9988873E-007  0.8272882E+03  0.7818608E-02  0.9521337E-01
          2   -1    0    0  501    0  0.00000000000E+00  0.00000000000E+00  0.76303621997E+03  0.76303621997E+03  0.00000000000E+00 0. -1.
         -2   -1    0    0    0  501 -0.00000000000E+00 -0.00000000000E+00 -0.22423766500E+03  0.22423766500E+03  0.00000000000E+00 0.  1.
         23    2    1    2    0    0  0.18040564885E+03  0.29866646656E+03  0.19158235473E+02  0.36135542539E+03  0.91993744848E+02 0.  0.
         11    1    3    3    0    0 -0.65052332436E+01  0.40200493296E+02  0.11418320786E+02  0.42293921199E+02  0.00000000000E+00 0. -1.
        -11    1    3    3    0    0  0.18691088209E+03  0.25846597326E+03  0.77399146872E+01  0.31906150419E+03  0.00000000000E+00 0.  1.
         22    1    1    2    0    0 -0.18040564885E+03 -0.29866646656E+03  0.51964031950E+03  0.62591845957E+03  0.00000000000E+00 0. -1.
<mgrwt>
<rscale>  0 0.82728825E+03</rscale>
<asrwt>0</asrwt>
<pdfrwt beam="1">  1        2 0.11739019E+00 0.82728825E+03</pdfrwt>
<pdfrwt beam="2">  1       -2 0.34498103E-01 0.82728825E+03</pdfrwt>
<totfact> 0.28998821E+02</totfact>
</mgrwt>
</event>
<event>
 6    1  0.9988873E-007  0.3007920E+04  0.7818608E-02  0.8241473E-01
         -1   -1    0    0    0  501 -0.00000000000E+00  0.00000000000E+00  0.17400947808E+04  0.17400947808E+04  0.00000000000E+00 0.  1.
          1   -1    0    0  501    0  0.00000000000E+00 -0.00000000000E+00 -0.12998689631E+04  0.12998689631E+04  0.00000000000E+00 0. -1.
         23    2    1    2    0    0 -0.91432950911E+03 -0.11472966443E+04 -0.10780412925E+03  0.14738779020E+04  0.91685868454E+02 0.  0.
         11    1    3    3    0    0 -0.31679535281E+03 -0.43825859534E+03 -0.34399291712E+01  0.54077881344E+03  0.00000000000E+00 0.  1.
        -11    1    3    3    0    0 -0.59753415630E+03 -0.70903804895E+03 -0.10436420008E+03  0.93309908856E+03  0.00000000000E+00 0. -1.
         22    1    1    2    0    0  0.91432950911E+03  0.11472966443E+04  0.54802994700E+03  0.15660858419E+04  0.00000000000E+00 0.  1.
<mgrwt>
<rscale>  0 0.30079197E+04</rscale>
<asrwt>0</asrwt>
<pdfrwt beam="1">  1        1 0.19997984E+00 0.30079197E+04</pdfrwt>
<pdfrwt beam="2">  1       -1 0.26770689E+00 0.30079197E+04</pdfrwt>
<totfact> 0.41141931E-01</totfact>
</mgrwt>
</event>
<event>
 6    1  0.9988873E-007  0.2881221E+04  0.7818608E-02  0.8278487E-01
          2   -1    0    0  501    0  0.00000000000E+00  0.00000000000E+00  0.13507079629E+04  0.13507079629E+04  0.00000000000E+00 0. -1.
         -2   -1    0    0    0  501 -0.00000000000E+00 -0.00000000000E+00 -0.15364965637E+04  0.15364965637E+04  0.00000000000E+00 0.  1.
         23    2    1    2    0    0 -0.52269998771E+03  0.61402794361E+03 -0.12875426410E+04  0.15218812836E+04  0.90061069907E+02 0.  0.
         11    1    3    3    0    0 -0.21701731911E+03  0.21562588665E+03 -0.42214712577E+03  0.52134368279E+03  0.00000000000E+00 0.  1.
        -11    1    3    3    0    0 -0.30568266861E+03  0.39840205696E+03 -0.86539551523E+03  0.10005376008E+04  0.00000000000E+00 0. -1.
         22    1    1    2    0    0  0.52269998771E+03 -0.61402794361E+03  0.11017540402E+04  0.13653232429E+04  0.00000000000E+00 0. -1.
<mgrwt>
<rscale>  0 0.28812207E+04</rscale>
<asrwt>0</asrwt>
<pdfrwt beam="1">  1        2 0.20780122E+00 0.28812207E+04</pdfrwt>
<pdfrwt beam="2">  1       -2 0.23638409E+00 0.28812207E+04</pdfrwt>
<totfact> 0.10415823E+00</totfact>
</mgrwt>
</event>
<event>
 6    1  0.9988873E-007  0.2506016E+04  0.7818608E-02  0.8400845E-01
         -2   -1    0    0    0  501 -0.00000000000E+00  0.00000000000E+00  0.54877545975E+03  0.54877545975E+03  0.00000000000E+00 0.  1.
          2   -1    0    0  501    0  0.00000000000E+00 -0.00000000000E+00 -0.28609681795E+04  0.28609681795E+04  0.00000000000E+00 0. -1.
         23    2    1    2    0    0 -0.42604783160E+03  0.10736863441E+04 -0.50276297524E+03  0.12630356664E+04  0.90384540711E+02 0.  0.
         11    1    3    3    0    0 -0.16698876641E+03  0.52461924854E+03 -0.21304954085E+03  0.59033948784E+03  0.00000000000E+00 0. -1.
        -11    1    3    3    0    0 -0.25905906520E+03  0.54906709553E+03 -0.28971343439E+03  0.67269617861E+03  0.00000000000E+00 0.  1.
         22    1    1    2    0    0  0.42604783160E+03 -0.10736863441E+04 -0.18094297445E+04  0.21467079728E+04  0.00000000000E+00 0. -1.
<mgrwt>
<rscale>  0 0.25060161E+04</rscale>
<asrwt>0</asrwt>
<pdfrwt beam="1">  1        2 0.44014894E+00 0.25060161E+04</pdfrwt>
<pdfrwt beam="2">  1       -2 0.84426995E-01 0.25060161E+04</pdfrwt>
<totfact> 0.23157365E+00</totfact>
</mgrwt>
</event>
<event>
 6    1  0.9988873E-007  0.1619634E+04  0.7818608E-02  0.8808576E-01
          2   -1    0    0  501    0  0.00000000000E+00  0.00000000000E+00  0.31163016232E+03  0.31163016232E+03  0.00000000000E+00 0. -1.
         -2   -1    0    0    0  501 -0.00000000000E+00 -0.00000000000E+00 -0.21044281833E+04  0.21044281833E+04  0.00000000000E+00 0.  1.
         23    2    1    2    0    0 -0.21134946116E+03  0.37657282231E+03 -0.19167131554E+04  0.19668026882E+04  0.89709580313E+02 0.  0.
         13    1    3    3    0    0 -0.15912507581E+03  0.23852550812E+03 -0.10937923599E+04  0.11307506066E+04  0.00000000000E+00 0.  1.
        -13    1    3    3    0    0 -0.52224385346E+02  0.13804731419E+03 -0.82292079551E+03  0.83605208155E+03  0.00000000000E+00 0. -1.
         22    1    1    2    0    0  0.21134946116E+03 -0.37657282231E+03  0.12391513441E+03  0.44925565747E+03  0.00000000000E+00 0. -1.
<mgrwt>
<rscale>  0 0.16196337E+04</rscale>
<asrwt>0</asrwt>
<pdfrwt beam="1">  1        2 0.47943101E-01 0.16196337E+04</pdfrwt>
<pdfrwt beam="2">  1       -2 0.32375819E+00 0.16196337E+04</pdfrwt>
<totfact> 0.22960849E+00</totfact>
</mgrwt>
</event>
<event>
 6    1  0.9988873E-007  0.1326991E+04  0.7818608E-02  0.9008431E-01
         -2   -1    0    0    0  501 -0.00000000000E+00  0.00000000000E+00  0.26401154786E+03  0.26401154786E+03  0.00000000000E+00 0.  1.
          2   -1    0    0  501    0  0.00000000000E+00 -0.00000000000E+00 -0.16674508946E+04  0.16674508946E+04  0.00000000000E+00 0. -1.
         23    2    1    2    0    0  0.26144437351E+03 -0.48203613586E+03 -0.16931513563E+03  0.58099046380E+03  0.90389751420E+02 0.  0.
         13    1    3    3    0    0  0.19225386168E+02 -0.38844527761E+02  0.10980788104E+02  0.44711190072E+02  0.00000000000E+00 0. -1.
        -13    1    3    3    0    0  0.24221898734E+03 -0.44319160810E+03 -0.18029592373E+03  0.53627927373E+03  0.00000000000E+00 0.  1.
         22    1    1    2    0    0 -0.26144437351E+03  0.48203613586E+03 -0.12341242111E+04  0.13504719787E+04  0.00000000000E+00 0. -1.
<mgrwt>
<rscale>  0 0.13269910E+04</rscale>
<asrwt>0</asrwt>
<pdfrwt beam="1">  1        2 0.25653090E+00 0.13269910E+04</pdfrwt>
<pdfrwt beam="2">  1       -2 0.40617162E-01 0.13269910E+04</pdfrwt>
<totfact> 0.57400982E+01</totfact>
</mgrwt>
</event>
<event>
 6    1  0.9988873E-007  0.1632580E+04  0.7818608E-02  0.8800779E-01
          2   -1    0    0  501    0  0.00000000000E+00  0.00000000000E+00  0.18599006943E+04  0.18599006943E+04  0.00000000000E+00 0. -1.
         -2   -1    0    0    0  501 -0.00000000000E+00 -0.00000000000E+00 -0.35826065026E+03  0.35826065026E+03  0.00000000000E+00 0.  1.
         23    2    1    2    0    0  0.11772683709E+03  0.74277087393E+03  0.33250923401E+03  0.82804083529E+03  0.97575892832E+02 0.  0.
         11    1    3    3    0    0 -0.16959852460E+02  0.10240606577E+03  0.39554637899E+02  0.11108198901E+03  0.00000000000E+00 0. -1.
        -11    1    3    3    0    0  0.13468668955E+03  0.64036480816E+03  0.29295459611E+03  0.71695884628E+03  0.00000000000E+00 0.  1.
         22    1    1    2    0    0 -0.11772683709E+03 -0.74277087393E+03  0.11691308100E+04  0.13901205092E+04  0.00000000000E+00 0. -1.
<mgrwt>
<rscale>  0 0.16325798E+04</rscale>
<asrwt>0</asrwt>
<pdfrwt beam="1">  1        2 0.28613856E+00 0.16325798E+04</pdfrwt>
<pdfrwt beam="2">  1       -2 0.55117024E-01 0.16325798E+04</pdfrwt>
<totfact> 0.23664153E+01</totfact>
</mgrwt>
</event>
<event>
 6    1  0.9988873E-007  0.9033656E+03  0.7818608E-02  0.9421384E-01
          1   -1    0    0  501    0  0.00000000000E+00  0.00000000000E+00  0.22891881301E+04  0.22891881301E+04  0.00000000000E+00 0. -1.
         -1   -1    0    0    0  501 -0.00000000000E+00 -0.00000000000E+00 -0.89122148418E+02  0.89122148418E+02  0.00000000000E+00 0.  1.
         23    2    1    2    0    0 -0.31753524279E+03 -0.18110292532E+02  0.19384260791E+04  0.19664704410E+04  0.91398677609E+02 0.  0.
         13    1    3    3    0    0 -0.28269335670E+03 -0.43642345912E+02  0.16095104517E+04  0.16347305840E+04  0.00000000000E+00 0. -1.
        -13    1    3    3    0    0 -0.34841886088E+02  0.25532053380E+02  0.32891562744E+03  0.33173985704E+03  0.00000000000E+00 0.  1.
         22    1    1    2    0    0  0.31753524279E+03  0.18110292532E+02  0.26163990259E+03  0.41183983748E+03  0.00000000000E+00 0.  1.
<mgrwt>
<rscale>  0 0.90336563E+03</rscale>
<asrwt>0</asrwt>
<pdfrwt beam="1">  1        1 0.35218275E+00 0.90336563E+03</pdfrwt>
<pdfrwt beam="2">  1       -1 0.13711101E-01 0.90336563E+03</pdfrwt>
<totfact> 0.73609237E+01</totfact>
</mgrwt>
</event>
<event>
 6    1  0.9988873E-007  0.2509383E+04  0.7818608E-02  0.8399650E-01
         -2   -1    0    0    0  501 -0.00000000000E+00  0.00000000000E+00  0.55171933770E+03  0.55171933770E+03  0.00000000000E+00 0.  1.
          2   -1    0    0  501    0  0.00000000000E+00 -0.00000000000E+00 -0.28533541898E+04  0.28533541898E+04  0.00000000000E+00 0. -1.
         23    2    1    2    0    0 -0.40342957805E+03 -0.25262248059E+03 -0.27247705043E+04  0.27681925949E+04  0.10928128555E+03 0.  0.
         13    1    3    3    0    0 -0.21762855306E+03 -0.19794945964E+03 -0.15802445887E+04  0.16073951399E+04  0.00000000000E+00 0. -1.
        -13    1    3    3    0    0 -0.18580102499E+03 -0.54673020950E+02 -0.11445259156E+04  0.11607974550E+04  0.00000000000E+00 0.  1.
         22    1    1    2    0    0  0.40342957805E+03  0.25262248059E+03  0.42313565218E+03  0.63688093259E+03  0.00000000000E+00 0.  1.
<mgrwt>
<rscale>  0 0.25093829E+04</rscale>
<asrwt>0</asrwt>
<pdfrwt beam="1">  1        2 0.43897756E+00 0.25093829E+04</pdfrwt>
<pdfrwt beam="2">  1       -2 0.84879900E-01 0.25093829E+04</pdfrwt>
<totfact> 0.23116741E+00</totfact>
</mgrwt>
</event>
<event>
 6    1  0.9988873E-007  0.4405116E+04  0.7818608E-02  0.7927462E-01
         -2   -1    0    0    0  501 -0.00000000000E+00  0.00000000000E+00  0.13067939072E+04  0.13067939072E+04  0.00000000000E+00 0.  1.
          2   -1    0    0  501    0  0.00000000000E+00 -0.00000000000E+00 -0.37123385461E+04  0.37123385461E+04  0.00000000000E+00 0. -1.
         23    2    1    2    0    0 -0.25271986135E+03 -0.30552537000E+03 -0.36707573227E+04  0.36932454991E+04  0.91596476334E+02 0.  0.
         11    1    3    3    0    0 -0.15880223236E+03 -0.14306423620E+03 -0.16481884028E+04  0.16619899326E+04  0.00000000000E+00 0.  1.
        -11    1    3    3    0    0 -0.93917628987E+02 -0.16246113379E+03 -0.20225689199E+04  0.20312555666E+04  0.00000000000E+00 0. -1.
         22    1    1    2    0    0  0.25271986135E+03  0.30552537000E+03  0.12652126838E+04  0.13258869542E+04  0.00000000000E+00 0.  1.
<mgrwt>
<rscale>  0 0.44051158E+04</rscale>
<asrwt>0</asrwt>
<pdfrwt beam="1">  1        2 0.57112901E+00 0.44051158E+04</pdfrwt>
<pdfrwt beam="2">  1       -2 0.20104522E+00 0.44051158E+04</pdfrwt>
<totfact> 0.56975870E-02</totfact>
</mgrwt>
</event>
<event>
 6    1  0.9988873E-007  0.7685375E+03  0.7818608E-02  0.9606709E-01
         -1   -1    0    0    0  501 -0.00000000000E+00  0.00000000000E+00  0.10277139546E+04  0.10277139546E+04  0.00000000000E+00 0.  1.
          1   -1    0    0  501    0  0.00000000000E+00 -0.00000000000E+00 -0.14368050741E+03  0.14368050741E+03  0.00000000000E+00 0. -1.
         23    2    1    2    0    0 -0.19717801989E+03  0.31934081237E+03  0.36951659688E+03  0.53453865790E+03  0.91276149416E+02 0.  0.
         11    1    3    3    0    0 -0.18529257056E+02  0.10239772047E+03  0.81992261740E+02  0.13248153649E+03  0.00000000000E+00 0.  1.
        -11    1    3    3    0    0 -0.17864876283E+03  0.21694309189E+03  0.28752433514E+03  0.40205712141E+03  0.00000000000E+00 0. -1.
         22    1    1    2    0    0  0.19717801989E+03 -0.31934081237E+03  0.51451685030E+03  0.63685580410E+03  0.00000000000E+00 0.  1.
<mgrwt>
<rscale>  0 0.76853747E+03</rscale>
<asrwt>0</asrwt>
<pdfrwt beam="1">  1        1 0.22104694E-01 0.76853747E+03</pdfrwt>
<pdfrwt beam="2">  1       -1 0.15810983E+00 0.76853747E+03</pdfrwt>
<totfact> 0.70564719E+01</totfact>
</mgrwt>
</event>
<event>
 6    1  0.9988873E-007  0.3695156E+04  0.7818608E-02  0.8069036E-01
          2   -1    0    0  501    0  0.00000000000E+00  0.00000000000E+00  0.13735628488E+04  0.13735628488E+04  0.00000000000E+00 0. -1.
         -2   -1    0    0    0  501 -0.00000000000E+00 -0.00000000000E+00 -0.24851756485E+04  0.24851756485E+04  0.00000000000E+00 0.  1.
         23    2    1    2    0    0  0.12281094883E+03 -0.10018842446E+04 -0.21707097585E+04  0.23956797366E+04  0.91901991601E+02 0.  0.
         13    1    3    3    0    0  0.12373717914E+03 -0.78190857132E+03 -0.16351359675E+04  0.18166897191E+04  0.00000000000E+00 0.  1.
        -13    1    3    3    0    0 -0.92623030287E+00 -0.21997567332E+03 -0.53557379101E+03  0.57899001750E+03  0.00000000000E+00 0. -1.
         22    1    1    2    0    0 -0.12281094883E+03  0.10018842446E+04  0.10590969588E+04  0.14630587606E+04  0.00000000000E+00 0. -1.
<mgrwt>
<rscale>  0 0.36951563E+04</rscale>
<asrwt>0</asrwt>
<pdfrwt beam="1">  1        2 0.21131736E+00 0.36951563E+04</pdfrwt>
<pdfrwt beam="2">  1       -2 0.38233471E+00 0.36951563E+04</pdfrwt>
<totfact> 0.11712182E-01</totfact>
</mgrwt>
</event>
<event>
 6    1  0.9988873E-007  0.1591554E+04  0.7818608E-02  0.8825753E-01
         -2   -1    0    0    0  501 -0.00000000000E+00  0.00000000000E+00  0.47148443747E+03  0.47148443747E+03  0.00000000000E+00 0.  1.
          2   -1    0    0  501    0  0.00000000000E+00 -0.00000000000E+00 -0.13431222173E+04  0.13431222173E+04  0.00000000000E+00 0. -1.
         23    2    1    2    0    0  0.11409229249E+03  0.71855975976E+02 -0.13284001759E+04  0.13383585903E+04  0.91522437445E+02 0.  0.
         11    1    3    3    0    0  0.14084700523E+02 -0.91647577907E+01 -0.47594968040E+03  0.47624622817E+03  0.00000000000E+00 0. -1.
        -11    1    3    3    0    0  0.10000759197E+03  0.81020733767E+02 -0.85245049545E+03  0.86211236214E+03  0.00000000000E+00 0.  1.
         22    1    1    2    0    0 -0.11409229249E+03 -0.71855975976E+02  0.45676239602E+03  0.47624806446E+03  0.00000000000E+00 0.  1.
<mgrwt>
<rscale>  0 0.15915542E+04</rscale>
<asrwt>0</asrwt>
<pdfrwt beam="1">  1        2 0.20663419E+00 0.15915542E+04</pdfrwt>
<pdfrwt beam="2">  1       -2 0.72536067E-01 0.15915542E+04</pdfrwt>
<totfact> 0.25742502E+01</totfact>
</mgrwt>
</event>
<event>
 6    1  0.9988873E-007  0.2378601E+04  0.7818608E-02  0.8447559E-01
          1   -1    0    0  501    0  0.00000000000E+00  0.00000000000E+00  0.88774727240E+03  0.88774727240E+03  0.00000000000E+00 0. -1.
         -1   -1    0    0    0  501 -0.00000000000E+00 -0.00000000000E+00 -0.15932863538E+04  0.15932863538E+04  0.00000000000E+00 0.  1.
         23    2    1    2    0    0 -0.54255985357E+03 -0.10475970172E+04 -0.20831896476E+03  0.12007764062E+04  0.81464602775E+02 0.  0.
         13    1    3    3    0    0 -0.36446390198E+03 -0.62466362688E+03 -0.14361337846E+03  0.73733532742E+03  0.00000000000E+00 0. -1.
        -13    1    3    3    0    0 -0.17809595159E+03 -0.42293339028E+03 -0.64705586302E+02  0.46344107877E+03  0.00000000000E+00 0.  1.
         22    1    1    2    0    0  0.54255985357E+03  0.10475970172E+04 -0.49722011668E+03  0.12802572201E+04  0.00000000000E+00 0.  1.
<mgrwt>
<rscale>  0 0.23786009E+04</rscale>
<asrwt>0</asrwt>
<pdfrwt beam="1">  1        1 0.13657651E+00 0.23786009E+04</pdfrwt>
<pdfrwt beam="2">  1       -1 0.24512097E+00 0.23786009E+04</pdfrwt>
<totfact> 0.12546231E+00</totfact>
</mgrwt>
</event>
<event>
 6    1  0.9988873E-007  0.1862011E+04  0.7818608E-02  0.8674001E-01
          2   -1    0    0  501    0  0.00000000000E+00  0.00000000000E+00  0.68607396084E+03  0.68607396084E+03  0.00000000000E+00 0. -1.
         -2   -1    0    0    0  501 -0.00000000000E+00 -0.00000000000E+00 -0.12633785130E+04  0.12633785130E+04  0.00000000000E+00 0.  1.
         23    2    1    2    0    0  0.21674692940E+03  0.44617020896E+03 -0.11115642480E+04  0.12204253760E+04  0.88407772045E+02 0.  0.
         13    1    3    3    0    0  0.14185766226E+03  0.20637594954E+03 -0.61191636295E+03  0.66117793682E+03  0.00000000000E+00 0. -1.
        -13    1    3    3    0    0  0.74889267137E+02  0.23979425942E+03 -0.49964788509E+03  0.55924743920E+03  0.00000000000E+00 0.  1.
         22    1    1    2    0    0 -0.21674692940E+03 -0.44617020896E+03  0.53425969586E+03  0.72902709784E+03  0.00000000000E+00 0. -1.
<mgrwt>
<rscale>  0 0.18620108E+04</rscale>
<asrwt>0</asrwt>
<pdfrwt beam="1">  1        2 0.10554984E+00 0.18620108E+04</pdfrwt>
<pdfrwt beam="2">  1       -2 0.19436593E+00 0.18620108E+04</pdfrwt>
<totfact> 0.57173996E+00</totfact>
</mgrwt>
</event>
<event>
 6    1  0.9988873E-007  0.2576522E+04  0.7818608E-02  0.8376220E-01
          1   -1    0    0  501    0  0.00000000000E+00  0.00000000000E+00  0.22889554849E+04  0.22889554849E+04  0.00000000000E+00 0. -1.
         -1   -1    0    0    0  501 -0.00000000000E+00 -0.00000000000E+00 -0.72505403905E+03  0.72505403905E+03  0.00000000000E+00 0.  1.
         23    2    1    2    0    0 -0.84710203358E+03 -0.88140137423E+03  0.31386359882E+03  0.12655688310E+04  0.93294530915E+02 0.  0.
         11    1    3    3    0    0 -0.12765530668E+03 -0.92943453374E+02  0.25653664293E+02  0.15997647746E+03  0.00000000000E+00 0. -1.
        -11    1    3    3    0    0 -0.71944672690E+03 -0.78845792085E+03  0.28820993453E+03  0.11055923535E+04  0.00000000000E+00 0.  1.
         22    1    1    2    0    0  0.84710203358E+03  0.88140137423E+03  0.12500378470E+04  0.17484406929E+04  0.00000000000E+00 0. -1.
<mgrwt>
<rscale>  0 0.25765220E+04</rscale>
<asrwt>0</asrwt>
<pdfrwt beam="1">  1        1 0.35214700E+00 0.25765220E+04</pdfrwt>
<pdfrwt beam="2">  1       -1 0.11154678E+00 0.25765220E+04</pdfrwt>
<totfact> 0.12336145E+00</totfact>
</mgrwt>
</event>
<event>
 6    1  0.9988873E-007  0.6146286E+03  0.7818608E-02  0.9875513E-01
         -2   -1    0    0    0  501 -0.00000000000E+00  0.00000000000E+00  0.10636829270E+03  0.10636829270E+03  0.00000000000E+00 0.  1.
          2   -1    0    0  501    0  0.00000000000E+00 -0.00000000000E+00 -0.88787810509E+03  0.88787810509E+03  0.00000000000E+00 0. -1.
         23    2    1    2    0    0  0.14621578541E+03 -0.40211446376E+02  0.20369102556E+02  0.17815460726E+03  0.91258684108E+02 0.  0.
         13    1    3    3    0    0  0.73956316172E+02 -0.19450264765E+02 -0.35673138364E+02  0.84382594781E+02  0.00000000000E+00 0.  1.
        -13    1    3    3    0    0  0.72259469240E+02 -0.20761181610E+02  0.56042240920E+02  0.93772012477E+02  0.00000000000E+00 0. -1.
         22    1    1    2    0    0 -0.14621578541E+03  0.40211446376E+02 -0.80187891495E+03  0.81609179052E+03  0.00000000000E+00 0. -1.
<mgrwt>
<rscale>  0 0.61462860E+03</rscale>
<asrwt>0</asrwt>
<pdfrwt beam="1">  1        2 0.13659663E+00 0.61462860E+03</pdfrwt>
<pdfrwt beam="2">  1       -2 0.16364353E-01 0.61462860E+03</pdfrwt>
<totfact> 0.90862851E+02</totfact>
</mgrwt>
</event>
<event>
 6    1  0.9988873E-007  0.1886503E+04  0.7818608E-02  0.8661604E-01
         -1   -1    0    0    0  501 -0.00000000000E+00  0.00000000000E+00  0.62560641835E+03  0.62560641835E+03  0.00000000000E+00 0.  1.
          1   -1    0    0  501    0  0.00000000000E+00 -0.00000000000E+00 -0.14221772620E+04  0.14221772620E+04  0.00000000000E+00 0. -1.
         23    2    1    2    0    0 -0.50312853884E+03  0.34193508495E+03 -0.11786332382E+04  0.13294316759E+04  0.90301394761E+02 0.  0.
         13    1    3    3    0    0 -0.16197008622E+03  0.65957110540E+02 -0.29797950031E+03  0.34550894615E+03  0.00000000000E+00 0.  1.
        -13    1    3    3    0    0 -0.34115845261E+03  0.27597797441E+03 -0.88065373785E+03  0.98392272976E+03  0.00000000000E+00 0. -1.
         22    1    1    2    0    0  0.50312853884E+03 -0.34193508495E+03  0.38206239455E+03  0.71835200441E+03  0.00000000000E+00 0.  1.
<mgrwt>
<rscale>  0 0.18865028E+04</rscale>
<asrwt>0</asrwt>
<pdfrwt beam="1">  1        1 0.21879650E+00 0.18865028E+04</pdfrwt>
<pdfrwt beam="2">  1       -1 0.96247142E-01 0.18865028E+04</pdfrwt>
<totfact> 0.72188868E+00</totfact>
</mgrwt>
</event>
<event>
 6    1  0.9988873E-007  0.2370237E+04  0.7818608E-02  0.8450731E-01
         -2   -1    0    0    0  501 -0.00000000000E+00  0.00000000000E+00  0.10141973873E+04  0.10141973873E+04  0.00000000000E+00 0.  1.
          2   -1    0    0  501    0  0.00000000000E+00 -0.00000000000E+00 -0.13848446494E+04  0.13848446494E+04  0.00000000000E+00 0. -1.
         23    2    1    2    0    0 -0.87532945598E+03  0.79512638879E+03 -0.23092685619E+03  0.12082652220E+04  0.90277367848E+02 0.  0.
         13    1    3    3    0    0 -0.40819923763E+03  0.41656426918E+03 -0.14409218842E+03  0.60076198842E+03  0.00000000000E+00 0. -1.
        -13    1    3    3    0    0 -0.46713021834E+03  0.37856211960E+03 -0.86834667767E+02  0.60750323358E+03  0.00000000000E+00 0.  1.
         22    1    1    2    0    0  0.87532945598E+03 -0.79512638879E+03 -0.13972040584E+03  0.11907768147E+04  0.00000000000E+00 0. -1.
<mgrwt>
<rscale>  0 0.23702370E+04</rscale>
<asrwt>0</asrwt>
<pdfrwt beam="1">  1        2 0.21305302E+00 0.23702370E+04</pdfrwt>
<pdfrwt beam="2">  1       -2 0.15603037E+00 0.23702370E+04</pdfrwt>
<totfact> 0.35891970E+00</totfact>
</mgrwt>
</event>
<event>
 6    1  0.9988873E-007  0.1796209E+04  0.7818608E-02  0.8708318E-01
          2   -1    0    0  501    0  0.00000000000E+00  0.00000000000E+00  0.18971585365E+04  0.18971585365E+04  0.00000000000E+00 0. -1.
         -2   -1    0    0    0  501 -0.00000000000E+00 -0.00000000000E+00 -0.42515766314E+03  0.42515766314E+03  0.00000000000E+00 0.  1.
         23    2    1    2    0    0  0.34477978331E+03 -0.69526711844E+03  0.13163508418E+04  0.15308009456E+04  0.91118228334E+02 0.  0.
         11    1    3    3    0    0  0.31507387249E+03 -0.58652831518E+03  0.11686214828E+04  0.13449770183E+04  0.00000000000E+00 0. -1.
        -11    1    3    3    0    0  0.29705910815E+02 -0.10873880326E+03  0.14772935895E+03  0.18582392733E+03  0.00000000000E+00 0.  1.
         22    1    1    2    0    0 -0.34477978331E+03  0.69526711844E+03  0.15565003156E+03  0.79151525398E+03  0.00000000000E+00 0.  1.
<mgrwt>
<rscale>  0 0.17962088E+04</rscale>
<asrwt>0</asrwt>
<pdfrwt beam="1">  1        2 0.29187054E+00 0.17962088E+04</pdfrwt>
<pdfrwt beam="2">  1       -2 0.65408872E-01 0.17962088E+04</pdfrwt>
<totfact> 0.15500166E+01</totfact>
</mgrwt>
</event>
<event>
 6    1  0.9988873E-007  0.1254781E+04  0.7818608E-02  0.9066213E-01
          2   -1    0    0  501    0  0.00000000000E+00  0.00000000000E+00  0.45727859200E+03  0.45727859200E+03  0.00000000000E+00 0. -1.
         -2   -1    0    0    0  501 -0.00000000000E+00 -0.00000000000E+00 -0.86078603746E+03  0.86078603746E+03  0.00000000000E+00 0.  1.
         23    2    1    2    0    0  0.13771023539E+03  0.48497216256E+03 -0.58950531900E+03  0.78070319024E+03  0.88424220225E+02 0.  0.
         11    1    3    3    0    0  0.57520008011E+02  0.77671608719E+02 -0.11644146627E+03  0.15132760881E+03  0.00000000000E+00 0. -1.
        -11    1    3    3    0    0  0.80190227381E+02  0.40730055384E+03 -0.47306385274E+03  0.62937558143E+03  0.00000000000E+00 0.  1.
         22    1    1    2    0    0 -0.13771023539E+03 -0.48497216256E+03  0.18599787355E+03  0.53736143922E+03  0.00000000000E+00 0. -1.
<mgrwt>
<rscale>  0 0.12547813E+04</rscale>
<asrwt>0</asrwt>
<pdfrwt beam="1">  1        2 0.70350553E-01 0.12547813E+04</pdfrwt>
<pdfrwt beam="2">  1       -2 0.13242862E+00 0.12547813E+04</pdfrwt>
<totfact> 0.27798616E+01</totfact>
</mgrwt>
</event>
<event>
 6    1  0.9988873E-007  0.2463127E+04  0.7818608E-02  0.8416241E-01
         -1   -1    0    0    0  501 -0.00000000000E+00  0.00000000000E+00  0.10474648835E+04  0.10474648835E+04  0.00000000000E+00 0.  1.
          1   -1    0    0  501    0  0.00000000000E+00 -0.00000000000E+00 -0.14480181144E+04  0.14480181144E+04  0.00000000000E+00 0. -1.
         23    2    1    2    0    0  0.37777990057E+03 -0.39736078649E+03  0.91482056158E+03  0.10704140656E+04  0.90974523633E+02 0.  0.
         13    1    3    3    0    0  0.28445805169E+03 -0.23769714375E+03  0.59873183201E+03  0.70419892217E+03  0.00000000000E+00 0.  1.
        -13    1    3    3    0    0  0.93321848875E+02 -0.15966364274E+03  0.31608872957E+03  0.36621514339E+03  0.00000000000E+00 0. -1.
         22    1    1    2    0    0 -0.37777990057E+03  0.39736078649E+03 -0.13153737924E+04  0.14250689323E+04  0.00000000000E+00 0. -1.
<mgrwt>
<rscale>  0 0.24631266E+04</rscale>
<asrwt>0</asrwt>
<pdfrwt beam="1">  1        1 0.22277202E+00 0.24631266E+04</pdfrwt>
<pdfrwt beam="2">  1       -1 0.16114844E+00 0.24631266E+04</pdfrwt>
<totfact> 0.18152654E+00</totfact>
</mgrwt>
</event>
<event>
 6    1  0.9988873E-007  0.1533443E+04  0.7818608E-02  0.8862513E-01
         -1   -1    0    0    0  501 -0.00000000000E+00  0.00000000000E+00  0.22158832290E+03  0.22158832290E+03  0.00000000000E+00 0.  1.
          1   -1    0    0  501    0  0.00000000000E+00 -0.00000000000E+00 -0.26529472239E+04  0.26529472239E+04  0.00000000000E+00 0. -1.
         23    2    1    2    0    0 -0.60515305600E+03  0.23974592027E+03 -0.48250418490E+03  0.81985235177E+03  0.12513697609E+03 0.  0.
         13    1    3    3    0    0 -0.41628465915E+03  0.10650671553E+03 -0.34368595570E+03  0.55023325421E+03  0.00000000000E+00 0. -1.
        -13    1    3    3    0    0 -0.18886839685E+03  0.13323920474E+03 -0.13881822920E+03  0.26961909756E+03  0.00000000000E+00 0.  1.
         22    1    1    2    0    0  0.60515305600E+03 -0.23974592027E+03 -0.19488547161E+04  0.20546831950E+04  0.00000000000E+00 0. -1.
<mgrwt>
<rscale>  0 0.15334433E+04</rscale>
<asrwt>0</asrwt>
<pdfrwt beam="1">  1        1 0.40814572E+00 0.15334433E+04</pdfrwt>
<pdfrwt beam="2">  1       -1 0.34090512E-01 0.15334433E+04</pdfrwt>
<totfact> 0.83399548E+00</totfact>
</mgrwt>
</event>
<event>
 6    1  0.9988873E-007  0.4042486E+04  0.7818608E-02  0.7996030E-01
          2   -1    0    0  501    0  0.00000000000E+00  0.00000000000E+00  0.18804672499E+04  0.18804672499E+04  0.00000000000E+00 0. -1.
         -2   -1    0    0    0  501 -0.00000000000E+00 -0.00000000000E+00 -0.21725571959E+04  0.21725571959E+04  0.00000000000E+00 0.  1.
         23    2    1    2    0    0 -0.53094788065E+03 -0.11120776959E+03 -0.20971339519E+04  0.21682282544E+04  0.94710775950E+02 0.  0.
         13    1    3    3    0    0 -0.54374443776E+02 -0.36075103883E+02 -0.33171219929E+03  0.33806948460E+03  0.00000000000E+00 0. -1.
        -13    1    3    3    0    0 -0.47657343687E+03 -0.75132665703E+02 -0.17654217526E+04  0.18301587698E+04  0.00000000000E+00 0.  1.
         22    1    1    2    0    0  0.53094788065E+03  0.11120776959E+03  0.18050440059E+04  0.18847961914E+04  0.00000000000E+00 0. -1.
<mgrwt>
<rscale>  0 0.40424857E+04</rscale>
<asrwt>0</asrwt>
<pdfrwt beam="1">  1        2 0.28930265E+00 0.40424857E+04</pdfrwt>
<pdfrwt beam="2">  1       -2 0.33423957E+00 0.40424857E+04</pdfrwt>
<totfact> 0.11955018E-01</totfact>
</mgrwt>
</event>
<event>
 6    1  0.9988873E-007  0.2183594E+04  0.7818608E-02  0.8525288E-01
          1   -1    0    0  501    0  0.00000000000E+00  0.00000000000E+00  0.15060442679E+04  0.15060442679E+04  0.00000000000E+00 0. -1.
         -1   -1    0    0    0  501 -0.00000000000E+00 -0.00000000000E+00 -0.79149148490E+03  0.79149148490E+03  0.00000000000E+00 0.  1.
         23    2    1    2    0    0  0.98496620557E+02 -0.10766703730E+04  0.21340518052E+03  0.11058690226E+04  0.92107804932E+02 0.  0.
         11    1    3    3    0    0  0.85014959377E+02 -0.91012453924E+03  0.14589840371E+03  0.92565682866E+03  0.00000000000E+00 0.  1.
        -11    1    3    3    0    0  0.13481661180E+02 -0.16654583379E+03  0.67506776812E+02  0.18021219397E+03  0.00000000000E+00 0. -1.
         22    1    1    2    0    0 -0.98496620557E+02  0.10766703730E+04  0.50114760252E+03  0.11916667302E+04  0.00000000000E+00 0. -1.
<mgrwt>
<rscale>  0 0.21835945E+04</rscale>
<asrwt>0</asrwt>
<pdfrwt beam="1">  1        1 0.23169912E+00 0.21835945E+04</pdfrwt>
<pdfrwt beam="2">  1       -1 0.12176792E+00 0.21835945E+04</pdfrwt>
<totfact> 0.35325939E+00</totfact>
</mgrwt>
</event>
<event>
 6    1  0.9988873E-007  0.5754753E+04  0.7818608E-02  0.7721576E-01
          1   -1    0    0  501    0  0.00000000000E+00  0.00000000000E+00  0.35206319752E+04  0.35206319752E+04  0.00000000000E+00 0. -1.
         -1   -1    0    0    0  501 -0.00000000000E+00 -0.00000000000E+00 -0.23516506388E+04  0.23516506388E+04  0.00000000000E+00 0.  1.
         23    2    1    2    0    0 -0.38448646432E+03 -0.87432048933E+03  0.33535206856E+04  0.34880682092E+04  0.90844285480E+02 0.  0.
         13    1    3    3    0    0 -0.15607442219E+03 -0.25083425339E+03  0.10354064324E+04  0.10767281590E+04  0.00000000000E+00 0.  1.
        -13    1    3    3    0    0 -0.22841204212E+03 -0.62348623594E+03  0.23181142532E+04  0.24113400503E+04  0.00000000000E+00 0. -1.
         22    1    1    2    0    0  0.38448646432E+03  0.87432048933E+03 -0.21845393493E+04  0.23842144047E+04  0.00000000000E+00 0.  1.
<mgrwt>
<rscale>  0 0.57547533E+04</rscale>
<asrwt>0</asrwt>
<pdfrwt beam="1">  1        1 0.54163569E+00 0.57547533E+04</pdfrwt>
<pdfrwt beam="2">  1       -1 0.36179241E+00 0.57547533E+04</pdfrwt>
<totfact> 0.21221680E-03</totfact>
</mgrwt>
</event>
<event>
 6    1  0.9988873E-007  0.4076767E+04  0.7818608E-02  0.7989237E-01
         -1   -1    0    0    0  501 -0.00000000000E+00  0.00000000000E+00  0.28576251749E+04  0.28576251749E+04  0.00000000000E+00 0.  1.
          1   -1    0    0  501    0  0.00000000000E+00 -0.00000000000E+00 -0.14540074012E+04  0.14540074012E+04  0.00000000000E+00 0. -1.
         23    2    1    2    0    0 -0.94362127016E+03 -0.14504644957E+03  0.26057998812E+04  0.27764774068E+04  0.84700623722E+02 0.  0.
         13    1    3    3    0    0 -0.55443649848E+03 -0.53537983048E+02  0.15963350447E+04  0.16907252057E+04  0.00000000000E+00 0.  1.
        -13    1    3    3    0    0 -0.38918477168E+03 -0.91508466522E+02  0.10094648365E+04  0.10857522011E+04  0.00000000000E+00 0. -1.
         22    1    1    2    0    0  0.94362127016E+03  0.14504644957E+03 -0.12021821075E+04  0.15351551692E+04  0.00000000000E+00 0. -1.
<mgrwt>
<rscale>  0 0.40767674E+04</rscale>
<asrwt>0</asrwt>
<pdfrwt beam="1">  1        1 0.22369345E+00 0.40767674E+04</pdfrwt>
<pdfrwt beam="2">  1       -1 0.43963464E+00 0.40767674E+04</pdfrwt>
<totfact> 0.20892367E-02</totfact>
</mgrwt>
</event>
<event>
 6    1  0.1631820E-006  0.2760556E+04  0.7818608E-02  0.8315620E-01
         -1   -1    0    0    0  501 -0.00000000000E+00  0.00000000000E+00  0.12410285252E+04  0.12410285252E+04  0.00000000000E+00 0.  1.
          1   -1    0    0  501    0  0.00000000000E+00 -0.00000000000E+00 -0.15351516122E+04  0.15351516122E+04  0.00000000000E+00 0. -1.
         23    2    1    2    0    0 -0.50204562440E+03 -0.55344114378E+03 -0.13125086391E+04  0.15130665078E+04  0.91347800202E+02 0.  0.
         13    1    3    3    0    0 -0.18181130456E+03 -0.14977096914E+03 -0.36231689816E+03  0.43215764295E+03  0.00000000000E+00 0.  1.
        -13    1    3    3    0    0 -0.32023431983E+03 -0.40367017464E+03 -0.95019174093E+03  0.10809088648E+04  0.00000000000E+00 0. -1.
         22    1    1    2    0    0  0.50204562440E+03  0.55344114378E+03  0.10183855521E+04  0.12631136296E+04  0.00000000000E+00 0.  1.
<mgrwt>
<rscale>  0 0.27605557E+04</rscale>
<asrwt>0</asrwt>
<pdfrwt beam="1">  1        1 0.23617717E+00 0.27605557E+04</pdfrwt>
<pdfrwt beam="2">  1       -1 0.19092747E+00 0.27605557E+04</pdfrwt>
<totfact> 0.93526131E-01</totfact>
</mgrwt>
</event>
<event>
 6    1  0.9988873E-007  0.2311745E+04  0.7818608E-02  0.8473304E-01
          1   -1    0    0  501    0  0.00000000000E+00  0.00000000000E+00  0.20468900813E+04  0.20468900813E+04  0.00000000000E+00 0. -1.
         -1   -1    0    0    0  501 -0.00000000000E+00 -0.00000000000E+00 -0.65271789477E+03  0.65271789477E+03  0.00000000000E+00 0.  1.
         23    2    1    2    0    0  0.73213743259E+03 -0.42086418517E+03 -0.22040549718E+03  0.87751769858E+03  0.91141897990E+02 0.  0.
         11    1    3    3    0    0  0.55033836416E+03 -0.29105369976E+03 -0.12697563266E+03  0.63537971521E+03  0.00000000000E+00 0. -1.
        -11    1    3    3    0    0  0.18179906843E+03 -0.12981048541E+03 -0.93429864524E+02  0.24213798337E+03  0.00000000000E+00 0.  1.
         22    1    1    2    0    0 -0.73213743259E+03  0.42086418517E+03  0.16145776837E+04  0.18220902775E+04  0.00000000000E+00 0. -1.
<mgrwt>
<rscale>  0 0.23117455E+04</rscale>
<asrwt>0</asrwt>
<pdfrwt beam="1">  1        1 0.31490616E+00 0.23117455E+04</pdfrwt>
<pdfrwt beam="2">  1       -1 0.10041814E+00 0.23117455E+04</pdfrwt>
<totfact> 0.23602155E+00</totfact>
</mgrwt>
</event>
<event>
 6    1  0.9988873E-007  0.4905763E+03  0.7818608E-02  0.1016268E+00
          2   -1    0    0  501    0  0.00000000000E+00  0.00000000000E+00  0.29535641675E+03  0.29535641675E+03  0.00000000000E+00 0. -1.
         -2   -1    0    0    0  501 -0.00000000000E+00 -0.00000000000E+00 -0.20370732142E+03  0.20370732142E+03  0.00000000000E+00 0.  1.
         23    2    1    2    0    0 -0.10835728356E+03 -0.20511512853E+03  0.96367333718E+02  0.26703835458E+03  0.90605203812E+02 0.  0.
         11    1    3    3    0    0 -0.35511782734E+02 -0.15840347751E+03  0.58102946315E+02  0.17242012867E+03  0.00000000000E+00 0.  1.
        -11    1    3    3    0    0 -0.72845500829E+02 -0.46711651024E+02  0.38264387403E+02  0.94618225918E+02  0.00000000000E+00 0. -1.
         22    1    1    2    0    0  0.10835728356E+03  0.20511512853E+03 -0.47182383913E+01  0.23202538358E+03  0.00000000000E+00 0.  1.
<mgrwt>
<rscale>  0 0.49057625E+03</rscale>
<asrwt>0</asrwt>
<pdfrwt beam="1">  1        2 0.45439449E-01 0.49057625E+03</pdfrwt>
<pdfrwt beam="2">  1       -2 0.31339588E-01 0.49057625E+03</pdfrwt>
<totfact> 0.10560843E+03</totfact>
</mgrwt>
</event>
<event>
 6    1  0.9988873E-007  0.2453225E+03  0.7818608E-02  0.1116297E+00
         -1   -1    0    0    0  501 -0.00000000000E+00  0.00000000000E+00  0.66850980343E+02  0.66850980343E+02  0.00000000000E+00 0.  1.
          1   -1    0    0  501    0  0.00000000000E+00 -0.00000000000E+00 -0.22506449115E+03  0.22506449115E+03  0.00000000000E+00 0. -1.
         23    2    1    2    0    0  0.80990427401E+02 -0.15350314860E+02 -0.14704679466E+03  0.20873027421E+03  0.12308731071E+03 0.  0.
         11    1    3    3    0    0  0.98126618511E+02 -0.16331216832E+02 -0.52195324966E+02  0.11233830091E+03  0.00000000000E+00 0. -1.
        -11    1    3    3    0    0 -0.17136191110E+02  0.98090197285E+00 -0.94851469692E+02  0.96391973302E+02  0.00000000000E+00 0.  1.
         22    1    1    2    0    0 -0.80990427401E+02  0.15350314860E+02 -0.11166716151E+02  0.83185197280E+02  0.00000000000E+00 0.  1.
<mgrwt>
<rscale>  0 0.24532250E+03</rscale>
<asrwt>0</asrwt>
<pdfrwt beam="1">  1        1 0.34625306E-01 0.24532250E+03</pdfrwt>
<pdfrwt beam="2">  1       -1 0.10284766E-01 0.24532250E+03</pdfrwt>
<totfact> 0.72565978E+03</totfact>
</mgrwt>
</event>
<event>
 6    1  0.9988873E-007  0.1713798E+04  0.7818608E-02  0.8753534E-01
         -1   -1    0    0    0  501 -0.00000000000E+00  0.00000000000E+00  0.36374519889E+03  0.36374519889E+03  0.00000000000E+00 0.  1.
          1   -1    0    0  501    0  0.00000000000E+00 -0.00000000000E+00 -0.20186539739E+04  0.20186539739E+04  0.00000000000E+00 0. -1.
         23    2    1    2    0    0  0.12152618251E+03 -0.11465212305E+03 -0.19946990245E+04  0.20037553612E+04  0.91091311444E+02 0.  0.
         11    1    3    3    0    0  0.68858725171E+02 -0.98113456084E+01 -0.93429238172E+03  0.93687781545E+03  0.00000000000E+00 0. -1.
        -11    1    3    3    0    0  0.52667457337E+02 -0.10484077745E+03 -0.10604066427E+04  0.10668775458E+04  0.00000000000E+00 0.  1.
         22    1    1    2    0    0 -0.12152618251E+03  0.11465212305E+03  0.33979024950E+03  0.37864381153E+03  0.00000000000E+00 0.  1.
<mgrwt>
<rscale>  0 0.17137978E+04</rscale>
<asrwt>0</asrwt>
<pdfrwt beam="1">  1        1 0.31056215E+00 0.17137978E+04</pdfrwt>
<pdfrwt beam="2">  1       -1 0.55960800E-01 0.17137978E+04</pdfrwt>
<totfact> 0.88893356E+00</totfact>
</mgrwt>
</event>
<event>
 6    1  0.9988873E-007  0.2504064E+04  0.7818608E-02  0.8401539E-01
          2   -1    0    0  501    0  0.00000000000E+00  0.00000000000E+00  0.19432881863E+04  0.19432881863E+04  0.00000000000E+00 0. -1.
         -2   -1    0    0    0  501 -0.00000000000E+00 -0.00000000000E+00 -0.80666572073E+03  0.80666572073E+03  0.00000000000E+00 0.  1.
         23    2    1    2    0    0 -0.36982260085E+03  0.75541488328E+03  0.15850960995E+04  0.17967755384E+04  0.91936329049E+02 0.  0.
         11    1    3    3    0    0 -0.19156884050E+03  0.39026548619E+03  0.91656373216E+03  0.10144431209E+04  0.00000000000E+00 0. -1.
        -11    1    3    3    0    0 -0.17825376035E+03  0.36514939709E+03  0.66853236738E+03  0.78233241752E+03  0.00000000000E+00 0.  1.
         22    1    1    2    0    0  0.36982260085E+03 -0.75541488328E+03 -0.44847363400E+03  0.95317836861E+03  0.00000000000E+00 0.  1.
<mgrwt>
<rscale>  0 0.25040639E+04</rscale>
<asrwt>0</asrwt>
<pdfrwt beam="1">  1        2 0.29896741E+00 0.25040639E+04</pdfrwt>
<pdfrwt beam="2">  1       -2 0.12410242E+00 0.25040639E+04</pdfrwt>
<totfact> 0.31275117E+00</totfact>
</mgrwt>
</event>
<event>
 6    1  0.9988873E-007  0.3106722E+04  0.7818608E-02  0.8213896E-01
          2   -1    0    0  501    0  0.00000000000E+00  0.00000000000E+00  0.13004827435E+04  0.13004827435E+04  0.00000000000E+00 0. -1.
         -2   -1    0    0    0  501 -0.00000000000E+00 -0.00000000000E+00 -0.18554108827E+04  0.18554108827E+04  0.00000000000E+00 0.  1.
         23    2    1    2    0    0  0.86925171389E+03  0.12851457721E+04 -0.22669756333E+03  0.15700394372E+04  0.80211291786E+02 0.  0.
         13    1    3    3    0    0  0.54523357174E+03  0.85536057213E+03 -0.17471597957E+03  0.10292944329E+04  0.00000000000E+00 0. -1.
        -13    1    3    3    0    0  0.32401814215E+03  0.42978520000E+03 -0.51981583761E+02  0.54074500426E+03  0.00000000000E+00 0.  1.
         22    1    1    2    0    0 -0.86925171389E+03 -0.12851457721E+04 -0.32823057591E+03  0.15858541890E+04  0.00000000000E+00 0.  1.
<mgrwt>
<rscale>  0 0.31067216E+04</rscale>
<asrwt>0</asrwt>
<pdfrwt beam="1">  1        2 0.20007427E+00 0.31067216E+04</pdfrwt>
<pdfrwt beam="2">  1       -2 0.28544782E+00 0.31067216E+04</pdfrwt>
<totfact> 0.54682483E-01</totfact>
</mgrwt>
</event>
<event>
 6    1  0.1101212E-006  0.4327394E+04  0.7818608E-02  0.7941572E-01
         -2   -1    0    0    0  501 -0.00000000000E+00  0.00000000000E+00  0.19310802839E+04  0.19310802839E+04  0.00000000000E+00 0.  1.
          2   -1    0    0  501    0  0.00000000000E+00 -0.00000000000E+00 -0.24243348229E+04  0.24243348229E+04  0.00000000000E+00 0. -1.
         23    2    1    2    0    0  0.66158810090E+03  0.13308243613E+04 -0.18281233342E+04  0.23577497203E+04  0.90313469698E+02 0.  0.
         13    1    3    3    0    0  0.30216852195E+03  0.62589728838E+03 -0.78486999137E+03  0.10483673662E+04  0.00000000000E+00 0. -1.
        -13    1    3    3    0    0  0.35941957896E+03  0.70492707291E+03 -0.10432533428E+04  0.13093823541E+04  0.00000000000E+00 0.  1.
         22    1    1    2    0    0 -0.66158810090E+03 -0.13308243613E+04  0.13348687952E+04  0.19976653864E+04  0.00000000000E+00 0.  1.
<mgrwt>
<rscale>  0 0.43273942E+04</rscale>
<asrwt>0</asrwt>
<pdfrwt beam="1">  1        2 0.37297459E+00 0.43273942E+04</pdfrwt>
<pdfrwt beam="2">  1       -2 0.29708927E+00 0.43273942E+04</pdfrwt>
<totfact> 0.97948103E-02</totfact>
</mgrwt>
</event>
<event>
 6    1  0.9988873E-007  0.1161442E+04  0.7818608E-02  0.9147292E-01
         -1   -1    0    0    0  501 -0.00000000000E+00  0.00000000000E+00  0.21383539179E+03  0.21383539179E+03  0.00000000000E+00 0.  1.
          1   -1    0    0  501    0  0.00000000000E+00 -0.00000000000E+00 -0.15770868857E+04  0.15770868857E+04  0.00000000000E+00 0. -1.
         23    2    1    2    0    0 -0.41560756982E+02 -0.41174645018E+02 -0.15711511685E+04  0.15749479211E+04  0.92316368573E+02 0.  0.
         11    1    3    3    0    0  0.11165463366E+02  0.22908569601E+02 -0.45735771441E+03  0.45806718837E+03  0.00000000000E+00 0. -1.
        -11    1    3    3    0    0 -0.52726220347E+02 -0.64083214619E+02 -0.11137934541E+04  0.11168807327E+04  0.00000000000E+00 0.  1.
         22    1    1    2    0    0  0.41560756982E+02  0.41174645018E+02  0.20789967462E+03  0.21597435640E+03  0.00000000000E+00 0.  1.
<mgrwt>
<rscale>  0 0.11614422E+04</rscale>
<asrwt>0</asrwt>
<pdfrwt beam="1">  1        1 0.24262875E+00 0.11614422E+04</pdfrwt>
<pdfrwt beam="2">  1       -1 0.32897752E-01 0.11614422E+04</pdfrwt>
<totfact> 0.49775228E+01</totfact>
</mgrwt>
</event>
<event>
 6    1  0.9988873E-007  0.2866477E+04  0.7818608E-02  0.8282922E-01
         -2   -1    0    0    0  501 -0.00000000000E+00  0.00000000000E+00  0.79779552338E+03  0.79779552338E+03  0.00000000000E+00 0.  1.
          2   -1    0    0  501    0  0.00000000000E+00 -0.00000000000E+00 -0.25748099875E+04  0.25748099875E+04  0.00000000000E+00 0. -1.
         23    2    1    2    0    0 -0.42984483924E+03  0.55804380059E+03  0.57722904484E+03  0.91524066847E+03  0.91063943644E+02 0.  0.
         13    1    3    3    0    0 -0.25919387609E+03  0.37868526479E+03  0.32891140647E+03  0.56459428662E+03  0.00000000000E+00 0. -1.
        -13    1    3    3    0    0 -0.17065096314E+03  0.17935853579E+03  0.24831763837E+03  0.35064638186E+03  0.00000000000E+00 0.  1.
         22    1    1    2    0    0  0.42984483924E+03 -0.55804380059E+03 -0.23542435089E+04  0.24573648424E+04  0.00000000000E+00 0. -1.
<mgrwt>
<rscale>  0 0.28664765E+04</rscale>
<asrwt>0</asrwt>
<pdfrwt beam="1">  1        2 0.39612462E+00 0.28664765E+04</pdfrwt>
<pdfrwt beam="2">  1       -2 0.12273777E+00 0.28664765E+04</pdfrwt>
<totfact> 0.13673684E+00</totfact>
</mgrwt>
</event>
<event>
 6    1  0.9988873E-007  0.1624617E+04  0.7818608E-02  0.8805566E-01
         -2   -1    0    0    0  501 -0.00000000000E+00  0.00000000000E+00  0.44438690085E+03  0.44438690085E+03  0.00000000000E+00 0.  1.
          2   -1    0    0  501    0  0.00000000000E+00 -0.00000000000E+00 -0.14848432849E+04  0.14848432849E+04  0.00000000000E+00 0. -1.
         23    2    1    2    0    0 -0.50806453477E+03 -0.34849039900E+03 -0.11454554148E+04  0.13042502452E+04  0.97084834239E+02 0.  0.
         11    1    3    3    0    0 -0.11218989100E+03 -0.11966891133E+03 -0.35513775526E+03  0.39119054844E+03  0.00000000000E+00 0.  1.
        -11    1    3    3    0    0 -0.39587464377E+03 -0.22882148766E+03 -0.79031765955E+03  0.91305969673E+03  0.00000000000E+00 0. -1.
         22    1    1    2    0    0  0.50806453477E+03  0.34849039900E+03  0.10499903073E+03  0.62497994059E+03  0.00000000000E+00 0.  1.
<mgrwt>
<rscale>  0 0.16246168E+04</rscale>
<asrwt>0</asrwt>
<pdfrwt beam="1">  1        2 0.22843743E+00 0.16246168E+04</pdfrwt>
<pdfrwt beam="2">  1       -2 0.68367216E-01 0.16246168E+04</pdfrwt>
<totfact> 0.24250612E+01</totfact>
</mgrwt>
</event>
<event>
 6    1  0.9988873E-007  0.1677693E+04  0.7818608E-02  0.8774190E-01
          1   -1    0    0  501    0  0.00000000000E+00  0.00000000000E+00  0.13875823360E+04  0.13875823360E+04  0.00000000000E+00 0. -1.
         -1   -1    0    0    0  501 -0.00000000000E+00 -0.00000000000E+00 -0.50711462478E+03  0.50711462478E+03  0.00000000000E+00 0.  1.
         23    2    1    2    0    0 -0.55006428970E+03  0.47608682860E+03  0.90759274621E+03  0.11667099014E+04  0.90873593055E+02 0.  0.
         11    1    3    3    0    0 -0.33670572151E+03  0.30073119569E+03  0.63078708216E+03  0.77569474536E+03  0.00000000000E+00 0.  1.
        -11    1    3    3    0    0 -0.21335856819E+03  0.17535563291E+03  0.27680566404E+03  0.39101515605E+03  0.00000000000E+00 0. -1.
         22    1    1    2    0    0  0.55006428970E+03 -0.47608682860E+03 -0.27125034941E+02  0.72798705942E+03  0.00000000000E+00 0.  1.
<mgrwt>
<rscale>  0 0.16776928E+04</rscale>
<asrwt>0</asrwt>
<pdfrwt beam="1">  1        1 0.21347420E+00 0.16776928E+04</pdfrwt>
<pdfrwt beam="2">  1       -1 0.78017635E-01 0.16776928E+04</pdfrwt>
<totfact> 0.12296710E+01</totfact>
</mgrwt>
</event>
<event>
 6    1  0.9988873E-007  0.2166755E+04  0.7818608E-02  0.8532394E-01
          1   -1    0    0  501    0  0.00000000000E+00  0.00000000000E+00  0.14514873312E+04  0.14514873312E+04  0.00000000000E+00 0. -1.
         -1   -1    0    0    0  501 -0.00000000000E+00 -0.00000000000E+00 -0.80862387679E+03  0.80862387679E+03  0.00000000000E+00 0.  1.
         23    2    1    2    0    0 -0.49613095512E+03  0.85519065798E+03  0.77868697798E+03  0.12621407597E+04  0.95649890047E+02 0.  0.
         13    1    3    3    0    0 -0.80655429253E+02  0.17029768002E+03  0.10667802619E+03  0.21653359869E+03  0.00000000000E+00 0.  1.
        -13    1    3    3    0    0 -0.41547552587E+03  0.68489297796E+03  0.67200895179E+03  0.10456071610E+04  0.00000000000E+00 0. -1.
         22    1    1    2    0    0  0.49613095512E+03 -0.85519065798E+03 -0.13582352357E+03  0.99797044830E+03  0.00000000000E+00 0.  1.
<mgrwt>
<rscale>  0 0.21667555E+04</rscale>
<asrwt>0</asrwt>
<pdfrwt beam="1">  1        1 0.22330574E+00 0.21667555E+04</pdfrwt>
<pdfrwt beam="2">  1       -1 0.12440367E+00 0.21667555E+04</pdfrwt>
<totfact> 0.36614295E+00</totfact>
</mgrwt>
</event>
<event>
 6    1  0.9988873E-007  0.4038282E+04  0.7818608E-02  0.7996868E-01
          2   -1    0    0  501    0  0.00000000000E+00  0.00000000000E+00  0.31871505533E+04  0.31871505533E+04  0.00000000000E+00 0. -1.
         -2   -1    0    0    0  501 -0.00000000000E+00 -0.00000000000E+00 -0.12791774883E+04  0.12791774883E+04  0.00000000000E+00 0.  1.
         23    2    1    2    0    0  0.13181408799E+03 -0.16376249701E+04  0.22507105994E+04  0.27880373892E+04  0.90905362319E+02 0.  0.
         11    1    3    3    0    0  0.47879339110E+02 -0.21786970295E+03  0.29321224688E+03  0.36841967958E+03  0.00000000000E+00 0.  1.
        -11    1    3    3    0    0  0.83934748885E+02 -0.14197552672E+04  0.19574983525E+04  0.24196177096E+04  0.00000000000E+00 0. -1.
         22    1    1    2    0    0 -0.13181408799E+03  0.16376249701E+04 -0.34273753433E+03  0.16782906524E+04  0.00000000000E+00 0. -1.
<mgrwt>
<rscale>  0 0.40382824E+04</rscale>
<asrwt>0</asrwt>
<pdfrwt beam="1">  1        2 0.49033085E+00 0.40382824E+04</pdfrwt>
<pdfrwt beam="2">  1       -2 0.19679654E+00 0.40382824E+04</pdfrwt>
<totfact> 0.14503509E-01</totfact>
</mgrwt>
</event>
<event>
 6    1  0.9988873E-007  0.3672965E+04  0.7818608E-02  0.8073980E-01
          1   -1    0    0  501    0  0.00000000000E+00  0.00000000000E+00  0.16289909055E+04  0.16289909055E+04  0.00000000000E+00 0. -1.
         -1   -1    0    0    0  501 -0.00000000000E+00 -0.00000000000E+00 -0.20704029339E+04  0.20704029339E+04  0.00000000000E+00 0.  1.
         23    2    1    2    0    0 -0.15298791248E+04  0.65063863771E+03  0.56229645432E+03  0.17574125080E+04  0.91981778384E+02 0.  0.
         13    1    3    3    0    0 -0.67746951504E+03  0.30222438328E+03  0.29723446538E+03  0.79915758713E+03  0.00000000000E+00 0. -1.
        -13    1    3    3    0    0 -0.85240960973E+03  0.34841425443E+03  0.26506198894E+03  0.95825492090E+03  0.00000000000E+00 0.  1.
         22    1    1    2    0    0  0.15298791248E+04 -0.65063863771E+03 -0.10037084826E+04  0.19419813314E+04  0.00000000000E+00 0. -1.
<mgrwt>
<rscale>  0 0.36729648E+04</rscale>
<asrwt>0</asrwt>
<pdfrwt beam="1">  1        1 0.25061399E+00 0.36729648E+04</pdfrwt>
<pdfrwt beam="2">  1       -1 0.31852353E+00 0.36729648E+04</pdfrwt>
<totfact> 0.10723651E-01</totfact>
</mgrwt>
</event>
<event>
 6    1  0.9988873E-007  0.1515300E+04  0.7818608E-02  0.8874342E-01
         -2   -1    0    0    0  501 -0.00000000000E+00  0.00000000000E+00  0.31089172353E+03  0.31089172353E+03  0.00000000000E+00 0.  1.
          2   -1    0    0  501    0  0.00000000000E+00 -0.00000000000E+00 -0.18464096858E+04  0.18464096858E+04  0.00000000000E+00 0. -1.
         23    2    1    2    0    0 -0.42610990380E+03  0.30346848105E+03  0.41815471425E+01  0.53115954946E+03  0.91925037626E+02 0.  0.
         11    1    3    3    0    0 -0.19834742374E+03  0.87405310002E+02 -0.90373821278E+01  0.21694022909E+03  0.00000000000E+00 0.  1.
        -11    1    3    3    0    0 -0.22776248006E+03  0.21606317105E+03  0.13218929270E+02  0.31421932038E+03  0.00000000000E+00 0. -1.
         22    1    1    2    0    0  0.42610990380E+03 -0.30346848105E+03 -0.15396995095E+04  0.16261418599E+04  0.00000000000E+00 0. -1.
<mgrwt>
<rscale>  0 0.15153000E+04</rscale>
<asrwt>0</asrwt>
<pdfrwt beam="1">  1        2 0.28406303E+00 0.15153000E+04</pdfrwt>
<pdfrwt beam="2">  1       -2 0.47829496E-01 0.15153000E+04</pdfrwt>
<totfact> 0.32505688E+01</totfact>
</mgrwt>
</event>
<event>
 6    1  0.9988873E-007  0.3986807E+04  0.7818608E-02  0.8007213E-01
         -2   -1    0    0    0  501 -0.00000000000E+00  0.00000000000E+00  0.44684622062E+04  0.44684622062E+04  0.00000000000E+00 0.  1.
          2   -1    0    0  501    0  0.00000000000E+00 -0.00000000000E+00 -0.88926740388E+03  0.88926740388E+03  0.00000000000E+00 0. -1.
         23    2    1    2    0    0  0.10619682899E+04  0.10282315108E+04 -0.44027592594E+01  0.14812352954E+04  0.94878487613E+02 0.  0.
         13    1    3    3    0    0  0.53089409514E+03  0.55384397804E+03  0.35521098058E+02  0.76801916687E+03  0.00000000000E+00 0. -1.
        -13    1    3    3    0    0  0.53107419477E+03  0.47438753276E+03 -0.39923857317E+02  0.71321612851E+03  0.00000000000E+00 0.  1.
         22    1    1    2    0    0 -0.10619682899E+04 -0.10282315108E+04  0.35835975616E+04  0.38764943147E+04  0.00000000000E+00 0.  1.
<mgrwt>
<rscale>  0 0.39868071E+04</rscale>
<asrwt>0</asrwt>
<pdfrwt beam="1">  1        2 0.13681037E+00 0.39868071E+04</pdfrwt>
<pdfrwt beam="2">  1       -2 0.68745571E+00 0.39868071E+04</pdfrwt>
<totfact> 0.59216428E-03</totfact>
</mgrwt>
</event>
<event>
 6    1  0.9988873E-007  0.2874731E+04  0.7818608E-02  0.8280436E-01
          1   -1    0    0  501    0  0.00000000000E+00  0.00000000000E+00  0.93158552032E+03  0.93158552032E+03  0.00000000000E+00 0. -1.
         -1   -1    0    0    0  501 -0.00000000000E+00 -0.00000000000E+00 -0.22177451635E+04  0.22177451635E+04  0.00000000000E+00 0.  1.
         23    2    1    2    0    0  0.49225908256E+03 -0.11936861397E+04  0.44511997452E+02  0.12951751834E+04  0.91059503948E+02 0.  0.
         11    1    3    3    0    0  0.26816789872E+03 -0.68741061364E+03  0.68227256288E+02  0.74101439402E+03  0.00000000000E+00 0.  1.
        -11    1    3    3    0    0  0.22409118385E+03 -0.50627552608E+03 -0.23715258836E+02  0.55416078938E+03  0.00000000000E+00 0. -1.
         22    1    1    2    0    0 -0.49225908256E+03  0.11936861397E+04 -0.13306716407E+04  0.18541555004E+04  0.00000000000E+00 0. -1.
<mgrwt>
<rscale>  0 0.28747308E+04</rscale>
<asrwt>0</asrwt>
<pdfrwt beam="1">  1        1 0.14332085E+00 0.28747308E+04</pdfrwt>
<pdfrwt beam="2">  1       -1 0.34119156E+00 0.28747308E+04</pdfrwt>
<totfact> 0.26209905E-01</totfact>
</mgrwt>
</event>
<event>
 6    1  0.9988873E-007  0.2836587E+04  0.7818608E-02  0.8291999E-01
          2   -1    0    0  501    0  0.00000000000E+00  0.00000000000E+00  0.18093868358E+04  0.18093868358E+04  0.00000000000E+00 0. -1.
         -2   -1    0    0    0  501 -0.00000000000E+00 -0.00000000000E+00 -0.11117334275E+04  0.11117334275E+04  0.00000000000E+00 0.  1.
         23    2    1    2    0    0  0.93129260285E+03 -0.10496122760E+03  0.14433526772E+04  0.17234599729E+04  0.93405331042E+02 0.  0.
         13    1    3    3    0    0  0.72807936433E+03 -0.12027098583E+03  0.11410915639E+04  0.13589167112E+04  0.00000000000E+00 0.  1.
        -13    1    3    3    0    0  0.20321323852E+03  0.15309758229E+02  0.30226111330E+03  0.36454326166E+03  0.00000000000E+00 0. -1.
         22    1    1    2    0    0 -0.93129260285E+03  0.10496122760E+03 -0.74569926898E+03  0.11976602904E+04  0.00000000000E+00 0.  1.
<mgrwt>
<rscale>  0 0.28365866E+04</rscale>
<asrwt>0</asrwt>
<pdfrwt beam="1">  1        2 0.27836721E+00 0.28365866E+04</pdfrwt>
<pdfrwt beam="2">  1       -2 0.17103591E+00 0.28365866E+04</pdfrwt>
<totfact> 0.15501905E+00</totfact>
</mgrwt>
</event>
<event>
 6    1  0.9988873E-007  0.2089600E+04  0.7818608E-02  0.8565839E-01
         -2   -1    0    0    0  501 -0.00000000000E+00  0.00000000000E+00  0.15144495804E+04  0.15144495804E+04  0.00000000000E+00 0.  1.
          2   -1    0    0  501    0  0.00000000000E+00 -0.00000000000E+00 -0.72079462920E+03  0.72079462920E+03  0.00000000000E+00 0. -1.
         23    2    1    2    0    0  0.20812115156E+03  0.99746650984E+03  0.16054508885E+03  0.10356267915E+04  0.92164384709E+02 0.  0.
         13    1    3    3    0    0  0.16913444339E+03  0.69004882664E+03  0.76689863203E+02  0.71460141212E+03  0.00000000000E+00 0. -1.
        -13    1    3    3    0    0  0.38986708167E+02  0.30741768320E+03  0.83855225646E+02  0.32102537941E+03  0.00000000000E+00 0.  1.
         22    1    1    2    0    0 -0.20812115156E+03 -0.99746650984E+03  0.63310986239E+03  0.11996174181E+04  0.00000000000E+00 0.  1.
<mgrwt>
<rscale>  0 0.20896001E+04</rscale>
<asrwt>0</asrwt>
<pdfrwt beam="1">  1        2 0.11089148E+00 0.20896001E+04</pdfrwt>
<pdfrwt beam="2">  1       -2 0.23299224E+00 0.20896001E+04</pdfrwt>
<totfact> 0.29802886E+00</totfact>
</mgrwt>
</event>
<event>
 6    1  0.9988873E-007  0.3771336E+04  0.7818608E-02  0.8052334E-01
         -2   -1    0    0    0  501 -0.00000000000E+00  0.00000000000E+00  0.17154366976E+04  0.17154366976E+04  0.00000000000E+00 0.  1.
          2   -1    0    0  501    0  0.00000000000E+00 -0.00000000000E+00 -0.20727923052E+04  0.20727923052E+04  0.00000000000E+00 0. -1.
         23    2    1    2    0    0 -0.10242535647E+04  0.12524053376E+04  0.79197838588E+03  0.18036426170E+04  0.91007866452E+02 0.  0.
         13    1    3    3    0    0 -0.33460891562E+03  0.45793299261E+03  0.24363149328E+03  0.61726984103E+03  0.00000000000E+00 0. -1.
        -13    1    3    3    0    0 -0.68964464907E+03  0.79447234495E+03  0.54834689259E+03  0.11863727759E+04  0.00000000000E+00 0.  1.
         22    1    1    2    0    0  0.10242535647E+04 -0.12524053376E+04 -0.11493339934E+04  0.19845863858E+04  0.00000000000E+00 0. -1.
<mgrwt>
<rscale>  0 0.37713361E+04</rscale>
<asrwt>0</asrwt>
<pdfrwt beam="1">  1        2 0.31889112E+00 0.37713361E+04</pdfrwt>
<pdfrwt beam="2">  1       -2 0.26391334E+00 0.37713361E+04</pdfrwt>
<totfact> 0.25825170E-01</totfact>
</mgrwt>
</event>
<event>
 6    1  0.9988873E-007  0.2441010E+04  0.7818608E-02  0.8424308E-01
          1   -1    0    0  501    0  0.00000000000E+00  0.00000000000E+00  0.17647630025E+04  0.17647630025E+04  0.00000000000E+00 0. -1.
         -1   -1    0    0    0  501 -0.00000000000E+00 -0.00000000000E+00 -0.84409766994E+03  0.84409766994E+03  0.00000000000E+00 0.  1.
         23    2    1    2    0    0  0.11510120279E+04  0.26745305359E+03  0.14209126481E+03  0.11937502869E+04  0.92141171826E+02 0.  0.
         11    1    3    3    0    0  0.58288826693E+03  0.16328328184E+03  0.35210366808E+02  0.60634967781E+03  0.00000000000E+00 0. -1.
        -11    1    3    3    0    0  0.56812376101E+03  0.10416977175E+03  0.10688089801E+03  0.58740060906E+03  0.00000000000E+00 0.  1.
         22    1    1    2    0    0 -0.11510120279E+04 -0.26745305359E+03  0.77857406771E+03  0.14151103855E+04  0.00000000000E+00 0. -1.
<mgrwt>
<rscale>  0 0.24410099E+04</rscale>
<asrwt>0</asrwt>
<pdfrwt beam="1">  1        1 0.27150200E+00 0.24410099E+04</pdfrwt>
<pdfrwt beam="2">  1       -1 0.12986118E+00 0.24410099E+04</pdfrwt>
<totfact> 0.19547960E+00</totfact>
</mgrwt>
</event>
<event>
 6    1  0.9988873E-007  0.1561372E+04  0.7818608E-02  0.8844636E-01
          1   -1    0    0  501    0  0.00000000000E+00  0.00000000000E+00  0.17492710492E+04  0.17492710492E+04  0.00000000000E+00 0. -1.
         -1   -1    0    0    0  501 -0.00000000000E+00 -0.00000000000E+00 -0.34841425149E+03  0.34841425149E+03  0.00000000000E+00 0.  1.
         23    2    1    2    0    0 -0.70009614826E+01 -0.39424009197E+03 -0.19827034608E+03  0.45066317408E+03  0.91169637260E+02 0.  0.
         13    1    3    3    0    0  0.21717685763E+02 -0.13395314124E+03 -0.28745812778E+02  0.13871345888E+03  0.00000000000E+00 0.  1.
        -13    1    3    3    0    0 -0.28718647246E+02 -0.26028695073E+03 -0.16952453330E+03  0.31194971519E+03  0.00000000000E+00 0. -1.
         22    1    1    2    0    0  0.70009614826E+01  0.39424009197E+03  0.15991271438E+04  0.16470221266E+04  0.00000000000E+00 0. -1.
<mgrwt>
<rscale>  0 0.15613724E+04</rscale>
<asrwt>0</asrwt>
<pdfrwt beam="1">  1        1 0.26911862E+00 0.15613724E+04</pdfrwt>
<pdfrwt beam="2">  1       -1 0.53602194E-01 0.15613724E+04</pdfrwt>
<totfact> 0.14913256E+01</totfact>
</mgrwt>
</event>
<event>
 6    1  0.9988873E-007  0.2013846E+04  0.7818608E-02  0.8600174E-01
         -2   -1    0    0    0  501 -0.00000000000E+00  0.00000000000E+00  0.28361752327E+03  0.28361752327E+03  0.00000000000E+00 0.  1.
          2   -1    0    0  501    0  0.00000000000E+00 -0.00000000000E+00 -0.35748647091E+04  0.35748647091E+04  0.00000000000E+00 0. -1.
         23    2    1    2    0    0  0.44387041152E+03 -0.79188519324E+03 -0.24740203128E+04  0.26370229152E+04  0.94922313402E+02 0.  0.
         13    1    3    3    0    0  0.86254699913E+02 -0.22169689382E+03 -0.72136069599E+03  0.75957266915E+03  0.00000000000E+00 0. -1.
        -13    1    3    3    0    0  0.35761571161E+03 -0.57018829942E+03 -0.17526596168E+04  0.18774502460E+04  0.00000000000E+00 0.  1.
         22    1    1    2    0    0 -0.44387041152E+03  0.79188519324E+03 -0.81722687298E+03  0.12214593171E+04  0.00000000000E+00 0.  1.
<mgrwt>
<rscale>  0 0.20138463E+04</rscale>
<asrwt>0</asrwt>
<pdfrwt beam="1">  1        2 0.54997917E+00 0.20138463E+04</pdfrwt>
<pdfrwt beam="2">  1       -2 0.43633466E-01 0.20138463E+04</pdfrwt>
<totfact> 0.33466452E+00</totfact>
</mgrwt>
</event>
<event>
 6    1  0.9988873E-007  0.2545748E+04  0.7818608E-02  0.8386866E-01
         -2   -1    0    0    0  501 -0.00000000000E+00  0.00000000000E+00  0.51538259955E+03  0.51538259955E+03  0.00000000000E+00 0.  1.
          2   -1    0    0  501    0  0.00000000000E+00 -0.00000000000E+00 -0.31436998856E+04  0.31436998856E+04  0.00000000000E+00 0. -1.
         23    2    1    2    0    0 -0.46906058125E+02  0.50534809185E+03 -0.29911161113E+04  0.30352236391E+04  0.90719765842E+02 0.  0.
         11    1    3    3    0    0  0.22319241901E+02  0.24220362857E+03 -0.14578122087E+04  0.14779638636E+04  0.00000000000E+00 0.  1.
        -11    1    3    3    0    0 -0.69225300026E+02  0.26314446328E+03 -0.15333039026E+04  0.15572597755E+04  0.00000000000E+00 0. -1.
         22    1    1    2    0    0  0.46906058125E+02 -0.50534809185E+03  0.36279882523E+03  0.62385884607E+03  0.00000000000E+00 0.  1.
<mgrwt>
<rscale>  0 0.25457480E+04</rscale>
<asrwt>0</asrwt>
<pdfrwt beam="1">  1        2 0.48364614E+00 0.25457480E+04</pdfrwt>
<pdfrwt beam="2">  1       -2 0.79289629E-01 0.25457480E+04</pdfrwt>
<totfact> 0.17680853E+00</totfact>
</mgrwt>
</event>
<event>
 6    1  0.9988873E-007  0.3080906E+04  0.7818608E-02  0.8220998E-01
         -1   -1    0    0    0  501 -0.00000000000E+00  0.00000000000E+00  0.10761919975E+04  0.10761919975E+04  0.00000000000E+00 0.  1.
          1   -1    0    0  501    0  0.00000000000E+00 -0.00000000000E+00 -0.22049919553E+04  0.22049919553E+04  0.00000000000E+00 0. -1.
         23    2    1    2    0    0  0.11385886643E+03 -0.87210445166E+03 -0.19099306669E+04  0.21048782099E+04  0.95640525461E+02 0.  0.
         13    1    3    3    0    0  0.54264928895E+02 -0.36167051508E+03 -0.68500044200E+03  0.77651519594E+03  0.00000000000E+00 0. -1.
        -13    1    3    3    0    0  0.59593937533E+02 -0.51043393657E+03 -0.12249302249E+04  0.13283630139E+04  0.00000000000E+00 0.  1.
         22    1    1    2    0    0 -0.11385886643E+03  0.87210445166E+03  0.78113070914E+03  0.11763057429E+04  0.00000000000E+00 0.  1.
<mgrwt>
<rscale>  0 0.30809055E+04</rscale>
<asrwt>0</asrwt>
<pdfrwt beam="1">  1        1 0.33922953E+00 0.30809055E+04</pdfrwt>
<pdfrwt beam="2">  1       -1 0.16556800E+00 0.30809055E+04</pdfrwt>
<totfact> 0.48477403E-01</totfact>
</mgrwt>
</event>
<event>
 6    1  0.9988873E-007  0.1205078E+04  0.7818608E-02  0.9108423E-01
         -1   -1    0    0    0  501 -0.00000000000E+00  0.00000000000E+00  0.31990068362E+03  0.31990068362E+03  0.00000000000E+00 0.  1.
          1   -1    0    0  501    0  0.00000000000E+00 -0.00000000000E+00 -0.11348945341E+04  0.11348945341E+04  0.00000000000E+00 0. -1.
         23    2    1    2    0    0  0.20730518182E+03  0.44934281342E+03 -0.26319000850E+01  0.50357687221E+03  0.93264875174E+02 0.  0.
         13    1    3    3    0    0  0.51203345702E+02  0.58489503917E+02  0.25377167282E+02  0.81772888531E+02  0.00000000000E+00 0.  1.
        -13    1    3    3    0    0  0.15610183612E+03  0.39085330950E+03 -0.28009067367E+02  0.42180398368E+03  0.00000000000E+00 0. -1.
         22    1    1    2    0    0 -0.20730518182E+03 -0.44934281342E+03 -0.81236195039E+03  0.95121834551E+03  0.00000000000E+00 0. -1.
<mgrwt>
<rscale>  0 0.12050785E+04</rscale>
<asrwt>0</asrwt>
<pdfrwt beam="1">  1        1 0.17459916E+00 0.12050785E+04</pdfrwt>
<pdfrwt beam="2">  1       -1 0.49215489E-01 0.12050785E+04</pdfrwt>
<totfact> 0.48839445E+01</totfact>
</mgrwt>
</event>
<event>
 6    1  0.9988873E-007  0.2681283E+04  0.7818608E-02  0.8341104E-01
         -1   -1    0    0    0  501 -0.00000000000E+00  0.00000000000E+00  0.12066373880E+04  0.12066373880E+04  0.00000000000E+00 0.  1.
          1   -1    0    0  501    0  0.00000000000E+00 -0.00000000000E+00 -0.14895269972E+04  0.14895269972E+04  0.00000000000E+00 0. -1.
         23    2    1    2    0    0  0.27495882260E+03  0.97651881860E+03 -0.10204890755E+04  0.14418740161E+04  0.91713510068E+02 0.  0.
         13    1    3    3    0    0  0.20357920889E+03  0.59472038821E+03 -0.66980481410E+03  0.91857243777E+03  0.00000000000E+00 0. -1.
        -13    1    3    3    0    0  0.71379613711E+02  0.38179843039E+03 -0.35068426139E+03  0.52330157834E+03  0.00000000000E+00 0.  1.
         22    1    1    2    0    0 -0.27495882260E+03 -0.97651881860E+03  0.73759946627E+03  0.12542903690E+04  0.00000000000E+00 0.  1.
<mgrwt>
<rscale>  0 0.26812825E+04</rscale>
<asrwt>0</asrwt>
<pdfrwt beam="1">  1        1 0.22915800E+00 0.26812825E+04</pdfrwt>
<pdfrwt beam="2">  1       -1 0.18563652E+00 0.26812825E+04</pdfrwt>
<totfact> 0.11035980E+00</totfact>
</mgrwt>
</event>
<event>
 6    1  0.9988873E-007  0.1422642E+04  0.7818608E-02  0.8937591E-01
         -2   -1    0    0    0  501 -0.00000000000E+00  0.00000000000E+00  0.10951557455E+04  0.10951557455E+04  0.00000000000E+00 0.  1.
          2   -1    0    0  501    0  0.00000000000E+00 -0.00000000000E+00 -0.46201401127E+03  0.46201401127E+03  0.00000000000E+00 0. -1.
         23    2    1    2    0    0  0.95236931914E+02  0.73176522423E+02  0.10820573309E+04  0.10924654534E+04  0.90597036534E+02 0.  0.
         13    1    3    3    0    0  0.55203204105E+02 -0.78940748136E+01  0.29433764286E+03  0.29957362728E+03  0.00000000000E+00 0. -1.
        -13    1    3    3    0    0  0.40033727808E+02  0.81070597236E+02  0.78771968800E+03  0.79289182614E+03  0.00000000000E+00 0.  1.
         22    1    1    2    0    0 -0.95236931914E+02 -0.73176522423E+02 -0.44891559664E+03  0.46470430334E+03  0.00000000000E+00 0. -1.
<mgrwt>
<rscale>  0 0.14226416E+04</rscale>
<asrwt>0</asrwt>
<pdfrwt beam="1">  1        2 0.71079079E-01 0.14226416E+04</pdfrwt>
<pdfrwt beam="2">  1       -2 0.16848550E+00 0.14226416E+04</pdfrwt>
<totfact> 0.14310997E+01</totfact>
</mgrwt>
</event>
<event>
 6    1  0.9988873E-007  0.7631931E+03  0.7818608E-02  0.9614877E-01
          2   -1    0    0  501    0  0.00000000000E+00  0.00000000000E+00  0.18054327748E+04  0.18054327748E+04  0.00000000000E+00 0. -1.
         -2   -1    0    0    0  501 -0.00000000000E+00 -0.00000000000E+00 -0.80654297510E+02  0.80654297510E+02  0.00000000000E+00 0.  1.
         23    2    1    2    0    0  0.11762570397E+03  0.24728152517E+03  0.23673478161E+03  0.37305766110E+03  0.90248006968E+02 0.  0.
         11    1    3    3    0    0  0.82511267999E+02  0.18960081883E+03  0.22306025105E+03  0.30415860245E+03  0.00000000000E+00 0.  1.
        -11    1    3    3    0    0  0.35114435966E+02  0.57680706342E+02  0.13674530560E+02  0.68899058654E+02  0.00000000000E+00 0. -1.
         22    1    1    2    0    0 -0.11762570397E+03 -0.24728152517E+03  0.14880436957E+04  0.15130294113E+04  0.00000000000E+00 0. -1.
<mgrwt>
<rscale>  0 0.76319306E+03</rscale>
<asrwt>0</asrwt>
<pdfrwt beam="1">  1        2 0.27775886E+00 0.76319306E+03</pdfrwt>
<pdfrwt beam="2">  1       -2 0.12408355E-01 0.76319306E+03</pdfrwt>
<totfact> 0.41999009E+02</totfact>
</mgrwt>
</event>
<event>
 6    1  0.9988873E-007  0.6133687E+04  0.7818608E-02  0.7674044E-01
          2   -1    0    0  501    0  0.00000000000E+00  0.00000000000E+00  0.17642265212E+04  0.17642265212E+04  0.00000000000E+00 0. -1.
         -2   -1    0    0    0  501 -0.00000000000E+00 -0.00000000000E+00 -0.53312476629E+04  0.53312476629E+04  0.00000000000E+00 0.  1.
         23    2    1    2    0    0 -0.12160762082E+04  0.18761876394E+04  0.64305718845E+03  0.23285379618E+04  0.98209417785E+02 0.  0.
         11    1    3    3    0    0 -0.77454135259E+03  0.12773325728E+04  0.44127597708E+03  0.15576319515E+04  0.00000000000E+00 0. -1.
        -11    1    3    3    0    0 -0.44153485557E+03  0.59885506655E+03  0.20178121137E+03  0.77090601028E+03  0.00000000000E+00 0.  1.
         22    1    1    2    0    0  0.12160762082E+04 -0.18761876394E+04 -0.42100783301E+04  0.47669362223E+04  0.00000000000E+00 0.  1.
<mgrwt>
<rscale>  0 0.61336868E+04</rscale>
<asrwt>0</asrwt>
<pdfrwt beam="1">  1        2 0.27141947E+00 0.61336868E+04</pdfrwt>
<pdfrwt beam="2">  1       -2 0.82019193E+00 0.61336868E+04</pdfrwt>
<totfact> 0.34371617E-04</totfact>
</mgrwt>
</event>
<event>
 6    1  0.9988873E-007  0.4620717E+04  0.7818608E-02  0.7889837E-01
         -2   -1    0    0    0  501 -0.00000000000E+00  0.00000000000E+00  0.42573457476E+04  0.42573457476E+04  0.00000000000E+00 0.  1.
          2   -1    0    0  501    0  0.00000000000E+00 -0.00000000000E+00 -0.12537755876E+04  0.12537755876E+04  0.00000000000E+00 0. -1.
         23    2    1    2    0    0 -0.52161200895E+03 -0.11511839257E+04 -0.80297185062E+03  0.15002529010E+04  0.93227975761E+02 0.  0.
         13    1    3    3    0    0 -0.41852909097E+03 -0.96120953447E+03 -0.62723032388E+03  0.12216825481E+04  0.00000000000E+00 0. -1.
        -13    1    3    3    0    0 -0.10308291798E+03 -0.18997439119E+03 -0.17574152674E+03  0.27857035289E+03  0.00000000000E+00 0.  1.
         22    1    1    2    0    0  0.52161200895E+03  0.11511839257E+04  0.38065420106E+04  0.40108684342E+04  0.00000000000E+00 0.  1.
<mgrwt>
<rscale>  0 0.46207169E+04</rscale>
<asrwt>0</asrwt>
<pdfrwt beam="1">  1        2 0.19288855E+00 0.46207169E+04</pdfrwt>
<pdfrwt beam="2">  1       -2 0.65497626E+00 0.46207169E+04</pdfrwt>
<totfact> 0.42948712E-03</totfact>
</mgrwt>
</event>
<event>
 6    1  0.9988873E-007  0.5209650E+04  0.7818608E-02  0.7796956E-01
         -2   -1    0    0    0  501 -0.00000000000E+00  0.00000000000E+00  0.21967088192E+04  0.21967088192E+04  0.00000000000E+00 0.  1.
          2   -1    0    0  501    0  0.00000000000E+00 -0.00000000000E+00 -0.30887632275E+04  0.30887632275E+04  0.00000000000E+00 0. -1.
         23    2    1    2    0    0  0.18527896105E+01  0.19158659756E+04  0.13430402338E+04  0.23416320495E+04  0.94539495356E+02 0.  0.
         11    1    3    3    0    0  0.42662312017E+02  0.60541309373E+03  0.44057521075E+03  0.74996773481E+03  0.00000000000E+00 0. -1.
        -11    1    3    3    0    0 -0.40809522407E+02  0.13104528819E+04  0.90246502308E+03  0.15916643147E+04  0.00000000000E+00 0.  1.
         22    1    1    2    0    0 -0.18527896105E+01 -0.19158659756E+04 -0.22350946421E+04  0.29438399971E+04  0.00000000000E+00 0. -1.
<mgrwt>
<rscale>  0 0.52096501E+04</rscale>
<asrwt>0</asrwt>
<pdfrwt beam="1">  1        2 0.47519434E+00 0.52096501E+04</pdfrwt>
<pdfrwt beam="2">  1       -2 0.33795520E+00 0.52096501E+04</pdfrwt>
<totfact> 0.20274395E-02</totfact>
</mgrwt>
</event>
<event>
 6    1  0.9988873E-007  0.2129947E+04  0.7818608E-02  0.8548165E-01
          1   -1    0    0  501    0  0.00000000000E+00  0.00000000000E+00  0.94552096709E+03  0.94552096709E+03  0.00000000000E+00 0. -1.
         -1   -1    0    0    0  501 -0.00000000000E+00 -0.00000000000E+00 -0.11995172622E+04  0.11995172622E+04  0.00000000000E+00 0.  1.
         23    2    1    2    0    0  0.83597706699E+03  0.57056388950E+03  0.19998302207E+03  0.10357600726E+04  0.91678297985E+02 0.  0.
         13    1    3    3    0    0  0.47409471960E+03  0.27321176489E+03  0.12702652612E+03  0.56173499977E+03  0.00000000000E+00 0.  1.
        -13    1    3    3    0    0  0.36188234740E+03  0.29735212461E+03  0.72956495951E+02  0.47402507283E+03  0.00000000000E+00 0. -1.
         22    1    1    2    0    0 -0.83597706699E+03 -0.57056388950E+03 -0.45397931721E+03  0.11092781567E+04  0.00000000000E+00 0.  1.
<mgrwt>
<rscale>  0 0.21299472E+04</rscale>
<asrwt>0</asrwt>
<pdfrwt beam="1">  1        1 0.14546476E+00 0.21299472E+04</pdfrwt>
<pdfrwt beam="2">  1       -1 0.18454112E+00 0.21299472E+04</pdfrwt>
<totfact> 0.29604601E+00</totfact>
</mgrwt>
</event>
<event>
 6    1  0.9988873E-007  0.6083888E+04  0.7818608E-02  0.7680087E-01
          2   -1    0    0  501    0  0.00000000000E+00  0.00000000000E+00  0.35977527123E+04  0.35977527123E+04  0.00000000000E+00 0. -1.
         -2   -1    0    0    0  501 -0.00000000000E+00 -0.00000000000E+00 -0.25720008517E+04  0.25720008517E+04  0.00000000000E+00 0.  1.
         23    2    1    2    0    0  0.15804580058E+04  0.12132307519E+04  0.28430939293E+04  0.34729946650E+04  0.93447775268E+02 0.  0.
         13    1    3    3    0    0  0.10426178610E+04  0.75487904326E+03  0.17891952300E+04  0.22041129610E+04  0.00000000000E+00 0.  1.
        -13    1    3    3    0    0  0.53784014478E+03  0.45835170862E+03  0.10538986993E+04  0.12688817039E+04  0.00000000000E+00 0. -1.
         22    1    1    2    0    0 -0.15804580058E+04 -0.12132307519E+04 -0.18173420687E+04  0.26967588991E+04  0.00000000000E+00 0.  1.
<mgrwt>
<rscale>  0 0.60838879E+04</rscale>
<asrwt>0</asrwt>
<pdfrwt beam="1">  1        2 0.55350042E+00 0.60838879E+04</pdfrwt>
<pdfrwt beam="2">  1       -2 0.39569244E+00 0.60838879E+04</pdfrwt>
<totfact> 0.36646768E-03</totfact>
</mgrwt>
</event>
<event>
 6    1  0.9988873E-007  0.1942363E+04  0.7818608E-02  0.8634052E-01
          1   -1    0    0  501    0  0.00000000000E+00  0.00000000000E+00  0.18675865969E+04  0.18675865969E+04  0.00000000000E+00 0. -1.
         -1   -1    0    0    0  501 -0.00000000000E+00 -0.00000000000E+00 -0.50503327050E+03  0.50503327050E+03  0.00000000000E+00 0.  1.
         23    2    1    2    0    0 -0.40309277501E+03 -0.53091105032E+03  0.15425259049E+04  0.16821559236E+04  0.76889892515E+02 0.  0.
         13    1    3    3    0    0 -0.13325237133E+03 -0.23771174556E+03  0.61845660522E+03  0.67583403361E+03  0.00000000000E+00 0.  1.
        -13    1    3    3    0    0 -0.26984040369E+03 -0.29319930476E+03  0.92406929963E+03  0.10063218900E+04  0.00000000000E+00 0. -1.
         22    1    1    2    0    0  0.40309277501E+03  0.53091105032E+03 -0.17997257849E+03  0.69046394376E+03  0.00000000000E+00 0.  1.
<mgrwt>
<rscale>  0 0.19423629E+04</rscale>
<asrwt>0</asrwt>
<pdfrwt beam="1">  1        1 0.28732101E+00 0.19423629E+04</pdfrwt>
<pdfrwt beam="2">  1       -1 0.77697427E-01 0.19423629E+04</pdfrwt>
<totfact> 0.56705912E+00</totfact>
</mgrwt>
</event>
<event>
 6    1  0.9988873E-007  0.1463493E+04  0.7818608E-02  0.8909099E-01
          2   -1    0    0  501    0  0.00000000000E+00  0.00000000000E+00  0.78447097871E+03  0.78447097871E+03  0.00000000000E+00 0. -1.
         -2   -1    0    0    0  501 -0.00000000000E+00 -0.00000000000E+00 -0.68256589675E+03  0.68256589675E+03  0.00000000000E+00 0.  1.
         23    2    1    2    0    0 -0.50275717657E+03 -0.42834710894E+03  0.36107317202E+03  0.75752005167E+03  0.84951567346E+02 0.  0.
         13    1    3    3    0    0 -0.40590261028E+03 -0.30427602430E+03  0.25553227846E+03  0.56801194823E+03  0.00000000000E+00 0.  1.
        -13    1    3    3    0    0 -0.96854566291E+02 -0.12407108464E+03  0.10554089356E+03  0.18950810344E+03  0.00000000000E+00 0. -1.
         22    1    1    2    0    0  0.50275717657E+03  0.42834710894E+03 -0.25916809007E+03  0.70951682379E+03  0.00000000000E+00 0.  1.
<mgrwt>
<rscale>  0 0.14634933E+04</rscale>
<asrwt>0</asrwt>
<pdfrwt beam="1">  1        2 0.12068784E+00 0.14634933E+04</pdfrwt>
<pdfrwt beam="2">  1       -2 0.10501014E+00 0.14634933E+04</pdfrwt>
<totfact> 0.25176282E+01</totfact>
</mgrwt>
</event>
<event>
 6    1  0.9988873E-007  0.3085561E+04  0.7818608E-02  0.8219712E-01
          2   -1    0    0  501    0  0.00000000000E+00  0.00000000000E+00  0.13874679645E+04  0.13874679645E+04  0.00000000000E+00 0. -1.
         -2   -1    0    0    0  501 -0.00000000000E+00 -0.00000000000E+00 -0.17154788604E+04  0.17154788604E+04  0.00000000000E+00 0.  1.
         23    2    1    2    0    0  0.39132647772E+03  0.13870735768E+04 -0.71396092165E+03  0.16109458390E+04  0.91086655334E+02 0.  0.
         11    1    3    3    0    0  0.60992607766E+02  0.11971872854E+03 -0.69719852962E+02  0.15137215749E+03  0.00000000000E+00 0.  1.
        -11    1    3    3    0    0  0.33033386995E+03  0.12673548483E+04 -0.64424106868E+03  0.14595736815E+04  0.00000000000E+00 0. -1.
         22    1    1    2    0    0 -0.39132647772E+03 -0.13870735768E+04  0.38595002567E+03  0.14920009859E+04  0.00000000000E+00 0. -1.
<mgrwt>
<rscale>  0 0.30855612E+04</rscale>
<asrwt>0</asrwt>
<pdfrwt beam="1">  1        2 0.21345661E+00 0.30855612E+04</pdfrwt>
<pdfrwt beam="2">  1       -2 0.26391983E+00 0.30855612E+04</pdfrwt>
<totfact> 0.66025310E-01</totfact>
</mgrwt>
</event>
<event>
 6    1  0.9988873E-007  0.9852366E+03  0.7818608E-02  0.9324887E-01
          1   -1    0    0  501    0  0.00000000000E+00  0.00000000000E+00  0.32047962643E+03  0.32047962643E+03  0.00000000000E+00 0. -1.
         -1   -1    0    0    0  501 -0.00000000000E+00 -0.00000000000E+00 -0.75721745694E+03  0.75721745694E+03  0.00000000000E+00 0.  1.
         23    2    1    2    0    0 -0.17115671209E+03 -0.27298535234E+03  0.18120677891E+03  0.38079596915E+03  0.91400496257E+02 0.  0.
         11    1    3    3    0    0 -0.15527652212E+03 -0.19566221496E+03  0.16731136492E+03  0.30064529519E+03  0.00000000000E+00 0.  1.
        -11    1    3    3    0    0 -0.15880189969E+02 -0.77323137378E+02  0.13895413985E+02  0.80150673966E+02  0.00000000000E+00 0. -1.
         22    1    1    2    0    0  0.17115671209E+03  0.27298535234E+03 -0.61794460942E+03  0.69690111421E+03  0.00000000000E+00 0.  1.
<mgrwt>
<rscale>  0 0.98523656E+03</rscale>
<asrwt>0</asrwt>
<pdfrwt beam="1">  1        1 0.49304558E-01 0.98523656E+03</pdfrwt>
<pdfrwt beam="2">  1       -1 0.11649499E+00 0.98523656E+03</pdfrwt>
<totfact> 0.53715057E+01</totfact>
</mgrwt>
</event>
<event>
 6    1  0.9988873E-007  0.7250894E+03  0.7818608E-02  0.9675263E-01
         -2   -1    0    0    0  501 -0.00000000000E+00  0.00000000000E+00  0.78320992715E+02  0.78320992715E+02  0.00000000000E+00 0.  1.
          2   -1    0    0  501    0  0.00000000000E+00 -0.00000000000E+00 -0.16782046996E+04  0.16782046996E+04  0.00000000000E+00 0. -1.
         23    2    1    2    0    0  0.13381614869E+03  0.31799327340E+03 -0.10309299646E+04  0.10911424611E+04  0.93534992533E+02 0.  0.
         13    1    3    3    0    0  0.11615605282E+03  0.17456546963E+03 -0.68093609709E+03  0.71248810524E+03  0.00000000000E+00 0. -1.
        -13    1    3    3    0    0  0.17660095869E+02  0.14342780377E+03 -0.34999386754E+03  0.37865435584E+03  0.00000000000E+00 0.  1.
         22    1    1    2    0    0 -0.13381614869E+03 -0.31799327340E+03 -0.56895374224E+03  0.66538323121E+03  0.00000000000E+00 0.  1.
<mgrwt>
<rscale>  0 0.72508940E+03</rscale>
<asrwt>0</asrwt>
<pdfrwt beam="1">  1        2 0.25818537E+00 0.72508940E+03</pdfrwt>
<pdfrwt beam="2">  1       -2 0.12049382E-01 0.72508940E+03</pdfrwt>
<totfact> 0.51868386E+02</totfact>
</mgrwt>
</event>
<event>
 6    1  0.9988873E-007  0.2631905E+04  0.7818608E-02  0.8357444E-01
          2   -1    0    0  501    0  0.00000000000E+00  0.00000000000E+00  0.19418184419E+04  0.19418184419E+04  0.00000000000E+00 0. -1.
         -2   -1    0    0    0  501 -0.00000000000E+00 -0.00000000000E+00 -0.89180880794E+03  0.89180880794E+03  0.00000000000E+00 0.  1.
         23    2    1    2    0    0  0.48883055235E+03 -0.11187398927E+04  0.10499639801E+04  0.16127528671E+04  0.89516447144E+02 0.  0.
         13    1    3    3    0    0  0.33986728984E+03 -0.81751604769E+03  0.71167022785E+03  0.11359211135E+04  0.00000000000E+00 0. -1.
        -13    1    3    3    0    0  0.14896326251E+03 -0.30122384501E+03  0.33829375229E+03  0.47683175358E+03  0.00000000000E+00 0.  1.
         22    1    1    2    0    0 -0.48883055235E+03  0.11187398927E+04  0.45653841763E-01  0.12208743828E+04  0.00000000000E+00 0.  1.
<mgrwt>
<rscale>  0 0.26319049E+04</rscale>
<asrwt>0</asrwt>
<pdfrwt beam="1">  1        2 0.29874130E+00 0.26319049E+04</pdfrwt>
<pdfrwt beam="2">  1       -2 0.13720136E+00 0.26319049E+04</pdfrwt>
<totfact> 0.24035859E+00</totfact>
</mgrwt>
</event>
<event>
 6    1  0.9988873E-007  0.2906291E+04  0.7818608E-02  0.8271008E-01
         -2   -1    0    0    0  501 -0.00000000000E+00  0.00000000000E+00  0.78784893031E+03  0.78784893031E+03  0.00000000000E+00 0.  1.
          2   -1    0    0  501    0  0.00000000000E+00 -0.00000000000E+00 -0.26802498202E+04  0.26802498202E+04  0.00000000000E+00 0. -1.
         23    2    1    2    0    0  0.29479381159E+03  0.53811210300E+03  0.62336694602E+03  0.87858994941E+03  0.82860865636E+02 0.  0.
         13    1    3    3    0    0  0.19189290508E+03  0.38494233064E+03  0.48292098577E+03  0.64669634561E+03  0.00000000000E+00 0. -1.
        -13    1    3    3    0    0  0.10290090651E+03  0.15316977237E+03  0.14044596025E+03  0.23189360379E+03  0.00000000000E+00 0.  1.
         22    1    1    2    0    0 -0.29479381159E+03 -0.53811210300E+03 -0.25157678360E+04  0.25895088011E+04  0.00000000000E+00 0. -1.
<mgrwt>
<rscale>  0 0.29062911E+04</rscale>
<asrwt>0</asrwt>
<pdfrwt beam="1">  1        2 0.41234612E+00 0.29062911E+04</pdfrwt>
<pdfrwt beam="2">  1       -2 0.12120753E+00 0.29062911E+04</pdfrwt>
<totfact> 0.12185413E+00</totfact>
</mgrwt>
</event>
<event>
 6    1  0.9988873E-007  0.2065587E+04  0.7818608E-02  0.8576556E-01
         -2   -1    0    0    0  501 -0.00000000000E+00  0.00000000000E+00  0.76968452362E+03  0.76968452362E+03  0.00000000000E+00 0.  1.
          2   -1    0    0  501    0  0.00000000000E+00 -0.00000000000E+00 -0.13858439283E+04  0.13858439283E+04  0.00000000000E+00 0. -1.
         23    2    1    2    0    0  0.48223716427E+03  0.79476590410E+03  0.15544731782E+03  0.94739664654E+03  0.95869767557E+02 0.  0.
         13    1    3    3    0    0  0.19770686851E+03  0.30958389734E+03  0.10832543409E+03  0.38296813839E+03  0.00000000000E+00 0. -1.
        -13    1    3    3    0    0  0.28453029577E+03  0.48518200676E+03  0.47121883731E+02  0.56442850815E+03  0.00000000000E+00 0.  1.
         22    1    1    2    0    0 -0.48223716427E+03 -0.79476590410E+03 -0.77160672248E+03  0.12081318054E+04  0.00000000000E+00 0. -1.
<mgrwt>
<rscale>  0 0.20655872E+04</rscale>
<asrwt>0</asrwt>
<pdfrwt beam="1">  1        2 0.21320676E+00 0.20655872E+04</pdfrwt>
<pdfrwt beam="2">  1       -2 0.11841300E+00 0.20655872E+04</pdfrwt>
<totfact> 0.74796135E+00</totfact>
</mgrwt>
</event>
<event>
 6    1  0.9988873E-007  0.1575702E+04  0.7818608E-02  0.8835616E-01
         -1   -1    0    0    0  501 -0.00000000000E+00  0.00000000000E+00  0.48659037879E+03  0.48659037879E+03  0.00000000000E+00 0.  1.
          1   -1    0    0  501    0  0.00000000000E+00 -0.00000000000E+00 -0.12756299852E+04  0.12756299852E+04  0.00000000000E+00 0. -1.
         23    2    1    2    0    0 -0.61298920629E+03  0.20585415843E+03  0.10252612267E+03  0.66084796973E+03  0.89870638615E+02 0.  0.
         13    1    3    3    0    0 -0.44172837981E+03  0.16726417560E+03  0.38195898804E+02  0.47387782460E+03  0.00000000000E+00 0.  1.
        -13    1    3    3    0    0 -0.17126082649E+03  0.38589982829E+02  0.64330223870E+02  0.18697014512E+03  0.00000000000E+00 0. -1.
         22    1    1    2    0    0  0.61298920629E+03 -0.20585415843E+03 -0.89156572906E+03  0.11013723942E+04  0.00000000000E+00 0. -1.
<mgrwt>
<rscale>  0 0.15757021E+04</rscale>
<asrwt>0</asrwt>
<pdfrwt beam="1">  1        1 0.19625077E+00 0.15757021E+04</pdfrwt>
<pdfrwt beam="2">  1       -1 0.74860059E-01 0.15757021E+04</pdfrwt>
<totfact> 0.16251902E+01</totfact>
</mgrwt>
</event>
<event>
 6    1  0.9988873E-007  0.1224046E+04  0.7818608E-02  0.9092065E-01
         -1   -1    0    0    0  501 -0.00000000000E+00  0.00000000000E+00  0.10999711056E+04  0.10999711056E+04  0.00000000000E+00 0.  1.
          1   -1    0    0  501    0  0.00000000000E+00 -0.00000000000E+00 -0.34052934394E+03  0.34052934394E+03  0.00000000000E+00 0. -1.
         23    2    1    2    0    0 -0.52767303550E+03  0.55837276979E+02  0.30858814126E+02  0.53917379103E+03  0.90550961539E+02 0.  0.
         11    1    3    3    0    0 -0.16440251371E+03 -0.14939396486E+01 -0.27847297352E+02  0.16675098302E+03  0.00000000000E+00 0. -1.
        -11    1    3    3    0    0 -0.36327052179E+03  0.57331216627E+02  0.58706111478E+02  0.37242280801E+03  0.00000000000E+00 0.  1.
         22    1    1    2    0    0  0.52767303550E+03 -0.55837276979E+02  0.72858294752E+03  0.90132665849E+03  0.00000000000E+00 0.  1.
<mgrwt>
<rscale>  0 0.12240465E+04</rscale>
<asrwt>0</asrwt>
<pdfrwt beam="1">  1        1 0.52389130E-01 0.12240465E+04</pdfrwt>
<pdfrwt beam="2">  1       -1 0.16922632E+00 0.12240465E+04</pdfrwt>
<totfact> 0.18290480E+01</totfact>
</mgrwt>
</event>
<event>
 6    1  0.9988873E-007  0.1412787E+04  0.7818608E-02  0.8944614E-01
         -1   -1    0    0    0  501 -0.00000000000E+00  0.00000000000E+00  0.43895189393E+03  0.43895189393E+03  0.00000000000E+00 0.  1.
          1   -1    0    0  501    0  0.00000000000E+00 -0.00000000000E+00 -0.11367802789E+04  0.11367802789E+04  0.00000000000E+00 0. -1.
         23    2    1    2    0    0 -0.33940383278E+03 -0.55408512654E+03 -0.65098918995E+03  0.92427288834E+03  0.91039318504E+02 0.  0.
         13    1    3    3    0    0 -0.20374250618E+03 -0.25008776464E+03 -0.34095356257E+03  0.46936577493E+03  0.00000000000E+00 0. -1.
        -13    1    3    3    0    0 -0.13566132660E+03 -0.30399736190E+03 -0.31003562738E+03  0.45490711340E+03  0.00000000000E+00 0.  1.
         22    1    1    2    0    0  0.33940383278E+03  0.55408512654E+03 -0.46839195020E+02  0.65145928449E+03  0.00000000000E+00 0.  1.
<mgrwt>
<rscale>  0 0.14127871E+04</rscale>
<asrwt>0</asrwt>
<pdfrwt beam="1">  1        1 0.17488927E+00 0.14127871E+04</pdfrwt>
<pdfrwt beam="2">  1       -1 0.67531061E-01 0.14127871E+04</pdfrwt>
<totfact> 0.25740338E+01</totfact>
</mgrwt>
</event>
<event>
 6    1  0.9988873E-007  0.3418186E+04  0.7818608E-02  0.8133457E-01
         -2   -1    0    0    0  501 -0.00000000000E+00  0.00000000000E+00  0.85474645501E+03  0.85474645501E+03  0.00000000000E+00 0.  1.
          2   -1    0    0  501    0  0.00000000000E+00 -0.00000000000E+00 -0.34173855716E+04  0.34173855716E+04  0.00000000000E+00 0. -1.
         23    2    1    2    0    0 -0.41876293779E+03 -0.14534859093E+04 -0.22725408067E+04  0.27319564795E+04  0.10564469355E+03 0.  0.
         11    1    3    3    0    0 -0.33364032407E+03 -0.99064077024E+03 -0.15947485566E+04  0.19068056955E+04  0.00000000000E+00 0. -1.
        -11    1    3    3    0    0 -0.85122613723E+02 -0.46284513907E+03 -0.67779225005E+03  0.82515078401E+03  0.00000000000E+00 0.  1.
         22    1    1    2    0    0  0.41876293779E+03  0.14534859093E+04 -0.29009830999E+03  0.15401755472E+04  0.00000000000E+00 0.  1.
<mgrwt>
<rscale>  0 0.34181856E+04</rscale>
<asrwt>0</asrwt>
<pdfrwt beam="1">  1        2 0.52575162E+00 0.34181856E+04</pdfrwt>
<pdfrwt beam="2">  1       -2 0.13149946E+00 0.34181856E+04</pdfrwt>
<totfact> 0.32324153E-01</totfact>
</mgrwt>
</event>
<event>
 6    1  0.9988873E-007  0.1871192E+04  0.7818608E-02  0.8669330E-01
          1   -1    0    0  501    0  0.00000000000E+00  0.00000000000E+00  0.89363716680E+03  0.89363716680E+03  0.00000000000E+00 0. -1.
         -1   -1    0    0    0  501 -0.00000000000E+00 -0.00000000000E+00 -0.97952505309E+03  0.97952505309E+03  0.00000000000E+00 0.  1.
         23    2    1    2    0    0 -0.18610258252E+03  0.75116608519E+03 -0.56539217252E+03  0.96277273222E+03  0.91533416851E+02 0.  0.
         11    1    3    3    0    0 -0.76860390618E+02  0.37161787936E+03 -0.33062736192E+03  0.50331085857E+03  0.00000000000E+00 0. -1.
        -11    1    3    3    0    0 -0.10924219191E+03  0.37954820583E+03 -0.23476481059E+03  0.45946187364E+03  0.00000000000E+00 0.  1.
         22    1    1    2    0    0  0.18610258252E+03 -0.75116608519E+03  0.47950428623E+03  0.91038948767E+03  0.00000000000E+00 0. -1.
<mgrwt>
<rscale>  0 0.18711921E+04</rscale>
<asrwt>0</asrwt>
<pdfrwt beam="1">  1        1 0.13748264E+00 0.18711921E+04</pdfrwt>
<pdfrwt beam="2">  1       -1 0.15069616E+00 0.18711921E+04</pdfrwt>
<totfact> 0.59523538E+00</totfact>
</mgrwt>
</event>
<event>
 6    1  0.9988873E-007  0.4336300E+04  0.7818608E-02  0.7939940E-01
         -2   -1    0    0    0  501 -0.00000000000E+00  0.00000000000E+00  0.38356400003E+04  0.38356400003E+04  0.00000000000E+00 0.  1.
          2   -1    0    0  501    0  0.00000000000E+00 -0.00000000000E+00 -0.12255777470E+04  0.12255777470E+04  0.00000000000E+00 0. -1.
         23    2    1    2    0    0  0.73728736171E+03  0.16285041663E+04 -0.12416854370E+03  0.17944706612E+04  0.95334427284E+02 0.  0.
         11    1    3    3    0    0  0.55534559405E+03  0.12148036549E+04 -0.51427789287E+02  0.13367129334E+04  0.00000000000E+00 0.  1.
        -11    1    3    3    0    0  0.18194176766E+03  0.41370051139E+03 -0.72740754417E+02  0.45775772773E+03  0.00000000000E+00 0. -1.
         22    1    1    2    0    0 -0.73728736171E+03 -0.16285041663E+04  0.27342307970E+04  0.32667470861E+04  0.00000000000E+00 0.  1.
<mgrwt>
<rscale>  0 0.43363003E+04</rscale>
<asrwt>0</asrwt>
<pdfrwt beam="1">  1        2 0.18855042E+00 0.43363003E+04</pdfrwt>
<pdfrwt beam="2">  1       -2 0.59009846E+00 0.43363003E+04</pdfrwt>
<totfact> 0.78386497E-03</totfact>
</mgrwt>
</event>
<event>
 6    1  0.9988873E-007  0.4020367E+04  0.7818608E-02  0.8000450E-01
         -1   -1    0    0    0  501 -0.00000000000E+00  0.00000000000E+00  0.11340739735E+04  0.11340739735E+04  0.00000000000E+00 0.  1.
          1   -1    0    0  501    0  0.00000000000E+00 -0.00000000000E+00 -0.35631167299E+04  0.35631167299E+04  0.00000000000E+00 0. -1.
         23    2    1    2    0    0 -0.18935292679E+04  0.47492165156E+03 -0.17704855757E+04  0.26369234335E+04  0.87990664589E+02 0.  0.
         13    1    3    3    0    0 -0.35263104382E+03  0.74211009362E+02 -0.36985786445E+03  0.51638238435E+03  0.00000000000E+00 0. -1.
        -13    1    3    3    0    0 -0.15408982241E+04  0.40071064220E+03 -0.14006277112E+04  0.21205410492E+04  0.00000000000E+00 0.  1.
         22    1    1    2    0    0  0.18935292679E+04 -0.47492165156E+03 -0.65855718070E+03  0.20602672700E+04  0.00000000000E+00 0.  1.
<mgrwt>
<rscale>  0 0.40203671E+04</rscale>
<asrwt>0</asrwt>
<pdfrwt beam="1">  1        1 0.54817180E+00 0.40203671E+04</pdfrwt>
<pdfrwt beam="2">  1       -1 0.17447292E+00 0.40203671E+04</pdfrwt>
<totfact> 0.39632675E-02</totfact>
</mgrwt>
</event>
<event>
 6    1  0.9988873E-007  0.4029168E+04  0.7818608E-02  0.7998688E-01
          2   -1    0    0  501    0  0.00000000000E+00  0.00000000000E+00  0.12566820059E+04  0.12566820059E+04  0.00000000000E+00 0. -1.
         -2   -1    0    0    0  501 -0.00000000000E+00 -0.00000000000E+00 -0.32295754674E+04  0.32295754674E+04  0.00000000000E+00 0.  1.
         23    2    1    2    0    0  0.12860865141E+04  0.13245441520E+04 -0.91978592239E+02  0.18506785089E+04  0.90084123952E+02 0.  0.
         11    1    3    3    0    0  0.10772171235E+04  0.11104845696E+04 -0.11026193328E+03  0.15510417159E+04  0.00000000000E+00 0. -1.
        -11    1    3    3    0    0  0.20886939065E+03  0.21405958236E+03  0.18283341040E+02  0.29963679298E+03  0.00000000000E+00 0.  1.
         22    1    1    2    0    0 -0.12860865141E+04 -0.13245441520E+04 -0.18809148693E+04  0.26355789645E+04  0.00000000000E+00 0.  1.
<mgrwt>
<rscale>  0 0.40291683E+04</rscale>
<asrwt>0</asrwt>
<pdfrwt beam="1">  1        2 0.19333570E+00 0.40291683E+04</pdfrwt>
<pdfrwt beam="2">  1       -2 0.49685775E+00 0.40291683E+04</pdfrwt>
<totfact> 0.23834173E-02</totfact>
</mgrwt>
</event>
<event>
 6    1  0.9988873E-007  0.5239780E+04  0.7818608E-02  0.7792547E-01
         -2   -1    0    0    0  501 -0.00000000000E+00  0.00000000000E+00  0.14508459111E+04  0.14508459111E+04  0.00000000000E+00 0.  1.
          2   -1    0    0  501    0  0.00000000000E+00 -0.00000000000E+00 -0.47309110683E+04  0.47309110683E+04  0.00000000000E+00 0. -1.
         23    2    1    2    0    0 -0.63827762710E+03 -0.25192444276E+04 -0.12572282358E+04  0.28884516449E+04  0.92408079086E+02 0.  0.
         13    1    3    3    0    0 -0.53072583431E+03 -0.22140546380E+04 -0.11100570020E+04  0.25329694825E+04  0.00000000000E+00 0. -1.
        -13    1    3    3    0    0 -0.10755179279E+03 -0.30518978954E+03 -0.14717123375E+03  0.35548216245E+03  0.00000000000E+00 0.  1.
         22    1    1    2    0    0  0.63827762710E+03  0.25192444276E+04 -0.20228369215E+04  0.32933053345E+04  0.00000000000E+00 0. -1.
<mgrwt>
<rscale>  0 0.52397798E+04</rscale>
<asrwt>0</asrwt>
<pdfrwt beam="1">  1        2 0.72783247E+00 0.52397798E+04</pdfrwt>
<pdfrwt beam="2">  1       -2 0.22320706E+00 0.52397798E+04</pdfrwt>
<totfact> 0.47220054E-03</totfact>
</mgrwt>
</event>
<event>
 6    1  0.9988873E-007  0.6524853E+03  0.7818608E-02  0.9802127E-01
          2   -1    0    0  501    0  0.00000000000E+00  0.00000000000E+00  0.10146387455E+04  0.10146387455E+04  0.00000000000E+00 0. -1.
         -2   -1    0    0    0  501 -0.00000000000E+00 -0.00000000000E+00 -0.10489867075E+03  0.10489867075E+03  0.00000000000E+00 0.  1.
         23    2    1    2    0    0  0.16409418013E+03  0.53397078379E+02  0.17073741611E+01  0.19525308052E+03  0.91338394970E+02 0.  0.
         13    1    3    3    0    0  0.32475383803E+02  0.53005939326E+02 -0.10595916454E+02  0.63059920730E+02  0.00000000000E+00 0. -1.
        -13    1    3    3    0    0  0.13161879633E+03  0.39113905311E+00  0.12303290615E+02  0.13219315979E+03  0.00000000000E+00 0.  1.
         22    1    1    2    0    0 -0.16409418013E+03 -0.53397078379E+02  0.90803270064E+03  0.92428433577E+03  0.00000000000E+00 0. -1.
<mgrwt>
<rscale>  0 0.65248527E+03</rscale>
<asrwt>0</asrwt>
<pdfrwt beam="1">  1        2 0.15609826E+00 0.65248527E+03</pdfrwt>
<pdfrwt beam="2">  1       -2 0.16138258E-01 0.65248527E+03</pdfrwt>
<totfact> 0.76859269E+02</totfact>
</mgrwt>
</event>
<event>
 6    1  0.9988873E-007  0.2361655E+04  0.7818608E-02  0.8454001E-01
         -1   -1    0    0    0  501 -0.00000000000E+00  0.00000000000E+00  0.10477111733E+04  0.10477111733E+04  0.00000000000E+00 0.  1.
          1   -1    0    0  501    0  0.00000000000E+00 -0.00000000000E+00 -0.13308565928E+04  0.13308565928E+04  0.00000000000E+00 0. -1.
         23    2    1    2    0    0  0.47701068539E+03  0.87568389032E+03 -0.77519939700E+03  0.12665971791E+04  0.94725071482E+02 0.  0.
         13    1    3    3    0    0  0.24603754774E+03  0.53238990892E+03 -0.42124743707E+03  0.72209618006E+03  0.00000000000E+00 0.  1.
        -13    1    3    3    0    0  0.23097313765E+03  0.34329398140E+03 -0.35395195993E+03  0.54450099901E+03  0.00000000000E+00 0. -1.
         22    1    1    2    0    0 -0.47701068539E+03 -0.87568389032E+03  0.49205397748E+03  0.11119705871E+04  0.00000000000E+00 0.  1.
<mgrwt>
<rscale>  0 0.23616548E+04</rscale>
<asrwt>0</asrwt>
<pdfrwt beam="1">  1        1 0.20474717E+00 0.23616548E+04</pdfrwt>
<pdfrwt beam="2">  1       -1 0.16118634E+00 0.23616548E+04</pdfrwt>
<totfact> 0.22131669E+00</totfact>
</mgrwt>
</event>
<event>
 6    1  0.9988873E-007  0.1977389E+04  0.7818608E-02  0.8617265E-01
          1   -1    0    0  501    0  0.00000000000E+00  0.00000000000E+00  0.83232981208E+03  0.83232981208E+03  0.00000000000E+00 0. -1.
         -1   -1    0    0    0  501 -0.00000000000E+00 -0.00000000000E+00 -0.11744349067E+04  0.11744349067E+04  0.00000000000E+00 0.  1.
         23    2    1    2    0    0  0.21440973991E+03 -0.85696285791E+03  0.27461955227E+03  0.92940397768E+03  0.89548751152E+02 0.  0.
         13    1    3    3    0    0  0.16269123683E+03 -0.66652049309E+03  0.25141895139E+03  0.73070479358E+03  0.00000000000E+00 0.  1.
        -13    1    3    3    0    0  0.51718503080E+02 -0.19044236482E+03  0.23200600884E+02  0.19869918410E+03  0.00000000000E+00 0. -1.
         22    1    1    2    0    0 -0.21440973991E+03  0.85696285791E+03 -0.61672464693E+03  0.10773607411E+04  0.00000000000E+00 0.  1.
<mgrwt>
<rscale>  0 0.19773894E+04</rscale>
<asrwt>0</asrwt>
<pdfrwt beam="1">  1        1 0.12805074E+00 0.19773894E+04</pdfrwt>
<pdfrwt beam="2">  1       -1 0.18068229E+00 0.19773894E+04</pdfrwt>
<totfact> 0.39650365E+00</totfact>
</mgrwt>
</event>
<event>
 6    1  0.9988873E-007  0.4720499E+04  0.7818608E-02  0.7873131E-01
          2   -1    0    0  501    0  0.00000000000E+00  0.00000000000E+00  0.42732821029E+04  0.42732821029E+04  0.00000000000E+00 0. -1.
         -2   -1    0    0    0  501 -0.00000000000E+00 -0.00000000000E+00 -0.13036298629E+04  0.13036298629E+04  0.00000000000E+00 0.  1.
         23    2    1    2    0    0 -0.15920251797E+04 -0.91771376135E+03  0.32334744550E+04  0.37204785892E+04  0.99303377194E+02 0.  0.
         11    1    3    3    0    0 -0.10531228846E+04 -0.64081430795E+03  0.22405537392E+04  0.25573016728E+04  0.00000000000E+00 0. -1.
        -11    1    3    3    0    0 -0.53890229506E+03 -0.27689945340E+03  0.99292071581E+03  0.11631769164E+04  0.00000000000E+00 0.  1.
         22    1    1    2    0    0  0.15920251797E+04  0.91771376135E+03 -0.26382221500E+03  0.18564333766E+04  0.00000000000E+00 0.  1.
<mgrwt>
<rscale>  0 0.47204992E+04</rscale>
<asrwt>0</asrwt>
<pdfrwt beam="1">  1        2 0.65742801E+00 0.47204992E+04</pdfrwt>
<pdfrwt beam="2">  1       -2 0.20055844E+00 0.47204992E+04</pdfrwt>
<totfact> 0.19544564E-02</totfact>
</mgrwt>
</event>
<event>
 6    1  0.9988873E-007  0.1992084E+04  0.7818608E-02  0.8610330E-01
         -1   -1    0    0    0  501 -0.00000000000E+00  0.00000000000E+00  0.11331793749E+04  0.11331793749E+04  0.00000000000E+00 0.  1.
          1   -1    0    0  501    0  0.00000000000E+00 -0.00000000000E+00 -0.87550122199E+03  0.87550122199E+03  0.00000000000E+00 0. -1.
         23    2    1    2    0    0 -0.52185236077E+03 -0.47427650112E+03  0.83551491294E+03  0.10969989598E+04  0.89741084224E+02 0.  0.
         13    1    3    3    0    0 -0.18192156798E+03 -0.11711504360E+03  0.28751150419E+03  0.35982531231E+03  0.00000000000E+00 0.  1.
        -13    1    3    3    0    0 -0.33993079279E+03 -0.35716145752E+03  0.54800340875E+03  0.73717364754E+03  0.00000000000E+00 0. -1.
         22    1    1    2    0    0  0.52185236077E+03  0.47427650112E+03 -0.57783676007E+03  0.91168163700E+03  0.00000000000E+00 0. -1.
<mgrwt>
<rscale>  0 0.19920843E+04</rscale>
<asrwt>0</asrwt>
<pdfrwt beam="1">  1        1 0.13469250E+00 0.19920843E+04</pdfrwt>
<pdfrwt beam="2">  1       -1 0.17433529E+00 0.19920843E+04</pdfrwt>
<totfact> 0.40479193E+00</totfact>
</mgrwt>
</event>
<event>
 6    1  0.1492187E-006  0.4695925E+04  0.7818608E-02  0.7877206E-01
         -2   -1    0    0    0  501 -0.00000000000E+00  0.00000000000E+00  0.19726496185E+04  0.19726496185E+04  0.00000000000E+00 0.  1.
          2   -1    0    0  501    0  0.00000000000E+00 -0.00000000000E+00 -0.27946813444E+04  0.27946813444E+04  0.00000000000E+00 0. -1.
         23    2    1    2    0    0 -0.58449992995E+03 -0.15405117936E+04 -0.21081275755E+04  0.26771493227E+04  0.90054802107E+02 0.  0.
         11    1    3    3    0    0 -0.23726481422E+03 -0.63365310395E+03 -0.79453734291E+03  0.10435997497E+04  0.00000000000E+00 0. -1.
        -11    1    3    3    0    0 -0.34723511572E+03 -0.90685868970E+03 -0.13135902326E+04  0.16335495731E+04  0.00000000000E+00 0.  1.
         22    1    1    2    0    0  0.58449992995E+03  0.15405117936E+04  0.12860958496E+04  0.20901816401E+04  0.00000000000E+00 0.  1.
<mgrwt>
<rscale>  0 0.46959247E+04</rscale>
<asrwt>0</asrwt>
<pdfrwt beam="1">  1        2 0.42995098E+00 0.46959247E+04</pdfrwt>
<pdfrwt beam="2">  1       -2 0.30348456E+00 0.46959247E+04</pdfrwt>
<totfact> 0.52563516E-02</totfact>
</mgrwt>
</event>
<event>
 6    1  0.9988873E-007  0.3001877E+04  0.7818608E-02  0.8243195E-01
          2   -1    0    0  501    0  0.00000000000E+00  0.00000000000E+00  0.31331407851E+04  0.31331407851E+04  0.00000000000E+00 0. -1.
         -2   -1    0    0    0  501 -0.00000000000E+00 -0.00000000000E+00 -0.71902815069E+03  0.71902815069E+03  0.00000000000E+00 0.  1.
         23    2    1    2    0    0 -0.11261686720E+03 -0.68118872056E+03 -0.50014393191E+03  0.85724122947E+03  0.89542956614E+02 0.  0.
         13    1    3    3    0    0 -0.59805057965E+02 -0.14018500748E+03 -0.10044264488E+03  0.18253001449E+03  0.00000000000E+00 0. -1.
        -13    1    3    3    0    0 -0.52811809237E+02 -0.54100371309E+03 -0.39970128703E+03  0.67471121498E+03  0.00000000000E+00 0.  1.
         22    1    1    2    0    0  0.11261686720E+03  0.68118872056E+03  0.29142565663E+04  0.29949277063E+04  0.00000000000E+00 0. -1.
<mgrwt>
<rscale>  0 0.30018770E+04</rscale>
<asrwt>0</asrwt>
<pdfrwt beam="1">  1        2 0.48202165E+00 0.30018770E+04</pdfrwt>
<pdfrwt beam="2">  1       -2 0.11061972E+00 0.30018770E+04</pdfrwt>
<totfact> 0.79432511E-01</totfact>
</mgrwt>
</event>
<event>
 6    1  0.9988873E-007  0.1581844E+04  0.7818608E-02  0.8831780E-01
         -2   -1    0    0    0  501 -0.00000000000E+00  0.00000000000E+00  0.16153310943E+03  0.16153310943E+03  0.00000000000E+00 0.  1.
          2   -1    0    0  501    0  0.00000000000E+00 -0.00000000000E+00 -0.38726279260E+04  0.38726279260E+04  0.00000000000E+00 0. -1.
         23    2    1    2    0    0  0.73549076120E+03 -0.10064633263E+03 -0.11846403845E+04  0.14009029126E+04  0.89887629014E+02 0.  0.
         11    1    3    3    0    0  0.18914819492E+03  0.23375667010E+00 -0.35825559919E+03  0.40512241192E+03  0.00000000000E+00 0. -1.
        -11    1    3    3    0    0  0.54634256628E+03 -0.10088008930E+03 -0.82638478527E+03  0.99578050065E+03  0.00000000000E+00 0.  1.
         22    1    1    2    0    0 -0.73549076120E+03  0.10064633263E+03 -0.25264544321E+04  0.26332581228E+04  0.00000000000E+00 0. -1.
<mgrwt>
<rscale>  0 0.15818440E+04</rscale>
<asrwt>0</asrwt>
<pdfrwt beam="1">  1        2 0.59578891E+00 0.15818440E+04</pdfrwt>
<pdfrwt beam="2">  1       -2 0.24851248E-01 0.15818440E+04</pdfrwt>
<totfact> 0.61251647E+00</totfact>
</mgrwt>
</event>
<event>
 6    1  0.9988873E-007  0.1055779E+04  0.7818608E-02  0.9249398E-01
         -2   -1    0    0    0  501 -0.00000000000E+00  0.00000000000E+00  0.12324623921E+03  0.12324623921E+03  0.00000000000E+00 0.  1.
          2   -1    0    0  501    0  0.00000000000E+00 -0.00000000000E+00 -0.22610621376E+04  0.22610621376E+04  0.00000000000E+00 0. -1.
         23    2    1    2    0    0  0.37810571289E+03  0.31338223660E+03 -0.66425617831E+03  0.83106962986E+03  0.90929109332E+02 0.  0.
         11    1    3    3    0    0  0.20411716920E+03  0.12153105866E+03 -0.27338361768E+03  0.36217705531E+03  0.00000000000E+00 0.  1.
        -11    1    3    3    0    0  0.17398854368E+03  0.19185117795E+03 -0.39087256063E+03  0.46889257455E+03  0.00000000000E+00 0. -1.
         22    1    1    2    0    0 -0.37810571289E+03 -0.31338223660E+03 -0.14735597201E+04  0.15532387469E+04  0.00000000000E+00 0. -1.
<mgrwt>
<rscale>  0 0.10557792E+04</rscale>
<asrwt>0</asrwt>
<pdfrwt beam="1">  1        2 0.34785572E+00 0.10557792E+04</pdfrwt>
<pdfrwt beam="2">  1       -2 0.18960960E-01 0.10557792E+04</pdfrwt>
<totfact> 0.11212157E+02</totfact>
</mgrwt>
</event>
<event>
 6    1  0.9988873E-007  0.4485706E+04  0.7818608E-02  0.7913144E-01
          2   -1    0    0  501    0  0.00000000000E+00  0.00000000000E+00  0.26616427593E+04  0.26616427593E+04  0.00000000000E+00 0. -1.
         -2   -1    0    0    0  501 -0.00000000000E+00 -0.00000000000E+00 -0.18899568744E+04  0.18899568744E+04  0.00000000000E+00 0.  1.
         23    2    1    2    0    0 -0.37110662266E+03  0.86239375988E+03  0.24519472646E+04  0.26268343423E+04  0.82280928459E+02 0.  0.
         11    1    3    3    0    0 -0.56587658157E+02  0.77104676379E+02  0.28515977639E+03  0.30077132883E+03  0.00000000000E+00 0. -1.
        -11    1    3    3    0    0 -0.31451896451E+03  0.78528908350E+03  0.21667874882E+04  0.23260630135E+04  0.00000000000E+00 0.  1.
         22    1    1    2    0    0  0.37110662266E+03 -0.86239375988E+03 -0.16802613798E+04  0.19247652913E+04  0.00000000000E+00 0.  1.
<mgrwt>
<rscale>  0 0.44857062E+04</rscale>
<asrwt>0</asrwt>
<pdfrwt beam="1">  1        2 0.40948350E+00 0.44857062E+04</pdfrwt>
<pdfrwt beam="2">  1       -2 0.29076260E+00 0.44857062E+04</pdfrwt>
<totfact> 0.76845667E-02</totfact>
</mgrwt>
</event>
<event>
 6    1  0.9988873E-007  0.1382922E+04  0.7818608E-02  0.8966274E-01
         -2   -1    0    0    0  501 -0.00000000000E+00  0.00000000000E+00  0.41920519355E+03  0.41920519355E+03  0.00000000000E+00 0.  1.
          2   -1    0    0  501    0  0.00000000000E+00 -0.00000000000E+00 -0.11405354691E+04  0.11405354691E+04  0.00000000000E+00 0. -1.
         23    2    1    2    0    0  0.41513113087E+03 -0.31845798829E+03  0.14235792548E+03  0.54993540682E+03  0.91726913234E+02 0.  0.
         13    1    3    3    0    0  0.34423476652E+03 -0.28197865973E+03  0.15060726300E+03  0.46977876356E+03  0.00000000000E+00 0. -1.
        -13    1    3    3    0    0  0.70896364346E+02 -0.36479328557E+02 -0.82493375199E+01  0.80156643262E+02  0.00000000000E+00 0.  1.
         22    1    1    2    0    0 -0.41513113087E+03  0.31845798829E+03 -0.86368820102E+03  0.10098052558E+04  0.00000000000E+00 0. -1.
<mgrwt>
<rscale>  0 0.13829221E+04</rscale>
<asrwt>0</asrwt>
<pdfrwt beam="1">  1        2 0.17546700E+00 0.13829221E+04</pdfrwt>
<pdfrwt beam="2">  1       -2 0.64493107E-01 0.13829221E+04</pdfrwt>
<totfact> 0.44516398E+01</totfact>
</mgrwt>
</event>
<event>
 6    1  0.9988873E-007  0.1856617E+04  0.7818608E-02  0.8676757E-01
          2   -1    0    0  501    0  0.00000000000E+00  0.00000000000E+00  0.58374546236E+03  0.58374546236E+03  0.00000000000E+00 0. -1.
         -2   -1    0    0    0  501 -0.00000000000E+00 -0.00000000000E+00 -0.14762541690E+04  0.14762541690E+04  0.00000000000E+00 0.  1.
         23    2    1    2    0    0 -0.56599478607E+03  0.72581883108E+03 -0.33433411391E+03  0.98356015356E+03  0.91914104195E+02 0.  0.
         11    1    3    3    0    0 -0.30519134752E+03  0.32302673779E+03 -0.14108102185E+03  0.46625302858E+03  0.00000000000E+00 0. -1.
        -11    1    3    3    0    0 -0.26080343855E+03  0.40279209328E+03 -0.19325309206E+03  0.51730712499E+03  0.00000000000E+00 0.  1.
         22    1    1    2    0    0  0.56599478607E+03 -0.72581883108E+03 -0.55817459272E+03  0.10764394778E+04  0.00000000000E+00 0.  1.
<mgrwt>
<rscale>  0 0.18566170E+04</rscale>
<asrwt>0</asrwt>
<pdfrwt beam="1">  1        2 0.89806994E-01 0.18566170E+04</pdfrwt>
<pdfrwt beam="2">  1       -2 0.22711603E+00 0.18566170E+04</pdfrwt>
<totfact> 0.42923162E+00</totfact>
</mgrwt>
</event>
<event>
 6    1  0.9988873E-007  0.2967149E+04  0.7818608E-02  0.8253174E-01
          2   -1    0    0  501    0  0.00000000000E+00  0.00000000000E+00  0.25405549611E+04  0.25405549611E+04  0.00000000000E+00 0. -1.
         -2   -1    0    0    0  501 -0.00000000000E+00 -0.00000000000E+00 -0.86634352833E+03  0.86634352833E+03  0.00000000000E+00 0.  1.
         23    2    1    2    0    0  0.13333492591E+04  0.28834397891E+03  0.17257904968E+03  0.13781396790E+04  0.92319822811E+02 0.  0.
         13    1    3    3    0    0  0.88559709215E+03  0.16274339969E+03  0.79946499743E+02  0.90396850973E+03  0.00000000000E+00 0. -1.
        -13    1    3    3    0    0  0.44775216692E+03  0.12560057922E+03  0.92632549937E+02  0.47417116929E+03  0.00000000000E+00 0.  1.
         22    1    1    2    0    0 -0.13333492591E+04 -0.28834397891E+03  0.15016323831E+04  0.20287588104E+04  0.00000000000E+00 0.  1.
<mgrwt>
<rscale>  0 0.29671490E+04</rscale>
<asrwt>0</asrwt>
<pdfrwt beam="1">  1        2 0.39085461E+00 0.29671490E+04</pdfrwt>
<pdfrwt beam="2">  1       -2 0.13328362E+00 0.29671490E+04</pdfrwt>
<totfact> 0.11532697E+00</totfact>
</mgrwt>
</event>
<event>
 6    1  0.9988873E-007  0.1556906E+04  0.7818608E-02  0.8847469E-01
         -1   -1    0    0    0  501 -0.00000000000E+00  0.00000000000E+00  0.14785793422E+04  0.14785793422E+04  0.00000000000E+00 0.  1.
          1   -1    0    0  501    0  0.00000000000E+00 -0.00000000000E+00 -0.40984537689E+03  0.40984537689E+03  0.00000000000E+00 0. -1.
         23    2    1    2    0    0 -0.61583401366E+03  0.35116020322E+03  0.15388735811E+03  0.73105298304E+03  0.90510354767E+02 0.  0.
         11    1    3    3    0    0 -0.51497770509E+03  0.29802689245E+03  0.94304511429E+02  0.60242460627E+03  0.00000000000E+00 0. -1.
        -11    1    3    3    0    0 -0.10085630857E+03  0.53133310764E+02  0.59582846685E+02  0.12862837677E+03  0.00000000000E+00 0.  1.
         22    1    1    2    0    0  0.61583401366E+03 -0.35116020322E+03  0.91484660719E+03  0.11573717360E+04  0.00000000000E+00 0.  1.
<mgrwt>
<rscale>  0 0.15569058E+04</rscale>
<asrwt>0</asrwt>
<pdfrwt beam="1">  1        1 0.63053136E-01 0.15569058E+04</pdfrwt>
<pdfrwt beam="2">  1       -1 0.22747374E+00 0.15569058E+04</pdfrwt>
<totfact> 0.54868955E+00</totfact>
</mgrwt>
</event>
<event>
 6    1  0.9988873E-007  0.8702435E+03  0.7818608E-02  0.9463563E-01
          1   -1    0    0  501    0  0.00000000000E+00  0.00000000000E+00  0.14443493453E+04  0.14443493453E+04  0.00000000000E+00 0. -1.
         -1   -1    0    0    0  501 -0.00000000000E+00 -0.00000000000E+00 -0.13108388010E+03  0.13108388010E+03  0.00000000000E+00 0.  1.
         23    2    1    2    0    0  0.85380219054E+02 -0.11621747410E+03  0.13979520884E+04  0.14081965450E+04  0.89169416339E+02 0.  0.
         11    1    3    3    0    0  0.35948154629E+02 -0.11440964908E+03  0.96123422670E+03  0.96868626305E+03  0.00000000000E+00 0.  1.
        -11    1    3    3    0    0  0.49432064425E+02 -0.18078250204E+01  0.43671786173E+03  0.43951028200E+03  0.00000000000E+00 0. -1.
         22    1    1    2    0    0 -0.85380219054E+02  0.11621747410E+03 -0.84686623255E+02  0.16723668034E+03  0.00000000000E+00 0.  1.
<mgrwt>
<rscale>  0 0.87024345E+03</rscale>
<asrwt>0</asrwt>
<pdfrwt beam="1">  1        1 0.22220758E+00 0.87024345E+03</pdfrwt>
<pdfrwt beam="2">  1       -1 0.20166752E-01 0.87024345E+03</pdfrwt>
<totfact> 0.14570587E+02</totfact>
</mgrwt>
</event>
<event>
 6    1  0.9988873E-007  0.1681564E+04  0.7818608E-02  0.8771950E-01
         -2   -1    0    0    0  501 -0.00000000000E+00  0.00000000000E+00  0.29815085234E+03  0.29815085234E+03  0.00000000000E+00 0.  1.
          2   -1    0    0  501    0  0.00000000000E+00 -0.00000000000E+00 -0.23709952422E+04  0.23709952422E+04  0.00000000000E+00 0. -1.
         23    2    1    2    0    0  0.31757954024E+03  0.41886765639E+03 -0.31386230517E+01  0.53373305741E+03  0.92489175978E+02 0.  0.
         11    1    3    3    0    0  0.23655367347E+03  0.26433408401E+03  0.30494755280E+02  0.35603381652E+03  0.00000000000E+00 0. -1.
        -11    1    3    3    0    0  0.81025866764E+02  0.15453357238E+03 -0.33633378331E+02  0.17769924089E+03  0.00000000000E+00 0.  1.
         22    1    1    2    0    0 -0.31757954024E+03 -0.41886765639E+03 -0.20697057668E+04  0.21354130371E+04  0.00000000000E+00 0. -1.
<mgrwt>
<rscale>  0 0.16815639E+04</rscale>
<asrwt>0</asrwt>
<pdfrwt beam="1">  1        2 0.36476851E+00 0.16815639E+04</pdfrwt>
<pdfrwt beam="2">  1       -2 0.45869361E-01 0.16815639E+04</pdfrwt>
<totfact> 0.17759085E+01</totfact>
</mgrwt>
</event>
<event>
 6    1  0.9988873E-007  0.1548087E+04  0.7818608E-02  0.8853091E-01
          2   -1    0    0  501    0  0.00000000000E+00  0.00000000000E+00  0.17651321062E+04  0.17651321062E+04  0.00000000000E+00 0. -1.
         -2   -1    0    0    0  501 -0.00000000000E+00 -0.00000000000E+00 -0.33943237717E+03  0.33943237717E+03  0.00000000000E+00 0.  1.
         23    2    1    2    0    0 -0.76112391941E+03 -0.27021799926E+02  0.88186102723E+03  0.11687224390E+04  0.90517786949E+02 0.  0.
         11    1    3    3    0    0 -0.66126719432E+03  0.67997955474E+01  0.75049335674E+03  0.10002803697E+04  0.00000000000E+00 0.  1.
        -11    1    3    3    0    0 -0.99856725097E+02 -0.33821595473E+02  0.13136767049E+03  0.16844206932E+03  0.00000000000E+00 0. -1.
         22    1    1    2    0    0  0.76112391941E+03  0.27021799926E+02  0.54383870176E+03  0.93584204431E+03  0.00000000000E+00 0.  1.
<mgrwt>
<rscale>  0 0.15480865E+04</rscale>
<asrwt>0</asrwt>
<pdfrwt beam="1">  1        2 0.27155878E+00 0.15480865E+04</pdfrwt>
<pdfrwt beam="2">  1       -2 0.52220367E-01 0.15480865E+04</pdfrwt>
<totfact> 0.30063448E+01</totfact>
</mgrwt>
</event>
<event>
 6    1  0.9988873E-007  0.7582748E+03  0.7818608E-02  0.9622457E-01
          2   -1    0    0  501    0  0.00000000000E+00  0.00000000000E+00  0.76628369636E+03  0.76628369636E+03  0.00000000000E+00 0. -1.
         -2   -1    0    0    0  501 -0.00000000000E+00 -0.00000000000E+00 -0.18758741032E+03  0.18758741032E+03  0.00000000000E+00 0.  1.
         23    2    1    2    0    0 -0.25322471007E+03 -0.86984662119E+02 -0.33871640080E+02  0.28534395738E+03  0.92654199989E+02 0.  0.
         13    1    3    3    0    0 -0.18479913779E+03 -0.30985332343E+02 -0.53306746179E+02  0.19481381198E+03  0.00000000000E+00 0.  1.
        -13    1    3    3    0    0 -0.68425572281E+02 -0.55999329776E+02  0.19435106098E+02  0.90530145401E+02  0.00000000000E+00 0. -1.
         22    1    1    2    0    0  0.25322471007E+03  0.86984662119E+02  0.61256792613E+03  0.66852714930E+03  0.00000000000E+00 0. -1.
<mgrwt>
<rscale>  0 0.75827482E+03</rscale>
<asrwt>0</asrwt>
<pdfrwt beam="1">  1        2 0.11788980E+00 0.75827482E+03</pdfrwt>
<pdfrwt beam="2">  1       -2 0.28859602E-01 0.75827482E+03</pdfrwt>
<totfact> 0.40391749E+02</totfact>
</mgrwt>
</event>
<event>
 6    1  0.9988873E-007  0.1813214E+04  0.7818608E-02  0.8699304E-01
         -2   -1    0    0    0  501 -0.00000000000E+00  0.00000000000E+00  0.39870819056E+03  0.39870819056E+03  0.00000000000E+00 0.  1.
          2   -1    0    0  501    0  0.00000000000E+00 -0.00000000000E+00 -0.20614983104E+04  0.20614983104E+04  0.00000000000E+00 0. -1.
         23    2    1    2    0    0 -0.61286395659E+03  0.17545219527E+03  0.36535433752E+02  0.64524285416E+03  0.92832110871E+02 0.  0.
         11    1    3    3    0    0 -0.23316911754E+03  0.98174559715E+02  0.48399605357E+02  0.25758222638E+03  0.00000000000E+00 0. -1.
        -11    1    3    3    0    0 -0.37969483906E+03  0.77277635556E+02 -0.11864171605E+02  0.38766062778E+03  0.00000000000E+00 0.  1.
         22    1    1    2    0    0  0.61286395659E+03 -0.17545219527E+03 -0.16993255536E+04  0.18149636468E+04  0.00000000000E+00 0. -1.
<mgrwt>
<rscale>  0 0.18132140E+04</rscale>
<asrwt>0</asrwt>
<pdfrwt beam="1">  1        2 0.31715358E+00 0.18132140E+04</pdfrwt>
<pdfrwt beam="2">  1       -2 0.61339723E-01 0.18132140E+04</pdfrwt>
<totfact> 0.14390888E+01</totfact>
</mgrwt>
</event>
<event>
 6    1  0.9988873E-007  0.3976580E+04  0.7818608E-02  0.8009288E-01
          1   -1    0    0  501    0  0.00000000000E+00  0.00000000000E+00  0.25291520946E+04  0.25291520946E+04  0.00000000000E+00 0. -1.
         -1   -1    0    0    0  501 -0.00000000000E+00 -0.00000000000E+00 -0.15630916927E+04  0.15630916927E+04  0.00000000000E+00 0.  1.
         23    2    1    2    0    0 -0.14027807733E+04  0.12394494280E+04  0.11696078292E+04  0.22093045058E+04  0.94948105422E+02 0.  0.
         13    1    3    3    0    0 -0.30774085332E+03  0.32588939237E+03  0.27787592501E+03  0.52737402150E+03  0.00000000000E+00 0.  1.
        -13    1    3    3    0    0 -0.10950399200E+04  0.91356003566E+03  0.89173190422E+03  0.16819304843E+04  0.00000000000E+00 0. -1.
         22    1    1    2    0    0  0.14027807733E+04 -0.12394494280E+04 -0.20354742733E+03  0.18829392815E+04  0.00000000000E+00 0.  1.
<mgrwt>
<rscale>  0 0.39765798E+04</rscale>
<asrwt>0</asrwt>
<pdfrwt beam="1">  1        1 0.38910032E+00 0.39765798E+04</pdfrwt>
<pdfrwt beam="2">  1       -1 0.24047565E+00 0.39765798E+04</pdfrwt>
<totfact> 0.81609017E-02</totfact>
</mgrwt>
</event>
<event>
 6    1  0.9988873E-007  0.2682717E+04  0.7818608E-02  0.8340634E-01
          2   -1    0    0  501    0  0.00000000000E+00  0.00000000000E+00  0.14001972494E+04  0.14001972494E+04  0.00000000000E+00 0. -1.
         -2   -1    0    0    0  501 -0.00000000000E+00 -0.00000000000E+00 -0.12849927089E+04  0.12849927089E+04  0.00000000000E+00 0.  1.
         23    2    1    2    0    0  0.27603725618E+03  0.12248509818E+03  0.13642439156E+04  0.14001613490E+04  0.89950964250E+02 0.  0.
         11    1    3    3    0    0  0.15738060423E+03  0.11696476621E+03  0.87545632937E+03  0.89714725422E+03  0.00000000000E+00 0.  1.
        -11    1    3    3    0    0  0.11865665195E+03  0.55203319763E+01  0.48878758624E+03  0.50301409481E+03  0.00000000000E+00 0. -1.
         22    1    1    2    0    0 -0.27603725618E+03 -0.12248509818E+03 -0.12490393751E+04  0.12850286092E+04  0.00000000000E+00 0.  1.
<mgrwt>
<rscale>  0 0.26827175E+04</rscale>
<asrwt>0</asrwt>
<pdfrwt beam="1">  1        2 0.21541496E+00 0.26827175E+04</pdfrwt>
<pdfrwt beam="2">  1       -2 0.19769119E+00 0.26827175E+04</pdfrwt>
<totfact> 0.17508115E+00</totfact>
</mgrwt>
</event>
<event>
 6    1  0.9988873E-007  0.7997351E+03  0.7818608E-02  0.9560401E-01
          1   -1    0    0  501    0  0.00000000000E+00  0.00000000000E+00  0.19398081769E+03  0.19398081769E+03  0.00000000000E+00 0. -1.
         -1   -1    0    0    0  501 -0.00000000000E+00 -0.00000000000E+00 -0.82427765380E+03  0.82427765380E+03  0.00000000000E+00 0.  1.
         23    2    1    2    0    0  0.54914555109E+02 -0.15356680526E+03 -0.77662148455E+03  0.79914828281E+03  0.94332791762E+02 0.  0.
         11    1    3    3    0    0  0.78522076958E+02 -0.11184321582E+03 -0.49690415910E+03  0.51535266063E+03  0.00000000000E+00 0. -1.
        -11    1    3    3    0    0 -0.23607521848E+02 -0.41723589439E+02 -0.27971732546E+03  0.28379562217E+03  0.00000000000E+00 0.  1.
         22    1    1    2    0    0 -0.54914555109E+02  0.15356680526E+03  0.14632464845E+03  0.21911018868E+03  0.00000000000E+00 0. -1.
<mgrwt>
<rscale>  0 0.79973509E+03</rscale>
<asrwt>0</asrwt>
<pdfrwt beam="1">  1        1 0.29843202E-01 0.79973509E+03</pdfrwt>
<pdfrwt beam="2">  1       -1 0.12681195E+00 0.79973509E+03</pdfrwt>
<totfact> 0.84703049E+01</totfact>
</mgrwt>
</event>
<event>
 6    1  0.9988873E-007  0.1789958E+04  0.7818608E-02  0.8711658E-01
          2   -1    0    0  501    0  0.00000000000E+00  0.00000000000E+00  0.13192977297E+04  0.13192977297E+04  0.00000000000E+00 0. -1.
         -2   -1    0    0    0  501 -0.00000000000E+00 -0.00000000000E+00 -0.60713195649E+03  0.60713195649E+03  0.00000000000E+00 0.  1.
         23    2    1    2    0    0  0.73404153989E+03 -0.20833800008E+03  0.85551541356E+03  0.11500465180E+04  0.92079672811E+02 0.  0.
         11    1    3    3    0    0  0.23304538412E+03 -0.84736939210E+02  0.33820767963E+03  0.41937445617E+03  0.00000000000E+00 0. -1.
        -11    1    3    3    0    0  0.50099615577E+03 -0.12360106087E+03  0.51730773392E+03  0.73067206182E+03  0.00000000000E+00 0.  1.
         22    1    1    2    0    0 -0.73404153989E+03  0.20833800008E+03 -0.14334964029E+03  0.77638316825E+03  0.00000000000E+00 0.  1.
<mgrwt>
<rscale>  0 0.17899584E+04</rscale>
<asrwt>0</asrwt>
<pdfrwt beam="1">  1        2 0.20296888E+00 0.17899584E+04</pdfrwt>
<pdfrwt beam="2">  1       -2 0.93404917E-01 0.17899584E+04</pdfrwt>
<totfact> 0.14759065E+01</totfact>
</mgrwt>
</event>
<event>
 6    1  0.9988873E-007  0.4509941E+04  0.7818608E-02  0.7908899E-01
         -2   -1    0    0    0  501 -0.00000000000E+00  0.00000000000E+00  0.24434235626E+04  0.24434235626E+04  0.00000000000E+00 0.  1.
          2   -1    0    0  501    0  0.00000000000E+00 -0.00000000000E+00 -0.20810524456E+04  0.20810524456E+04  0.00000000000E+00 0. -1.
         23    2    1    2    0    0  0.12080476187E+04 -0.14698083412E+04  0.13939216233E+04  0.23602643604E+04  0.90081908061E+02 0.  0.
         13    1    3    3    0    0  0.74415417869E+03 -0.91358417066E+03  0.80909224900E+03  0.14293466150E+04  0.00000000000E+00 0.  1.
        -13    1    3    3    0    0  0.46389344001E+03 -0.55622417059E+03  0.58482937431E+03  0.93091774539E+03  0.00000000000E+00 0. -1.
         22    1    1    2    0    0 -0.12080476187E+04  0.14698083412E+04 -0.10315505063E+04  0.21642116477E+04  0.00000000000E+00 0. -1.
<mgrwt>
<rscale>  0 0.45099413E+04</rscale>
<asrwt>0</asrwt>
<pdfrwt beam="1">  1        2 0.32016192E+00 0.45099413E+04</pdfrwt>
<pdfrwt beam="2">  1       -2 0.37591132E+00 0.45099413E+04</pdfrwt>
<totfact> 0.48495249E-02</totfact>
</mgrwt>
</event>
<event>
 6    1  0.9988873E-007  0.1701872E+04  0.7818608E-02  0.8760298E-01
          1   -1    0    0  501    0  0.00000000000E+00  0.00000000000E+00  0.11509497763E+04  0.11509497763E+04  0.00000000000E+00 0. -1.
         -1   -1    0    0    0  501 -0.00000000000E+00 -0.00000000000E+00 -0.62912541061E+03  0.62912541061E+03  0.00000000000E+00 0.  1.
         23    2    1    2    0    0 -0.35867545546E+03  0.18376527184E+03  0.10424006281E+04  0.11217307463E+04  0.96244688644E+02 0.  0.
         13    1    3    3    0    0 -0.18577364168E+03  0.14599275611E+03  0.63581827521E+03  0.67829979351E+03  0.00000000000E+00 0. -1.
        -13    1    3    3    0    0 -0.17290181378E+03  0.37772515734E+02  0.40658235292E+03  0.44343095276E+03  0.00000000000E+00 0.  1.
         22    1    1    2    0    0  0.35867545546E+03 -0.18376527184E+03 -0.52057626245E+03  0.65834444063E+03  0.00000000000E+00 0.  1.
<mgrwt>
<rscale>  0 0.17018716E+04</rscale>
<asrwt>0</asrwt>
<pdfrwt beam="1">  1        1 0.17706920E+00 0.17018716E+04</pdfrwt>
<pdfrwt beam="2">  1       -1 0.96788525E-01 0.17018716E+04</pdfrwt>
<totfact> 0.11345627E+01</totfact>
</mgrwt>
</event>
<event>
 6    1  0.9988873E-007  0.1996842E+04  0.7818608E-02  0.8608098E-01
         -2   -1    0    0    0  501 -0.00000000000E+00  0.00000000000E+00  0.15095262620E+04  0.15095262620E+04  0.00000000000E+00 0.  1.
          2   -1    0    0  501    0  0.00000000000E+00 -0.00000000000E+00 -0.66036937584E+03  0.66036937584E+03  0.00000000000E+00 0. -1.
         23    2    1    2    0    0 -0.30758374915E+03 -0.13357497004E+03  0.14449347466E+04  0.14862281058E+04  0.92668900581E+02 0.  0.
         13    1    3    3    0    0 -0.48546872312E+02 -0.29353492644E+02  0.42480944967E+03  0.42858079154E+03  0.00000000000E+00 0. -1.
        -13    1    3    3    0    0 -0.25903687684E+03 -0.10422147739E+03  0.10201252970E+04  0.10576473143E+04  0.00000000000E+00 0.  1.
         22    1    1    2    0    0  0.30758374915E+03  0.13357497004E+03 -0.59577786046E+03  0.68366753204E+03  0.00000000000E+00 0. -1.
<mgrwt>
<rscale>  0 0.19968424E+04</rscale>
<asrwt>0</asrwt>
<pdfrwt beam="1">  1        2 0.10159529E+00 0.19968424E+04</pdfrwt>
<pdfrwt beam="2">  1       -2 0.23223481E+00 0.19968424E+04</pdfrwt>
<totfact> 0.33904257E+00</totfact>
</mgrwt>
</event>
<event>
 6    1  0.9988873E-007  0.2069597E+04  0.7818608E-02  0.8574756E-01
         -1   -1    0    0    0  501 -0.00000000000E+00  0.00000000000E+00  0.63999742390E+03  0.63999742390E+03  0.00000000000E+00 0.  1.
          1   -1    0    0  501    0  0.00000000000E+00 -0.00000000000E+00 -0.16731436477E+04  0.16731436477E+04  0.00000000000E+00 0. -1.
         23    2    1    2    0    0  0.91364811948E+03 -0.37522213209E+03 -0.85495382461E+03  0.13094991704E+04  0.91090616985E+02 0.  0.
         11    1    3    3    0    0  0.31599123940E+03 -0.84954870520E+02 -0.26809676101E+03  0.42301733613E+03  0.00000000000E+00 0. -1.
        -11    1    3    3    0    0  0.59765688008E+03 -0.29026726157E+03 -0.58685706360E+03  0.88648183430E+03  0.00000000000E+00 0.  1.
         22    1    1    2    0    0 -0.91364811948E+03  0.37522213209E+03 -0.17819239917E+03  0.10036419012E+04  0.00000000000E+00 0.  1.
<mgrwt>
<rscale>  0 0.20695967E+04</rscale>
<asrwt>0</asrwt>
<pdfrwt beam="1">  1        1 0.25740672E+00 0.20695967E+04</pdfrwt>
<pdfrwt beam="2">  1       -1 0.98461142E-01 0.20695967E+04</pdfrwt>
<totfact> 0.45265601E+00</totfact>
</mgrwt>
</event>
<event>
 6    1  0.9988873E-007  0.2591498E+04  0.7818608E-02  0.8371095E-01
          1   -1    0    0  501    0  0.00000000000E+00  0.00000000000E+00  0.75935246241E+03  0.75935246241E+03  0.00000000000E+00 0. -1.
         -1   -1    0    0    0  501 -0.00000000000E+00 -0.00000000000E+00 -0.22110489422E+04  0.22110489422E+04  0.00000000000E+00 0.  1.
         23    2    1    2    0    0 -0.12863693011E+04  0.17587801802E+02 -0.88679041267E+03  0.15653483187E+04  0.94142515594E+02 0.  0.
         13    1    3    3    0    0 -0.53811544355E+03  0.53801510973E+02 -0.37060644476E+03  0.65560046527E+03  0.00000000000E+00 0. -1.
        -13    1    3    3    0    0 -0.74825385756E+03 -0.36213709171E+02 -0.51618396791E+03  0.90974785343E+03  0.00000000000E+00 0.  1.
         22    1    1    2    0    0  0.12863693011E+04 -0.17587801802E+02 -0.56490606717E+03  0.14050530859E+04  0.00000000000E+00 0. -1.
<mgrwt>
<rscale>  0 0.25914980E+04</rscale>
<asrwt>0</asrwt>
<pdfrwt beam="1">  1        1 0.11682346E+00 0.25914980E+04</pdfrwt>
<pdfrwt beam="2">  1       -1 0.34016138E+00 0.25914980E+04</pdfrwt>
<totfact> 0.38219722E-01</totfact>
</mgrwt>
</event>
<event>
 6    1  0.9988873E-007  0.1885505E+04  0.7818608E-02  0.8662105E-01
          1   -1    0    0  501    0  0.00000000000E+00  0.00000000000E+00  0.21272935416E+04  0.21272935416E+04  0.00000000000E+00 0. -1.
         -1   -1    0    0    0  501 -0.00000000000E+00 -0.00000000000E+00 -0.41779945530E+03  0.41779945530E+03  0.00000000000E+00 0.  1.
         23    2    1    2    0    0 -0.17585504310E+03 -0.22190253971E+03  0.20672923748E+04  0.20888196702E+04  0.96457858286E+02 0.  0.
         11    1    3    3    0    0 -0.73350729662E+02 -0.13194310426E+03  0.13718288389E+04  0.13801100230E+04  0.00000000000E+00 0. -1.
        -11    1    3    3    0    0 -0.10250431344E+03 -0.89959435447E+02  0.69546353588E+03  0.70870964720E+03  0.00000000000E+00 0.  1.
         22    1    1    2    0    0  0.17585504310E+03  0.22190253971E+03 -0.35779828855E+03  0.45627332664E+03  0.00000000000E+00 0.  1.
<mgrwt>
<rscale>  0 0.18855048E+04</rscale>
<asrwt>0</asrwt>
<pdfrwt beam="1">  1        1 0.32727592E+00 0.18855048E+04</pdfrwt>
<pdfrwt beam="2">  1       -1 0.64276841E-01 0.18855048E+04</pdfrwt>
<totfact> 0.56150949E+00</totfact>
</mgrwt>
</event>
<event>
 6    1  0.9988873E-007  0.3582034E+04  0.7818608E-02  0.8094620E-01
         -2   -1    0    0    0  501 -0.00000000000E+00  0.00000000000E+00  0.26138488796E+04  0.26138488796E+04  0.00000000000E+00 0.  1.
          2   -1    0    0  501    0  0.00000000000E+00 -0.00000000000E+00 -0.12272099047E+04  0.12272099047E+04  0.00000000000E+00 0. -1.
         23    2    1    2    0    0  0.45695692709E+03  0.17010416154E+04  0.10337875137E+04  0.20447135046E+04  0.98916539072E+02 0.  0.
         13    1    3    3    0    0  0.27118907717E+03  0.10745053972E+04  0.59811497034E+03  0.12593041261E+04  0.00000000000E+00 0.  1.
        -13    1    3    3    0    0  0.18576784992E+03  0.62653621821E+03  0.43567254339E+03  0.78540937852E+03  0.00000000000E+00 0. -1.
         22    1    1    2    0    0 -0.45695692709E+03 -0.17010416154E+04  0.35285146111E+03  0.17963452798E+04  0.00000000000E+00 0. -1.
<mgrwt>
<rscale>  0 0.35820336E+04</rscale>
<asrwt>0</asrwt>
<pdfrwt beam="1">  1        2 0.18880152E+00 0.35820336E+04</pdfrwt>
<pdfrwt beam="2">  1       -2 0.40213059E+00 0.35820336E+04</pdfrwt>
<totfact> 0.10695891E-01</totfact>
</mgrwt>
</event>
<event>
 6    1  0.9988873E-007  0.6175484E+03  0.7818608E-02  0.9869653E-01
         -1   -1    0    0    0  501 -0.00000000000E+00  0.00000000000E+00  0.18454082367E+04  0.18454082367E+04  0.00000000000E+00 0.  1.
          1   -1    0    0  501    0  0.00000000000E+00 -0.00000000000E+00 -0.51664183980E+02  0.51664183980E+02  0.00000000000E+00 0. -1.
         23    2    1    2    0    0  0.23029790279E+03  0.16879897841E+03  0.12128705889E+04  0.12498134307E+04  0.97202505045E+02 0.  0.
         11    1    3    3    0    0  0.12109673480E+03  0.59571553539E+02  0.39313735894E+03  0.41565631496E+03  0.00000000000E+00 0.  1.
        -11    1    3    3    0    0  0.10920116799E+03  0.10922742487E+03  0.81973322996E+03  0.83415711573E+03  0.00000000000E+00 0. -1.
         22    1    1    2    0    0 -0.23029790279E+03 -0.16879897841E+03  0.58087346378E+03  0.64725898994E+03  0.00000000000E+00 0. -1.
<mgrwt>
<rscale>  0 0.61754841E+03</rscale>
<asrwt>0</asrwt>
<pdfrwt beam="1">  1        1 0.79483374E-02 0.61754841E+03</pdfrwt>
<pdfrwt beam="2">  1       -1 0.28390891E+00 0.61754841E+03</pdfrwt>
<totfact> 0.40733593E+01</totfact>
</mgrwt>
</event>
<event>
 6    1  0.9988873E-007  0.1727980E+04  0.7818608E-02  0.8745566E-01
          2   -1    0    0  501    0  0.00000000000E+00  0.00000000000E+00  0.11055106112E+04  0.11055106112E+04  0.00000000000E+00 0. -1.
         -2   -1    0    0    0  501 -0.00000000000E+00 -0.00000000000E+00 -0.67523398560E+03  0.67523398560E+03  0.00000000000E+00 0.  1.
         23    2    1    2    0    0 -0.50910777551E+03  0.48726601367E+03  0.72642150367E+03  0.10163358815E+04  0.92906016864E+02 0.  0.
         13    1    3    3    0    0 -0.25972390630E+03  0.25203515609E+03  0.43918123288E+03  0.56908556713E+03  0.00000000000E+00 0.  1.
        -13    1    3    3    0    0 -0.24938386921E+03  0.23523085758E+03  0.28724027079E+03  0.44725031441E+03  0.00000000000E+00 0. -1.
         22    1    1    2    0    0  0.50910777551E+03 -0.48726601367E+03 -0.29614487807E+03  0.76440871526E+03  0.00000000000E+00 0.  1.
<mgrwt>
<rscale>  0 0.17279796E+04</rscale>
<asrwt>0</asrwt>
<pdfrwt beam="1">  1        2 0.17007856E+00 0.17279796E+04</pdfrwt>
<pdfrwt beam="2">  1       -2 0.10388215E+00 0.17279796E+04</pdfrwt>
<totfact> 0.15482003E+01</totfact>
</mgrwt>
</event>
<event>
 6    1  0.9988873E-007  0.1301812E+04  0.7818608E-02  0.9028130E-01
         -2   -1    0    0    0  501 -0.00000000000E+00  0.00000000000E+00  0.28372611740E+04  0.28372611740E+04  0.00000000000E+00 0.  1.
          2   -1    0    0  501    0  0.00000000000E+00 -0.00000000000E+00 -0.14932656556E+03  0.14932656556E+03  0.00000000000E+00 0. -1.
         23    2    1    2    0    0 -0.37155009109E+03 -0.41295208983E+03  0.58686945768E+03  0.81332897301E+03  0.92246188474E+02 0.  0.
         13    1    3    3    0    0 -0.21318164137E+03 -0.29981700349E+03  0.40142626027E+03  0.54449948598E+03  0.00000000000E+00 0.  1.
        -13    1    3    3    0    0 -0.15836844972E+03 -0.11313508634E+03  0.18544319740E+03  0.26882948702E+03  0.00000000000E+00 0. -1.
         22    1    1    2    0    0  0.37155009109E+03  0.41295208983E+03  0.21010651507E+04  0.21732587665E+04  0.00000000000E+00 0.  1.
<mgrwt>
<rscale>  0 0.13018118E+04</rscale>
<asrwt>0</asrwt>
<pdfrwt beam="1">  1        2 0.22973320E-01 0.13018118E+04</pdfrwt>
<pdfrwt beam="2">  1       -2 0.43650168E+00 0.13018118E+04</pdfrwt>
<totfact> 0.10269898E+00</totfact>
</mgrwt>
</event>
<event>
 6    1  0.9988873E-007  0.1475976E+04  0.7818608E-02  0.8900588E-01
          2   -1    0    0  501    0  0.00000000000E+00  0.00000000000E+00  0.89252164696E+03  0.89252164696E+03  0.00000000000E+00 0. -1.
         -2   -1    0    0    0  501 -0.00000000000E+00 -0.00000000000E+00 -0.61021044795E+03  0.61021044795E+03  0.00000000000E+00 0.  1.
         23    2    1    2    0    0 -0.55422669575E+03 -0.45882162510E+03 -0.11630967585E+02  0.72550207024E+03  0.92376731747E+02 0.  0.
         11    1    3    3    0    0 -0.16189479812E+03 -0.83239785556E+02  0.52050499105E+01  0.18211501889E+03  0.00000000000E+00 0.  1.
        -11    1    3    3    0    0 -0.39233189762E+03 -0.37558183955E+03 -0.16836017495E+02  0.54338705135E+03  0.00000000000E+00 0. -1.
         22    1    1    2    0    0  0.55422669575E+03  0.45882162510E+03  0.29394216660E+03  0.77723002467E+03  0.00000000000E+00 0. -1.
<mgrwt>
<rscale>  0 0.14759757E+04</rscale>
<asrwt>0</asrwt>
<pdfrwt beam="1">  1        2 0.13731102E+00 0.14759757E+04</pdfrwt>
<pdfrwt beam="2">  1       -2 0.93878530E-01 0.14759757E+04</pdfrwt>
<totfact> 0.27522382E+01</totfact>
</mgrwt>
</event>
<event>
 6    1  0.9988873E-007  0.3788132E+04  0.7818608E-02  0.8048706E-01
          2   -1    0    0  501    0  0.00000000000E+00  0.00000000000E+00  0.12374084722E+04  0.12374084722E+04  0.00000000000E+00 0. -1.
         -2   -1    0    0    0  501 -0.00000000000E+00 -0.00000000000E+00 -0.28991936597E+04  0.28991936597E+04  0.00000000000E+00 0.  1.
         23    2    1    2    0    0 -0.25550545970E+03  0.16334599461E+04  0.17543192338E+03  0.16649951349E+04  0.89207644556E+02 0.  0.
         11    1    3    3    0    0 -0.14801755135E+03  0.88978150842E+03  0.51887391806E+02  0.90350021011E+03  0.00000000000E+00 0.  1.
        -11    1    3    3    0    0 -0.10748790835E+03  0.74367843770E+03  0.12354453158E+03  0.76149492475E+03  0.00000000000E+00 0. -1.
         22    1    1    2    0    0  0.25550545970E+03 -0.16334599461E+04 -0.18372171108E+04  0.24716069971E+04  0.00000000000E+00 0.  1.
<mgrwt>
<rscale>  0 0.37881324E+04</rscale>
<asrwt>0</asrwt>
<pdfrwt beam="1">  1        2 0.19037054E+00 0.37881324E+04</pdfrwt>
<pdfrwt beam="2">  1       -2 0.44602979E+00 0.37881324E+04</pdfrwt>
<totfact> 0.53219776E-02</totfact>
</mgrwt>
</event>
<event>
 6    1  0.9988873E-007  0.1835757E+04  0.7818608E-02  0.8687512E-01
         -1   -1    0    0    0  501 -0.00000000000E+00  0.00000000000E+00  0.79066416720E+03  0.79066416720E+03  0.00000000000E+00 0.  1.
          1   -1    0    0  501    0  0.00000000000E+00 -0.00000000000E+00 -0.10655612683E+04  0.10655612683E+04  0.00000000000E+00 0. -1.
         23    2    1    2    0    0 -0.65071451867E+03  0.48971419570E+03 -0.56086432094E+03  0.99307618469E+03  0.91554048654E+02 0.  0.
         13    1    3    3    0    0 -0.56154752930E+03  0.39898303382E+03 -0.50501316633E+03  0.85414365718E+03  0.00000000000E+00 0.  1.
        -13    1    3    3    0    0 -0.89166989370E+02  0.90731161881E+02 -0.55851154612E+02  0.13893252751E+03  0.00000000000E+00 0. -1.
         22    1    1    2    0    0  0.65071451867E+03 -0.48971419570E+03  0.28596721988E+03  0.86314925078E+03  0.00000000000E+00 0.  1.
<mgrwt>
<rscale>  0 0.18357572E+04</rscale>
<asrwt>0</asrwt>
<pdfrwt beam="1">  1        1 0.16393250E+00 0.18357572E+04</pdfrwt>
<pdfrwt beam="2">  1       -1 0.12164064E+00 0.18357572E+04</pdfrwt>
<totfact> 0.75852409E+00</totfact>
</mgrwt>
</event>
<event>
 6    1  0.9988873E-007  0.2781161E+04  0.7818608E-02  0.8309141E-01
          1   -1    0    0  501    0  0.00000000000E+00  0.00000000000E+00  0.11448028185E+04  0.11448028185E+04  0.00000000000E+00 0. -1.
         -1   -1    0    0    0  501 -0.00000000000E+00 -0.00000000000E+00 -0.16891239170E+04  0.16891239170E+04  0.00000000000E+00 0.  1.
         23    2    1    2    0    0 -0.23910711487E+03  0.99259406303E+03 -0.12322287404E+04  0.16028166226E+04  0.90654678436E+02 0.  0.
         11    1    3    3    0    0 -0.52787936596E+02  0.37388679548E+03 -0.41660459630E+03  0.56226087517E+03  0.00000000000E+00 0. -1.
        -11    1    3    3    0    0 -0.18631917828E+03  0.61870726755E+03 -0.81562414409E+03  0.10405557474E+04  0.00000000000E+00 0.  1.
         22    1    1    2    0    0  0.23910711487E+03 -0.99259406303E+03  0.68790764184E+03  0.12311101129E+04  0.00000000000E+00 0. -1.
<mgrwt>
<rscale>  0 0.27811608E+04</rscale>
<asrwt>0</asrwt>
<pdfrwt beam="1">  1        1 0.17612351E+00 0.27811608E+04</pdfrwt>
<pdfrwt beam="2">  1       -1 0.25986522E+00 0.27811608E+04</pdfrwt>
<totfact> 0.61182125E-01</totfact>
</mgrwt>
</event>
<event>
 6    1  0.9988873E-007  0.1661308E+04  0.7818608E-02  0.8783745E-01
          1   -1    0    0  501    0  0.00000000000E+00  0.00000000000E+00  0.89355752566E+03  0.89355752566E+03  0.00000000000E+00 0. -1.
         -1   -1    0    0    0  501 -0.00000000000E+00 -0.00000000000E+00 -0.77217896208E+03  0.77217896208E+03  0.00000000000E+00 0.  1.
         23    2    1    2    0    0  0.30195305643E+03 -0.23098428348E+03 -0.67677840852E+03  0.78166412666E+03  0.91871677782E+02 0.  0.
         13    1    3    3    0    0  0.11843723318E+03 -0.14728996954E+03 -0.34533693926E+03  0.39367412278E+03  0.00000000000E+00 0. -1.
        -13    1    3    3    0    0  0.18351582326E+03 -0.83694313934E+02 -0.33144146925E+03  0.38799000388E+03  0.00000000000E+00 0.  1.
         22    1    1    2    0    0 -0.30195305643E+03  0.23098428348E+03  0.79815697210E+03  0.88407236107E+03  0.00000000000E+00 0. -1.
<mgrwt>
<rscale>  0 0.16613083E+04</rscale>
<asrwt>0</asrwt>
<pdfrwt beam="1">  1        1 0.13747039E+00 0.16613083E+04</pdfrwt>
<pdfrwt beam="2">  1       -1 0.11879676E+00 0.16613083E+04</pdfrwt>
<totfact> 0.11161506E+01</totfact>
</mgrwt>
</event>
<event>
 6    1  0.9988873E-007  0.1760544E+04  0.7818608E-02  0.8727568E-01
          1   -1    0    0  501    0  0.00000000000E+00  0.00000000000E+00  0.38354505468E+03  0.38354505468E+03  0.00000000000E+00 0. -1.
         -1   -1    0    0    0  501 -0.00000000000E+00 -0.00000000000E+00 -0.20203080048E+04  0.20203080048E+04  0.00000000000E+00 0.  1.
         23    2    1    2    0    0  0.36596893197E+03 -0.79656378088E+03 -0.89188770513E+03  0.12535112638E+04  0.85905144172E+02 0.  0.
         13    1    3    3    0    0  0.12554427027E+03 -0.25097955003E+03 -0.34239978555E+03  0.44270725257E+03  0.00000000000E+00 0. -1.
        -13    1    3    3    0    0  0.24042466171E+03 -0.54558423085E+03 -0.54948791958E+03  0.81080401126E+03  0.00000000000E+00 0.  1.
         22    1    1    2    0    0 -0.36596893197E+03  0.79656378088E+03 -0.74487524494E+03  0.11503417956E+04  0.00000000000E+00 0. -1.
<mgrwt>
<rscale>  0 0.17605444E+04</rscale>
<asrwt>0</asrwt>
<pdfrwt beam="1">  1        1 0.59006931E-01 0.17605444E+04</pdfrwt>
<pdfrwt beam="2">  1       -1 0.31081662E+00 0.17605444E+04</pdfrwt>
<totfact> 0.16901935E+00</totfact>
</mgrwt>
</event>
<event>
 6    1  0.9988873E-007  0.3436007E+04  0.7818608E-02  0.8129125E-01
         -1   -1    0    0    0  501 -0.00000000000E+00  0.00000000000E+00  0.11158211535E+04  0.11158211535E+04  0.00000000000E+00 0.  1.
          1   -1    0    0  501    0  0.00000000000E+00 -0.00000000000E+00 -0.26451692173E+04  0.26451692173E+04  0.00000000000E+00 0. -1.
         23    2    1    2    0    0  0.93719119687E+03 -0.10661451475E+04  0.29175797308E+03  0.14520035773E+04  0.90547548815E+02 0.  0.
         13    1    3    3    0    0  0.43520519592E+03 -0.54873436278E+03  0.17255332233E+03  0.72130965092E+03  0.00000000000E+00 0. -1.
        -13    1    3    3    0    0  0.50198600095E+03 -0.51741078472E+03  0.11920465074E+03  0.73069392638E+03  0.00000000000E+00 0.  1.
         22    1    1    2    0    0 -0.93719119687E+03  0.10661451475E+04 -0.18211060368E+04  0.23089867935E+04  0.00000000000E+00 0. -1.
<mgrwt>
<rscale>  0 0.34360068E+04</rscale>
<asrwt>0</asrwt>
<pdfrwt beam="1">  1        1 0.40694911E+00 0.34360068E+04</pdfrwt>
<pdfrwt beam="2">  1       -1 0.17166479E+00 0.34360068E+04</pdfrwt>
<totfact> 0.21041304E-01</totfact>
</mgrwt>
</event>
<event>
 6    1  0.9988873E-007  0.3106387E+04  0.7818608E-02  0.8213987E-01
         -1   -1    0    0    0  501 -0.00000000000E+00  0.00000000000E+00  0.11156310557E+04  0.11156310557E+04  0.00000000000E+00 0.  1.
          1   -1    0    0  501    0  0.00000000000E+00 -0.00000000000E+00 -0.21623730776E+04  0.21623730776E+04  0.00000000000E+00 0. -1.
         23    2    1    2    0    0  0.99668460914E+03 -0.10621321313E+04  0.41325091658E+02  0.14599296249E+04  0.90453700960E+02 0.  0.
         13    1    3    3    0    0  0.74961908798E+03 -0.84124107988E+03  0.56313228192E+02  0.11281784040E+04  0.00000000000E+00 0.  1.
        -13    1    3    3    0    0  0.24706552116E+03 -0.22089105144E+03 -0.14988136534E+02  0.33175122093E+03  0.00000000000E+00 0. -1.
         22    1    1    2    0    0 -0.99668460914E+03  0.10621321313E+04 -0.10880671136E+04  0.18180745084E+04  0.00000000000E+00 0. -1.
<mgrwt>
<rscale>  0 0.31063873E+04</rscale>
<asrwt>0</asrwt>
<pdfrwt beam="1">  1        1 0.33267278E+00 0.31063873E+04</pdfrwt>
<pdfrwt beam="2">  1       -1 0.17163555E+00 0.31063873E+04</pdfrwt>
<totfact> 0.46648552E-01</totfact>
</mgrwt>
</event>
<event>
 6    1  0.9988873E-007  0.3934164E+04  0.7818608E-02  0.8017961E-01
          2   -1    0    0  501    0  0.00000000000E+00  0.00000000000E+00  0.35307278466E+04  0.35307278466E+04  0.00000000000E+00 0. -1.
         -2   -1    0    0    0  501 -0.00000000000E+00 -0.00000000000E+00 -0.10959245887E+04  0.10959245887E+04  0.00000000000E+00 0.  1.
         23    2    1    2    0    0 -0.14096413200E+03 -0.19569781927E+04  0.13648873325E+04  0.23918471595E+04  0.91547095693E+02 0.  0.
         11    1    3    3    0    0 -0.56897137642E+02 -0.12491812459E+04  0.90466186675E+03  0.15434066744E+04  0.00000000000E+00 0.  1.
        -11    1    3    3    0    0 -0.84066994355E+02 -0.70779694684E+03  0.46022546570E+03  0.84844048511E+03  0.00000000000E+00 0. -1.
         22    1    1    2    0    0  0.14096413200E+03  0.19569781927E+04  0.10699159255E+04  0.22348052758E+04  0.00000000000E+00 0. -1.
<mgrwt>
<rscale>  0 0.39341639E+04</rscale>
<asrwt>0</asrwt>
<pdfrwt beam="1">  1        2 0.54318889E+00 0.39341639E+04</pdfrwt>
<pdfrwt beam="2">  1       -2 0.16860378E+00 0.39341639E+04</pdfrwt>
<totfact> 0.13352736E-01</totfact>
</mgrwt>
</event>
<event>
 6    1  0.9988873E-007  0.9717069E+03  0.7818608E-02  0.9340132E-01
          1   -1    0    0  501    0  0.00000000000E+00  0.00000000000E+00  0.10448581394E+04  0.10448581394E+04  0.00000000000E+00 0. -1.
         -1   -1    0    0    0  501 -0.00000000000E+00 -0.00000000000E+00 -0.22591926915E+03  0.22591926915E+03  0.00000000000E+00 0.  1.
         23    2    1    2    0    0  0.29022850040E+03  0.14899944756E+03  0.87641387955E+03  0.93951196440E+03  0.90266412166E+02 0.  0.
         11    1    3    3    0    0  0.25071420834E+03  0.12754468772E+03  0.64344916601E+03  0.70224788421E+03  0.00000000000E+00 0. -1.
        -11    1    3    3    0    0  0.39514292056E+02  0.21454759845E+02  0.23296471353E+03  0.23726408019E+03  0.00000000000E+00 0.  1.
         22    1    1    2    0    0 -0.29022850040E+03 -0.14899944756E+03 -0.57475009272E+02  0.33126544418E+03  0.00000000000E+00 0.  1.
<mgrwt>
<rscale>  0 0.97170693E+03</rscale>
<asrwt>0</asrwt>
<pdfrwt beam="1">  1        1 0.16074740E+00 0.97170693E+03</pdfrwt>
<pdfrwt beam="2">  1       -1 0.34756811E-01 0.97170693E+03</pdfrwt>
<totfact> 0.11006076E+02</totfact>
</mgrwt>
</event>
<event>
 6    1  0.9988873E-007  0.8860743E+03  0.7818608E-02  0.9443159E-01
          2   -1    0    0  501    0  0.00000000000E+00  0.00000000000E+00  0.15952986312E+04  0.15952986312E+04  0.00000000000E+00 0. -1.
         -2   -1    0    0    0  501 -0.00000000000E+00 -0.00000000000E+00 -0.12303772855E+03  0.12303772855E+03  0.00000000000E+00 0.  1.
         23    2    1    2    0    0 -0.14054902419E+03 -0.31096145641E+03  0.21035373751E+03  0.41110235277E+03  0.91133934368E+02 0.  0.
         11    1    3    3    0    0 -0.39047169291E+02 -0.59753397537E+02  0.89372834251E+02  0.11437942756E+03  0.00000000000E+00 0. -1.
        -11    1    3    3    0    0 -0.10150185490E+03 -0.25120805887E+03  0.12098090326E+03  0.29672292521E+03  0.00000000000E+00 0.  1.
         22    1    1    2    0    0  0.14054902419E+03  0.31096145641E+03  0.12619071652E+04  0.13072340070E+04  0.00000000000E+00 0.  1.
<mgrwt>
<rscale>  0 0.88607431E+03</rscale>
<asrwt>0</asrwt>
<pdfrwt beam="1">  1        2 0.24543054E+00 0.88607431E+03</pdfrwt>
<pdfrwt beam="2">  1       -2 0.18928882E-01 0.88607431E+03</pdfrwt>
<totfact> 0.26524159E+02</totfact>
</mgrwt>
</event>
<event>
 6    1  0.9988873E-007  0.3830776E+04  0.7818608E-02  0.8039582E-01
         -2   -1    0    0    0  501 -0.00000000000E+00  0.00000000000E+00  0.18619247234E+04  0.18619247234E+04  0.00000000000E+00 0.  1.
          2   -1    0    0  501    0  0.00000000000E+00 -0.00000000000E+00 -0.19703867940E+04  0.19703867940E+04  0.00000000000E+00 0. -1.
         23    2    1    2    0    0  0.16278782167E+04 -0.97960325744E+02  0.94866931760E+03  0.18888325528E+04  0.90173304168E+02 0.  0.
         11    1    3    3    0    0  0.65653382005E+03 -0.83745123720E+02  0.38802449411E+03  0.76721112521E+03  0.00000000000E+00 0.  1.
        -11    1    3    3    0    0  0.97134439660E+03 -0.14215202024E+02  0.56064482348E+03  0.11216214276E+04  0.00000000000E+00 0. -1.
         22    1    1    2    0    0 -0.16278782167E+04  0.97960325744E+02 -0.10571313882E+04  0.19434789645E+04  0.00000000000E+00 0. -1.
<mgrwt>
<rscale>  0 0.38307764E+04</rscale>
<asrwt>0</asrwt>
<pdfrwt beam="1">  1        2 0.30313643E+00 0.38307764E+04</pdfrwt>
<pdfrwt beam="2">  1       -2 0.28644996E+00 0.38307764E+04</pdfrwt>
<totfact> 0.21348801E-01</totfact>
</mgrwt>
</event>
<event>
 6    1  0.9988873E-007  0.1225646E+04  0.7818608E-02  0.9090700E-01
          2   -1    0    0  501    0  0.00000000000E+00  0.00000000000E+00  0.16565338444E+04  0.16565338444E+04  0.00000000000E+00 0. -1.
         -2   -1    0    0    0  501 -0.00000000000E+00 -0.00000000000E+00 -0.22670952221E+03  0.22670952221E+03  0.00000000000E+00 0.  1.
         23    2    1    2    0    0 -0.55353207515E+03  0.25108691229E+03  0.64982021466E+03  0.89438098815E+03  0.90601572008E+02 0.  0.
         11    1    3    3    0    0 -0.34483504895E+03  0.19899389048E+03  0.44922975815E+03  0.60026423768E+03  0.00000000000E+00 0.  1.
        -11    1    3    3    0    0 -0.20869702620E+03  0.52093021809E+02  0.20059045650E+03  0.29411675047E+03  0.00000000000E+00 0. -1.
         22    1    1    2    0    0  0.55353207515E+03 -0.25108691229E+03  0.78000410749E+03  0.98886237842E+03  0.00000000000E+00 0.  1.
<mgrwt>
<rscale>  0 0.12256459E+04</rscale>
<asrwt>0</asrwt>
<pdfrwt beam="1">  1        2 0.25485135E+00 0.12256459E+04</pdfrwt>
<pdfrwt beam="2">  1       -2 0.34878389E-01 0.12256459E+04</pdfrwt>
<totfact> 0.78755624E+01</totfact>
</mgrwt>
</event>
<event>
 6    1  0.9988873E-007  0.2508204E+04  0.7818608E-02  0.8400069E-01
         -1   -1    0    0    0  501 -0.00000000000E+00  0.00000000000E+00  0.60983824316E+03  0.60983824316E+03  0.00000000000E+00 0.  1.
          1   -1    0    0  501    0  0.00000000000E+00 -0.00000000000E+00 -0.25789976208E+04  0.25789976208E+04  0.00000000000E+00 0. -1.
         23    2    1    2    0    0 -0.19420845661E+03 -0.75685070565E+03 -0.22303154885E+04  0.23649776058E+04  0.90950440471E+02 0.  0.
         11    1    3    3    0    0 -0.10472980332E+03 -0.28950138937E+03 -0.77805202217E+03  0.83674627896E+03  0.00000000000E+00 0. -1.
        -11    1    3    3    0    0 -0.89478653289E+02 -0.46734931627E+03 -0.14522634663E+04  0.15282313268E+04  0.00000000000E+00 0.  1.
         22    1    1    2    0    0  0.19420845661E+03  0.75685070565E+03  0.26115611084E+03  0.82385825813E+03  0.00000000000E+00 0.  1.
<mgrwt>
<rscale>  0 0.25082036E+04</rscale>
<asrwt>0</asrwt>
<pdfrwt beam="1">  1        1 0.39676886E+00 0.25082036E+04</pdfrwt>
<pdfrwt beam="2">  1       -1 0.93821268E-01 0.25082036E+04</pdfrwt>
<totfact> 0.11664470E+00</totfact>
</mgrwt>
</event>
<event>
 6    1  0.9988873E-007  0.3402422E+04  0.7818608E-02  0.8137312E-01
          2   -1    0    0  501    0  0.00000000000E+00  0.00000000000E+00  0.25204397937E+04  0.25204397937E+04  0.00000000000E+00 0. -1.
         -2   -1    0    0    0  501 -0.00000000000E+00 -0.00000000000E+00 -0.11482597173E+04  0.11482597173E+04  0.00000000000E+00 0.  1.
         23    2    1    2    0    0  0.83048281750E+03 -0.73304060444E+03 -0.70386850565E+03  0.13156104874E+04  0.91377477956E+02 0.  0.
         11    1    3    3    0    0  0.28512207170E+03 -0.29661163910E+03 -0.29490404292E+03  0.50620297781E+03  0.00000000000E+00 0. -1.
        -11    1    3    3    0    0  0.54536074580E+03 -0.43642896534E+03 -0.40896446274E+03  0.80940750962E+03  0.00000000000E+00 0.  1.
         22    1    1    2    0    0 -0.83048281750E+03  0.73304060444E+03  0.20760485820E+04  0.23530890236E+04  0.00000000000E+00 0. -1.
<mgrwt>
<rscale>  0 0.34024224E+04</rscale>
<asrwt>0</asrwt>
<pdfrwt beam="1">  1        2 0.38775997E+00 0.34024224E+04</pdfrwt>
<pdfrwt beam="2">  1       -2 0.17665534E+00 0.34024224E+04</pdfrwt>
<totfact> 0.53662061E-01</totfact>
</mgrwt>
</event>
<event>
 6    1  0.9988873E-007  0.3022349E+04  0.7818608E-02  0.8237378E-01
          2   -1    0    0  501    0  0.00000000000E+00  0.00000000000E+00  0.20124927298E+04  0.20124927298E+04  0.00000000000E+00 0. -1.
         -2   -1    0    0    0  501 -0.00000000000E+00 -0.00000000000E+00 -0.11347361777E+04  0.11347361777E+04  0.00000000000E+00 0.  1.
         23    2    1    2    0    0  0.11596946917E+03 -0.61370007461E+03  0.18705988741E+04  0.19742785353E+04  0.92514259299E+02 0.  0.
         11    1    3    3    0    0  0.13153800137E+03 -0.56639251388E+03  0.17129761442E+04  0.18089748468E+04  0.00000000000E+00 0. -1.
        -11    1    3    3    0    0 -0.15568532202E+02 -0.47307560724E+02  0.15762272986E+03  0.16530368860E+03  0.00000000000E+00 0.  1.
         22    1    1    2    0    0 -0.11596946917E+03  0.61370007461E+03 -0.99284232198E+03  0.11729503722E+04  0.00000000000E+00 0.  1.
<mgrwt>
<rscale>  0 0.30223490E+04</rscale>
<asrwt>0</asrwt>
<pdfrwt beam="1">  1        2 0.30961427E+00 0.30223490E+04</pdfrwt>
<pdfrwt beam="2">  1       -2 0.17457480E+00 0.30223490E+04</pdfrwt>
<totfact> 0.11115422E+00</totfact>
</mgrwt>
</event>
<event>
 6    1  0.9988873E-007  0.3280941E+04  0.7818608E-02  0.8167762E-01
         -1   -1    0    0    0  501 -0.00000000000E+00  0.00000000000E+00  0.10158636694E+04  0.10158636694E+04  0.00000000000E+00 0.  1.
          1   -1    0    0  501    0  0.00000000000E+00 -0.00000000000E+00 -0.26491180755E+04  0.26491180755E+04  0.00000000000E+00 0. -1.
         23    2    1    2    0    0 -0.39445767606E+03 -0.91426355406E+03  0.63718051769E+03  0.11857985229E+04  0.92975375347E+02 0.  0.
         11    1    3    3    0    0 -0.25189605313E+03 -0.68446731253E+03  0.45213492649E+03  0.85812185338E+03  0.00000000000E+00 0.  1.
        -11    1    3    3    0    0 -0.14256162294E+03 -0.22979624153E+03  0.18504559120E+03  0.32767666957E+03  0.00000000000E+00 0. -1.
         22    1    1    2    0    0  0.39445767606E+03  0.91426355406E+03 -0.22704349238E+04  0.24791832219E+04  0.00000000000E+00 0. -1.
<mgrwt>
<rscale>  0 0.32809406E+04</rscale>
<asrwt>0</asrwt>
<pdfrwt beam="1">  1        1 0.40755662E+00 0.32809406E+04</pdfrwt>
<pdfrwt beam="2">  1       -1 0.15628672E+00 0.32809406E+04</pdfrwt>
<totfact> 0.27615094E-01</totfact>
</mgrwt>
</event>
<event>
 6    1  0.9988873E-007  0.4652599E+04  0.7818608E-02  0.7884453E-01
         -2   -1    0    0    0  501 -0.00000000000E+00  0.00000000000E+00  0.17292049392E+04  0.17292049392E+04  0.00000000000E+00 0.  1.
          2   -1    0    0  501    0  0.00000000000E+00 -0.00000000000E+00 -0.31295705787E+04  0.31295705787E+04  0.00000000000E+00 0. -1.
         23    2    1    2    0    0 -0.10492206942E+04 -0.15617604093E+04 -0.21275984803E+04  0.28416420949E+04  0.91076126292E+02 0.  0.
         13    1    3    3    0    0 -0.34300361719E+03 -0.57324552346E+03 -0.79434485854E+03  0.10379044589E+04  0.00000000000E+00 0. -1.
        -13    1    3    3    0    0 -0.70621707703E+03 -0.98851488586E+03 -0.13332536218E+04  0.18037376360E+04  0.00000000000E+00 0.  1.
         22    1    1    2    0    0  0.10492206942E+04  0.15617604093E+04  0.72723284086E+03  0.20171334230E+04  0.00000000000E+00 0.  1.
<mgrwt>
<rscale>  0 0.46525988E+04</rscale>
<asrwt>0</asrwt>
<pdfrwt beam="1">  1        2 0.48147239E+00 0.46525988E+04</pdfrwt>
<pdfrwt beam="2">  1       -2 0.26603153E+00 0.46525988E+04</pdfrwt>
<totfact> 0.55211056E-02</totfact>
</mgrwt>
</event>
<event>
 6    1  0.9988873E-007  0.1876824E+04  0.7818608E-02  0.8666479E-01
          1   -1    0    0  501    0  0.00000000000E+00  0.00000000000E+00  0.18684819963E+04  0.18684819963E+04  0.00000000000E+00 0. -1.
         -1   -1    0    0    0  501 -0.00000000000E+00 -0.00000000000E+00 -0.47130089520E+03  0.47130089520E+03  0.00000000000E+00 0.  1.
         23    2    1    2    0    0 -0.65101736070E+03 -0.61597706959E+03  0.36330535738E+03  0.97151741738E+03  0.92757508513E+02 0.  0.
         11    1    3    3    0    0 -0.35440479535E+03 -0.39750409322E+03  0.20799891496E+03  0.57173054118E+03  0.00000000000E+00 0.  1.
        -11    1    3    3    0    0 -0.29661256535E+03 -0.21847297637E+03  0.15530644242E+03  0.39978687620E+03  0.00000000000E+00 0. -1.
         22    1    1    2    0    0  0.65101736070E+03  0.61597706959E+03  0.10338757437E+04  0.13682654741E+04  0.00000000000E+00 0. -1.
<mgrwt>
<rscale>  0 0.18768242E+04</rscale>
<asrwt>0</asrwt>
<pdfrwt beam="1">  1        1 0.28745877E+00 0.18768242E+04</pdfrwt>
<pdfrwt beam="2">  1       -1 0.72507831E-01 0.18768242E+04</pdfrwt>
<totfact> 0.65822134E+00</totfact>
</mgrwt>
</event>
<event>
 6    1  0.9988873E-007  0.1096576E+04  0.7818608E-02  0.9208535E-01
          2   -1    0    0  501    0  0.00000000000E+00  0.00000000000E+00  0.24009846986E+04  0.24009846986E+04  0.00000000000E+00 0. -1.
         -2   -1    0    0    0  501 -0.00000000000E+00 -0.00000000000E+00 -0.12520687311E+03  0.12520687311E+03  0.00000000000E+00 0.  1.
         23    2    1    2    0    0  0.29344729702E+03 -0.39340282519E+03  0.60218148518E+03  0.78211536658E+03  0.90580387199E+02 0.  0.
         11    1    3    3    0    0  0.14720910165E+03 -0.14903135234E+03  0.20251306192E+03  0.29136301041E+03  0.00000000000E+00 0. -1.
        -11    1    3    3    0    0  0.14623819537E+03 -0.24437147285E+03  0.39966842327E+03  0.49075235617E+03  0.00000000000E+00 0.  1.
         22    1    1    2    0    0 -0.29344729702E+03  0.39340282519E+03  0.16735963403E+04  0.17440762051E+04  0.00000000000E+00 0. -1.
<mgrwt>
<rscale>  0 0.10965761E+04</rscale>
<asrwt>0</asrwt>
<pdfrwt beam="1">  1        2 0.36938223E+00 0.10965761E+04</pdfrwt>
<pdfrwt beam="2">  1       -2 0.19262598E-01 0.10965761E+04</pdfrwt>
<totfact> 0.90678285E+01</totfact>
</mgrwt>
</event>
<event>
 6    1  0.9988873E-007  0.6021923E+03  0.7818608E-02  0.9900868E-01
         -1   -1    0    0    0  501 -0.00000000000E+00  0.00000000000E+00  0.63424691548E+02  0.63424691548E+02  0.00000000000E+00 0.  1.
          1   -1    0    0  501    0  0.00000000000E+00 -0.00000000000E+00 -0.14293943621E+04  0.14293943621E+04  0.00000000000E+00 0. -1.
         23    2    1    2    0    0  0.22016082459E+03  0.54875487094E+02 -0.23264031021E+03  0.33700005970E+03  0.89249193451E+02 0.  0.
         13    1    3    3    0    0  0.82445465385E+02 -0.19785601234E+02 -0.10481419893E+03  0.13481372733E+03  0.00000000000E+00 0.  1.
        -13    1    3    3    0    0  0.13771535921E+03  0.74661088327E+02 -0.12782611129E+03  0.20218633237E+03  0.00000000000E+00 0. -1.
         22    1    1    2    0    0 -0.22016082459E+03 -0.54875487094E+02 -0.11333293603E+04  0.11558189940E+04  0.00000000000E+00 0. -1.
<mgrwt>
<rscale>  0 0.60219232E+03</rscale>
<asrwt>0</asrwt>
<pdfrwt beam="1">  1        1 0.21990681E+00 0.60219232E+03</pdfrwt>
<pdfrwt beam="2">  1       -1 0.97576457E-02 0.60219232E+03</pdfrwt>
<totfact> 0.49242298E+02</totfact>
</mgrwt>
</event>
<event>
 6    1  0.9988873E-007  0.3227821E+04  0.7818608E-02  0.8181508E-01
         -2   -1    0    0    0  501 -0.00000000000E+00  0.00000000000E+00  0.91192554398E+03  0.91192554398E+03  0.00000000000E+00 0.  1.
          2   -1    0    0  501    0  0.00000000000E+00 -0.00000000000E+00 -0.28562714473E+04  0.28562714473E+04  0.00000000000E+00 0. -1.
         23    2    1    2    0    0  0.49844155293E+03 -0.14170353846E+04 -0.28814741555E+03  0.15322572126E+04  0.91378167744E+02 0.  0.
         13    1    3    3    0    0  0.10357101025E+03 -0.20248567197E+03 -0.31665655199E+02  0.22963038832E+03  0.00000000000E+00 0. -1.
        -13    1    3    3    0    0  0.39487054268E+03 -0.12145497126E+04 -0.25648176035E+03  0.13026268243E+04  0.00000000000E+00 0.  1.
         22    1    1    2    0    0 -0.49844155293E+03  0.14170353846E+04 -0.16561984878E+04  0.22359397787E+04  0.00000000000E+00 0. -1.
<mgrwt>
<rscale>  0 0.32278209E+04</rscale>
<asrwt>0</asrwt>
<pdfrwt beam="1">  1        2 0.43942637E+00 0.32278209E+04</pdfrwt>
<pdfrwt beam="2">  1       -2 0.14029624E+00 0.32278209E+04</pdfrwt>
<totfact> 0.64096961E-01</totfact>
</mgrwt>
</event>
<event>
 6    1  0.9988873E-007  0.1800393E+04  0.7818608E-02  0.8706090E-01
         -1   -1    0    0    0  501 -0.00000000000E+00  0.00000000000E+00  0.47638375266E+03  0.47638375266E+03  0.00000000000E+00 0.  1.
          1   -1    0    0  501    0  0.00000000000E+00 -0.00000000000E+00 -0.17010531657E+04  0.17010531657E+04  0.00000000000E+00 0. -1.
         23    2    1    2    0    0 -0.15689590562E+03 -0.40862280110E+03  0.33538072851E+03  0.55714516595E+03  0.79634063700E+02 0.  0.
         11    1    3    3    0    0 -0.13009565095E+03 -0.24095289965E+03  0.18638070160E+03  0.33124151939E+03  0.00000000000E+00 0.  1.
        -11    1    3    3    0    0 -0.26800254667E+02 -0.16766990146E+03  0.14900002692E+03  0.22590364656E+03  0.00000000000E+00 0. -1.
         22    1    1    2    0    0  0.15689590562E+03  0.40862280110E+03 -0.15600501415E+04  0.16202917524E+04  0.00000000000E+00 0. -1.
<mgrwt>
<rscale>  0 0.18003934E+04</rscale>
<asrwt>0</asrwt>
<pdfrwt beam="1">  1        1 0.26170048E+00 0.18003934E+04</pdfrwt>
<pdfrwt beam="2">  1       -1 0.73289809E-01 0.18003934E+04</pdfrwt>
<totfact> 0.84226663E+00</totfact>
</mgrwt>
</event>
<event>
 6    1  0.9988873E-007  0.1839763E+04  0.7818608E-02  0.8685435E-01
         -2   -1    0    0    0  501 -0.00000000000E+00  0.00000000000E+00  0.41052006544E+03  0.41052006544E+03  0.00000000000E+00 0.  1.
          2   -1    0    0  501    0  0.00000000000E+00 -0.00000000000E+00 -0.20612443459E+04  0.20612443459E+04  0.00000000000E+00 0. -1.
         23    2    1    2    0    0  0.80173406513E+03 -0.43395539455E+03 -0.96862912275E+03  0.13331913571E+04  0.89788760817E+02 0.  0.
         11    1    3    3    0    0  0.60989618968E+03 -0.36571432603E+03 -0.72269547175E+03  0.10139078239E+04  0.00000000000E+00 0.  1.
        -11    1    3    3    0    0  0.19183787545E+03 -0.68241068523E+02 -0.24593365101E+03  0.31928353322E+03  0.00000000000E+00 0. -1.
         22    1    1    2    0    0 -0.80173406513E+03  0.43395539455E+03 -0.68209515771E+03  0.11385730542E+04  0.00000000000E+00 0.  1.
<mgrwt>
<rscale>  0 0.18397632E+04</rscale>
<asrwt>0</asrwt>
<pdfrwt beam="1">  1        2 0.31711451E+00 0.18397632E+04</pdfrwt>
<pdfrwt beam="2">  1       -2 0.63156933E-01 0.18397632E+04</pdfrwt>
<totfact> 0.13497268E+01</totfact>
</mgrwt>
</event>
<event>
 6    1  0.9988873E-007  0.7288458E+03  0.7818608E-02  0.9669135E-01
          1   -1    0    0  501    0  0.00000000000E+00  0.00000000000E+00  0.80854066376E+03  0.80854066376E+03  0.00000000000E+00 0. -1.
         -1   -1    0    0    0  501 -0.00000000000E+00 -0.00000000000E+00 -0.16425155589E+03  0.16425155589E+03  0.00000000000E+00 0.  1.
         23    2    1    2    0    0 -0.28468168541E+03  0.15887143059E+03  0.12734933104E+03  0.36163714413E+03  0.90993287847E+02 0.  0.
         13    1    3    3    0    0 -0.21800397214E+03  0.12456842364E+03  0.13701080879E+03  0.28603318997E+03  0.00000000000E+00 0.  1.
        -13    1    3    3    0    0 -0.66677713270E+02  0.34303006949E+02 -0.96614777528E+01  0.75603954163E+02  0.00000000000E+00 0. -1.
         22    1    1    2    0    0  0.28468168541E+03 -0.15887143059E+03  0.51693977683E+03  0.61115507552E+03  0.00000000000E+00 0. -1.
<mgrwt>
<rscale>  0 0.72884583E+03</rscale>
<asrwt>0</asrwt>
<pdfrwt beam="1">  1        1 0.12439087E+00 0.72884583E+03</pdfrwt>
<pdfrwt beam="2">  1       -1 0.25269471E-01 0.72884583E+03</pdfrwt>
<totfact> 0.30212547E+02</totfact>
</mgrwt>
</event>
<event>
 6    1  0.9988873E-007  0.3201671E+04  0.7818608E-02  0.8188376E-01
          2   -1    0    0  501    0  0.00000000000E+00  0.00000000000E+00  0.24471954493E+04  0.24471954493E+04  0.00000000000E+00 0. -1.
         -2   -1    0    0    0  501 -0.00000000000E+00 -0.00000000000E+00 -0.10471884175E+04  0.10471884175E+04  0.00000000000E+00 0.  1.
         23    2    1    2    0    0 -0.44207803030E+03 -0.13932360528E+04  0.14096321990E+04  0.20326614829E+04  0.90056004572E+02 0.  0.
         13    1    3    3    0    0 -0.21382781595E+03 -0.80753486741E+03  0.83037920933E+03  0.11778643930E+04  0.00000000000E+00 0. -1.
        -13    1    3    3    0    0 -0.22825021435E+03 -0.58570118538E+03  0.57925298967E+03  0.85479708993E+03  0.00000000000E+00 0.  1.
         22    1    1    2    0    0  0.44207803030E+03  0.13932360528E+04 -0.96251671625E+01  0.14617223839E+04  0.00000000000E+00 0.  1.
<mgrwt>
<rscale>  0 0.32016713E+04</rscale>
<asrwt>0</asrwt>
<pdfrwt beam="1">  1        2 0.37649161E+00 0.32016713E+04</pdfrwt>
<pdfrwt beam="2">  1       -2 0.16110591E+00 0.32016713E+04</pdfrwt>
<totfact> 0.77718305E-01</totfact>
</mgrwt>
</event>
<event>
 6    1  0.9988873E-007  0.1636212E+04  0.7818608E-02  0.8798606E-01
         -1   -1    0    0    0  501 -0.00000000000E+00  0.00000000000E+00  0.65194568315E+03  0.65194568315E+03  0.00000000000E+00 0.  1.
          1   -1    0    0  501    0  0.00000000000E+00 -0.00000000000E+00 -0.10266149083E+04  0.10266149083E+04  0.00000000000E+00 0. -1.
         23    2    1    2    0    0 -0.29571855459E+03 -0.11420419196E+03 -0.95880922075E+03  0.10139467220E+04  0.90998748468E+02 0.  0.
         11    1    3    3    0    0 -0.12359553511E+03 -0.95183920504E+02 -0.48594569135E+03  0.51037148232E+03  0.00000000000E+00 0.  1.
        -11    1    3    3    0    0 -0.17212301948E+03 -0.19020271458E+02 -0.47286352940E+03  0.50357523966E+03  0.00000000000E+00 0. -1.
         22    1    1    2    0    0  0.29571855459E+03  0.11420419196E+03  0.58413999562E+03  0.66461386946E+03  0.00000000000E+00 0.  1.
<mgrwt>
<rscale>  0 0.16362117E+04</rscale>
<asrwt>0</asrwt>
<pdfrwt beam="1">  1        1 0.15794075E+00 0.16362117E+04</pdfrwt>
<pdfrwt beam="2">  1       -1 0.10029934E+00 0.16362117E+04</pdfrwt>
<totfact> 0.13066858E+01</totfact>
</mgrwt>
</event>
<event>
 6    1  0.9988873E-007  0.8073057E+03  0.7818608E-02  0.9549502E-01
          2   -1    0    0  501    0  0.00000000000E+00  0.00000000000E+00  0.11595704145E+04  0.11595704145E+04  0.00000000000E+00 0. -1.
         -2   -1    0    0    0  501 -0.00000000000E+00 -0.00000000000E+00 -0.14051377282E+03  0.14051377282E+03  0.00000000000E+00 0.  1.
         23    2    1    2    0    0 -0.23408692503E+03 -0.10143158955E+03  0.23096917933E+02  0.27196900547E+03  0.91370763860E+02 0.  0.
         13    1    3    3    0    0 -0.91000009800E+02 -0.20362924791E+02 -0.31906564725E+02  0.98557999991E+02  0.00000000000E+00 0. -1.
        -13    1    3    3    0    0 -0.14308691523E+03 -0.81068664758E+02  0.55003482659E+02  0.17341100548E+03  0.00000000000E+00 0.  1.
         22    1    1    2    0    0  0.23408692503E+03  0.10143158955E+03  0.99595972369E+03  0.10281151818E+04  0.00000000000E+00 0. -1.
<mgrwt>
<rscale>  0 0.80730568E+03</rscale>
<asrwt>0</asrwt>
<pdfrwt beam="1">  1        2 0.17839544E+00 0.80730568E+03</pdfrwt>
<pdfrwt beam="2">  1       -2 0.21617504E-01 0.80730568E+03</pdfrwt>
<totfact> 0.37465766E+02</totfact>
</mgrwt>
</event>
<event>
 6    1  0.9988873E-007  0.3554199E+04  0.7818608E-02  0.8101064E-01
         -1   -1    0    0    0  501 -0.00000000000E+00  0.00000000000E+00  0.10354457479E+04  0.10354457479E+04  0.00000000000E+00 0.  1.
          1   -1    0    0  501    0  0.00000000000E+00 -0.00000000000E+00 -0.30499748007E+04  0.30499748007E+04  0.00000000000E+00 0. -1.
         23    2    1    2    0    0  0.95258806997E+03  0.60540547077E+03 -0.25839485215E+04  0.28212297613E+04  0.92777093876E+02 0.  0.
         13    1    3    3    0    0  0.63168281728E+03  0.38196789218E+03 -0.15847994781E+04  0.17482883166E+04  0.00000000000E+00 0.  1.
        -13    1    3    3    0    0  0.32090525269E+03  0.22343757860E+03 -0.99914904343E+03  0.10729414447E+04  0.00000000000E+00 0. -1.
         22    1    1    2    0    0 -0.95258806997E+03 -0.60540547077E+03  0.56941946875E+03  0.12641907872E+04  0.00000000000E+00 0.  1.
<mgrwt>
<rscale>  0 0.35541995E+04</rscale>
<asrwt>0</asrwt>
<pdfrwt beam="1">  1        1 0.46922689E+00 0.35541995E+04</pdfrwt>
<pdfrwt beam="2">  1       -1 0.15929935E+00 0.35541995E+04</pdfrwt>
<totfact> 0.13189956E-01</totfact>
</mgrwt>
</event>
<event>
 6    1  0.9988873E-007  0.7911607E+03  0.7818608E-02  0.9572900E-01
          1   -1    0    0  501    0  0.00000000000E+00  0.00000000000E+00  0.88682859579E+03  0.88682859579E+03  0.00000000000E+00 0. -1.
         -1   -1    0    0    0  501 -0.00000000000E+00 -0.00000000000E+00 -0.17645327662E+03  0.17645327662E+03  0.00000000000E+00 0.  1.
         23    2    1    2    0    0  0.20078236645E+03  0.31979457129E+03  0.49338826673E+03  0.62777583637E+03  0.89935490678E+02 0.  0.
         11    1    3    3    0    0  0.15673859078E+03  0.28708233214E+03  0.45681799645E+03  0.56184155520E+03  0.00000000000E+00 0. -1.
        -11    1    3    3    0    0  0.44043775672E+02  0.32712239146E+02  0.36570270276E+02  0.65934281170E+02  0.00000000000E+00 0.  1.
         22    1    1    2    0    0 -0.20078236645E+03 -0.31979457129E+03  0.21698705244E+03  0.43550603604E+03  0.00000000000E+00 0.  1.
<mgrwt>
<rscale>  0 0.79116070E+03</rscale>
<asrwt>0</asrwt>
<pdfrwt beam="1">  1        1 0.13643517E+00 0.79116070E+03</pdfrwt>
<pdfrwt beam="2">  1       -1 0.27146659E-01 0.79116070E+03</pdfrwt>
<totfact> 0.22891562E+02</totfact>
</mgrwt>
</event>
<event>
 6    1  0.9988873E-007  0.1939197E+04  0.7818608E-02  0.8635588E-01
         -2   -1    0    0    0  501 -0.00000000000E+00  0.00000000000E+00  0.33069326934E+03  0.33069326934E+03  0.00000000000E+00 0.  1.
          2   -1    0    0  501    0  0.00000000000E+00 -0.00000000000E+00 -0.28428786619E+04  0.28428786619E+04  0.00000000000E+00 0. -1.
         23    2    1    2    0    0 -0.37408414540E+03 -0.35996489071E+03 -0.25950045246E+04  0.26478603382E+04  0.87190696358E+02 0.  0.
         13    1    3    3    0    0 -0.12052003824E+03 -0.10665723717E+03 -0.10177386894E+04  0.10303848241E+04  0.00000000000E+00 0.  1.
        -13    1    3    3    0    0 -0.25356410716E+03 -0.25330765355E+03 -0.15772658352E+04  0.16174755141E+04  0.00000000000E+00 0. -1.
         22    1    1    2    0    0  0.37408414540E+03  0.35996489071E+03  0.82819132080E+02  0.52571159301E+03  0.00000000000E+00 0.  1.
<mgrwt>
<rscale>  0 0.19391966E+04</rscale>
<asrwt>0</asrwt>
<pdfrwt beam="1">  1        2 0.43736596E+00 0.19391966E+04</pdfrwt>
<pdfrwt beam="2">  1       -2 0.50875886E-01 0.19391966E+04</pdfrwt>
<totfact> 0.74402746E+00</totfact>
</mgrwt>
</event>
<event>
 6    1  0.9988873E-007  0.2353627E+04  0.7818608E-02  0.8457072E-01
          1   -1    0    0  501    0  0.00000000000E+00  0.00000000000E+00  0.81754245977E+03  0.81754245977E+03  0.00000000000E+00 0. -1.
         -1   -1    0    0    0  501 -0.00000000000E+00 -0.00000000000E+00 -0.16939674135E+04  0.16939674135E+04  0.00000000000E+00 0.  1.
         23    2    1    2    0    0 -0.19405858889E+03  0.80911195240E+03  0.44640082973E+03  0.94875943229E+03  0.92465518594E+02 0.  0.
         13    1    3    3    0    0 -0.20219009542E+02  0.98737926834E+02  0.21855187222E+02  0.10312921871E+03  0.00000000000E+00 0.  1.
        -13    1    3    3    0    0 -0.17383957934E+03  0.71037402557E+03  0.42454564251E+03  0.84563021358E+03  0.00000000000E+00 0. -1.
         22    1    1    2    0    0  0.19405858889E+03 -0.80911195240E+03 -0.13228257835E+04  0.15627504410E+04  0.00000000000E+00 0.  1.
<mgrwt>
<rscale>  0 0.23536272E+04</rscale>
<asrwt>0</asrwt>
<pdfrwt beam="1">  1        1 0.12577576E+00 0.23536272E+04</pdfrwt>
<pdfrwt beam="2">  1       -1 0.26061037E+00 0.23536272E+04</pdfrwt>
<totfact> 0.11419332E+00</totfact>
</mgrwt>
</event>
<event>
 6    1  0.9988873E-007  0.1017164E+04  0.7818608E-02  0.9289918E-01
         -1   -1    0    0    0  501 -0.00000000000E+00  0.00000000000E+00  0.48733764238E+03  0.48733764238E+03  0.00000000000E+00 0.  1.
          1   -1    0    0  501    0  0.00000000000E+00 -0.00000000000E+00 -0.53075198723E+03  0.53075198723E+03  0.00000000000E+00 0. -1.
         23    2    1    2    0    0 -0.34314314829E+03  0.10209704479E+03  0.33346223349E+03  0.49827525690E+03  0.94393557544E+02 0.  0.
         13    1    3    3    0    0 -0.20121961220E+03  0.67394326035E+02  0.13380186977E+03  0.25086703225E+03  0.00000000000E+00 0.  1.
        -13    1    3    3    0    0 -0.14192353608E+03  0.34702718752E+02  0.19966036372E+03  0.24740822465E+03  0.00000000000E+00 0. -1.
         22    1    1    2    0    0  0.34314314829E+03 -0.10209704479E+03 -0.37687657834E+03  0.51981437271E+03  0.00000000000E+00 0. -1.
<mgrwt>
<rscale>  0 0.10171636E+04</rscale>
<asrwt>0</asrwt>
<pdfrwt beam="1">  1        1 0.81654152E-01 0.10171636E+04</pdfrwt>
<pdfrwt beam="2">  1       -1 0.74975022E-01 0.10171636E+04</pdfrwt>
<totfact> 0.73131484E+01</totfact>
</mgrwt>
</event>
<event>
 6    1  0.9988873E-007  0.1555263E+04  0.7818608E-02  0.8848513E-01
          1   -1    0    0  501    0  0.00000000000E+00  0.00000000000E+00  0.29133640883E+03  0.29133640883E+03  0.00000000000E+00 0. -1.
         -1   -1    0    0    0  501 -0.00000000000E+00 -0.00000000000E+00 -0.20756432578E+04  0.20756432578E+04  0.00000000000E+00 0.  1.
         23    2    1    2    0    0 -0.16888033260E+03 -0.55962611430E+03 -0.16695977867E+04  0.17712782955E+04  0.90377410822E+02 0.  0.
         11    1    3    3    0    0 -0.99927685176E+02 -0.21980959790E+03 -0.77895097503E+03  0.81551604711E+03  0.00000000000E+00 0.  1.
        -11    1    3    3    0    0 -0.68952647424E+02 -0.33981651640E+03 -0.89064681166E+03  0.95576224843E+03  0.00000000000E+00 0. -1.
         22    1    1    2    0    0  0.16888033260E+03  0.55962611430E+03 -0.11470906227E+03  0.59570137109E+03  0.00000000000E+00 0. -1.
<mgrwt>
<rscale>  0 0.15552626E+04</rscale>
<asrwt>0</asrwt>
<pdfrwt beam="1">  1        1 0.44820985E-01 0.15552626E+04</pdfrwt>
<pdfrwt beam="2">  1       -1 0.31932974E+00 0.15552626E+04</pdfrwt>
<totfact> 0.21756163E+00</totfact>
</mgrwt>
</event>
<event>
 6    1  0.9988873E-007  0.3299344E+04  0.7818608E-02  0.8163062E-01
          2   -1    0    0  501    0  0.00000000000E+00  0.00000000000E+00  0.11935626275E+04  0.11935626275E+04  0.00000000000E+00 0. -1.
         -2   -1    0    0    0  501 -0.00000000000E+00 -0.00000000000E+00 -0.22800791801E+04  0.22800791801E+04  0.00000000000E+00 0.  1.
         23    2    1    2    0    0  0.72493064728E+03  0.98796419078E+02 -0.20988442785E+04  0.22246051385E+04  0.91845201904E+02 0.  0.
         13    1    3    3    0    0  0.22034653983E+03  0.46445251556E+02 -0.76879717196E+03  0.80109852741E+03  0.00000000000E+00 0.  1.
        -13    1    3    3    0    0  0.50458410745E+03  0.52351167522E+02 -0.13300471066E+04  0.14235066111E+04  0.00000000000E+00 0. -1.
         22    1    1    2    0    0 -0.72493064728E+03 -0.98796419078E+02  0.10123277260E+04  0.12490366690E+04  0.00000000000E+00 0. -1.
<mgrwt>
<rscale>  0 0.32993438E+04</rscale>
<asrwt>0</asrwt>
<pdfrwt beam="1">  1        2 0.18362502E+00 0.32993438E+04</pdfrwt>
<pdfrwt beam="2">  1       -2 0.35078141E+00 0.32993438E+04</pdfrwt>
<totfact> 0.24542263E-01</totfact>
</mgrwt>
</event>
<event>
 6    1  0.9988873E-007  0.6565231E+03  0.7818608E-02  0.9794616E-01
          1   -1    0    0  501    0  0.00000000000E+00  0.00000000000E+00  0.33888368474E+03  0.33888368474E+03  0.00000000000E+00 0. -1.
         -1   -1    0    0    0  501 -0.00000000000E+00 -0.00000000000E+00 -0.31797233295E+03  0.31797233295E+03  0.00000000000E+00 0.  1.
         23    2    1    2    0    0 -0.36261320379E+02 -0.25762728564E+03  0.19989472217E+03  0.34106851235E+03  0.93183305912E+02 0.  0.
         13    1    3    3    0    0 -0.63804276569E+02 -0.18210667170E+03  0.11731874263E+03  0.22582628934E+03  0.00000000000E+00 0.  1.
        -13    1    3    3    0    0  0.27542956191E+02 -0.75520613944E+02  0.82575979544E+02  0.11524222301E+03  0.00000000000E+00 0. -1.
         22    1    1    2    0    0  0.36261320379E+02  0.25762728564E+03 -0.17898337038E+03  0.31578750535E+03  0.00000000000E+00 0.  1.
<mgrwt>
<rscale>  0 0.65652307E+03</rscale>
<asrwt>0</asrwt>
<pdfrwt beam="1">  1        1 0.52135952E-01 0.65652307E+03</pdfrwt>
<pdfrwt beam="2">  1       -1 0.48918820E-01 0.65652307E+03</pdfrwt>
<totfact> 0.31697223E+02</totfact>
</mgrwt>
</event>
<event>
 6    1  0.9988873E-007  0.2082793E+04  0.7818608E-02  0.8568861E-01
         -2   -1    0    0    0  501 -0.00000000000E+00  0.00000000000E+00  0.22412077905E+04  0.22412077905E+04  0.00000000000E+00 0.  1.
          2   -1    0    0  501    0  0.00000000000E+00 -0.00000000000E+00 -0.48389389736E+03  0.48389389736E+03  0.00000000000E+00 0. -1.
         23    2    1    2    0    0  0.30289726539E+03 -0.99154866366E+03  0.78334294359E+03  0.13025916119E+04  0.90571707728E+02 0.  0.
         13    1    3    3    0    0  0.12625137545E+03 -0.52401259816E+03  0.36679252200E+03  0.65197037281E+03  0.00000000000E+00 0.  1.
        -13    1    3    3    0    0  0.17664588994E+03 -0.46753606550E+03  0.41655042158E+03  0.65062123905E+03  0.00000000000E+00 0. -1.
         22    1    1    2    0    0 -0.30289726539E+03  0.99154866366E+03  0.97397094961E+03  0.14225100760E+04  0.00000000000E+00 0.  1.
<mgrwt>
<rscale>  0 0.20827931E+04</rscale>
<asrwt>0</asrwt>
<pdfrwt beam="1">  1        2 0.74445216E-01 0.20827931E+04</pdfrwt>
<pdfrwt beam="2">  1       -2 0.34480119E+00 0.20827931E+04</pdfrwt>
<totfact> 0.99215586E-01</totfact>
</mgrwt>
</event>
<event>
 6    1  0.9988873E-007  0.2585816E+04  0.7818608E-02  0.8373035E-01
         -2   -1    0    0    0  501 -0.00000000000E+00  0.00000000000E+00  0.80753268906E+03  0.80753268906E+03  0.00000000000E+00 0.  1.
          2   -1    0    0  501    0  0.00000000000E+00 -0.00000000000E+00 -0.20700226313E+04  0.20700226313E+04  0.00000000000E+00 0. -1.
         23    2    1    2    0    0  0.64339447634E+03  0.75633172838E+03  0.28647820100E+03  0.10376378102E+04  0.92888803972E+02 0.  0.
         11    1    3    3    0    0  0.43313855192E+03  0.56714069566E+03  0.18584971444E+03  0.73742639646E+03  0.00000000000E+00 0.  1.
        -11    1    3    3    0    0  0.21025592442E+03  0.18919103271E+03  0.10062848655E+03  0.30021141371E+03  0.00000000000E+00 0. -1.
         22    1    1    2    0    0 -0.64339447634E+03 -0.75633172838E+03 -0.15489681432E+04  0.18399175101E+04  0.00000000000E+00 0. -1.
<mgrwt>
<rscale>  0 0.25858159E+04</rscale>
<asrwt>0</asrwt>
<pdfrwt beam="1">  1        2 0.31846501E+00 0.25858159E+04</pdfrwt>
<pdfrwt beam="2">  1       -2 0.12423580E+00 0.25858159E+04</pdfrwt>
<totfact> 0.26333447E+00</totfact>
</mgrwt>
</event>
<event>
 6    1  0.9988873E-007  0.3039045E+03  0.7818608E-02  0.1083305E+00
          3   -1    0    0  501    0  0.00000000000E+00  0.00000000000E+00  0.17187131455E+03  0.17187131455E+03  0.00000000000E+00 0. -1.
         -3   -1    0    0    0  501 -0.00000000000E+00 -0.00000000000E+00 -0.13434174400E+03  0.13434174400E+03  0.00000000000E+00 0.  1.
         23    2    1    2    0    0  0.17907413158E+02  0.11690972717E+03  0.92413987458E+02  0.17582571648E+03  0.91573892278E+02 0.  0.
         13    1    3    3    0    0 -0.30098120366E+02  0.87497660679E+02  0.65882943866E+02  0.11358829062E+03  0.00000000000E+00 0.  1.
        -13    1    3    3    0    0  0.48005533523E+02  0.29412066488E+02  0.26531043592E+02  0.62237425863E+02  0.00000000000E+00 0. -1.
         22    1    1    2    0    0 -0.17907413158E+02 -0.11690972717E+03 -0.54884416900E+02  0.13038734206E+03  0.00000000000E+00 0.  1.
<mgrwt>
<rscale>  0 0.30390454E+03</rscale>
<asrwt>0</asrwt>
<pdfrwt beam="1">  1        3 0.26441741E-01 0.30390454E+03</pdfrwt>
<pdfrwt beam="2">  1       -3 0.20667961E-01 0.30390454E+03</pdfrwt>
<totfact> 0.73660579E+02</totfact>
</mgrwt>
</event>
<event>
 6    1  0.9988873E-007  0.5715772E+04  0.7818608E-02  0.7726677E-01
         -2   -1    0    0    0  501 -0.00000000000E+00  0.00000000000E+00  0.19457791154E+04  0.19457791154E+04  0.00000000000E+00 0.  1.
          2   -1    0    0  501    0  0.00000000000E+00 -0.00000000000E+00 -0.41975543740E+04  0.41975543740E+04  0.00000000000E+00 0. -1.
         23    2    1    2    0    0 -0.24753325849E+03  0.15325150337E+04  0.14519587435E+04  0.21274250491E+04  0.88758686298E+02 0.  0.
         13    1    3    3    0    0 -0.21323443225E+02  0.32839119749E+03  0.33274469341E+03  0.46798984905E+03  0.00000000000E+00 0. -1.
        -13    1    3    3    0    0 -0.22620981526E+03  0.12041238362E+04  0.11192140501E+04  0.16594352001E+04  0.00000000000E+00 0.  1.
         22    1    1    2    0    0  0.24753325849E+03 -0.15325150337E+04 -0.37037340021E+04  0.40159084403E+04  0.00000000000E+00 0. -1.
<mgrwt>
<rscale>  0 0.57157724E+04</rscale>
<asrwt>0</asrwt>
<pdfrwt beam="1">  1        2 0.64577760E+00 0.57157724E+04</pdfrwt>
<pdfrwt beam="2">  1       -2 0.29935063E+00 0.57157724E+04</pdfrwt>
<totfact> 0.51197567E-03</totfact>
</mgrwt>
</event>
<event>
 6    1  0.9988873E-007  0.1596189E+04  0.7818608E-02  0.8822893E-01
          1   -1    0    0  501    0  0.00000000000E+00  0.00000000000E+00  0.60782513425E+03  0.60782513425E+03  0.00000000000E+00 0. -1.
         -1   -1    0    0    0  501 -0.00000000000E+00 -0.00000000000E+00 -0.10479243264E+04  0.10479243264E+04  0.00000000000E+00 0.  1.
         23    2    1    2    0    0  0.58356613432E+02 -0.79309903059E+03 -0.19526806562E+03  0.82367143113E+03  0.88845046891E+02 0.  0.
         13    1    3    3    0    0  0.72116694649E+02 -0.38729308920E+03 -0.86924419026E+02  0.40342608891E+03  0.00000000000E+00 0. -1.
        -13    1    3    3    0    0 -0.13760081217E+02 -0.40580594140E+03 -0.10834364660E+03  0.42024534223E+03  0.00000000000E+00 0.  1.
         22    1    1    2    0    0 -0.58356613432E+02  0.79309903059E+03 -0.24483112650E+03  0.83207802949E+03  0.00000000000E+00 0. -1.
<mgrwt>
<rscale>  0 0.15961889E+04</rscale>
<asrwt>0</asrwt>
<pdfrwt beam="1">  1        1 0.93511559E-01 0.15961889E+04</pdfrwt>
<pdfrwt beam="2">  1       -1 0.16121913E+00 0.15961889E+04</pdfrwt>
<totfact> 0.92293978E+00</totfact>
</mgrwt>
</event>
<event>
 6    1  0.9988873E-007  0.9282236E+03  0.7818608E-02  0.9390972E-01
         -2   -1    0    0    0  501 -0.00000000000E+00  0.00000000000E+00  0.27938610655E+03  0.27938610655E+03  0.00000000000E+00 0.  1.
          2   -1    0    0  501    0  0.00000000000E+00 -0.00000000000E+00 -0.77097519573E+03  0.77097519573E+03  0.00000000000E+00 0. -1.
         23    2    1    2    0    0  0.56091206447E+02  0.11389827105E+03  0.25242629827E+03  0.29559118075E+03  0.86810543663E+02 0.  0.
         11    1    3    3    0    0  0.20749282540E+02  0.10065016503E+03  0.22942905551E+03  0.25139347637E+03  0.00000000000E+00 0.  1.
        -11    1    3    3    0    0  0.35341923906E+02  0.13248106013E+02  0.22997242762E+02  0.44197704386E+02  0.00000000000E+00 0. -1.
         22    1    1    2    0    0 -0.56091206447E+02 -0.11389827105E+03 -0.74401538746E+03  0.75477012153E+03  0.00000000000E+00 0. -1.
<mgrwt>
<rscale>  0 0.92822359E+03</rscale>
<asrwt>0</asrwt>
<pdfrwt beam="1">  1        2 0.11861157E+00 0.92822359E+03</pdfrwt>
<pdfrwt beam="2">  1       -2 0.42982478E-01 0.92822359E+03</pdfrwt>
<totfact> 0.18588490E+02</totfact>
</mgrwt>
</event>
<event>
 6    1  0.9988873E-007  0.2640331E+04  0.7818608E-02  0.8354629E-01
          1   -1    0    0  501    0  0.00000000000E+00  0.00000000000E+00  0.34441916274E+04  0.34441916274E+04  0.00000000000E+00 0. -1.
         -1   -1    0    0    0  501 -0.00000000000E+00 -0.00000000000E+00 -0.50602195520E+03  0.50602195520E+03  0.00000000000E+00 0.  1.
         23    2    1    2    0    0  0.94001716902E+03  0.80098778055E+03  0.77961254944E+03  0.14633314875E+04  0.91266710442E+02 0.  0.
         11    1    3    3    0    0  0.61582516310E+03  0.50123548841E+03  0.54767940107E+03  0.96458818814E+03  0.00000000000E+00 0. -1.
        -11    1    3    3    0    0  0.32419200593E+03  0.29975229214E+03  0.23193314838E+03  0.49874329937E+03  0.00000000000E+00 0.  1.
         22    1    1    2    0    0 -0.94001716902E+03 -0.80098778055E+03  0.21585571228E+04  0.24868820951E+04  0.00000000000E+00 0. -1.
<mgrwt>
<rscale>  0 0.26403307E+04</rscale>
<asrwt>0</asrwt>
<pdfrwt beam="1">  1        1 0.52987562E+00 0.26403307E+04</pdfrwt>
<pdfrwt beam="2">  1       -1 0.77849534E-01 0.26403307E+04</pdfrwt>
<totfact> 0.40105469E-01</totfact>
</mgrwt>
</event>
<event>
 6    1  0.9988873E-007  0.1220001E+04  0.7818608E-02  0.9095528E-01
         -2   -1    0    0    0  501 -0.00000000000E+00  0.00000000000E+00  0.87481192217E+03  0.87481192217E+03  0.00000000000E+00 0.  1.
          2   -1    0    0  501    0  0.00000000000E+00 -0.00000000000E+00 -0.42534927755E+03  0.42534927755E+03  0.00000000000E+00 0. -1.
         23    2    1    2    0    0 -0.52278989714E+03  0.30687176825E+03  0.19454306845E+03  0.64254159157E+03  0.86793621434E+02 0.  0.
         11    1    3    3    0    0 -0.34413314484E+03  0.17369224120E+03  0.87300499972E+02  0.39524421985E+03  0.00000000000E+00 0. -1.
        -11    1    3    3    0    0 -0.17865675230E+03  0.13317952705E+03  0.10724256848E+03  0.24729737172E+03  0.00000000000E+00 0.  1.
         22    1    1    2    0    0  0.52278989714E+03 -0.30687176825E+03  0.25491957617E+03  0.65761960814E+03  0.00000000000E+00 0.  1.
<mgrwt>
<rscale>  0 0.12200010E+04</rscale>
<asrwt>0</asrwt>
<pdfrwt beam="1">  1        2 0.65438351E-01 0.12200010E+04</pdfrwt>
<pdfrwt beam="2">  1       -2 0.13458645E+00 0.12200010E+04</pdfrwt>
<totfact> 0.29040455E+01</totfact>
</mgrwt>
</event>
<event>
 6    1  0.9988873E-007  0.4730926E+03  0.7818608E-02  0.1021051E+00
         -1   -1    0    0    0  501 -0.00000000000E+00  0.00000000000E+00  0.84810159698E+02  0.84810159698E+02  0.00000000000E+00 0.  1.
          1   -1    0    0  501    0  0.00000000000E+00 -0.00000000000E+00 -0.65975759323E+03  0.65975759323E+03  0.00000000000E+00 0. -1.
         23    2    1    2    0    0 -0.17034445877E+03 -0.11386778121E+03 -0.14169805296E+03  0.26530985576E+03  0.91257192147E+02 0.  0.
         11    1    3    3    0    0  0.61744674420E+01 -0.79401039875E+01  0.62104632028E+01  0.11821131617E+02  0.00000000000E+00 0. -1.
        -11    1    3    3    0    0 -0.17651892622E+03 -0.10592767722E+03 -0.14790851617E+03  0.25348872415E+03  0.00000000000E+00 0.  1.
         22    1    1    2    0    0  0.17034445877E+03  0.11386778121E+03 -0.43324938057E+03  0.47925789716E+03  0.00000000000E+00 0. -1.
<mgrwt>
<rscale>  0 0.47309258E+03</rscale>
<asrwt>0</asrwt>
<pdfrwt beam="1">  1        1 0.10150117E+00 0.47309258E+03</pdfrwt>
<pdfrwt beam="2">  1       -1 0.13047717E-01 0.47309258E+03</pdfrwt>
<totfact> 0.12343272E+03</totfact>
</mgrwt>
</event>
<event>
 6    1  0.9988873E-007  0.9937457E+03  0.7818608E-02  0.9315431E-01
         -2   -1    0    0    0  501 -0.00000000000E+00  0.00000000000E+00  0.22649558933E+03  0.22649558933E+03  0.00000000000E+00 0.  1.
          2   -1    0    0  501    0  0.00000000000E+00 -0.00000000000E+00 -0.10900107989E+04  0.10900107989E+04  0.00000000000E+00 0. -1.
         23    2    1    2    0    0  0.15571908422E+02  0.19406881596E+03  0.16413198247E+03  0.27057907673E+03  0.91479721428E+02 0.  0.
         11    1    3    3    0    0 -0.36590518898E+02  0.10296309933E+03  0.95779027460E+02  0.14530618706E+03  0.00000000000E+00 0. -1.
        -11    1    3    3    0    0  0.52162427320E+02  0.91105716636E+02  0.68352955007E+02  0.12527288967E+03  0.00000000000E+00 0.  1.
         22    1    1    2    0    0 -0.15571908422E+02 -0.19406881596E+03 -0.10276471920E+04  0.10459273115E+04  0.00000000000E+00 0. -1.
<mgrwt>
<rscale>  0 0.99374572E+03</rscale>
<asrwt>0</asrwt>
<pdfrwt beam="1">  1        2 0.16769397E+00 0.99374572E+03</pdfrwt>
<pdfrwt beam="2">  1       -2 0.34845476E-01 0.99374572E+03</pdfrwt>
<totfact> 0.17029104E+02</totfact>
</mgrwt>
</event>
<event>
 6    1  0.9988873E-007  0.8074480E+03  0.7818608E-02  0.9549299E-01
          2   -1    0    0  501    0  0.00000000000E+00  0.00000000000E+00  0.68495475032E+03  0.68495475032E+03  0.00000000000E+00 0. -1.
         -2   -1    0    0    0  501 -0.00000000000E+00 -0.00000000000E+00 -0.23796181868E+03  0.23796181868E+03  0.00000000000E+00 0.  1.
         23    2    1    2    0    0 -0.22703764316E+03  0.20886718635E+03 -0.63211102813E+02  0.32669534352E+03  0.86963273929E+02 0.  0.
         11    1    3    3    0    0 -0.15289848241E+03  0.93659483755E+02 -0.61897447251E+02  0.18968747665E+03  0.00000000000E+00 0. -1.
        -11    1    3    3    0    0 -0.74139160754E+02  0.11520770260E+03 -0.13136555628E+01  0.13700786687E+03  0.00000000000E+00 0.  1.
         22    1    1    2    0    0  0.22703764316E+03 -0.20886718635E+03  0.51020403446E+03  0.59622122549E+03  0.00000000000E+00 0. -1.
<mgrwt>
<rscale>  0 0.80744802E+03</rscale>
<asrwt>0</asrwt>
<pdfrwt beam="1">  1        2 0.10537765E+00 0.80744802E+03</pdfrwt>
<pdfrwt beam="2">  1       -2 0.36609511E-01 0.80744802E+03</pdfrwt>
<totfact> 0.29743805E+02</totfact>
</mgrwt>
</event>
<event>
 6    1  0.9988873E-007  0.3935148E+03  0.7818608E-02  0.1046049E+00
          1   -1    0    0  501    0  0.00000000000E+00  0.00000000000E+00  0.13151642624E+04  0.13151642624E+04  0.00000000000E+00 0. -1.
         -1   -1    0    0    0  501 -0.00000000000E+00 -0.00000000000E+00 -0.29436221833E+02  0.29436221833E+02  0.00000000000E+00 0.  1.
         23    2    1    2    0    0 -0.43988088122E+02  0.17201063333E+03  0.87165961856E+03  0.89407271818E+03  0.89738090573E+02 0.  0.
         13    1    3    3    0    0 -0.63475656451E+02  0.71418078760E+02  0.37775062261E+03  0.38964757643E+03  0.00000000000E+00 0. -1.
        -13    1    3    3    0    0  0.19487568329E+02  0.10059255457E+03  0.49390899595E+03  0.50442514176E+03  0.00000000000E+00 0.  1.
         22    1    1    2    0    0  0.43988088122E+02 -0.17201063333E+03  0.41406842200E+03  0.45052776604E+03  0.00000000000E+00 0.  1.
<mgrwt>
<rscale>  0 0.39351476E+03</rscale>
<asrwt>0</asrwt>
<pdfrwt beam="1">  1        1 0.20233292E+00 0.39351476E+03</pdfrwt>
<pdfrwt beam="2">  1       -1 0.45286505E-02 0.39351476E+03</pdfrwt>
<totfact> 0.19442107E+03</totfact>
</mgrwt>
</event>
<event>
 6    1  0.9988873E-007  0.7657040E+03  0.7818608E-02  0.9611030E-01
         -2   -1    0    0    0  501 -0.00000000000E+00  0.00000000000E+00  0.60744984996E+03  0.60744984996E+03  0.00000000000E+00 0.  1.
          2   -1    0    0  501    0  0.00000000000E+00 -0.00000000000E+00 -0.24129669040E+03  0.24129669040E+03  0.00000000000E+00 0. -1.
         23    2    1    2    0    0  0.11881459227E+03  0.11109229744E+03  0.56342587421E+03  0.59306132406E+03  0.88400296834E+02 0.  0.
         13    1    3    3    0    0  0.14090938424E+02  0.36035279878E+02  0.26776752588E+03  0.27054859796E+03  0.00000000000E+00 0.  1.
        -13    1    3    3    0    0  0.10472365385E+03  0.75057017567E+02  0.29565834833E+03  0.32251272610E+03  0.00000000000E+00 0. -1.
         22    1    1    2    0    0 -0.11881459227E+03 -0.11109229744E+03 -0.19727271465E+03  0.25568521630E+03  0.00000000000E+00 0. -1.
<mgrwt>
<rscale>  0 0.76570396E+03</rscale>
<asrwt>0</asrwt>
<pdfrwt beam="1">  1        2 0.37122568E-01 0.76570396E+03</pdfrwt>
<pdfrwt beam="2">  1       -2 0.93453822E-01 0.76570396E+03</pdfrwt>
<totfact> 0.13673600E+02</totfact>
</mgrwt>
</event>
<event>
 6    1  0.9988873E-007  0.2415393E+04  0.7818608E-02  0.8433763E-01
          2   -1    0    0  501    0  0.00000000000E+00  0.00000000000E+00  0.16079653029E+04  0.16079653029E+04  0.00000000000E+00 0. -1.
         -2   -1    0    0    0  501 -0.00000000000E+00 -0.00000000000E+00 -0.90706612068E+03  0.90706612068E+03  0.00000000000E+00 0.  1.
         23    2    1    2    0    0  0.76596132513E+03 -0.70245534389E+03  0.98803213957E+03  0.14367987971E+04  0.89682844904E+02 0.  0.
         11    1    3    3    0    0  0.30690348323E+03 -0.24633367249E+03  0.42234321800E+03  0.57727274317E+03  0.00000000000E+00 0. -1.
        -11    1    3    3    0    0  0.45905784190E+03 -0.45612167140E+03  0.56568892157E+03  0.85952605389E+03  0.00000000000E+00 0.  1.
         22    1    1    2    0    0 -0.76596132513E+03  0.70245534389E+03 -0.28713295733E+03  0.10782326265E+04  0.00000000000E+00 0.  1.
<mgrwt>
<rscale>  0 0.24153930E+04</rscale>
<asrwt>0</asrwt>
<pdfrwt beam="1">  1        2 0.24737928E+00 0.24153930E+04</pdfrwt>
<pdfrwt beam="2">  1       -2 0.13954863E+00 0.24153930E+04</pdfrwt>
<totfact> 0.35910435E+00</totfact>
</mgrwt>
</event>
<event>
 6    1  0.9988873E-007  0.1306878E+04  0.7818608E-02  0.9024128E-01
         -2   -1    0    0    0  501 -0.00000000000E+00  0.00000000000E+00  0.13571028417E+03  0.13571028417E+03  0.00000000000E+00 0.  1.
          2   -1    0    0  501    0  0.00000000000E+00 -0.00000000000E+00 -0.31462802036E+04  0.31462802036E+04  0.00000000000E+00 0. -1.
         23    2    1    2    0    0  0.22671232392E+03 -0.60921654515E+03 -0.15529826883E+04  0.16860256345E+04  0.91563820043E+02 0.  0.
         13    1    3    3    0    0  0.20857596595E+01 -0.58305362162E+02 -0.19242722417E+03  0.20107735390E+03  0.00000000000E+00 0.  1.
        -13    1    3    3    0    0  0.22462656426E+03 -0.55091118299E+03 -0.13605554641E+04  0.14849482806E+04  0.00000000000E+00 0. -1.
         22    1    1    2    0    0 -0.22671232392E+03  0.60921654515E+03 -0.14575872311E+04  0.15959648533E+04  0.00000000000E+00 0.  1.
<mgrwt>
<rscale>  0 0.13068781E+04</rscale>
<asrwt>0</asrwt>
<pdfrwt beam="1">  1        2 0.48404311E+00 0.13068781E+04</pdfrwt>
<pdfrwt beam="2">  1       -2 0.20878505E-01 0.13068781E+04</pdfrwt>
<totfact> 0.27654157E+01</totfact>
</mgrwt>
</event>
<event>
 6    1  0.9988873E-007  0.2468723E+04  0.7818608E-02  0.8414214E-01
          3   -1    0    0  501    0  0.00000000000E+00  0.00000000000E+00  0.93527277591E+03  0.93527277591E+03  0.00000000000E+00 0. -1.
         -3   -1    0    0    0  501 -0.00000000000E+00 -0.00000000000E+00 -0.16290948630E+04  0.16290948630E+04  0.00000000000E+00 0.  1.
         23    2    1    2    0    0  0.55247433807E+03  0.10680099032E+04 -0.62938226293E+03  0.13601975768E+04  0.90235068587E+02 0.  0.
         11    1    3    3    0    0  0.46513973213E+03  0.88133511764E+03 -0.48313639558E+03  0.11074869465E+04  0.00000000000E+00 0.  1.
        -11    1    3    3    0    0  0.87334605939E+02  0.18667478554E+03 -0.14624586735E+03  0.25271063030E+03  0.00000000000E+00 0. -1.
         22    1    1    2    0    0 -0.55247433807E+03 -0.10680099032E+04 -0.64439824177E+02  0.12041700621E+04  0.00000000000E+00 0. -1.
<mgrwt>
<rscale>  0 0.24687228E+04</rscale>
<asrwt>0</asrwt>
<pdfrwt beam="1">  1        3 0.14388812E+00 0.24687228E+04</pdfrwt>
<pdfrwt beam="2">  1       -3 0.25062998E+00 0.24687228E+04</pdfrwt>
<totfact> 0.60816183E-02</totfact>
</mgrwt>
</event>
<event>
 6    1  0.1892166E-006  0.4495570E+04  0.7818608E-02  0.7911413E-01
         -2   -1    0    0    0  501 -0.00000000000E+00  0.00000000000E+00  0.23289522960E+04  0.23289522960E+04  0.00000000000E+00 0.  1.
          2   -1    0    0  501    0  0.00000000000E+00 -0.00000000000E+00 -0.21694463451E+04  0.21694463451E+04  0.00000000000E+00 0. -1.
         23    2    1    2    0    0 -0.20444686993E+04  0.50871291112E+03  0.86116788968E+03  0.22778197606E+04  0.90618094992E+02 0.  0.
         13    1    3    3    0    0 -0.11514698113E+04  0.28132048133E+03  0.53265912311E+03  0.12995190191E+04  0.00000000000E+00 0. -1.
        -13    1    3    3    0    0 -0.89299888797E+03  0.22739242979E+03  0.32850876658E+03  0.97830074147E+03  0.00000000000E+00 0.  1.
         22    1    1    2    0    0  0.20444686993E+04 -0.50871291112E+03 -0.70166193877E+03  0.22205788806E+04  0.00000000000E+00 0. -1.
<mgrwt>
<rscale>  0 0.44955698E+04</rscale>
<asrwt>0</asrwt>
<pdfrwt beam="1">  1        2 0.33376097E+00 0.44955698E+04</pdfrwt>
<pdfrwt beam="2">  1       -2 0.35830035E+00 0.44955698E+04</pdfrwt>
<totfact> 0.56135844E-02</totfact>
</mgrwt>
</event>
<event>
 6    1  0.9988873E-007  0.1519988E+04  0.7818608E-02  0.8871269E-01
         -2   -1    0    0    0  501 -0.00000000000E+00  0.00000000000E+00  0.38390643494E+03  0.38390643494E+03  0.00000000000E+00 0.  1.
          2   -1    0    0  501    0  0.00000000000E+00 -0.00000000000E+00 -0.15045100855E+04  0.15045100855E+04  0.00000000000E+00 0. -1.
         23    2    1    2    0    0  0.60519681385E+03 -0.44724843048E+03 -0.66681757782E+03  0.10096582250E+04  0.92031011677E+02 0.  0.
         13    1    3    3    0    0  0.15256097381E+03 -0.16348458818E+03 -0.20961844444E+03  0.30649951640E+03  0.00000000000E+00 0.  1.
        -13    1    3    3    0    0  0.45263584004E+03 -0.28376384229E+03 -0.45719913338E+03  0.70315870858E+03  0.00000000000E+00 0. -1.
         22    1    1    2    0    0 -0.60519681385E+03  0.44724843048E+03 -0.45378607276E+03  0.87875829549E+03  0.00000000000E+00 0.  1.
<mgrwt>
<rscale>  0 0.15199883E+04</rscale>
<asrwt>0</asrwt>
<pdfrwt beam="1">  1        2 0.23146310E+00 0.15199883E+04</pdfrwt>
<pdfrwt beam="2">  1       -2 0.59062527E-01 0.15199883E+04</pdfrwt>
<totfact> 0.32594349E+01</totfact>
</mgrwt>
</event>
<event>
 6    1  0.9988873E-007  0.4654762E+04  0.7818608E-02  0.7884089E-01
         -1   -1    0    0    0  501 -0.00000000000E+00  0.00000000000E+00  0.17055233594E+04  0.17055233594E+04  0.00000000000E+00 0.  1.
          1   -1    0    0  501    0  0.00000000000E+00 -0.00000000000E+00 -0.31759762624E+04  0.31759762624E+04  0.00000000000E+00 0. -1.
         23    2    1    2    0    0 -0.79614743957E+03  0.21045973369E+04 -0.13554240954E+04  0.26284101156E+04  0.90468564551E+02 0.  0.
         13    1    3    3    0    0 -0.52843500792E+03  0.12739662678E+04 -0.82185565598E+03  0.16055155958E+04  0.00000000000E+00 0.  1.
        -13    1    3    3    0    0 -0.26771243165E+03  0.83063106911E+03 -0.53356843943E+03  0.10228945198E+04  0.00000000000E+00 0. -1.
         22    1    1    2    0    0  0.79614743957E+03 -0.21045973369E+04 -0.11502880764E+03  0.22530895062E+04  0.00000000000E+00 0.  1.
<mgrwt>
<rscale>  0 0.46547617E+04</rscale>
<asrwt>0</asrwt>
<pdfrwt beam="1">  1        1 0.48861173E+00 0.46547617E+04</pdfrwt>
<pdfrwt beam="2">  1       -1 0.26238821E+00 0.46547617E+04</pdfrwt>
<totfact> 0.19025903E-02</totfact>
</mgrwt>
</event>
<event>
 6    1  0.9988873E-007  0.1794283E+04  0.7818608E-02  0.8709346E-01
         -1   -1    0    0    0  501 -0.00000000000E+00  0.00000000000E+00  0.91732154299E+03  0.91732154299E+03  0.00000000000E+00 0.  1.
          1   -1    0    0  501    0  0.00000000000E+00 -0.00000000000E+00 -0.87740553839E+03  0.87740553839E+03  0.00000000000E+00 0. -1.
         23    2    1    2    0    0  0.34069857731E+03  0.82070587862E+03 -0.84302482113E+02  0.89747355410E+03  0.93371366318E+02 0.  0.
         13    1    3    3    0    0  0.27108598704E+03  0.55752738578E+03 -0.35925188195E+02  0.62097907969E+03  0.00000000000E+00 0. -1.
        -13    1    3    3    0    0  0.69612590277E+02  0.26317849283E+03 -0.48377293918E+02  0.27649447442E+03  0.00000000000E+00 0.  1.
         22    1    1    2    0    0 -0.34069857731E+03 -0.82070587862E+03  0.12421848672E+03  0.89725352728E+03  0.00000000000E+00 0. -1.
<mgrwt>
<rscale>  0 0.17942831E+04</rscale>
<asrwt>0</asrwt>
<pdfrwt beam="1">  1        1 0.13498547E+00 0.17942831E+04</pdfrwt>
<pdfrwt beam="2">  1       -1 0.14112639E+00 0.17942831E+04</pdfrwt>
<totfact> 0.73615338E+00</totfact>
</mgrwt>
</event>
<event>
 6    1  0.9988873E-007  0.3566839E+04  0.7818608E-02  0.8098130E-01
          1   -1    0    0  501    0  0.00000000000E+00  0.00000000000E+00  0.27712177386E+04  0.27712177386E+04  0.00000000000E+00 0. -1.
         -1   -1    0    0    0  501 -0.00000000000E+00 -0.00000000000E+00 -0.11477212886E+04  0.11477212886E+04  0.00000000000E+00 0.  1.
         23    2    1    2    0    0 -0.85549178957E+03 -0.14168598191E+04  0.15385772248E+04  0.22616613728E+04  0.92381487817E+02 0.  0.
         13    1    3    3    0    0 -0.39513821082E+03 -0.58923869214E+03  0.61696328505E+03  0.94020217883E+03  0.00000000000E+00 0.  1.
        -13    1    3    3    0    0 -0.46035357876E+03 -0.82762112696E+03  0.92161393976E+03  0.13214591939E+04  0.00000000000E+00 0. -1.
         22    1    1    2    0    0  0.85549178957E+03  0.14168598191E+04  0.84919225212E+02  0.16572776544E+04  0.00000000000E+00 0.  1.
<mgrwt>
<rscale>  0 0.35668393E+04</rscale>
<asrwt>0</asrwt>
<pdfrwt beam="1">  1        1 0.42634119E+00 0.35668393E+04</pdfrwt>
<pdfrwt beam="2">  1       -1 0.17657251E+00 0.35668393E+04</pdfrwt>
<totfact> 0.15609780E-01</totfact>
</mgrwt>
</event>
<event>
 6    1  0.9988873E-007  0.1578232E+04  0.7818608E-02  0.8834034E-01
         -2   -1    0    0    0  501 -0.00000000000E+00  0.00000000000E+00  0.39926516481E+03  0.39926516481E+03  0.00000000000E+00 0.  1.
          2   -1    0    0  501    0  0.00000000000E+00 -0.00000000000E+00 -0.15596247705E+04  0.15596247705E+04  0.00000000000E+00 0. -1.
         23    2    1    2    0    0  0.20767078659E+03 -0.75816970317E+03 -0.56112365244E+03  0.97044055265E+03  0.94586777611E+02 0.  0.
         13    1    3    3    0    0  0.18860968875E+03 -0.52731314023E+03 -0.39004699858E+03  0.68247302046E+03  0.00000000000E+00 0. -1.
        -13    1    3    3    0    0  0.19061097837E+02 -0.23085656294E+03 -0.17107665386E+03  0.28796753219E+03  0.00000000000E+00 0.  1.
         22    1    1    2    0    0 -0.20767078659E+03  0.75816970317E+03 -0.59923595327E+03  0.98844938267E+03  0.00000000000E+00 0. -1.
<mgrwt>
<rscale>  0 0.15782317E+04</rscale>
<asrwt>0</asrwt>
<pdfrwt beam="1">  1        2 0.23994228E+00 0.15782317E+04</pdfrwt>
<pdfrwt beam="2">  1       -2 0.61425409E-01 0.15782317E+04</pdfrwt>
<totfact> 0.27803362E+01</totfact>
</mgrwt>
</event>
<event>
 6    1  0.9988873E-007  0.1510077E+04  0.7818608E-02  0.8877779E-01
         -2   -1    0    0    0  501 -0.00000000000E+00  0.00000000000E+00  0.16871741241E+03  0.16871741241E+03  0.00000000000E+00 0.  1.
          2   -1    0    0  501    0  0.00000000000E+00 -0.00000000000E+00 -0.33789242848E+04  0.33789242848E+04  0.00000000000E+00 0. -1.
         23    2    1    2    0    0  0.71993026303E+03 -0.14071112801E+03 -0.12207716959E+04  0.14272758027E+04  0.93453080455E+02 0.  0.
         11    1    3    3    0    0  0.40175978287E+03 -0.83681226087E+02 -0.77076851450E+03  0.87321107051E+03  0.00000000000E+00 0.  1.
        -11    1    3    3    0    0  0.31817048017E+03 -0.57029901919E+02 -0.45000318137E+03  0.55406473215E+03  0.00000000000E+00 0. -1.
         22    1    1    2    0    0 -0.71993026303E+03  0.14071112801E+03 -0.19894351766E+04  0.21203658946E+04  0.00000000000E+00 0. -1.
<mgrwt>
<rscale>  0 0.15100773E+04</rscale>
<asrwt>0</asrwt>
<pdfrwt beam="1">  1        2 0.51983450E+00 0.15100773E+04</pdfrwt>
<pdfrwt beam="2">  1       -2 0.25956525E-01 0.15100773E+04</pdfrwt>
<totfact> 0.12902359E+01</totfact>
</mgrwt>
</event>
<event>
 6    1  0.9988873E-007  0.6305668E+04  0.7818608E-02  0.7653616E-01
         -1   -1    0    0    0  501 -0.00000000000E+00  0.00000000000E+00  0.28797088885E+04  0.28797088885E+04  0.00000000000E+00 0.  1.
          1   -1    0    0  501    0  0.00000000000E+00 -0.00000000000E+00 -0.34518634101E+04  0.34518634101E+04  0.00000000000E+00 0. -1.
         23    2    1    2    0    0 -0.20744396062E+04  0.10268693093E+04  0.18623909438E+04  0.29722908454E+04  0.90843732267E+02 0.  0.
         13    1    3    3    0    0 -0.12142516350E+04  0.61266996231E+03  0.10382124512E+04  0.17110396283E+04  0.00000000000E+00 0.  1.
        -13    1    3    3    0    0 -0.86018797126E+03  0.41419934694E+03  0.82417849260E+03  0.12612512171E+04  0.00000000000E+00 0. -1.
         22    1    1    2    0    0  0.20744396062E+04 -0.10268693093E+04 -0.24345454655E+04  0.33592814532E+04  0.00000000000E+00 0. -1.
<mgrwt>
<rscale>  0 0.63056678E+04</rscale>
<asrwt>0</asrwt>
<pdfrwt beam="1">  1        1 0.53105591E+00 0.63056678E+04</pdfrwt>
<pdfrwt beam="2">  1       -1 0.44303213E+00 0.63056678E+04</pdfrwt>
<totfact> 0.64509072E-04</totfact>
</mgrwt>
</event>
<event>
 6    1  0.9988873E-007  0.1603707E+04  0.7818608E-02  0.8818274E-01
         -1   -1    0    0    0  501 -0.00000000000E+00  0.00000000000E+00  0.57696222426E+03  0.57696222426E+03  0.00000000000E+00 0.  1.
          1   -1    0    0  501    0  0.00000000000E+00 -0.00000000000E+00 -0.11144035075E+04  0.11144035075E+04  0.00000000000E+00 0. -1.
         23    2    1    2    0    0 -0.35449718316E+03 -0.14325200795E+03  0.47044633575E+03  0.61339224267E+03  0.93492769244E+02 0.  0.
         13    1    3    3    0    0 -0.20365021231E+03 -0.13029779057E+03  0.27499918753E+03  0.36616318267E+03  0.00000000000E+00 0.  1.
        -13    1    3    3    0    0 -0.15084697085E+03 -0.12954217382E+02  0.19544714822E+03  0.24722906001E+03  0.00000000000E+00 0. -1.
         22    1    1    2    0    0  0.35449718316E+03  0.14325200795E+03 -0.10078876190E+04  0.10779734891E+04  0.00000000000E+00 0. -1.
<mgrwt>
<rscale>  0 0.16037066E+04</rscale>
<asrwt>0</asrwt>
<pdfrwt beam="1">  1        1 0.17144669E+00 0.16037066E+04</pdfrwt>
<pdfrwt beam="2">  1       -1 0.88763421E-01 0.16037066E+04</pdfrwt>
<totfact> 0.14775241E+01</totfact>
</mgrwt>
</event>
<event>
 6    1  0.9988873E-007  0.3641054E+04  0.7818608E-02  0.8081152E-01
          2   -1    0    0  501    0  0.00000000000E+00  0.00000000000E+00  0.34922766524E+04  0.34922766524E+04  0.00000000000E+00 0. -1.
         -2   -1    0    0    0  501 -0.00000000000E+00 -0.00000000000E+00 -0.94904236340E+03  0.94904236340E+03  0.00000000000E+00 0.  1.
         23    2    1    2    0    0 -0.42327020029E+03 -0.93274373446E+03 -0.56174603228E+03  0.11717515624E+04  0.90964732907E+02 0.  0.
         11    1    3    3    0    0 -0.54520300244E+02 -0.12258146984E+03 -0.40082270806E+02  0.14001881416E+03  0.00000000000E+00 0.  1.
        -11    1    3    3    0    0 -0.36874990005E+03 -0.81016226462E+03 -0.52166376148E+03  0.10317327483E+04  0.00000000000E+00 0. -1.
         22    1    1    2    0    0  0.42327020029E+03  0.93274373446E+03  0.31049803213E+04  0.32695674534E+04  0.00000000000E+00 0. -1.
<mgrwt>
<rscale>  0 0.36410540E+04</rscale>
<asrwt>0</asrwt>
<pdfrwt beam="1">  1        2 0.53727332E+00 0.36410540E+04</pdfrwt>
<pdfrwt beam="2">  1       -2 0.14600652E+00 0.36410540E+04</pdfrwt>
<totfact> 0.21479095E-01</totfact>
</mgrwt>
</event>
<event>
 6    1  0.9988873E-007  0.2644046E+04  0.7818608E-02  0.8353392E-01
         -2   -1    0    0    0  501 -0.00000000000E+00  0.00000000000E+00  0.93300578691E+03  0.93300578691E+03  0.00000000000E+00 0.  1.
          2   -1    0    0  501    0  0.00000000000E+00 -0.00000000000E+00 -0.18732406774E+04  0.18732406774E+04  0.00000000000E+00 0. -1.
         23    2    1    2    0    0  0.20637902225E+03  0.10208165590E+03 -0.18506394926E+04  0.18671780404E+04  0.92056166683E+02 0.  0.
         11    1    3    3    0    0  0.11857495704E+03  0.73809670915E+01 -0.89841885038E+03  0.90623999571E+03  0.00000000000E+00 0.  1.
        -11    1    3    3    0    0  0.87804065213E+02  0.94700688812E+02 -0.95222064218E+03  0.96093804469E+03  0.00000000000E+00 0. -1.
         22    1    1    2    0    0 -0.20637902225E+03 -0.10208165590E+03  0.91040460208E+03  0.93906842391E+03  0.00000000000E+00 0.  1.
<mgrwt>
<rscale>  0 0.26440457E+04</rscale>
<asrwt>0</asrwt>
<pdfrwt beam="1">  1        2 0.28819087E+00 0.26440457E+04</pdfrwt>
<pdfrwt beam="2">  1       -2 0.14353935E+00 0.26440457E+04</pdfrwt>
<totfact> 0.23306319E+00</totfact>
</mgrwt>
</event>
<event>
 6    1  0.9988873E-007  0.1544379E+04  0.7818608E-02  0.8855466E-01
          2   -1    0    0  501    0  0.00000000000E+00  0.00000000000E+00  0.24070965515E+04  0.24070965515E+04  0.00000000000E+00 0. -1.
         -2   -1    0    0    0  501 -0.00000000000E+00 -0.00000000000E+00 -0.24771627252E+03  0.24771627252E+03  0.00000000000E+00 0.  1.
         23    2    1    2    0    0 -0.37573395902E+02  0.76200181277E+03  0.12550354766E+04  0.14716399523E+04  0.92474747778E+02 0.  0.
         11    1    3    3    0    0 -0.33405453488E+02  0.20521734617E+03  0.27899021232E+03  0.34794485492E+03  0.00000000000E+00 0.  1.
        -11    1    3    3    0    0 -0.41679424143E+01  0.55678446659E+03  0.97604526431E+03  0.11236950974E+04  0.00000000000E+00 0. -1.
         22    1    1    2    0    0  0.37573395902E+02 -0.76200181277E+03  0.90434480235E+03  0.11831728717E+04  0.00000000000E+00 0. -1.
<mgrwt>
<rscale>  0 0.15443795E+04</rscale>
<asrwt>0</asrwt>
<pdfrwt beam="1">  1        2 0.37032253E+00 0.15443795E+04</pdfrwt>
<pdfrwt beam="2">  1       -2 0.38110198E-01 0.15443795E+04</pdfrwt>
<totfact> 0.24700314E+01</totfact>
</mgrwt>
</event>
<event>
 6    1  0.9988873E-007  0.2111478E+04  0.7818608E-02  0.8556204E-01
          1   -1    0    0  501    0  0.00000000000E+00  0.00000000000E+00  0.62732002124E+03  0.62732002124E+03  0.00000000000E+00 0. -1.
         -1   -1    0    0    0  501 -0.00000000000E+00 -0.00000000000E+00 -0.17767395920E+04  0.17767395920E+04  0.00000000000E+00 0.  1.
         23    2    1    2    0    0 -0.40402670077E+03 -0.81948133186E+03 -0.11736224925E+04  0.14900721902E+04  0.90211688291E+02 0.  0.
         11    1    3    3    0    0 -0.36509944228E+03 -0.73004917832E+03 -0.10889360432E+04  0.13609008457E+04  0.00000000000E+00 0. -1.
        -11    1    3    3    0    0 -0.38927258497E+02 -0.89432153545E+02 -0.84686449324E+02  0.12917134450E+03  0.00000000000E+00 0.  1.
         22    1    1    2    0    0  0.40402670077E+03  0.81948133186E+03  0.24202921731E+02  0.91398742313E+03  0.00000000000E+00 0. -1.
<mgrwt>
<rscale>  0 0.21114775E+04</rscale>
<asrwt>0</asrwt>
<pdfrwt beam="1">  1        1 0.96510773E-01 0.21114775E+04</pdfrwt>
<pdfrwt beam="2">  1       -1 0.27334455E+00 0.21114775E+04</pdfrwt>
<totfact> 0.14496442E+00</totfact>
</mgrwt>
</event>
<event>
 6    1  0.9988873E-007  0.9628899E+03  0.7818608E-02  0.9350210E-01
         -1   -1    0    0    0  501 -0.00000000000E+00  0.00000000000E+00  0.56875925822E+02  0.56875925822E+02  0.00000000000E+00 0.  1.
          1   -1    0    0  501    0  0.00000000000E+00 -0.00000000000E+00 -0.40753484513E+04  0.40753484513E+04  0.00000000000E+00 0. -1.
         23    2    1    2    0    0 -0.45463238085E+03 -0.93535528435E+02 -0.15596038774E+04  0.16299305244E+04  0.94179420351E+02 0.  0.
         13    1    3    3    0    0 -0.13100708132E+03 -0.67386851702E+02 -0.55104630192E+03  0.57039974579E+03  0.00000000000E+00 0. -1.
        -13    1    3    3    0    0 -0.32362529954E+03 -0.26148676733E+02 -0.10085575755E+04  0.10595307786E+04  0.00000000000E+00 0.  1.
         22    1    1    2    0    0  0.45463238085E+03  0.93535528435E+02 -0.24588686481E+04  0.25022938528E+04  0.00000000000E+00 0. -1.
<mgrwt>
<rscale>  0 0.96288985E+03</rscale>
<asrwt>0</asrwt>
<pdfrwt beam="1">  1        1 0.62697695E+00 0.96288985E+03</pdfrwt>
<pdfrwt beam="2">  1       -1 0.87501387E-02 0.96288985E+03</pdfrwt>
<totfact> 0.68121419E+00</totfact>
</mgrwt>
</event>
<event>
 6    1  0.9988873E-007  0.1342802E+04  0.7818608E-02  0.8996295E-01
          2   -1    0    0  501    0  0.00000000000E+00  0.00000000000E+00  0.18915593842E+04  0.18915593842E+04  0.00000000000E+00 0. -1.
         -2   -1    0    0    0  501 -0.00000000000E+00 -0.00000000000E+00 -0.23831103343E+03  0.23831103343E+03  0.00000000000E+00 0.  1.
         23    2    1    2    0    0 -0.39746158886E+03  0.16074716985E+03  0.17048617434E+02  0.43843170027E+03  0.90090694375E+02 0.  0.
         13    1    3    3    0    0 -0.15104877765E+03  0.27013593644E+02  0.35372395237E+02  0.15746959648E+03  0.00000000000E+00 0.  1.
        -13    1    3    3    0    0 -0.24641281121E+03  0.13373357621E+03 -0.18323777803E+02  0.28096210379E+03  0.00000000000E+00 0. -1.
         22    1    1    2    0    0  0.39746158886E+03 -0.16074716985E+03  0.16361997334E+04  0.16914387174E+04  0.00000000000E+00 0. -1.
<mgrwt>
<rscale>  0 0.13428023E+04</rscale>
<asrwt>0</asrwt>
<pdfrwt beam="1">  1        2 0.29100913E+00 0.13428023E+04</pdfrwt>
<pdfrwt beam="2">  1       -2 0.36663237E-01 0.13428023E+04</pdfrwt>
<totfact> 0.52575548E+01</totfact>
</mgrwt>
</event>
<event>
 6    1  0.9988873E-007  0.3362261E+04  0.7818608E-02  0.8147231E-01
         -1   -1    0    0    0  501 -0.00000000000E+00  0.00000000000E+00  0.19172837414E+04  0.19172837414E+04  0.00000000000E+00 0.  1.
          1   -1    0    0  501    0  0.00000000000E+00 -0.00000000000E+00 -0.14740641153E+04  0.14740641153E+04  0.00000000000E+00 0. -1.
         23    2    1    2    0    0  0.10230706294E+04  0.67633701825E+03  0.13796237389E+04  0.18483125565E+04  0.93767641208E+02 0.  0.
         11    1    3    3    0    0  0.84693399688E+03  0.51877950782E+03  0.10936650607E+04  0.14773397165E+04  0.00000000000E+00 0. -1.
        -11    1    3    3    0    0  0.17613663251E+03  0.15755751043E+03  0.28595867815E+03  0.37097284000E+03  0.00000000000E+00 0.  1.
         22    1    1    2    0    0 -0.10230706294E+04 -0.67633701825E+03 -0.93640411282E+03  0.15430353001E+04  0.00000000000E+00 0. -1.
<mgrwt>
<rscale>  0 0.33622606E+04</rscale>
<asrwt>0</asrwt>
<pdfrwt beam="1">  1        1 0.22677910E+00 0.33622606E+04</pdfrwt>
<pdfrwt beam="2">  1       -1 0.29496673E+00 0.33622606E+04</pdfrwt>
<totfact> 0.20032967E-01</totfact>
</mgrwt>
</event>
<event>
 6    1  0.9988873E-007  0.2272635E+04  0.7818608E-02  0.8488790E-01
         -2   -1    0    0    0  501 -0.00000000000E+00  0.00000000000E+00  0.11310015341E+04  0.11310015341E+04  0.00000000000E+00 0.  1.
          2   -1    0    0  501    0  0.00000000000E+00 -0.00000000000E+00 -0.11416581275E+04  0.11416581275E+04  0.00000000000E+00 0. -1.
         23    2    1    2    0    0  0.70770531287E+03 -0.27678978868E+03  0.83707415093E+03  0.11341927925E+04  0.90778628759E+02 0.  0.
         13    1    3    3    0    0  0.47598733667E+03 -0.14953287057E+03  0.50723161267E+03  0.71148291121E+03  0.00000000000E+00 0. -1.
        -13    1    3    3    0    0  0.23171797620E+03 -0.12725691811E+03  0.32984253826E+03  0.42270988130E+03  0.00000000000E+00 0.  1.
         22    1    1    2    0    0 -0.70770531287E+03  0.27678978868E+03 -0.84773074436E+03  0.11384668691E+04  0.00000000000E+00 0. -1.
<mgrwt>
<rscale>  0 0.22726347E+04</rscale>
<asrwt>0</asrwt>
<pdfrwt beam="1">  1        2 0.17563971E+00 0.22726347E+04</pdfrwt>
<pdfrwt beam="2">  1       -2 0.17400024E+00 0.22726347E+04</pdfrwt>
<totfact> 0.37269240E+00</totfact>
</mgrwt>
</event>
<event>
 6    1  0.9988873E-007  0.1143480E+04  0.7818608E-02  0.9163820E-01
         -4   -1    0    0    0  501 -0.00000000000E+00  0.00000000000E+00  0.63194665045E+03  0.63194665045E+03  0.00000000000E+00 0.  1.
          4   -1    0    0  501    0  0.00000000000E+00 -0.00000000000E+00 -0.51726937673E+03  0.51726937673E+03  0.00000000000E+00 0. -1.
         23    2    1    2    0    0 -0.47987091297E+03 -0.24240867612E+03  0.24230337071E+03  0.59665247427E+03  0.90803040822E+02 0.  0.
         11    1    3    3    0    0 -0.26463408643E+03 -0.84686062814E+02  0.13690770565E+03  0.30975256060E+03  0.00000000000E+00 0. -1.
        -11    1    3    3    0    0 -0.21523682654E+03 -0.15772261331E+03  0.10539566506E+03  0.28689991367E+03  0.00000000000E+00 0.  1.
         22    1    1    2    0    0  0.47987091297E+03  0.24240867612E+03 -0.12762609700E+03  0.55256355291E+03  0.00000000000E+00 0.  1.
<mgrwt>
<rscale>  0 0.11434800E+04</rscale>
<asrwt>0</asrwt>
<pdfrwt beam="1">  1        4 0.79579904E-01 0.11434800E+04</pdfrwt>
<pdfrwt beam="2">  1       -4 0.97222562E-01 0.11434800E+04</pdfrwt>
<totfact> 0.24462225E+00</totfact>
</mgrwt>
</event>
<event>
 6    1  0.9988873E-007  0.3299993E+04  0.7818608E-02  0.8162897E-01
         -2   -1    0    0    0  501 -0.00000000000E+00  0.00000000000E+00  0.91787442189E+03  0.91787442189E+03  0.00000000000E+00 0.  1.
          2   -1    0    0  501    0  0.00000000000E+00 -0.00000000000E+00 -0.29660797043E+04  0.29660797043E+04  0.00000000000E+00 0. -1.
         23    2    1    2    0    0  0.55159823197E+03  0.13241696016E+02 -0.28535262388E+04  0.29077483103E+04  0.89175603934E+02 0.  0.
         11    1    3    3    0    0  0.35719168584E+03  0.44770924861E+02 -0.19585442926E+04  0.19913528272E+04  0.00000000000E+00 0. -1.
        -11    1    3    3    0    0  0.19440654613E+03 -0.31529228845E+02 -0.89498194625E+03  0.91639548316E+03  0.00000000000E+00 0.  1.
         22    1    1    2    0    0 -0.55159823197E+03 -0.13241696016E+02  0.80532095645E+03  0.97620581586E+03  0.00000000000E+00 0.  1.
<mgrwt>
<rscale>  0 0.32999931E+04</rscale>
<asrwt>0</asrwt>
<pdfrwt beam="1">  1        2 0.45631996E+00 0.32999931E+04</pdfrwt>
<pdfrwt beam="2">  1       -2 0.14121145E+00 0.32999931E+04</pdfrwt>
<totfact> 0.53590819E-01</totfact>
</mgrwt>
</event>
<event>
 6    1  0.9988873E-007  0.3509609E+04  0.7818608E-02  0.8111517E-01
         -2   -1    0    0    0  501 -0.00000000000E+00  0.00000000000E+00  0.68482680771E+03  0.68482680771E+03  0.00000000000E+00 0.  1.
          2   -1    0    0  501    0  0.00000000000E+00 -0.00000000000E+00 -0.44965215199E+04  0.44965215199E+04  0.00000000000E+00 0. -1.
         23    2    1    2    0    0 -0.19348551105E+03  0.16006772387E+04 -0.29252374594E+04  0.33413997614E+04  0.91290229243E+02 0.  0.
         11    1    3    3    0    0 -0.12717585446E+03  0.10617010451E+04 -0.20277373954E+04  0.22924008707E+04  0.00000000000E+00 0. -1.
        -11    1    3    3    0    0 -0.66309656592E+02  0.53897619360E+03 -0.89750006396E+03  0.10489988907E+04  0.00000000000E+00 0.  1.
         22    1    1    2    0    0  0.19348551105E+03 -0.16006772387E+04 -0.88645725281E+03  0.18399485663E+04  0.00000000000E+00 0.  1.
<mgrwt>
<rscale>  0 0.35096088E+04</rscale>
<asrwt>0</asrwt>
<pdfrwt beam="1">  1        2 0.69177257E+00 0.35096088E+04</pdfrwt>
<pdfrwt beam="2">  1       -2 0.10535797E+00 0.35096088E+04</pdfrwt>
<totfact> 0.73899284E-02</totfact>
</mgrwt>
</event>
<event>
 6    1  0.9988873E-007  0.5730888E+03  0.7818608E-02  0.9962867E-01
         -2   -1    0    0    0  501 -0.00000000000E+00  0.00000000000E+00  0.52112399077E+02  0.52112399077E+02  0.00000000000E+00 0.  1.
          2   -1    0    0  501    0  0.00000000000E+00 -0.00000000000E+00 -0.15755885511E+04  0.15755885511E+04  0.00000000000E+00 0. -1.
         23    2    1    2    0    0 -0.18369229115E+03 -0.20549355265E+03 -0.90903675761E+03  0.95427224020E+03  0.91198814295E+02 0.  0.
         13    1    3    3    0    0 -0.46556408892E+02 -0.34623600722E+02 -0.95444755319E+02  0.11169599032E+03  0.00000000000E+00 0.  1.
        -13    1    3    3    0    0 -0.13713588226E+03 -0.17086995193E+03 -0.81359200229E+03  0.84257624988E+03  0.00000000000E+00 0. -1.
         22    1    1    2    0    0  0.18369229115E+03  0.20549355265E+03 -0.61443939441E+03  0.67342870997E+03  0.00000000000E+00 0. -1.
<mgrwt>
<rscale>  0 0.57308882E+03</rscale>
<asrwt>0</asrwt>
<pdfrwt beam="1">  1        2 0.24239825E+00 0.57308882E+03</pdfrwt>
<pdfrwt beam="2">  1       -2 0.80172917E-02 0.57308882E+03</pdfrwt>
<totfact> 0.11525954E+03</totfact>
</mgrwt>
</event>
<event>
 6    1  0.9988873E-007  0.2359856E+04  0.7818608E-02  0.8454688E-01
          2   -1    0    0  501    0  0.00000000000E+00  0.00000000000E+00  0.31639707187E+04  0.31639707187E+04  0.00000000000E+00 0. -1.
         -2   -1    0    0    0  501 -0.00000000000E+00 -0.00000000000E+00 -0.44002608998E+03  0.44002608998E+03  0.00000000000E+00 0.  1.
         23    2    1    2    0    0  0.23356093495E+03 -0.48640808051E+03 -0.23495814437E+03  0.59629849406E+03  0.96036624767E+02 0.  0.
         11    1    3    3    0    0  0.14265584327E+03 -0.21784283381E+03 -0.14904790910E+03  0.30003577965E+03  0.00000000000E+00 0. -1.
        -11    1    3    3    0    0  0.90905091674E+02 -0.26856524670E+03 -0.85910235268E+02  0.29626271441E+03  0.00000000000E+00 0.  1.
         22    1    1    2    0    0 -0.23356093495E+03  0.48640808051E+03  0.29589027730E+04  0.30076983146E+04  0.00000000000E+00 0. -1.
<mgrwt>
<rscale>  0 0.23598556E+04</rscale>
<asrwt>0</asrwt>
<pdfrwt beam="1">  1        2 0.48676471E+00 0.23598556E+04</pdfrwt>
<pdfrwt beam="2">  1       -2 0.67696324E-01 0.23598556E+04</pdfrwt>
<totfact> 0.24715518E+00</totfact>
</mgrwt>
</event>
<event>
 6    1  0.9988873E-007  0.2266459E+04  0.7818608E-02  0.8491265E-01
          1   -1    0    0  501    0  0.00000000000E+00  0.00000000000E+00  0.85816205109E+03  0.85816205109E+03  0.00000000000E+00 0. -1.
         -1   -1    0    0    0  501 -0.00000000000E+00 -0.00000000000E+00 -0.14964642426E+04  0.14964642426E+04  0.00000000000E+00 0.  1.
         23    2    1    2    0    0 -0.57575616693E+03 -0.71253444500E+03  0.37027905501E+03  0.99211514514E+03  0.89360973389E+02 0.  0.
         11    1    3    3    0    0 -0.27049902676E+03 -0.32249096874E+03  0.21752524048E+03  0.47380099054E+03  0.00000000000E+00 0. -1.
        -11    1    3    3    0    0 -0.30525714017E+03 -0.39004347626E+03  0.15275381454E+03  0.51831415460E+03  0.00000000000E+00 0.  1.
         22    1    1    2    0    0  0.57575616693E+03  0.71253444500E+03 -0.10085812465E+04  0.13625111486E+04  0.00000000000E+00 0.  1.
<mgrwt>
<rscale>  0 0.22664588E+04</rscale>
<asrwt>0</asrwt>
<pdfrwt beam="1">  1        1 0.13202493E+00 0.22664588E+04</pdfrwt>
<pdfrwt beam="2">  1       -1 0.23022527E+00 0.22664588E+04</pdfrwt>
<totfact> 0.16808472E+00</totfact>
</mgrwt>
</event>
<event>
 6    1  0.9988873E-007  0.1758253E+04  0.7818608E-02  0.8728820E-01
         -1   -1    0    0    0  501 -0.00000000000E+00  0.00000000000E+00  0.76987960122E+03  0.76987960122E+03  0.00000000000E+00 0.  1.
          1   -1    0    0  501    0  0.00000000000E+00 -0.00000000000E+00 -0.10038758289E+04  0.10038758289E+04  0.00000000000E+00 0. -1.
         23    2    1    2    0    0 -0.26153794696E+03 -0.18820290639E+03  0.70521016577E+03  0.78081480693E+03  0.92346917360E+02 0.  0.
         13    1    3    3    0    0 -0.20754913972E+03 -0.11611422620E+03  0.43191263884E+03  0.49305951620E+03  0.00000000000E+00 0. -1.
        -13    1    3    3    0    0 -0.53988807235E+02 -0.72088680194E+02  0.27329752693E+03  0.28775529073E+03  0.00000000000E+00 0.  1.
         22    1    1    2    0    0  0.26153794696E+03  0.18820290639E+03 -0.93920639342E+03  0.99294062315E+03  0.00000000000E+00 0. -1.
<mgrwt>
<rscale>  0 0.17582531E+04</rscale>
<asrwt>0</asrwt>
<pdfrwt beam="1">  1        1 0.15444243E+00 0.17582531E+04</pdfrwt>
<pdfrwt beam="2">  1       -1 0.11844302E+00 0.17582531E+04</pdfrwt>
<totfact> 0.90966019E+00</totfact>
</mgrwt>
</event>
<event>
 6    1  0.9988873E-007  0.7406713E+04  0.7818608E-02  0.7536886E-01
         -1   -1    0    0    0  501 -0.00000000000E+00  0.00000000000E+00  0.37127763656E+04  0.37127763656E+04  0.00000000000E+00 0.  1.
          1   -1    0    0  501    0  0.00000000000E+00 -0.00000000000E+00 -0.36939603223E+04  0.36939603223E+04  0.00000000000E+00 0. -1.
         23    2    1    2    0    0 -0.12339347318E+04  0.72421641352E+03 -0.34057924016E+04  0.36952642932E+04  0.92043344797E+02 0.  0.
         11    1    3    3    0    0 -0.97533250210E+03  0.52784443872E+03 -0.26384718906E+04  0.28620669382E+04  0.00000000000E+00 0.  1.
        -11    1    3    3    0    0 -0.25860222974E+03  0.19637197480E+03 -0.76732051102E+03  0.83319735498E+03  0.00000000000E+00 0. -1.
         22    1    1    2    0    0  0.12339347318E+04 -0.72421641352E+03  0.34246084449E+04  0.37114723947E+04  0.00000000000E+00 0.  1.
<mgrwt>
<rscale>  0 0.74067128E+04</rscale>
<asrwt>0</asrwt>
<pdfrwt beam="1">  1        1 0.56830159E+00 0.74067128E+04</pdfrwt>
<pdfrwt beam="2">  1       -1 0.57119636E+00 0.74067128E+04</pdfrwt>
<totfact> 0.63384630E-05</totfact>
</mgrwt>
</event>
<event>
 6    1  0.9988873E-007  0.5372476E+04  0.7818608E-02  0.7773484E-01
          1   -1    0    0  501    0  0.00000000000E+00  0.00000000000E+00  0.38599454746E+04  0.38599454746E+04  0.00000000000E+00 0. -1.
         -1   -1    0    0    0  501 -0.00000000000E+00 -0.00000000000E+00 -0.18694236872E+04  0.18694236872E+04  0.00000000000E+00 0.  1.
         23    2    1    2    0    0  0.71083175152E+03  0.10001040193E+03 -0.17641240058E+04  0.19067197021E+04  0.90347413769E+02 0.  0.
         13    1    3    3    0    0  0.37515891613E+03  0.71991073698E+02 -0.82904261202E+03  0.91281902893E+03  0.00000000000E+00 0.  1.
        -13    1    3    3    0    0  0.33567283539E+03  0.28019328236E+02 -0.93508139379E+03  0.99390067320E+03  0.00000000000E+00 0. -1.
         22    1    1    2    0    0 -0.71083175152E+03 -0.10001040193E+03  0.37546457932E+04  0.38226494597E+04  0.00000000000E+00 0. -1.
<mgrwt>
<rscale>  0 0.53724756E+04</rscale>
<asrwt>0</asrwt>
<pdfrwt beam="1">  1        1 0.59383776E+00 0.53724756E+04</pdfrwt>
<pdfrwt beam="2">  1       -1 0.28760365E+00 0.53724756E+04</pdfrwt>
<totfact> 0.35242404E-03</totfact>
</mgrwt>
</event>
<event>
 6    1  0.9988873E-007  0.1950254E+04  0.7818608E-02  0.8630238E-01
          1   -1    0    0  501    0  0.00000000000E+00  0.00000000000E+00  0.74321144040E+03  0.74321144040E+03  0.00000000000E+00 0. -1.
         -1   -1    0    0    0  501 -0.00000000000E+00 -0.00000000000E+00 -0.12794104402E+04  0.12794104402E+04  0.00000000000E+00 0.  1.
         23    2    1    2    0    0  0.78716132035E+03  0.57175774845E+03 -0.28495477568E+03  0.10178067099E+04  0.90561621722E+02 0.  0.
         11    1    3    3    0    0  0.35722531410E+03  0.24785047662E+03 -0.17331394285E+03  0.46805716166E+03  0.00000000000E+00 0.  1.
        -11    1    3    3    0    0  0.42993600625E+03  0.32390727183E+03 -0.11164083282E+03  0.54974954822E+03  0.00000000000E+00 0. -1.
         22    1    1    2    0    0 -0.78716132035E+03 -0.57175774845E+03 -0.25124422413E+03  0.10048151707E+04  0.00000000000E+00 0.  1.
<mgrwt>
<rscale>  0 0.19502538E+04</rscale>
<asrwt>0</asrwt>
<pdfrwt beam="1">  1        1 0.11434022E+00 0.19502538E+04</pdfrwt>
<pdfrwt beam="2">  1       -1 0.19683238E+00 0.19502538E+04</pdfrwt>
<totfact> 0.36632294E+00</totfact>
</mgrwt>
</event>
<event>
 6    1  0.9988873E-007  0.9712803E+03  0.7818608E-02  0.9340617E-01
         -1   -1    0    0    0  501 -0.00000000000E+00  0.00000000000E+00  0.12700157461E+03  0.12700157461E+03  0.00000000000E+00 0.  1.
          1   -1    0    0  501    0  0.00000000000E+00 -0.00000000000E+00 -0.18570348021E+04  0.18570348021E+04  0.00000000000E+00 0. -1.
         23    2    1    2    0    0  0.87552440846E+02  0.67298048092E+01 -0.18395475110E+04  0.18436650888E+04  0.86343466638E+02 0.  0.
         13    1    3    3    0    0  0.91630637269E+02  0.31854108229E+02 -0.15303775594E+04  0.15334491620E+04  0.00000000000E+00 0. -1.
        -13    1    3    3    0    0 -0.40781964231E+01 -0.25124303420E+02 -0.30916995158E+03  0.31021592684E+03  0.00000000000E+00 0.  1.
         22    1    1    2    0    0 -0.87552440846E+02 -0.67298048092E+01  0.10951428353E+03  0.14037128791E+03  0.00000000000E+00 0.  1.
<mgrwt>
<rscale>  0 0.97128028E+03</rscale>
<asrwt>0</asrwt>
<pdfrwt beam="1">  1        1 0.28569769E+00 0.97128028E+03</pdfrwt>
<pdfrwt beam="2">  1       -1 0.19538702E-01 0.97128028E+03</pdfrwt>
<totfact> 0.79881046E+01</totfact>
</mgrwt>
</event>
<event>
 6    1  0.1077595E-006  0.4112915E+04  0.7818608E-02  0.7982148E-01
         -1   -1    0    0    0  501 -0.00000000000E+00  0.00000000000E+00  0.23633372283E+04  0.23633372283E+04  0.00000000000E+00 0.  1.
          1   -1    0    0  501    0  0.00000000000E+00 -0.00000000000E+00 -0.17894259169E+04  0.17894259169E+04  0.00000000000E+00 0. -1.
         23    2    1    2    0    0 -0.51806788399E+02  0.44027428981E+03  0.23136290618E+04  0.23574516834E+04  0.90408022840E+02 0.  0.
         13    1    3    3    0    0 -0.57894704396E+02  0.18938773282E+03  0.11665534463E+04  0.11832440379E+04  0.00000000000E+00 0.  1.
        -13    1    3    3    0    0  0.60879159972E+01  0.25088655699E+03  0.11470756155E+04  0.11742076455E+04  0.00000000000E+00 0. -1.
         22    1    1    2    0    0  0.51806788399E+02 -0.44027428981E+03 -0.17397177504E+04  0.17953114618E+04  0.00000000000E+00 0. -1.
<mgrwt>
<rscale>  0 0.41129147E+04</rscale>
<asrwt>0</asrwt>
<pdfrwt beam="1">  1        1 0.27529630E+00 0.41129147E+04</pdfrwt>
<pdfrwt beam="2">  1       -1 0.36359034E+00 0.41129147E+04</pdfrwt>
<totfact> 0.40501002E-02</totfact>
</mgrwt>
</event>
<event>
 6    1  0.1620555E-006  0.2625579E+04  0.7818608E-02  0.8359564E-01
          2   -1    0    0  501    0  0.00000000000E+00  0.00000000000E+00  0.13861074480E+04  0.13861074480E+04  0.00000000000E+00 0. -1.
         -2   -1    0    0    0  501 -0.00000000000E+00 -0.00000000000E+00 -0.12433494693E+04  0.12433494693E+04  0.00000000000E+00 0.  1.
         23    2    1    2    0    0  0.94081828191E+03  0.89649271416E+03  0.24608044497E+03  0.13258029148E+04  0.91430615753E+02 0.  0.
         13    1    3    3    0    0  0.44172998021E+03  0.36193007546E+03  0.92326910178E+02  0.57848337338E+03  0.00000000000E+00 0. -1.
        -13    1    3    3    0    0  0.49908830170E+03  0.53456263871E+03  0.15375353479E+03  0.74731954147E+03  0.00000000000E+00 0.  1.
         22    1    1    2    0    0 -0.94081828191E+03 -0.89649271416E+03 -0.10332246628E+03  0.13036540025E+04  0.00000000000E+00 0.  1.
<mgrwt>
<rscale>  0 0.26255788E+04</rscale>
<asrwt>0</asrwt>
<pdfrwt beam="1">  1        2 0.21324730E+00 0.26255788E+04</pdfrwt>
<pdfrwt beam="2">  1       -2 0.19128453E+00 0.26255788E+04</pdfrwt>
<totfact> 0.19771033E+00</totfact>
</mgrwt>
</event>
<event>
 6    1  0.9988873E-007  0.3463128E+04  0.7818608E-02  0.8122584E-01
          2   -1    0    0  501    0  0.00000000000E+00  0.00000000000E+00  0.25216504529E+04  0.25216504529E+04  0.00000000000E+00 0. -1.
         -2   -1    0    0    0  501 -0.00000000000E+00 -0.00000000000E+00 -0.11890284637E+04  0.11890284637E+04  0.00000000000E+00 0.  1.
         23    2    1    2    0    0  0.30780462184E+03 -0.93537867168E+03  0.21912775690E+04  0.24041696938E+04  0.93046159780E+02 0.  0.
         13    1    3    3    0    0  0.12241323717E+03 -0.51723157209E+03  0.11545061925E+04  0.12709831031E+04  0.00000000000E+00 0. -1.
        -13    1    3    3    0    0  0.18539138467E+03 -0.41814709959E+03  0.10367713765E+04  0.11331865907E+04  0.00000000000E+00 0.  1.
         22    1    1    2    0    0 -0.30780462184E+03  0.93537867168E+03 -0.85865557973E+03  0.13065092228E+04  0.00000000000E+00 0.  1.
<mgrwt>
<rscale>  0 0.34631282E+04</rscale>
<asrwt>0</asrwt>
<pdfrwt beam="1">  1        2 0.38794622E+00 0.34631282E+04</pdfrwt>
<pdfrwt beam="2">  1       -2 0.18292746E+00 0.34631282E+04</pdfrwt>
<totfact> 0.48240893E-01</totfact>
</mgrwt>
</event>
<event>
 6    1  0.9988873E-007  0.2346699E+04  0.7818608E-02  0.8459733E-01
          1   -1    0    0  501    0  0.00000000000E+00  0.00000000000E+00  0.18968565991E+04  0.18968565991E+04  0.00000000000E+00 0. -1.
         -1   -1    0    0    0  501 -0.00000000000E+00 -0.00000000000E+00 -0.72580539441E+03  0.72580539441E+03  0.00000000000E+00 0.  1.
         23    2    1    2    0    0  0.78994949505E+03 -0.70716810161E+03  0.28815349591E+02  0.10641981096E+04  0.87065282981E+02 0.  0.
         13    1    3    3    0    0  0.59749917839E+03 -0.54590240231E+03 -0.14203303927E+02  0.80945440568E+03  0.00000000000E+00 0.  1.
        -13    1    3    3    0    0  0.19245031666E+03 -0.16126569930E+03  0.43018653518E+02  0.25474370395E+03  0.00000000000E+00 0. -1.
         22    1    1    2    0    0 -0.78994949505E+03  0.70716810161E+03  0.11422358551E+04  0.15584638839E+04  0.00000000000E+00 0.  1.
<mgrwt>
<rscale>  0 0.23466987E+04</rscale>
<asrwt>0</asrwt>
<pdfrwt beam="1">  1        1 0.29182409E+00 0.23466987E+04</pdfrwt>
<pdfrwt beam="2">  1       -1 0.11166237E+00 0.23466987E+04</pdfrwt>
<totfact> 0.23210629E+00</totfact>
</mgrwt>
</event>
<event>
 6    1  0.9988873E-007  0.2882566E+04  0.7818608E-02  0.8278084E-01
         -2   -1    0    0    0  501 -0.00000000000E+00  0.00000000000E+00  0.63390003349E+03  0.63390003349E+03  0.00000000000E+00 0.  1.
          2   -1    0    0  501    0  0.00000000000E+00 -0.00000000000E+00 -0.32770088343E+04  0.32770088343E+04  0.00000000000E+00 0. -1.
         23    2    1    2    0    0 -0.45840532161E+03 -0.24187251717E+02 -0.31749138853E+04  0.32083869039E+04  0.54294421018E+02 0.  0.
         11    1    3    3    0    0 -0.37674183384E+03 -0.23449067676E+02 -0.24538572072E+04  0.24827201738E+04  0.00000000000E+00 0. -1.
        -11    1    3    3    0    0 -0.81663487770E+02 -0.73818404121E+00 -0.72105667803E+03  0.72566673004E+03  0.00000000000E+00 0.  1.
         22    1    1    2    0    0  0.45840532161E+03  0.24187251717E+02  0.53180508441E+03  0.70252196394E+03  0.00000000000E+00 0.  1.
<mgrwt>
<rscale>  0 0.28825655E+04</rscale>
<asrwt>0</asrwt>
<pdfrwt beam="1">  1        2 0.50415520E+00 0.28825655E+04</pdfrwt>
<pdfrwt beam="2">  1       -2 0.97523082E-01 0.28825655E+04</pdfrwt>
<totfact> 0.87353906E-01</totfact>
</mgrwt>
</event>
<event>
 6    1  0.9988873E-007  0.3067072E+04  0.7818608E-02  0.8224833E-01
         -1   -1    0    0    0  501 -0.00000000000E+00  0.00000000000E+00  0.14697118950E+04  0.14697118950E+04  0.00000000000E+00 0.  1.
          1   -1    0    0  501    0  0.00000000000E+00 -0.00000000000E+00 -0.16001320952E+04  0.16001320952E+04  0.00000000000E+00 0. -1.
         23    2    1    2    0    0 -0.10665236939E+04 -0.11048665157E+03 -0.11605963522E+04  0.15829199862E+04  0.94719059759E+02 0.  0.
         11    1    3    3    0    0 -0.48202999929E+03 -0.23098449848E+02 -0.46491196751E+03  0.67009670656E+03  0.00000000000E+00 0.  1.
        -11    1    3    3    0    0 -0.58449369458E+03 -0.87388201723E+02 -0.69568438466E+03  0.91282327965E+03  0.00000000000E+00 0. -1.
         22    1    1    2    0    0  0.10665236939E+04  0.11048665157E+03  0.10301761519E+04  0.14869240040E+04  0.00000000000E+00 0.  1.
<mgrwt>
<rscale>  0 0.30670723E+04</rscale>
<asrwt>0</asrwt>
<pdfrwt beam="1">  1        1 0.24617417E+00 0.30670723E+04</pdfrwt>
<pdfrwt beam="2">  1       -1 0.22610952E+00 0.30670723E+04</pdfrwt>
<totfact> 0.47296582E-01</totfact>
</mgrwt>
</event>
<event>
 6    1  0.9988873E-007  0.3880790E+04  0.7818608E-02  0.8029036E-01
          2   -1    0    0  501    0  0.00000000000E+00  0.00000000000E+00  0.50412508729E+04  0.50412508729E+04  0.00000000000E+00 0. -1.
         -2   -1    0    0    0  501 -0.00000000000E+00 -0.00000000000E+00 -0.74686470850E+03  0.74686470850E+03  0.00000000000E+00 0.  1.
         23    2    1    2    0    0 -0.36141907054E+03  0.89418870519E+03  0.46577317145E+04  0.47574763749E+04  0.94443364346E+02 0.  0.
         11    1    3    3    0    0 -0.20233287413E+03  0.59395172563E+03  0.31584974415E+04  0.32202210067E+04  0.00000000000E+00 0.  1.
        -11    1    3    3    0    0 -0.15908619641E+03  0.30023697956E+03  0.14992342730E+04  0.15372553682E+04  0.00000000000E+00 0. -1.
         22    1    1    2    0    0  0.36141907054E+03 -0.89418870519E+03 -0.36334555011E+03  0.10306392064E+04  0.00000000000E+00 0.  1.
<mgrwt>
<rscale>  0 0.38807898E+04</rscale>
<asrwt>0</asrwt>
<pdfrwt beam="1">  1        2 0.77557704E+00 0.38807898E+04</pdfrwt>
<pdfrwt beam="2">  1       -2 0.11490227E+00 0.38807898E+04</pdfrwt>
<totfact> 0.14143911E-02</totfact>
</mgrwt>
</event>
<event>
 6    1  0.9988873E-007  0.1269033E+04  0.7818608E-02  0.9054489E-01
         -2   -1    0    0    0  501 -0.00000000000E+00  0.00000000000E+00  0.17949400711E+03  0.17949400711E+03  0.00000000000E+00 0.  1.
          2   -1    0    0  501    0  0.00000000000E+00 -0.00000000000E+00 -0.22430352779E+04  0.22430352779E+04  0.00000000000E+00 0. -1.
         23    2    1    2    0    0 -0.15389145193E+03 -0.54624003538E+03 -0.15645476587E+04  0.16668472222E+04  0.92247116048E+02 0.  0.
         11    1    3    3    0    0 -0.34382757033E+02 -0.68600119857E+02 -0.14056294226E+03  0.16014397011E+03  0.00000000000E+00 0.  1.
        -11    1    3    3    0    0 -0.11950869489E+03 -0.47763991552E+03 -0.14239847165E+04  0.15067032521E+04  0.00000000000E+00 0. -1.
         22    1    1    2    0    0  0.15389145193E+03  0.54624003538E+03 -0.49899361208E+03  0.75568206285E+03  0.00000000000E+00 0.  1.
<mgrwt>
<rscale>  0 0.12690333E+04</rscale>
<asrwt>0</asrwt>
<pdfrwt beam="1">  1        2 0.34508236E+00 0.12690333E+04</pdfrwt>
<pdfrwt beam="2">  1       -2 0.27614462E-01 0.12690333E+04</pdfrwt>
<totfact> 0.57515718E+01</totfact>
</mgrwt>
</event>
<event>
 6    1  0.9988873E-007  0.1335048E+04  0.7818608E-02  0.9002224E-01
          1   -1    0    0  501    0  0.00000000000E+00  0.00000000000E+00  0.49044095591E+03  0.49044095591E+03  0.00000000000E+00 0. -1.
         -1   -1    0    0    0  501 -0.00000000000E+00 -0.00000000000E+00 -0.90854634031E+03  0.90854634031E+03  0.00000000000E+00 0.  1.
         23    2    1    2    0    0 -0.28944993163E+03 -0.33234825407E+03 -0.73055843959E+03  0.85874333595E+03  0.97405638771E+02 0.  0.
         11    1    3    3    0    0 -0.82087322329E+02 -0.15749032724E+03 -0.33417367799E+03  0.37843569958E+03  0.00000000000E+00 0. -1.
        -11    1    3    3    0    0 -0.20736260930E+03 -0.17485792683E+03 -0.39638476161E+03  0.48030763636E+03  0.00000000000E+00 0.  1.
         22    1    1    2    0    0  0.28944993163E+03  0.33234825407E+03  0.31245305520E+03  0.54024396027E+03  0.00000000000E+00 0. -1.
<mgrwt>
<rscale>  0 0.13350481E+04</rscale>
<asrwt>0</asrwt>
<pdfrwt beam="1">  1        1 0.75452455E-01 0.13350481E+04</pdfrwt>
<pdfrwt beam="2">  1       -1 0.13977636E+00 0.13350481E+04</pdfrwt>
<totfact> 0.18779048E+01</totfact>
</mgrwt>
</event>
<event>
 6    1  0.9988873E-007  0.1373126E+04  0.7818608E-02  0.8973504E-01
          2   -1    0    0  501    0  0.00000000000E+00  0.00000000000E+00  0.61453151917E+03  0.61453151917E+03  0.00000000000E+00 0. -1.
         -2   -1    0    0    0  501 -0.00000000000E+00 -0.00000000000E+00 -0.76703795679E+03  0.76703795679E+03  0.00000000000E+00 0.  1.
         23    2    1    2    0    0  0.66498134462E+03  0.15798408262E+03 -0.66571775578E+02  0.69269798926E+03  0.90771933770E+02 0.  0.
         13    1    3    3    0    0  0.18134049483E+03  0.70779690775E+01  0.16656688993E+01  0.18148621756E+03  0.00000000000E+00 0. -1.
        -13    1    3    3    0    0  0.48364084979E+03  0.15090611354E+03 -0.68237444477E+02  0.51121177169E+03  0.00000000000E+00 0.  1.
         22    1    1    2    0    0 -0.66498134462E+03 -0.15798408262E+03 -0.85934662036E+02  0.68887148671E+03  0.00000000000E+00 0.  1.
<mgrwt>
<rscale>  0 0.13731264E+04</rscale>
<asrwt>0</asrwt>
<pdfrwt beam="1">  1        2 0.94543311E-01 0.13731264E+04</pdfrwt>
<pdfrwt beam="2">  1       -2 0.11800584E+00 0.13731264E+04</pdfrwt>
<totfact> 0.25999495E+01</totfact>
</mgrwt>
</event>
<event>
 6    1  0.9988873E-007  0.9926907E+03  0.7818608E-02  0.9316598E-01
          2   -1    0    0  501    0  0.00000000000E+00  0.00000000000E+00  0.11646621150E+04  0.11646621150E+04  0.00000000000E+00 0. -1.
         -2   -1    0    0    0  501 -0.00000000000E+00 -0.00000000000E+00 -0.21152806470E+03  0.21152806470E+03  0.00000000000E+00 0.  1.
         23    2    1    2    0    0 -0.32269987830E+03  0.49329772383E+02  0.99130589600E+03  0.10475175041E+04  0.89648781308E+02 0.  0.
         11    1    3    3    0    0 -0.19523042484E+03  0.72268930279E+02  0.57466531950E+03  0.61121023102E+03  0.00000000000E+00 0.  1.
        -11    1    3    3    0    0 -0.12746945346E+03 -0.22939157896E+02  0.41664057650E+03  0.43630727305E+03  0.00000000000E+00 0. -1.
         22    1    1    2    0    0  0.32269987830E+03 -0.49329772383E+02 -0.38171845696E+02  0.32867267563E+03  0.00000000000E+00 0.  1.
<mgrwt>
<rscale>  0 0.99269073E+03</rscale>
<asrwt>0</asrwt>
<pdfrwt beam="1">  1        2 0.17917878E+00 0.99269073E+03</pdfrwt>
<pdfrwt beam="2">  1       -2 0.32542780E-01 0.99269073E+03</pdfrwt>
<totfact> 0.17457056E+02</totfact>
</mgrwt>
</event>
<event>
 6    1  0.9988873E-007  0.5047898E+04  0.7818608E-02  0.7821161E-01
          2   -1    0    0  501    0  0.00000000000E+00  0.00000000000E+00  0.22043440015E+04  0.22043440015E+04  0.00000000000E+00 0. -1.
         -2   -1    0    0    0  501 -0.00000000000E+00 -0.00000000000E+00 -0.28898928424E+04  0.28898928424E+04  0.00000000000E+00 0.  1.
         23    2    1    2    0    0 -0.35614469940E+03 -0.28955448433E+03 -0.28466782753E+04  0.28849018130E+04  0.91653813532E+02 0.  0.
         13    1    3    3    0    0 -0.65540500557E+02 -0.58595990937E+02 -0.35496142487E+03  0.36568656048E+03  0.00000000000E+00 0. -1.
        -13    1    3    3    0    0 -0.29060419885E+03 -0.23095849340E+03 -0.24917168504E+04  0.25192152526E+04  0.00000000000E+00 0.  1.
         22    1    1    2    0    0  0.35614469940E+03  0.28955448433E+03  0.21611294344E+04  0.22093350308E+04  0.00000000000E+00 0. -1.
<mgrwt>
<rscale>  0 0.50478978E+04</rscale>
<asrwt>0</asrwt>
<pdfrwt beam="1">  1        2 0.33912985E+00 0.50478978E+04</pdfrwt>
<pdfrwt beam="2">  1       -2 0.44459890E+00 0.50478978E+04</pdfrwt>
<totfact> 0.14070167E-02</totfact>
</mgrwt>
</event>
<event>
 6    1  0.9988873E-007  0.3823452E+04  0.7818608E-02  0.8041141E-01
         -2   -1    0    0    0  501 -0.00000000000E+00  0.00000000000E+00  0.23032298116E+04  0.23032298116E+04  0.00000000000E+00 0.  1.
          2   -1    0    0  501    0  0.00000000000E+00 -0.00000000000E+00 -0.15867702817E+04  0.15867702817E+04  0.00000000000E+00 0. -1.
         23    2    1    2    0    0  0.10870957601E+04 -0.57817751591E+02 -0.12390817278E+04  0.16518620960E+04  0.90580196576E+02 0.  0.
         13    1    3    3    0    0  0.54830638401E+03 -0.74242680065E+02 -0.62017937219E+03  0.83112834146E+03  0.00000000000E+00 0.  1.
        -13    1    3    3    0    0  0.53878937611E+03  0.16424928473E+02 -0.61890235560E+03  0.82073375455E+03  0.00000000000E+00 0. -1.
         22    1    1    2    0    0 -0.10870957601E+04  0.57817751591E+02  0.19555412577E+04  0.22381379973E+04  0.00000000000E+00 0.  1.
<mgrwt>
<rscale>  0 0.38234522E+04</rscale>
<asrwt>0</asrwt>
<pdfrwt beam="1">  1        2 0.24411851E+00 0.38234522E+04</pdfrwt>
<pdfrwt beam="2">  1       -2 0.35434305E+00 0.38234522E+04</pdfrwt>
<totfact> 0.13254455E-01</totfact>
</mgrwt>
</event>
<event>
 6    1  0.9988873E-007  0.1690681E+04  0.7818608E-02  0.8766697E-01
         -1   -1    0    0    0  501 -0.00000000000E+00  0.00000000000E+00  0.14167282406E+04  0.14167282406E+04  0.00000000000E+00 0.  1.
          1   -1    0    0  501    0  0.00000000000E+00 -0.00000000000E+00 -0.50440184622E+03  0.50440184622E+03  0.00000000000E+00 0. -1.
         23    2    1    2    0    0 -0.12681143388E+03  0.78471271027E+03  0.77702561188E+03  0.11148041731E+04  0.84642574046E+02 0.  0.
         13    1    3    3    0    0 -0.46544048400E+02  0.29457432309E+03  0.34976489821E+03  0.45964754354E+03  0.00000000000E+00 0.  1.
        -13    1    3    3    0    0 -0.80267385480E+02  0.49013838718E+03  0.42726071367E+03  0.65515662952E+03  0.00000000000E+00 0. -1.
         22    1    1    2    0    0  0.12681143388E+03 -0.78471271027E+03  0.13530078247E+03  0.80632591373E+03  0.00000000000E+00 0. -1.
<mgrwt>
<rscale>  0 0.16906807E+04</rscale>
<asrwt>0</asrwt>
<pdfrwt beam="1">  1        1 0.77600284E-01 0.16906807E+04</pdfrwt>
<pdfrwt beam="2">  1       -1 0.21795819E+00 0.16906807E+04</pdfrwt>
<totfact> 0.47357737E+00</totfact>
</mgrwt>
</event>
<event>
 6    1  0.9988873E-007  0.3256025E+04  0.7818608E-02  0.8174176E-01
          2   -1    0    0  501    0  0.00000000000E+00  0.00000000000E+00  0.27980254274E+04  0.27980254274E+04  0.00000000000E+00 0. -1.
         -2   -1    0    0    0  501 -0.00000000000E+00 -0.00000000000E+00 -0.94724817769E+03  0.94724817769E+03  0.00000000000E+00 0.  1.
         23    2    1    2    0    0 -0.10008018386E+03 -0.15804632219E+04  0.49804253446E+03  0.16625419256E+04  0.90106875488E+02 0.  0.
         13    1    3    3    0    0 -0.73596505712E+02 -0.61410083677E+03  0.16603018723E+03  0.64039230667E+03  0.00000000000E+00 0.  1.
        -13    1    3    3    0    0 -0.26483678147E+02 -0.96636238517E+03  0.33201234723E+03  0.10221496189E+04  0.00000000000E+00 0. -1.
         22    1    1    2    0    0  0.10008018386E+03  0.15804632219E+04  0.13527347153E+04  0.20827316796E+04  0.00000000000E+00 0. -1.
<mgrwt>
<rscale>  0 0.32560249E+04</rscale>
<asrwt>0</asrwt>
<pdfrwt beam="1">  1        2 0.43046545E+00 0.32560249E+04</pdfrwt>
<pdfrwt beam="2">  1       -2 0.14573049E+00 0.32560249E+04</pdfrwt>
<totfact> 0.62821241E-01</totfact>
</mgrwt>
</event>
<event>
 6    1  0.9988873E-007  0.6998976E+03  0.7818608E-02  0.9717407E-01
          1   -1    0    0  501    0  0.00000000000E+00  0.00000000000E+00  0.34788623570E+03  0.34788623570E+03  0.00000000000E+00 0. -1.
         -1   -1    0    0    0  501 -0.00000000000E+00 -0.00000000000E+00 -0.35202357385E+03  0.35202357385E+03  0.00000000000E+00 0.  1.
         23    2    1    2    0    0  0.35427057134E+02 -0.14902939383E+03  0.30588233871E+03  0.35411068196E+03  0.91463289575E+02 0.  0.
         11    1    3    3    0    0  0.29794452811E+02 -0.34631766417E+01  0.31763658309E+02  0.43687904503E+02  0.00000000000E+00 0.  1.
        -11    1    3    3    0    0  0.56326043233E+01 -0.14556621719E+03  0.27411868040E+03  0.31042277745E+03  0.00000000000E+00 0. -1.
         22    1    1    2    0    0 -0.35427057134E+02  0.14902939383E+03 -0.31001967686E+03  0.34579912759E+03  0.00000000000E+00 0.  1.
<mgrwt>
<rscale>  0 0.69989758E+03</rscale>
<asrwt>0</asrwt>
<pdfrwt beam="1">  1        1 0.53520959E-01 0.69989758E+03</pdfrwt>
<pdfrwt beam="2">  1       -1 0.54157473E-01 0.69989758E+03</pdfrwt>
<totfact> 0.25200414E+02</totfact>
</mgrwt>
</event>
<event>
 6    1  0.9988873E-007  0.3818996E+03  0.7818608E-02  0.1050234E+00
         -1   -1    0    0    0  501 -0.00000000000E+00  0.00000000000E+00  0.23388715424E+03  0.23388715424E+03  0.00000000000E+00 0.  1.
          1   -1    0    0  501    0  0.00000000000E+00 -0.00000000000E+00 -0.15589491796E+03  0.15589491796E+03  0.00000000000E+00 0. -1.
         23    2    1    2    0    0 -0.71890444361E+02  0.65592796112E+02  0.19560015787E+03  0.23713124805E+03  0.92201714479E+02 0.  0.
         11    1    3    3    0    0 -0.64408690352E+02  0.74787736984E+02  0.98960246741E+02  0.13976700409E+03  0.00000000000E+00 0. -1.
        -11    1    3    3    0    0 -0.74817540083E+01 -0.91949408714E+01  0.96639911126E+02  0.97364243966E+02  0.00000000000E+00 0.  1.
         22    1    1    2    0    0  0.71890444361E+02 -0.65592796112E+02 -0.11760792159E+03  0.15265082414E+03  0.00000000000E+00 0. -1.
<mgrwt>
<rscale>  0 0.38189956E+03</rscale>
<asrwt>0</asrwt>
<pdfrwt beam="1">  1        1 0.23983834E-01 0.38189956E+03</pdfrwt>
<pdfrwt beam="2">  1       -1 0.35982639E-01 0.38189956E+03</pdfrwt>
<totfact> 0.15105266E+03</totfact>
</mgrwt>
</event>
<event>
 6    1  0.9988873E-007  0.4313419E+04  0.7818608E-02  0.7944141E-01
         -2   -1    0    0    0  501 -0.00000000000E+00  0.00000000000E+00  0.28598242157E+04  0.28598242157E+04  0.00000000000E+00 0.  1.
          2   -1    0    0  501    0  0.00000000000E+00 -0.00000000000E+00 -0.16264624661E+04  0.16264624661E+04  0.00000000000E+00 0. -1.
         23    2    1    2    0    0  0.11789811060E+04 -0.82394547223E+03  0.22870884398E+04  0.27032492377E+04  0.88883746654E+02 0.  0.
         13    1    3    3    0    0  0.72942229757E+03 -0.55743717846E+03  0.14247799747E+04  0.16949309934E+04  0.00000000000E+00 0.  1.
        -13    1    3    3    0    0  0.44955880838E+03 -0.26650829377E+03  0.86230846507E+03  0.10083182443E+04  0.00000000000E+00 0. -1.
         22    1    1    2    0    0 -0.11789811060E+04  0.82394547223E+03 -0.10537266901E+04  0.17830374441E+04  0.00000000000E+00 0. -1.
<mgrwt>
<rscale>  0 0.43134194E+04</rscale>
<asrwt>0</asrwt>
<pdfrwt beam="1">  1        2 0.25022500E+00 0.43134194E+04</pdfrwt>
<pdfrwt beam="2">  1       -2 0.43997295E+00 0.43134194E+04</pdfrwt>
<totfact> 0.33543773E-02</totfact>
</mgrwt>
</event>
<event>
 6    1  0.9988873E-007  0.1619511E+04  0.7818608E-02  0.8808651E-01
         -2   -1    0    0    0  501 -0.00000000000E+00  0.00000000000E+00  0.24431499154E+03  0.24431499154E+03  0.00000000000E+00 0.  1.
          2   -1    0    0  501    0  0.00000000000E+00 -0.00000000000E+00 -0.26838461867E+04  0.26838461867E+04  0.00000000000E+00 0. -1.
         23    2    1    2    0    0  0.26037971003E+03 -0.51336954760E+03 -0.20021598525E+03  0.61604558961E+03  0.89887940978E+02 0.  0.
         13    1    3    3    0    0  0.15563395178E+03 -0.21712955557E+03 -0.11208390364E+03  0.28970670048E+03  0.00000000000E+00 0. -1.
        -13    1    3    3    0    0  0.10474575825E+03 -0.29623999204E+03 -0.88132081601E+02  0.32633888913E+03  0.00000000000E+00 0.  1.
         22    1    1    2    0    0 -0.26037971003E+03  0.51336954760E+03 -0.22393152099E+04  0.23121155886E+04  0.00000000000E+00 0. -1.
<mgrwt>
<rscale>  0 0.16195109E+04</rscale>
<asrwt>0</asrwt>
<pdfrwt beam="1">  1        2 0.41289943E+00 0.16195109E+04</pdfrwt>
<pdfrwt beam="2">  1       -2 0.37586920E-01 0.16195109E+04</pdfrwt>
<totfact> 0.17413117E+01</totfact>
</mgrwt>
</event>
<event>
 6    1  0.9988873E-007  0.3062254E+04  0.7818608E-02  0.8226174E-01
         -1   -1    0    0    0  501 -0.00000000000E+00  0.00000000000E+00  0.87212968560E+03  0.87212968560E+03  0.00000000000E+00 0.  1.
          1   -1    0    0  501    0  0.00000000000E+00 -0.00000000000E+00 -0.26880749102E+04  0.26880749102E+04  0.00000000000E+00 0. -1.
         23    2    1    2    0    0 -0.14426492479E+04 -0.28220628536E+03 -0.14008885456E+04  0.20327396087E+04  0.93082543451E+02 0.  0.
         13    1    3    3    0    0 -0.81617263455E+03 -0.11689057132E+03 -0.75772188567E+03  0.11197962453E+04  0.00000000000E+00 0. -1.
        -13    1    3    3    0    0 -0.62647661336E+03 -0.16531571405E+03 -0.64316665989E+03  0.91294336340E+03  0.00000000000E+00 0.  1.
         22    1    1    2    0    0  0.14426492479E+04  0.28220628536E+03 -0.41505667908E+03  0.15274649871E+04  0.00000000000E+00 0.  1.
<mgrwt>
<rscale>  0 0.30622540E+04</rscale>
<asrwt>0</asrwt>
<pdfrwt beam="1">  1        1 0.41354998E+00 0.30622540E+04</pdfrwt>
<pdfrwt beam="2">  1       -1 0.13417380E+00 0.30622540E+04</pdfrwt>
<totfact> 0.39616227E-01</totfact>
</mgrwt>
</event>
<event>
 6    1  0.9988873E-007  0.3611269E+04  0.7818608E-02  0.8087915E-01
         -1   -1    0    0    0  501 -0.00000000000E+00  0.00000000000E+00  0.15816622950E+04  0.15816622950E+04  0.00000000000E+00 0.  1.
          1   -1    0    0  501    0  0.00000000000E+00 -0.00000000000E+00 -0.20613222878E+04  0.20613222878E+04  0.00000000000E+00 0. -1.
         23    2    1    2    0    0  0.11357844333E+04  0.13566802494E+04  0.11766330847E+03  0.17755310481E+04  0.89879199829E+02 0.  0.
         13    1    3    3    0    0  0.10411559187E+04  0.12701715385E+04  0.93159625050E+02  0.16449985106E+04  0.00000000000E+00 0. -1.
        -13    1    3    3    0    0  0.94628514569E+02  0.86508710949E+02  0.24503683419E+02  0.13053253748E+03  0.00000000000E+00 0.  1.
         22    1    1    2    0    0 -0.11357844333E+04 -0.13566802494E+04 -0.59732330121E+03  0.18674535347E+04  0.00000000000E+00 0.  1.
<mgrwt>
<rscale>  0 0.36112689E+04</rscale>
<asrwt>0</asrwt>
<pdfrwt beam="1">  1        1 0.31712650E+00 0.36112689E+04</pdfrwt>
<pdfrwt beam="2">  1       -1 0.24333266E+00 0.36112689E+04</pdfrwt>
<totfact> 0.16872102E-01</totfact>
</mgrwt>
</event>
<event>
 6    1  0.9988873E-007  0.1795707E+04  0.7818608E-02  0.8708586E-01
         -1   -1    0    0    0  501 -0.00000000000E+00  0.00000000000E+00  0.28393891777E+03  0.28393891777E+03  0.00000000000E+00 0.  1.
          1   -1    0    0  501    0  0.00000000000E+00 -0.00000000000E+00 -0.28391362078E+04  0.28391362078E+04  0.00000000000E+00 0. -1.
         23    2    1    2    0    0  0.68062850876E+03  0.52172661900E+03 -0.83175905554E+03  0.11980574166E+04  0.89803201431E+02 0.  0.
         11    1    3    3    0    0  0.42968711720E+03  0.27650046777E+03 -0.47414457387E+03  0.69706284099E+03  0.00000000000E+00 0. -1.
        -11    1    3    3    0    0  0.25094139157E+03  0.24522615123E+03 -0.35761448167E+03  0.50099457557E+03  0.00000000000E+00 0.  1.
         22    1    1    2    0    0 -0.68062850876E+03 -0.52172661900E+03 -0.17234382345E+04  0.19250177090E+04  0.00000000000E+00 0. -1.
<mgrwt>
<rscale>  0 0.17957074E+04</rscale>
<asrwt>0</asrwt>
<pdfrwt beam="1">  1        1 0.43679020E+00 0.17957074E+04</pdfrwt>
<pdfrwt beam="2">  1       -1 0.43682909E-01 0.17957074E+04</pdfrwt>
<totfact> 0.38272509E+00</totfact>
</mgrwt>
</event>
<event>
 6    1  0.9988873E-007  0.1529965E+04  0.7818608E-02  0.8864768E-01
         -2   -1    0    0    0  501 -0.00000000000E+00  0.00000000000E+00  0.47786774409E+03  0.47786774409E+03  0.00000000000E+00 0.  1.
          2   -1    0    0  501    0  0.00000000000E+00 -0.00000000000E+00 -0.12246022719E+04  0.12246022719E+04  0.00000000000E+00 0. -1.
         23    2    1    2    0    0 -0.37664669912E+03  0.96254552907E+01  0.36279823375E+03  0.53071136578E+03  0.89869961672E+02 0.  0.
         11    1    3    3    0    0 -0.20673101593E+03  0.27131909123E+02  0.25214986485E+03  0.32719017067E+03  0.00000000000E+00 0.  1.
        -11    1    3    3    0    0 -0.16991568319E+03 -0.17506453832E+02  0.11064836890E+03  0.20352119511E+03  0.00000000000E+00 0. -1.
         22    1    1    2    0    0  0.37664669912E+03 -0.96254552907E+01 -0.11095327616E+04  0.11717586502E+04  0.00000000000E+00 0. -1.
<mgrwt>
<rscale>  0 0.15299646E+04</rscale>
<asrwt>0</asrwt>
<pdfrwt beam="1">  1        2 0.18840035E+00 0.15299646E+04</pdfrwt>
<pdfrwt beam="2">  1       -2 0.73518115E-01 0.15299646E+04</pdfrwt>
<totfact> 0.29464324E+01</totfact>
</mgrwt>
</event>
<event>
 6    1  0.9988873E-007  0.5260425E+04  0.7818608E-02  0.7789543E-01
          2   -1    0    0  501    0  0.00000000000E+00  0.00000000000E+00  0.19336595465E+04  0.19336595465E+04  0.00000000000E+00 0. -1.
         -2   -1    0    0    0  501 -0.00000000000E+00 -0.00000000000E+00 -0.35776818498E+04  0.35776818498E+04  0.00000000000E+00 0.  1.
         23    2    1    2    0    0  0.18374965164E+04 -0.75874144534E+03  0.98094312474E+03  0.22185423550E+04  0.87170740947E+02 0.  0.
         11    1    3    3    0    0  0.11217934265E+04 -0.41734364035E+03  0.58459986091E+03  0.13320484988E+04  0.00000000000E+00 0.  1.
        -11    1    3    3    0    0  0.71570308991E+03 -0.34139780498E+03  0.39634326383E+03  0.88649385612E+03  0.00000000000E+00 0. -1.
         22    1    1    2    0    0 -0.18374965164E+04  0.75874144534E+03 -0.26249654280E+04  0.32927990414E+04  0.00000000000E+00 0.  1.
<mgrwt>
<rscale>  0 0.52604253E+04</rscale>
<asrwt>0</asrwt>
<pdfrwt beam="1">  1        2 0.29748609E+00 0.52604253E+04</pdfrwt>
<pdfrwt beam="2">  1       -2 0.55041258E+00 0.52604253E+04</pdfrwt>
<totfact> 0.44615551E-03</totfact>
</mgrwt>
</event>
<event>
 6    1  0.9988873E-007  0.3712253E+04  0.7818608E-02  0.8065252E-01
          2   -1    0    0  501    0  0.00000000000E+00  0.00000000000E+00  0.18032705296E+04  0.18032705296E+04  0.00000000000E+00 0. -1.
         -2   -1    0    0    0  501 -0.00000000000E+00 -0.00000000000E+00 -0.19105319779E+04  0.19105319779E+04  0.00000000000E+00 0.  1.
         23    2    1    2    0    0  0.65428454452E+03  0.16559880233E+04  0.46664255458E+03  0.18430405229E+04  0.93051044259E+02 0.  0.
         13    1    3    3    0    0  0.60303569267E+03  0.14442545789E+04  0.41387722195E+03  0.16188939712E+04  0.00000000000E+00 0. -1.
        -13    1    3    3    0    0  0.51248851855E+02  0.21173344440E+03  0.52765332632E+02  0.22414655166E+03  0.00000000000E+00 0.  1.
         22    1    1    2    0    0 -0.65428454452E+03 -0.16559880233E+04 -0.57390400292E+03  0.18707619846E+04  0.00000000000E+00 0.  1.
<mgrwt>
<rscale>  0 0.37122532E+04</rscale>
<asrwt>0</asrwt>
<pdfrwt beam="1">  1        2 0.27742624E+00 0.37122532E+04</pdfrwt>
<pdfrwt beam="2">  1       -2 0.29392800E+00 0.37122532E+04</pdfrwt>
<totfact> 0.24025336E-01</totfact>
</mgrwt>
</event>
<event>
 6    1  0.9988873E-007  0.1409781E+04  0.7818608E-02  0.8946769E-01
         -2   -1    0    0    0  501 -0.00000000000E+00  0.00000000000E+00  0.26221131473E+03  0.26221131473E+03  0.00000000000E+00 0.  1.
          2   -1    0    0  501    0  0.00000000000E+00 -0.00000000000E+00 -0.18949254411E+04  0.18949254411E+04  0.00000000000E+00 0. -1.
         23    2    1    2    0    0 -0.17917919577E+03  0.66296214291E+03 -0.59789630865E+03  0.91517383248E+03  0.91864904190E+02 0.  0.
         13    1    3    3    0    0 -0.16498084788E+03  0.47628271651E+03 -0.46297131741E+03  0.68440218217E+03  0.00000000000E+00 0. -1.
        -13    1    3    3    0    0 -0.14198347886E+02  0.18667942640E+03 -0.13492499124E+03  0.23077165030E+03  0.00000000000E+00 0.  1.
         22    1    1    2    0    0  0.17917919577E+03 -0.66296214291E+03 -0.10348178177E+04  0.12419629233E+04  0.00000000000E+00 0. -1.
<mgrwt>
<rscale>  0 0.14097814E+04</rscale>
<asrwt>0</asrwt>
<pdfrwt beam="1">  1        2 0.29152700E+00 0.14097814E+04</pdfrwt>
<pdfrwt beam="2">  1       -2 0.40340201E-01 0.14097814E+04</pdfrwt>
<totfact> 0.43250762E+01</totfact>
</mgrwt>
</event>
<event>
 6    1  0.9988873E-007  0.4703491E+04  0.7818608E-02  0.7875949E-01
         -2   -1    0    0    0  501 -0.00000000000E+00  0.00000000000E+00  0.16940674420E+04  0.16940674420E+04  0.00000000000E+00 0.  1.
          2   -1    0    0  501    0  0.00000000000E+00 -0.00000000000E+00 -0.32647497981E+04  0.32647497981E+04  0.00000000000E+00 0. -1.
         23    2    1    2    0    0  0.13074798714E+04 -0.87786360690E+03  0.10543720785E+04  0.18975987064E+04  0.95038120127E+02 0.  0.
         13    1    3    3    0    0  0.10828395007E+04 -0.68562685002E+03  0.83992235148E+03  0.15323495418E+04  0.00000000000E+00 0.  1.
        -13    1    3    3    0    0  0.22464037074E+03 -0.19223675687E+03  0.21444972698E+03  0.36524916463E+03  0.00000000000E+00 0. -1.
         22    1    1    2    0    0 -0.13074798714E+04  0.87786360690E+03 -0.26250544346E+04  0.30612185337E+04  0.00000000000E+00 0. -1.
<mgrwt>
<rscale>  0 0.47034908E+04</rscale>
<asrwt>0</asrwt>
<pdfrwt beam="1">  1        2 0.50226920E+00 0.47034908E+04</pdfrwt>
<pdfrwt beam="2">  1       -2 0.26062576E+00 0.47034908E+04</pdfrwt>
<totfact> 0.48404779E-02</totfact>
</mgrwt>
</event>
<event>
 6    1  0.9988873E-007  0.2868132E+04  0.7818608E-02  0.8282423E-01
         -2   -1    0    0    0  501 -0.00000000000E+00  0.00000000000E+00  0.12698717167E+04  0.12698717167E+04  0.00000000000E+00 0.  1.
          2   -1    0    0  501    0  0.00000000000E+00 -0.00000000000E+00 -0.16194905990E+04  0.16194905990E+04  0.00000000000E+00 0. -1.
         23    2    1    2    0    0 -0.12138334604E+04  0.65881801823E+03  0.20856271281E+03  0.13997316421E+04  0.91199857480E+02 0.  0.
         11    1    3    3    0    0 -0.10828959056E+04  0.55567646475E+03  0.19258120278E+03  0.12322854359E+04  0.00000000000E+00 0.  1.
        -11    1    3    3    0    0 -0.13093755476E+03  0.10314155349E+03  0.15981510030E+02  0.16744620618E+03  0.00000000000E+00 0. -1.
         22    1    1    2    0    0  0.12138334604E+04 -0.65881801823E+03 -0.55818159510E+03  0.14896306736E+04  0.00000000000E+00 0. -1.
<mgrwt>
<rscale>  0 0.28681320E+04</rscale>
<asrwt>0</asrwt>
<pdfrwt beam="1">  1        2 0.24915240E+00 0.28681320E+04</pdfrwt>
<pdfrwt beam="2">  1       -2 0.19536488E+00 0.28681320E+04</pdfrwt>
<totfact> 0.13432429E+00</totfact>
</mgrwt>
</event>
<event>
 6    1  0.9988873E-007  0.2016106E+04  0.7818608E-02  0.8599127E-01
          1   -1    0    0  501    0  0.00000000000E+00  0.00000000000E+00  0.46645428756E+04  0.46645428756E+04  0.00000000000E+00 0. -1.
         -1   -1    0    0    0  501 -0.00000000000E+00 -0.00000000000E+00 -0.21785003683E+03  0.21785003683E+03  0.00000000000E+00 0.  1.
         23    2    1    2    0    0 -0.14142725157E+03  0.52505692087E+03  0.42775821340E+04  0.43129327574E+04  0.89407043494E+02 0.  0.
         11    1    3    3    0    0 -0.27873275278E+02  0.15457291383E+03  0.15552368020E+04  0.15631478546E+04  0.00000000000E+00 0. -1.
        -11    1    3    3    0    0 -0.11355397630E+03  0.37048400704E+03  0.27223453320E+04  0.27497849028E+04  0.00000000000E+00 0.  1.
         22    1    1    2    0    0  0.14142725157E+03 -0.52505692087E+03  0.16911070476E+03  0.56946015498E+03  0.00000000000E+00 0.  1.
<mgrwt>
<rscale>  0 0.20161060E+04</rscale>
<asrwt>0</asrwt>
<pdfrwt beam="1">  1        1 0.71762191E+00 0.20161060E+04</pdfrwt>
<pdfrwt beam="2">  1       -1 0.33515394E-01 0.20161060E+04</pdfrwt>
<totfact> 0.17006130E-01</totfact>
</mgrwt>
</event>
<event>
 6    1  0.9988873E-007  0.1323791E+04  0.7818608E-02  0.9010909E-01
         -1   -1    0    0    0  501 -0.00000000000E+00  0.00000000000E+00  0.24212524244E+03  0.24212524244E+03  0.00000000000E+00 0.  1.
          1   -1    0    0  501    0  0.00000000000E+00 -0.00000000000E+00 -0.18094162759E+04  0.18094162759E+04  0.00000000000E+00 0. -1.
         23    2    1    2    0    0  0.21944752870E+03  0.51849511263E+03 -0.25796568383E+03  0.62629512881E+03  0.93300025017E+02 0.  0.
         13    1    3    3    0    0  0.11711503169E+03  0.17017922630E+03 -0.11220648964E+03  0.23508976164E+03  0.00000000000E+00 0.  1.
        -13    1    3    3    0    0  0.10233249701E+03  0.34831588632E+03 -0.14575919419E+03  0.39120536717E+03  0.00000000000E+00 0. -1.
         22    1    1    2    0    0 -0.21944752870E+03 -0.51849511263E+03 -0.13093253496E+04  0.14252463895E+04  0.00000000000E+00 0. -1.
<mgrwt>
<rscale>  0 0.13237905E+04</rscale>
<asrwt>0</asrwt>
<pdfrwt beam="1">  1        1 0.27837174E+00 0.13237905E+04</pdfrwt>
<pdfrwt beam="2">  1       -1 0.37250037E-01 0.13237905E+04</pdfrwt>
<totfact> 0.27317797E+01</totfact>
</mgrwt>
</event>
<event>
 6    1  0.9988873E-007  0.1881071E+04  0.7818608E-02  0.8664336E-01
          1   -1    0    0  501    0  0.00000000000E+00  0.00000000000E+00  0.78127132485E+03  0.78127132485E+03  0.00000000000E+00 0. -1.
         -1   -1    0    0    0  501 -0.00000000000E+00 -0.00000000000E+00 -0.11322666315E+04  0.11322666315E+04  0.00000000000E+00 0.  1.
         23    2    1    2    0    0  0.55127808334E+02 -0.50852177226E+03 -0.97602589827E+03  0.11058890793E+04  0.93437859632E+02 0.  0.
         11    1    3    3    0    0  0.74887200230E+02 -0.29382255691E+03 -0.53393545618E+03  0.61402512902E+03  0.00000000000E+00 0. -1.
        -11    1    3    3    0    0 -0.19759391896E+02 -0.21469921535E+03 -0.44209044210E+03  0.49186395033E+03  0.00000000000E+00 0.  1.
         22    1    1    2    0    0 -0.55127808334E+02  0.50852177226E+03  0.62503059161E+03  0.80764887702E+03  0.00000000000E+00 0. -1.
<mgrwt>
<rscale>  0 0.18810715E+04</rscale>
<asrwt>0</asrwt>
<pdfrwt beam="1">  1        1 0.12019559E+00 0.18810715E+04</pdfrwt>
<pdfrwt beam="2">  1       -1 0.17419487E+00 0.18810715E+04</pdfrwt>
<totfact> 0.49335601E+00</totfact>
</mgrwt>
</event>
<event>
 6    1  0.9988873E-007  0.1350024E+04  0.7818608E-02  0.8990810E-01
          4   -1    0    0  501    0  0.00000000000E+00  0.00000000000E+00  0.53112904126E+03  0.53112904126E+03  0.00000000000E+00 0. -1.
         -4   -1    0    0    0  501 -0.00000000000E+00 -0.00000000000E+00 -0.85787265360E+03  0.85787265360E+03  0.00000000000E+00 0.  1.
         23    2    1    2    0    0 -0.13275180176E+03  0.65713428618E+03 -0.11670524121E+03  0.68646014570E+03  0.90326670311E+02 0.  0.
         13    1    3    3    0    0 -0.70865730193E+02  0.34298678278E+03 -0.15162815404E+02  0.35055926154E+03  0.00000000000E+00 0. -1.
        -13    1    3    3    0    0 -0.61886071565E+02  0.31414750340E+03 -0.10154242580E+03  0.33590088417E+03  0.00000000000E+00 0.  1.
         22    1    1    2    0    0  0.13275180176E+03 -0.65713428618E+03 -0.21003837114E+03  0.70254154916E+03  0.00000000000E+00 0.  1.
<mgrwt>
<rscale>  0 0.13500238E+04</rscale>
<asrwt>0</asrwt>
<pdfrwt beam="1">  1        4 0.81712161E-01 0.13500238E+04</pdfrwt>
<pdfrwt beam="2">  1       -4 0.13198041E+00 0.13500238E+04</pdfrwt>
<totfact> 0.10736197E+00</totfact>
</mgrwt>
</event>
<event>
 6    1  0.9988873E-007  0.2266948E+04  0.7818608E-02  0.8491068E-01
          1   -1    0    0  501    0  0.00000000000E+00  0.00000000000E+00  0.13020547678E+04  0.13020547678E+04  0.00000000000E+00 0. -1.
         -1   -1    0    0    0  501 -0.00000000000E+00 -0.00000000000E+00 -0.98671963373E+03  0.98671963373E+03  0.00000000000E+00 0.  1.
         23    2    1    2    0    0  0.11029133440E+04  0.20793494213E+03  0.11926476174E+02  0.11261430763E+04  0.91658076456E+02 0.  0.
         11    1    3    3    0    0  0.62374150545E+03  0.15600189174E+03 -0.18341335423E+02  0.64321571843E+03  0.00000000000E+00 0.  1.
        -11    1    3    3    0    0  0.47917183856E+03  0.51933050386E+02  0.30267811597E+02  0.48292735790E+03  0.00000000000E+00 0. -1.
         22    1    1    2    0    0 -0.11029133440E+04 -0.20793494213E+03  0.30340865785E+03  0.11626313252E+04  0.00000000000E+00 0.  1.
<mgrwt>
<rscale>  0 0.22669477E+04</rscale>
<asrwt>0</asrwt>
<pdfrwt beam="1">  1        1 0.20031612E+00 0.22669477E+04</pdfrwt>
<pdfrwt beam="2">  1       -1 0.15180302E+00 0.22669477E+04</pdfrwt>
<totfact> 0.27606039E+00</totfact>
</mgrwt>
</event>
<event>
 6    1  0.9988873E-007  0.4974799E+03  0.7818608E-02  0.1014439E+00
          1   -1    0    0  501    0  0.00000000000E+00  0.00000000000E+00  0.35692713471E+03  0.35692713471E+03  0.00000000000E+00 0. -1.
         -1   -1    0    0    0  501 -0.00000000000E+00 -0.00000000000E+00 -0.17334511031E+03  0.17334511031E+03  0.00000000000E+00 0.  1.
         23    2    1    2    0    0  0.57255221334E+02  0.23173623788E+03  0.60754500450E+02  0.26182030341E+03  0.88763267399E+02 0.  0.
         11    1    3    3    0    0  0.51293128062E+02  0.11837683187E+03  0.72009110752E+02  0.14774766104E+03  0.00000000000E+00 0. -1.
        -11    1    3    3    0    0  0.59620932723E+01  0.11335940600E+03 -0.11254610302E+02  0.11407264237E+03  0.00000000000E+00 0.  1.
         22    1    1    2    0    0 -0.57255221334E+02 -0.23173623788E+03  0.12282752395E+03  0.26845194161E+03  0.00000000000E+00 0. -1.
<mgrwt>
<rscale>  0 0.49747994E+03</rscale>
<asrwt>0</asrwt>
<pdfrwt beam="1">  1        1 0.54911867E-01 0.49747994E+03</pdfrwt>
<pdfrwt beam="2">  1       -1 0.26668479E-01 0.49747994E+03</pdfrwt>
<totfact> 0.87824293E+02</totfact>
</mgrwt>
</event>
<event>
 6    1  0.9988873E-007  0.1547525E+04  0.7818608E-02  0.8853450E-01
         -1   -1    0    0    0  501 -0.00000000000E+00  0.00000000000E+00  0.14698735383E+04  0.14698735383E+04  0.00000000000E+00 0.  1.
          1   -1    0    0  501    0  0.00000000000E+00 -0.00000000000E+00 -0.40731978865E+03  0.40731978865E+03  0.00000000000E+00 0. -1.
         23    2    1    2    0    0  0.73154900906E+03 -0.19211747342E+03  0.71496234693E+03  0.10447914652E+04  0.91350817631E+02 0.  0.
         11    1    3    3    0    0  0.41360907184E+03 -0.67580241427E+02  0.36353098072E+03  0.55479214782E+03  0.00000000000E+00 0. -1.
        -11    1    3    3    0    0  0.31793993722E+03 -0.12453723200E+03  0.35143136621E+03  0.48999931734E+03  0.00000000000E+00 0.  1.
         22    1    1    2    0    0 -0.73154900906E+03  0.19211747342E+03  0.34759140267E+03  0.83240186176E+03  0.00000000000E+00 0. -1.
<mgrwt>
<rscale>  0 0.15475252E+04</rscale>
<asrwt>0</asrwt>
<pdfrwt beam="1">  1        1 0.62664583E-01 0.15475252E+04</pdfrwt>
<pdfrwt beam="2">  1       -1 0.22613439E+00 0.15475252E+04</pdfrwt>
<totfact> 0.56513431E+00</totfact>
</mgrwt>
</event>
<event>
 6    1  0.9988873E-007  0.3356843E+04  0.7818608E-02  0.8148580E-01
          1   -1    0    0  501    0  0.00000000000E+00  0.00000000000E+00  0.23959984026E+04  0.23959984026E+04  0.00000000000E+00 0. -1.
         -1   -1    0    0    0  501 -0.00000000000E+00 -0.00000000000E+00 -0.11757517116E+04  0.11757517116E+04  0.00000000000E+00 0.  1.
         23    2    1    2    0    0 -0.80773077200E+03 -0.12117822970E+04 -0.27484914789E+03  0.14846092701E+04  0.87620176852E+02 0.  0.
         13    1    3    3    0    0 -0.75191897990E+02 -0.14896785815E+03 -0.51374380563E+02  0.17459831403E+03  0.00000000000E+00 0. -1.
        -13    1    3    3    0    0 -0.73253887401E+03 -0.10628144389E+04 -0.22347476733E+03  0.13100109561E+04  0.00000000000E+00 0.  1.
         22    1    1    2    0    0  0.80773077200E+03  0.12117822970E+04  0.14950958390E+04  0.20871408441E+04  0.00000000000E+00 0.  1.
<mgrwt>
<rscale>  0 0.33568433E+04</rscale>
<asrwt>0</asrwt>
<pdfrwt beam="1">  1        1 0.36861514E+00 0.33568433E+04</pdfrwt>
<pdfrwt beam="2">  1       -1 0.18088488E+00 0.33568433E+04</pdfrwt>
<totfact> 0.27069743E-01</totfact>
</mgrwt>
</event>
<event>
 6    1  0.1453924E-006  0.3133949E+04  0.7818608E-02  0.8206482E-01
          2   -1    0    0  501    0  0.00000000000E+00  0.00000000000E+00  0.15185564969E+04  0.15185564969E+04  0.00000000000E+00 0. -1.
         -2   -1    0    0    0  501 -0.00000000000E+00 -0.00000000000E+00 -0.16169364997E+04  0.16169364997E+04  0.00000000000E+00 0.  1.
         23    2    1    2    0    0 -0.19691386782E+03 -0.27777961065E+03 -0.15781968698E+04  0.16170087051E+04  0.89862165795E+02 0.  0.
         13    1    3    3    0    0 -0.19192984736E+03 -0.23250600073E+03 -0.12599621972E+04  0.12955311054E+04  0.00000000000E+00 0. -1.
        -13    1    3    3    0    0 -0.49840204635E+01 -0.45273609922E+02 -0.31823467265E+03  0.32147759968E+03  0.00000000000E+00 0.  1.
         22    1    1    2    0    0  0.19691386782E+03  0.27777961065E+03  0.14798168671E+04  0.15184842915E+04  0.00000000000E+00 0. -1.
<mgrwt>
<rscale>  0 0.31339492E+04</rscale>
<asrwt>0</asrwt>
<pdfrwt beam="1">  1        2 0.23362408E+00 0.31339492E+04</pdfrwt>
<pdfrwt beam="2">  1       -2 0.24875946E+00 0.31339492E+04</pdfrwt>
<totfact> 0.68615562E-01</totfact>
</mgrwt>
</event>
<event>
 6    1  0.9988873E-007  0.1630145E+04  0.7818608E-02  0.8802240E-01
          2   -1    0    0  501    0  0.00000000000E+00  0.00000000000E+00  0.21308082160E+04  0.21308082160E+04  0.00000000000E+00 0. -1.
         -2   -1    0    0    0  501 -0.00000000000E+00 -0.00000000000E+00 -0.31177980711E+03  0.31177980711E+03  0.00000000000E+00 0.  1.
         23    2    1    2    0    0  0.13620436872E+03 -0.53700017256E+03  0.21973199145E+02  0.56207526264E+03  0.92330731654E+02 0.  0.
         13    1    3    3    0    0  0.14666005099E+03 -0.43611830819E+03  0.22195249665E+02  0.46065277423E+03  0.00000000000E+00 0. -1.
        -13    1    3    3    0    0 -0.10455682269E+02 -0.10088186437E+03 -0.22205051970E+00  0.10142248842E+03  0.00000000000E+00 0.  1.
         22    1    1    2    0    0 -0.13620436872E+03  0.53700017256E+03  0.17970552097E+04  0.18805127605E+04  0.00000000000E+00 0. -1.
<mgrwt>
<rscale>  0 0.16301447E+04</rscale>
<asrwt>0</asrwt>
<pdfrwt beam="1">  1        2 0.32781664E+00 0.16301447E+04</pdfrwt>
<pdfrwt beam="2">  1       -2 0.47966126E-01 0.16301447E+04</pdfrwt>
<totfact> 0.22259049E+01</totfact>
</mgrwt>
</event>
<event>
 6    1  0.9988873E-007  0.2149097E+03  0.7818608E-02  0.1137736E+00
          2   -1    0    0  501    0  0.00000000000E+00  0.00000000000E+00  0.11928867467E+04  0.11928867467E+04  0.00000000000E+00 0. -1.
         -2   -1    0    0    0  501 -0.00000000000E+00 -0.00000000000E+00 -0.96795004078E+01  0.96795004078E+01  0.00000000000E+00 0.  1.
         23    2    1    2    0    0  0.27602732391E+02  0.36647183230E+02  0.11201853617E+04  0.11246131534E+04  0.88513125879E+02 0.  0.
         11    1    3    3    0    0 -0.32269726767E+02  0.80700253652E+01  0.39705261559E+03  0.39844352187E+03  0.00000000000E+00 0.  1.
        -11    1    3    3    0    0  0.59872459158E+02  0.28577157865E+02  0.72313274608E+03  0.72616963154E+03  0.00000000000E+00 0. -1.
         22    1    1    2    0    0 -0.27602732391E+02 -0.36647183230E+02  0.63021884580E+02  0.77953093653E+02  0.00000000000E+00 0.  1.
<mgrwt>
<rscale>  0 0.21490973E+03</rscale>
<asrwt>0</asrwt>
<pdfrwt beam="1">  1        2 0.18352092E+00 0.21490973E+03</pdfrwt>
<pdfrwt beam="2">  1       -2 0.14891549E-02 0.21490973E+03</pdfrwt>
<totfact> 0.23698950E+04</totfact>
</mgrwt>
</event>
<event>
 6    1  0.9988873E-007  0.1681223E+04  0.7818608E-02  0.8772146E-01
         -2   -1    0    0    0  501 -0.00000000000E+00  0.00000000000E+00  0.11549883510E+04  0.11549883510E+04  0.00000000000E+00 0.  1.
          2   -1    0    0  501    0  0.00000000000E+00 -0.00000000000E+00 -0.61180538132E+03  0.61180538132E+03  0.00000000000E+00 0. -1.
         23    2    1    2    0    0 -0.27614405313E+03 -0.73195524752E+03  0.58838924510E+03  0.98317543894E+03  0.91749754916E+02 0.  0.
         13    1    3    3    0    0 -0.18776014774E+03 -0.45515929693E+03  0.42119204238E+03  0.64794027134E+03  0.00000000000E+00 0. -1.
        -13    1    3    3    0    0 -0.88383905396E+02 -0.27679595059E+03  0.16719720272E+03  0.33523516760E+03  0.00000000000E+00 0.  1.
         22    1    1    2    0    0  0.27614405313E+03  0.73195524752E+03 -0.45206275387E+02  0.78361829342E+03  0.00000000000E+00 0. -1.
<mgrwt>
<rscale>  0 0.16812235E+04</rscale>
<asrwt>0</asrwt>
<pdfrwt beam="1">  1        2 0.94123906E-01 0.16812235E+04</pdfrwt>
<pdfrwt beam="2">  1       -2 0.17769051E+00 0.16812235E+04</pdfrwt>
<totfact> 0.86763802E+00</totfact>
</mgrwt>
</event>
<event>
 6    1  0.9988873E-007  0.1979572E+04  0.7818608E-02  0.8616231E-01
          2   -1    0    0  501    0  0.00000000000E+00  0.00000000000E+00  0.22835244586E+04  0.22835244586E+04  0.00000000000E+00 0. -1.
         -2   -1    0    0    0  501 -0.00000000000E+00 -0.00000000000E+00 -0.42901954414E+03  0.42901954414E+03  0.00000000000E+00 0.  1.
         23    2    1    2    0    0  0.23737276382E+03  0.78677617636E+02  0.22384619774E+04  0.22543311452E+04  0.93599635033E+02 0.  0.
         13    1    3    3    0    0  0.85622120444E+02  0.27743378619E+02  0.12254097438E+04  0.12287106587E+04  0.00000000000E+00 0. -1.
        -13    1    3    3    0    0  0.15175064337E+03  0.50934239016E+02  0.10130522336E+04  0.10256204866E+04  0.00000000000E+00 0.  1.
         22    1    1    2    0    0 -0.23737276382E+03 -0.78677617636E+02 -0.38395706298E+03  0.45821285745E+03  0.00000000000E+00 0.  1.
<mgrwt>
<rscale>  0 0.19795723E+04</rscale>
<asrwt>0</asrwt>
<pdfrwt beam="1">  1        2 0.35131145E+00 0.19795723E+04</pdfrwt>
<pdfrwt beam="2">  1       -2 0.66003008E-01 0.19795723E+04</pdfrwt>
<totfact> 0.91067903E+00</totfact>
</mgrwt>
</event>
<event>
 6    1  0.9988873E-007  0.2826957E+04  0.7818608E-02  0.8294948E-01
         -2   -1    0    0    0  501 -0.00000000000E+00  0.00000000000E+00  0.19038251055E+04  0.19038251055E+04  0.00000000000E+00 0.  1.
          2   -1    0    0  501    0  0.00000000000E+00 -0.00000000000E+00 -0.10494247861E+04  0.10494247861E+04  0.00000000000E+00 0. -1.
         23    2    1    2    0    0  0.57256118664E+02  0.13636689812E+04  0.80568316520E+03  0.15875102698E+04  0.90510443864E+02 0.  0.
         13    1    3    3    0    0  0.14131582235E+02  0.68664485621E+03  0.35563016101E+03  0.77340395111E+03  0.00000000000E+00 0. -1.
        -13    1    3    3    0    0  0.43124536429E+02  0.67702412503E+03  0.45005300418E+03  0.81410631867E+03  0.00000000000E+00 0.  1.
         22    1    1    2    0    0 -0.57256118664E+02 -0.13636689812E+04  0.48717154279E+02  0.13657396218E+04  0.00000000000E+00 0.  1.
<mgrwt>
<rscale>  0 0.28269568E+04</rscale>
<asrwt>0</asrwt>
<pdfrwt beam="1">  1        2 0.16144997E+00 0.28269568E+04</pdfrwt>
<pdfrwt beam="2">  1       -2 0.29289617E+00 0.28269568E+04</pdfrwt>
<totfact> 0.71453315E-01</totfact>
</mgrwt>
</event>
<event>
 6    1  0.9988873E-007  0.1471106E+04  0.7818608E-02  0.8903898E-01
          2   -1    0    0  501    0  0.00000000000E+00  0.00000000000E+00  0.10648771162E+04  0.10648771162E+04  0.00000000000E+00 0. -1.
         -2   -1    0    0    0  501 -0.00000000000E+00 -0.00000000000E+00 -0.50807547756E+03  0.50807547756E+03  0.00000000000E+00 0.  1.
         23    2    1    2    0    0 -0.17888670314E+03  0.13881097556E+03  0.10245473651E+04  0.10532844265E+04  0.91879487810E+02 0.  0.
         13    1    3    3    0    0 -0.18264049551E+03  0.14027497956E+03  0.91071837442E+03  0.93938414825E+03  0.00000000000E+00 0. -1.
        -13    1    3    3    0    0  0.37537923714E+01 -0.14640039980E+01  0.11382899068E+03  0.11390027824E+03  0.00000000000E+00 0.  1.
         22    1    1    2    0    0  0.17888670314E+03 -0.13881097556E+03 -0.46774572643E+03  0.51966816729E+03  0.00000000000E+00 0.  1.
<mgrwt>
<rscale>  0 0.14711056E+04</rscale>
<asrwt>0</asrwt>
<pdfrwt beam="1">  1        2 0.16382725E+00 0.14711056E+04</pdfrwt>
<pdfrwt beam="2">  1       -2 0.78165458E-01 0.14711056E+04</pdfrwt>
<totfact> 0.32310261E+01</totfact>
</mgrwt>
</event>
<event>
 6    1  0.9988873E-007  0.3568576E+04  0.7818608E-02  0.8097728E-01
         -2   -1    0    0    0  501 -0.00000000000E+00  0.00000000000E+00  0.10462884592E+04  0.10462884592E+04  0.00000000000E+00 0.  1.
          2   -1    0    0  501    0  0.00000000000E+00 -0.00000000000E+00 -0.30428360089E+04  0.30428360089E+04  0.00000000000E+00 0. -1.
         23    2    1    2    0    0  0.11581375750E+04  0.13529071785E+04 -0.89705580093E+03  0.19961546685E+04  0.91015792161E+02 0.  0.
         11    1    3    3    0    0  0.51580077355E+03  0.67229567099E+03 -0.42302323526E+03  0.94709057898E+03  0.00000000000E+00 0.  1.
        -11    1    3    3    0    0  0.64233680145E+03  0.68061150754E+03 -0.47403256567E+03  0.10490640896E+04  0.00000000000E+00 0. -1.
         22    1    1    2    0    0 -0.11581375750E+04 -0.13529071785E+04 -0.10994917488E+04  0.20929697996E+04  0.00000000000E+00 0. -1.
<mgrwt>
<rscale>  0 0.35685763E+04</rscale>
<asrwt>0</asrwt>
<pdfrwt beam="1">  1        2 0.46812861E+00 0.35685763E+04</pdfrwt>
<pdfrwt beam="2">  1       -2 0.16096746E+00 0.35685763E+04</pdfrwt>
<totfact> 0.33103852E-01</totfact>
</mgrwt>
</event>
<event>
 6    1  0.9988873E-007  0.2618996E+04  0.7818608E-02  0.8361777E-01
          3   -1    0    0  501    0  0.00000000000E+00  0.00000000000E+00  0.34613881170E+04  0.34613881170E+04  0.00000000000E+00 0. -1.
         -3   -1    0    0    0  501 -0.00000000000E+00 -0.00000000000E+00 -0.49540389263E+03  0.49540389263E+03  0.00000000000E+00 0.  1.
         23    2    1    2    0    0  0.23490883881E+02  0.85631126159E+03 -0.84219327157E+01  0.86148705120E+03  0.90929709595E+02 0.  0.
         11    1    3    3    0    0  0.56715887950E+02  0.52562964659E+03  0.79044591168E+01  0.52873972595E+03  0.00000000000E+00 0.  1.
        -11    1    3    3    0    0 -0.33225004069E+02  0.33068161500E+03 -0.16326391833E+02  0.33274732526E+03  0.00000000000E+00 0. -1.
         22    1    1    2    0    0 -0.23490883881E+02 -0.85631126159E+03  0.29744061571E+04  0.30953049585E+04  0.00000000000E+00 0. -1.
<mgrwt>
<rscale>  0 0.26189961E+04</rscale>
<asrwt>0</asrwt>
<pdfrwt beam="1">  1        3 0.53252123E+00 0.26189961E+04</pdfrwt>
<pdfrwt beam="2">  1       -3 0.76215986E-01 0.26189961E+04</pdfrwt>
<totfact> 0.88736063E-03</totfact>
</mgrwt>
</event>
<event>
 6    1  0.9988873E-007  0.6650240E+04  0.7818608E-02  0.7614623E-01
         -2   -1    0    0    0  501 -0.00000000000E+00  0.00000000000E+00  0.24037719119E+04  0.24037719119E+04  0.00000000000E+00 0.  1.
          2   -1    0    0  501    0  0.00000000000E+00 -0.00000000000E+00 -0.45996133883E+04  0.45996133883E+04  0.00000000000E+00 0. -1.
         23    2    1    2    0    0  0.23315100161E+04 -0.11124009450E+04  0.11055525102E+04  0.28114195236E+04  0.91970467916E+02 0.  0.
         13    1    3    3    0    0  0.64149598830E+03 -0.30657028560E+03  0.25991068607E+03  0.75700462862E+03  0.00000000000E+00 0. -1.
        -13    1    3    3    0    0  0.16900140278E+04 -0.80583065943E+03  0.84564182413E+03  0.20544148949E+04  0.00000000000E+00 0.  1.
         22    1    1    2    0    0 -0.23315100161E+04  0.11124009450E+04 -0.33013939866E+04  0.41919657766E+04  0.00000000000E+00 0. -1.
<mgrwt>
<rscale>  0 0.66502395E+04</rscale>
<asrwt>0</asrwt>
<pdfrwt beam="1">  1        2 0.70763282E+00 0.66502395E+04</pdfrwt>
<pdfrwt beam="2">  1       -2 0.36981107E+00 0.66502395E+04</pdfrwt>
<totfact> 0.71897812E-04</totfact>
</mgrwt>
</event>
<event>
 6    1  0.9988873E-007  0.1182938E+04  0.7818608E-02  0.9127924E-01
          2   -1    0    0  501    0  0.00000000000E+00  0.00000000000E+00  0.11390382117E+04  0.11390382117E+04  0.00000000000E+00 0. -1.
         -2   -1    0    0    0  501 -0.00000000000E+00 -0.00000000000E+00 -0.30713223453E+03  0.30713223453E+03  0.00000000000E+00 0.  1.
         23    2    1    2    0    0 -0.32298591600E+03 -0.46631621686E+03  0.60006269202E+03  0.83337192721E+03  0.11252919029E+03 0.  0.
         13    1    3    3    0    0 -0.17124274855E+03 -0.17643218071E+03  0.31359389937E+03  0.39848905511E+03  0.00000000000E+00 0. -1.
        -13    1    3    3    0    0 -0.15174316745E+03 -0.28988403615E+03  0.28646879265E+03  0.43488287210E+03  0.00000000000E+00 0.  1.
         22    1    1    2    0    0  0.32298591600E+03  0.46631621686E+03  0.23184328516E+03  0.61279851902E+03  0.00000000000E+00 0.  1.
<mgrwt>
<rscale>  0 0.11829376E+04</rscale>
<asrwt>0</asrwt>
<pdfrwt beam="1">  1        2 0.17523665E+00 0.11829376E+04</pdfrwt>
<pdfrwt beam="2">  1       -2 0.47251113E-01 0.11829376E+04</pdfrwt>
<totfact> 0.86422140E+01</totfact>
</mgrwt>
</event>
<event>
 6    1  0.9988873E-007  0.4142919E+04  0.7818608E-02  0.7976320E-01
         -2   -1    0    0    0  501 -0.00000000000E+00  0.00000000000E+00  0.18118393390E+04  0.18118393390E+04  0.00000000000E+00 0.  1.
          2   -1    0    0  501    0  0.00000000000E+00 -0.00000000000E+00 -0.23682805377E+04  0.23682805377E+04  0.00000000000E+00 0. -1.
         23    2    1    2    0    0  0.69606208506E+03  0.91391719683E+03  0.14596097250E+04  0.18597301689E+04  0.91589753591E+02 0.  0.
         11    1    3    3    0    0  0.23820912053E+03  0.35708053459E+03  0.60233904106E+03  0.73963667681E+03  0.00000000000E+00 0. -1.
        -11    1    3    3    0    0  0.45785296454E+03  0.55683666224E+03  0.85727068395E+03  0.11200934921E+04  0.00000000000E+00 0.  1.
         22    1    1    2    0    0 -0.69606208506E+03 -0.91391719683E+03 -0.20160509237E+04  0.23203897078E+04  0.00000000000E+00 0. -1.
<mgrwt>
<rscale>  0 0.41429187E+04</rscale>
<asrwt>0</asrwt>
<pdfrwt beam="1">  1        2 0.36435085E+00 0.41429187E+04</pdfrwt>
<pdfrwt beam="2">  1       -2 0.27874451E+00 0.41429187E+04</pdfrwt>
<totfact> 0.13856405E-01</totfact>
</mgrwt>
</event>
<event>
 6    1  0.9988873E-007  0.9829716E+03  0.7818608E-02  0.9327421E-01
          2   -1    0    0  501    0  0.00000000000E+00  0.00000000000E+00  0.19651373922E+04  0.19651373922E+04  0.00000000000E+00 0. -1.
         -2   -1    0    0    0  501 -0.00000000000E+00 -0.00000000000E+00 -0.12292182297E+03  0.12292182297E+03  0.00000000000E+00 0.  1.
         23    2    1    2    0    0  0.39187271033E+03  0.35558532389E+01  0.15439500052E+04  0.15955765130E+04  0.92227573722E+02 0.  0.
         13    1    3    3    0    0  0.15485703455E+03 -0.51679592404E+01  0.79539165065E+03  0.81034269719E+03  0.00000000000E+00 0. -1.
        -13    1    3    3    0    0  0.23701567577E+03  0.87238124793E+01  0.74855835450E+03  0.78523381585E+03  0.00000000000E+00 0.  1.
         22    1    1    2    0    0 -0.39187271033E+03 -0.35558532389E+01  0.29826556410E+03  0.49248270215E+03  0.00000000000E+00 0.  1.
<mgrwt>
<rscale>  0 0.98297156E+03</rscale>
<asrwt>0</asrwt>
<pdfrwt beam="1">  1        2 0.30232881E+00 0.98297156E+03</pdfrwt>
<pdfrwt beam="2">  1       -2 0.18911051E-01 0.98297156E+03</pdfrwt>
<totfact> 0.16519376E+02</totfact>
</mgrwt>
</event>
<event>
 6    1  0.9988873E-007  0.1704362E+04  0.7818608E-02  0.8758881E-01
          1   -1    0    0  501    0  0.00000000000E+00  0.00000000000E+00  0.94741579960E+03  0.94741579960E+03  0.00000000000E+00 0. -1.
         -1   -1    0    0    0  501 -0.00000000000E+00 -0.00000000000E+00 -0.76651908217E+03  0.76651908217E+03  0.00000000000E+00 0.  1.
         23    2    1    2    0    0  0.48339574809E+03  0.17030181176E+03  0.77226983178E+03  0.93137733326E+03  0.91590870077E+02 0.  0.
         13    1    3    3    0    0  0.41569651155E+02  0.36154331013E+02  0.12182471708E+03  0.13370277948E+03  0.00000000000E+00 0.  1.
        -13    1    3    3    0    0  0.44182609693E+03  0.13414748074E+03  0.65044511470E+03  0.79767455378E+03  0.00000000000E+00 0. -1.
         22    1    1    2    0    0 -0.48339574809E+03 -0.17030181176E+03 -0.59137311434E+03  0.78255754851E+03  0.00000000000E+00 0.  1.
<mgrwt>
<rscale>  0 0.17043618E+04</rscale>
<asrwt>0</asrwt>
<pdfrwt beam="1">  1        1 0.14575628E+00 0.17043618E+04</pdfrwt>
<pdfrwt beam="2">  1       -1 0.11792601E+00 0.17043618E+04</pdfrwt>
<totfact> 0.10236611E+01</totfact>
</mgrwt>
</event>
<event>
 6    1  0.9988873E-007  0.2253831E+04  0.7818608E-02  0.8496351E-01
         -2   -1    0    0    0  501 -0.00000000000E+00  0.00000000000E+00  0.86666316383E+03  0.86666316383E+03  0.00000000000E+00 0.  1.
          2   -1    0    0  501    0  0.00000000000E+00 -0.00000000000E+00 -0.14653197346E+04  0.14653197346E+04  0.00000000000E+00 0. -1.
         23    2    1    2    0    0  0.81108198764E+03  0.20207277063E+03 -0.10787702028E+04  0.13680345104E+04  0.95319860667E+02 0.  0.
         11    1    3    3    0    0  0.37711803979E+02  0.45884816074E+00 -0.83248945863E+02  0.91393531983E+02  0.00000000000E+00 0.  1.
        -11    1    3    3    0    0  0.77337018366E+03  0.20161392247E+03 -0.99552125693E+03  0.12766409784E+04  0.00000000000E+00 0. -1.
         22    1    1    2    0    0 -0.81108198764E+03 -0.20207277063E+03  0.48011363198E+03  0.96394838810E+03  0.00000000000E+00 0.  1.
<mgrwt>
<rscale>  0 0.22538311E+04</rscale>
<asrwt>0</asrwt>
<pdfrwt beam="1">  1        2 0.22543380E+00 0.22538311E+04</pdfrwt>
<pdfrwt beam="2">  1       -2 0.13333280E+00 0.22538311E+04</pdfrwt>
<totfact> 0.49228412E+00</totfact>
</mgrwt>
</event>
<event>
 6    1  0.9988873E-007  0.2957496E+04  0.7818608E-02  0.8255973E-01
         -2   -1    0    0    0  501 -0.00000000000E+00  0.00000000000E+00  0.17045197883E+04  0.17045197883E+04  0.00000000000E+00 0.  1.
          2   -1    0    0  501    0  0.00000000000E+00 -0.00000000000E+00 -0.12828810299E+04  0.12828810299E+04  0.00000000000E+00 0. -1.
         23    2    1    2    0    0 -0.23413557234E+03 -0.11609555767E+04  0.11029848052E+04  0.16210663962E+04  0.92970226545E+02 0.  0.
         11    1    3    3    0    0 -0.99454456022E+02 -0.67513103736E+03  0.59513451831E+03  0.90547125924E+03  0.00000000000E+00 0. -1.
        -11    1    3    3    0    0 -0.13468111631E+03 -0.48582453936E+03  0.50785028694E+03  0.71559513698E+03  0.00000000000E+00 0.  1.
         22    1    1    2    0    0  0.23413557234E+03  0.11609555767E+04 -0.68134604680E+03  0.13663344220E+04  0.00000000000E+00 0. -1.
<mgrwt>
<rscale>  0 0.29574963E+04</rscale>
<asrwt>0</asrwt>
<pdfrwt beam="1">  1        2 0.19736631E+00 0.29574963E+04</pdfrwt>
<pdfrwt beam="2">  1       -2 0.26223381E+00 0.29574963E+04</pdfrwt>
<totfact> 0.78564964E-01</totfact>
</mgrwt>
</event>
<event>
 6    1  0.9988873E-007  0.2315257E+04  0.7818608E-02  0.8471930E-01
          1   -1    0    0  501    0  0.00000000000E+00  0.00000000000E+00  0.16072036252E+04  0.16072036252E+04  0.00000000000E+00 0. -1.
         -1   -1    0    0    0  501 -0.00000000000E+00 -0.00000000000E+00 -0.83381075644E+03  0.83381075644E+03  0.00000000000E+00 0.  1.
         23    2    1    2    0    0  0.72276810856E+03  0.83113885308E+03  0.17946570931E+02  0.11053929380E+04  0.91574757109E+02 0.  0.
         13    1    3    3    0    0  0.10081355053E+03  0.94578087424E+02 -0.24699989687E+02  0.14042249137E+03  0.00000000000E+00 0.  1.
        -13    1    3    3    0    0  0.62195455803E+03  0.73656076566E+03  0.42646560618E+02  0.96497044664E+03  0.00000000000E+00 0. -1.
         22    1    1    2    0    0 -0.72276810856E+03 -0.83113885308E+03  0.75544629787E+03  0.13356214437E+04  0.00000000000E+00 0. -1.
<mgrwt>
<rscale>  0 0.23152569E+04</rscale>
<asrwt>0</asrwt>
<pdfrwt beam="1">  1        1 0.24726210E+00 0.23152569E+04</pdfrwt>
<pdfrwt beam="2">  1       -1 0.12827858E+00 0.23152569E+04</pdfrwt>
<totfact> 0.26119471E+00</totfact>
</mgrwt>
</event>
<event>
 6    1  0.1046469E-006  0.2666949E+04  0.7818608E-02  0.8345809E-01
         -1   -1    0    0    0  501 -0.00000000000E+00  0.00000000000E+00  0.12913992488E+04  0.12913992488E+04  0.00000000000E+00 0.  1.
          1   -1    0    0  501    0  0.00000000000E+00 -0.00000000000E+00 -0.13769210543E+04  0.13769210543E+04  0.00000000000E+00 0. -1.
         23    2    1    2    0    0 -0.50679001072E+03 -0.35141323154E+03 -0.12239514184E+04  0.13735811952E+04  0.91328259403E+02 0.  0.
         11    1    3    3    0    0 -0.13719208799E+03 -0.93139679390E+02 -0.42455516914E+03  0.45578916236E+03  0.00000000000E+00 0. -1.
        -11    1    3    3    0    0 -0.36959792273E+03 -0.25827355215E+03 -0.79939624924E+03  0.91779203283E+03  0.00000000000E+00 0.  1.
         22    1    1    2    0    0  0.50679001072E+03  0.35141323154E+03  0.11384296128E+04  0.12947391079E+04  0.00000000000E+00 0.  1.
<mgrwt>
<rscale>  0 0.26669494E+04</rscale>
<asrwt>0</asrwt>
<pdfrwt beam="1">  1        1 0.21183401E+00 0.26669494E+04</pdfrwt>
<pdfrwt beam="2">  1       -1 0.19867681E+00 0.26669494E+04</pdfrwt>
<totfact> 0.10735542E+00</totfact>
</mgrwt>
</event>
<event>
 6    1  0.9988873E-007  0.2548453E+04  0.7818608E-02  0.8385924E-01
         -2   -1    0    0    0  501 -0.00000000000E+00  0.00000000000E+00  0.13791833253E+04  0.13791833253E+04  0.00000000000E+00 0.  1.
          2   -1    0    0  501    0  0.00000000000E+00 -0.00000000000E+00 -0.11772573845E+04  0.11772573845E+04  0.00000000000E+00 0. -1.
         23    2    1    2    0    0  0.14550201944E+03 -0.62699205488E+03  0.12027324496E+04  0.13665232577E+04  0.80812090448E+02 0.  0.
         13    1    3    3    0    0  0.10366696667E+03 -0.29939040073E+03  0.54078191360E+03  0.62675874952E+03  0.00000000000E+00 0.  1.
        -13    1    3    3    0    0  0.41835052767E+02 -0.32760165416E+03  0.66195053601E+03  0.73976450819E+03  0.00000000000E+00 0. -1.
         22    1    1    2    0    0 -0.14550201944E+03  0.62699205488E+03 -0.10008065089E+04  0.11899174521E+04  0.00000000000E+00 0. -1.
<mgrwt>
<rscale>  0 0.25484535E+04</rscale>
<asrwt>0</asrwt>
<pdfrwt beam="1">  1        2 0.18111652E+00 0.25484535E+04</pdfrwt>
<pdfrwt beam="2">  1       -2 0.21218205E+00 0.25484535E+04</pdfrwt>
<totfact> 0.19248963E+00</totfact>
</mgrwt>
</event>
<event>
 6    1  0.9988873E-007  0.4893607E+04  0.7818608E-02  0.7845132E-01
          2   -1    0    0  501    0  0.00000000000E+00  0.00000000000E+00  0.32323832860E+04  0.32323832860E+04  0.00000000000E+00 0. -1.
         -2   -1    0    0    0  501 -0.00000000000E+00 -0.00000000000E+00 -0.18521462138E+04  0.18521462138E+04  0.00000000000E+00 0.  1.
         23    2    1    2    0    0  0.60843444598E+03 -0.73756675281E+03 -0.16488005881E+04  0.19081689507E+04  0.91477730201E+02 0.  0.
         11    1    3    3    0    0  0.22680269237E+03 -0.34575298858E+03 -0.71889318230E+03  0.82933226028E+03  0.00000000000E+00 0.  1.
        -11    1    3    3    0    0  0.38163175361E+03 -0.39181376423E+03 -0.92990740581E+03  0.10788366904E+04  0.00000000000E+00 0. -1.
         22    1    1    2    0    0 -0.60843444598E+03  0.73756675281E+03  0.30290376603E+04  0.31763605490E+04  0.00000000000E+00 0. -1.
<mgrwt>
<rscale>  0 0.48936066E+04</rscale>
<asrwt>0</asrwt>
<pdfrwt beam="1">  1        2 0.49728974E+00 0.48936066E+04</pdfrwt>
<pdfrwt beam="2">  1       -2 0.28494557E+00 0.48936066E+04</pdfrwt>
<totfact> 0.35581324E-02</totfact>
</mgrwt>
</event>
<event>
 6    1  0.9988873E-007  0.2274454E+04  0.7818608E-02  0.8488062E-01
         -1   -1    0    0    0  501 -0.00000000000E+00  0.00000000000E+00  0.11519841496E+04  0.11519841496E+04  0.00000000000E+00 0.  1.
          1   -1    0    0  501    0  0.00000000000E+00 -0.00000000000E+00 -0.11226591092E+04  0.11226591092E+04  0.00000000000E+00 0. -1.
         23    2    1    2    0    0 -0.71805565182E+03  0.86988030109E+03 -0.11490546192E+03  0.11374985472E+04  0.91673455124E+02 0.  0.
         11    1    3    3    0    0 -0.49575522164E+03  0.55408184408E+03 -0.10758049391E+03  0.75123464536E+03  0.00000000000E+00 0.  1.
        -11    1    3    3    0    0 -0.22230043018E+03  0.31579845701E+03 -0.73249680040E+01  0.38626390184E+03  0.00000000000E+00 0. -1.
         22    1    1    2    0    0  0.71805565182E+03 -0.86988030109E+03  0.14423050227E+03  0.11371447116E+04  0.00000000000E+00 0. -1.
<mgrwt>
<rscale>  0 0.22744542E+04</rscale>
<asrwt>0</asrwt>
<pdfrwt beam="1">  1        1 0.17271679E+00 0.22744542E+04</pdfrwt>
<pdfrwt beam="2">  1       -1 0.17722833E+00 0.22744542E+04</pdfrwt>
<totfact> 0.24067496E+00</totfact>
</mgrwt>
</event>
<event>
 6    1  0.9988873E-007  0.5179695E+04  0.7818608E-02  0.7801370E-01
         -2   -1    0    0    0  501 -0.00000000000E+00  0.00000000000E+00  0.16716900261E+04  0.16716900261E+04  0.00000000000E+00 0.  1.
          2   -1    0    0  501    0  0.00000000000E+00 -0.00000000000E+00 -0.40122933254E+04  0.40122933254E+04  0.00000000000E+00 0. -1.
         23    2    1    2    0    0 -0.22746829020E+04  0.99426108293E+03 -0.36453569010E+03  0.25110382524E+04  0.98434902857E+02 0.  0.
         13    1    3    3    0    0 -0.68342499158E+03  0.33823515006E+03 -0.13964967681E+03  0.77522562399E+03  0.00000000000E+00 0.  1.
        -13    1    3    3    0    0 -0.15912579104E+04  0.65602593288E+03 -0.22488601329E+03  0.17358126284E+04  0.00000000000E+00 0. -1.
         22    1    1    2    0    0  0.22746829020E+04 -0.99426108293E+03 -0.19760676092E+04  0.31729450991E+04  0.00000000000E+00 0. -1.
<mgrwt>
<rscale>  0 0.51796953E+04</rscale>
<asrwt>0</asrwt>
<pdfrwt beam="1">  1        2 0.61727589E+00 0.51796953E+04</pdfrwt>
<pdfrwt beam="2">  1       -2 0.25718308E+00 0.51796953E+04</pdfrwt>
<totfact> 0.13863396E-02</totfact>
</mgrwt>
</event>
<event>
 6    1  0.9988873E-007  0.3046630E+04  0.7818608E-02  0.8230539E-01
         -2   -1    0    0    0  501 -0.00000000000E+00  0.00000000000E+00  0.18029235260E+04  0.18029235260E+04  0.00000000000E+00 0.  1.
          2   -1    0    0  501    0  0.00000000000E+00 -0.00000000000E+00 -0.12870696112E+04  0.12870696112E+04  0.00000000000E+00 0. -1.
         23    2    1    2    0    0  0.31911525574E+03 -0.99258122276E+03 -0.86640041853E+03  0.13586124533E+04  0.90144788564E+02 0.  0.
         11    1    3    3    0    0  0.18971991584E+03 -0.72297668729E+03 -0.62062012843E+03  0.97152369022E+03  0.00000000000E+00 0. -1.
        -11    1    3    3    0    0  0.12939533990E+03 -0.26960453546E+03 -0.24578029010E+03  0.38708876312E+03  0.00000000000E+00 0.  1.
         22    1    1    2    0    0 -0.31911525574E+03  0.99258122276E+03  0.13822543334E+04  0.17313806839E+04  0.00000000000E+00 0.  1.
<mgrwt>
<rscale>  0 0.30466297E+04</rscale>
<asrwt>0</asrwt>
<pdfrwt beam="1">  1        2 0.19801071E+00 0.30466297E+04</pdfrwt>
<pdfrwt beam="2">  1       -2 0.27737285E+00 0.30466297E+04</pdfrwt>
<totfact> 0.62677955E-01</totfact>
</mgrwt>
</event>
<event>
 6    1  0.9988873E-007  0.1684199E+04  0.7818608E-02  0.8770428E-01
         -2   -1    0    0    0  501 -0.00000000000E+00  0.00000000000E+00  0.11319548804E+04  0.11319548804E+04  0.00000000000E+00 0.  1.
          2   -1    0    0  501    0  0.00000000000E+00 -0.00000000000E+00 -0.62646619106E+03  0.62646619106E+03  0.00000000000E+00 0. -1.
         23    2    1    2    0    0 -0.11669488571E+03  0.66963989361E+03 -0.26094397168E+03  0.73399230023E+03  0.92831336161E+02 0.  0.
         13    1    3    3    0    0 -0.10232781999E+03  0.45684872175E+03 -0.13924337879E+03  0.48843674702E+03  0.00000000000E+00 0.  1.
        -13    1    3    3    0    0 -0.14367065724E+02  0.21279117186E+03 -0.12170059289E+03  0.24555555320E+03  0.00000000000E+00 0. -1.
         22    1    1    2    0    0  0.11669488571E+03 -0.66963989361E+03  0.76643266099E+03  0.10244287712E+04  0.00000000000E+00 0.  1.
<mgrwt>
<rscale>  0 0.16841989E+04</rscale>
<asrwt>0</asrwt>
<pdfrwt beam="1">  1        2 0.96379414E-01 0.16841989E+04</pdfrwt>
<pdfrwt beam="2">  1       -2 0.17414691E+00 0.16841989E+04</pdfrwt>
<totfact> 0.89229047E+00</totfact>
</mgrwt>
</event>
<event>
 6    1  0.9988873E-007  0.4693499E+04  0.7818608E-02  0.7877610E-01
          2   -1    0    0  501    0  0.00000000000E+00  0.00000000000E+00  0.39255655744E+04  0.39255655744E+04  0.00000000000E+00 0. -1.
         -2   -1    0    0    0  501 -0.00000000000E+00 -0.00000000000E+00 -0.14029145713E+04  0.14029145713E+04  0.00000000000E+00 0.  1.
         23    2    1    2    0    0  0.10567699532E+04 -0.13922053337E+04 -0.51447202750E+03  0.18243233672E+04  0.92064411002E+02 0.  0.
         13    1    3    3    0    0  0.72158910331E+03 -0.95976202252E+03 -0.39730346976E+03  0.12647861562E+04  0.00000000000E+00 0.  1.
        -13    1    3    3    0    0  0.33518084992E+03 -0.43244331122E+03 -0.11716855774E+03  0.55953721100E+03  0.00000000000E+00 0. -1.
         22    1    1    2    0    0 -0.10567699532E+04  0.13922053337E+04  0.30371230306E+04  0.35041567785E+04  0.00000000000E+00 0. -1.
<mgrwt>
<rscale>  0 0.46934990E+04</rscale>
<asrwt>0</asrwt>
<pdfrwt beam="1">  1        2 0.60393316E+00 0.46934990E+04</pdfrwt>
<pdfrwt beam="2">  1       -2 0.21583301E+00 0.46934990E+04</pdfrwt>
<totfact> 0.30633221E-02</totfact>
</mgrwt>
</event>
<event>
 6    1  0.9988873E-007  0.3090857E+04  0.7818608E-02  0.8218252E-01
         -1   -1    0    0    0  501 -0.00000000000E+00  0.00000000000E+00  0.11535039026E+04  0.11535039026E+04  0.00000000000E+00 0.  1.
          1   -1    0    0  501    0  0.00000000000E+00 -0.00000000000E+00 -0.20705172053E+04  0.20705172053E+04  0.00000000000E+00 0. -1.
         23    2    1    2    0    0  0.70207820489E+03  0.13533468401E+04 -0.71359010046E+03  0.16858915702E+04  0.92509888933E+02 0.  0.
         11    1    3    3    0    0  0.49939846741E+03  0.97068929308E+03 -0.46447695218E+03  0.11863285262E+04  0.00000000000E+00 0.  1.
        -11    1    3    3    0    0  0.20267973747E+03  0.38265754705E+03 -0.24911314828E+03  0.49956304401E+03  0.00000000000E+00 0. -1.
         22    1    1    2    0    0 -0.70207820489E+03 -0.13533468401E+04 -0.20342320226E+03  0.15381295377E+04  0.00000000000E+00 0.  1.
<mgrwt>
<rscale>  0 0.30908573E+04</rscale>
<asrwt>0</asrwt>
<pdfrwt beam="1">  1        1 0.31854110E+00 0.30908573E+04</pdfrwt>
<pdfrwt beam="2">  1       -1 0.17746214E+00 0.30908573E+04</pdfrwt>
<totfact> 0.48921287E-01</totfact>
</mgrwt>
</event>
<event>
 6    1  0.9988873E-007  0.1775376E+04  0.7818608E-02  0.8719505E-01
         -2   -1    0    0    0  501 -0.00000000000E+00  0.00000000000E+00  0.35492869831E+03  0.35492869831E+03  0.00000000000E+00 0.  1.
          2   -1    0    0  501    0  0.00000000000E+00 -0.00000000000E+00 -0.22201352357E+04  0.22201352357E+04  0.00000000000E+00 0. -1.
         23    2    1    2    0    0 -0.57481892752E+03 -0.61920850278E+03 -0.55077503556E+03  0.10125127693E+04  0.89403572911E+02 0.  0.
         11    1    3    3    0    0 -0.23860449365E+02 -0.24670054983E+02 -0.35338378846E+01  0.34502473345E+02  0.00000000000E+00 0. -1.
        -11    1    3    3    0    0 -0.55095847815E+03 -0.59453844780E+03 -0.54724119768E+03  0.97801029596E+03  0.00000000000E+00 0.  1.
         22    1    1    2    0    0  0.57481892752E+03  0.61920850278E+03 -0.13144315018E+04  0.15625511647E+04  0.00000000000E+00 0. -1.
<mgrwt>
<rscale>  0 0.17753757E+04</rscale>
<asrwt>0</asrwt>
<pdfrwt beam="1">  1        2 0.34155927E+00 0.17753757E+04</pdfrwt>
<pdfrwt beam="2">  1       -2 0.54604415E-01 0.17753757E+04</pdfrwt>
<totfact> 0.15024114E+01</totfact>
</mgrwt>
</event>
<event>
 6    1  0.9988873E-007  0.4399251E+04  0.7818608E-02  0.7928516E-01
          2   -1    0    0  501    0  0.00000000000E+00  0.00000000000E+00  0.28116787829E+04  0.28116787829E+04  0.00000000000E+00 0. -1.
         -2   -1    0    0    0  501 -0.00000000000E+00 -0.00000000000E+00 -0.17208057691E+04  0.17208057691E+04  0.00000000000E+00 0.  1.
         23    2    1    2    0    0  0.60418229580E+03 -0.24288852386E+03  0.27095080781E+04  0.27877752487E+04  0.78903298096E+02 0.  0.
         13    1    3    3    0    0  0.32936569749E+03 -0.16468795319E+03  0.14176066552E+04  0.14646544007E+04  0.00000000000E+00 0. -1.
        -13    1    3    3    0    0  0.27481659831E+03 -0.78200570664E+02  0.12919014229E+04  0.13231208480E+04  0.00000000000E+00 0.  1.
         22    1    1    2    0    0 -0.60418229580E+03  0.24288852386E+03 -0.16186350643E+04  0.17447093033E+04  0.00000000000E+00 0.  1.
<mgrwt>
<rscale>  0 0.43992513E+04</rscale>
<asrwt>0</asrwt>
<pdfrwt beam="1">  1        2 0.43256597E+00 0.43992513E+04</pdfrwt>
<pdfrwt beam="2">  1       -2 0.26473935E+00 0.43992513E+04</pdfrwt>
<totfact> 0.90679645E-02</totfact>
</mgrwt>
</event>
<event>
 6    1  0.9988873E-007  0.4190156E+04  0.7818608E-02  0.7967247E-01
         -2   -1    0    0    0  501 -0.00000000000E+00  0.00000000000E+00  0.16976451709E+04  0.16976451709E+04  0.00000000000E+00 0.  1.
          2   -1    0    0  501    0  0.00000000000E+00 -0.00000000000E+00 -0.25855530359E+04  0.25855530359E+04  0.00000000000E+00 0. -1.
         23    2    1    2    0    0 -0.15275305416E+03 -0.18954257909E+04  0.45234960344E+03  0.19567712241E+04  0.91438697560E+02 0.  0.
         11    1    3    3    0    0 -0.14431686025E+02 -0.52256856351E+03  0.93501176143E+02  0.53106369399E+03  0.00000000000E+00 0.  1.
        -11    1    3    3    0    0 -0.13832136813E+03 -0.13728572274E+04  0.35884842730E+03  0.14257075301E+04  0.00000000000E+00 0. -1.
         22    1    1    2    0    0  0.15275305416E+03  0.18954257909E+04 -0.13402574684E+04  0.23264269827E+04  0.00000000000E+00 0. -1.
<mgrwt>
<rscale>  0 0.41901559E+04</rscale>
<asrwt>0</asrwt>
<pdfrwt beam="1">  1        2 0.39777739E+00 0.41901559E+04</pdfrwt>
<pdfrwt beam="2">  1       -2 0.26117618E+00 0.41901559E+04</pdfrwt>
<totfact> 0.13229301E-01</totfact>
</mgrwt>
</event>
<event>
 6    1  0.9988873E-007  0.5015583E+04  0.7818608E-02  0.7826108E-01
          1   -1    0    0  501    0  0.00000000000E+00  0.00000000000E+00  0.29696919440E+04  0.29696919440E+04  0.00000000000E+00 0. -1.
         -1   -1    0    0    0  501 -0.00000000000E+00 -0.00000000000E+00 -0.21177341208E+04  0.21177341208E+04  0.00000000000E+00 0.  1.
         23    2    1    2    0    0 -0.85089553286E+03 -0.20171373565E+04  0.16652461695E+04  0.27519808703E+04  0.86530818555E+02 0.  0.
         13    1    3    3    0    0 -0.47575377647E+03 -0.10240087424E+04  0.83873630615E+03  0.14065611084E+04  0.00000000000E+00 0. -1.
        -13    1    3    3    0    0 -0.37514175639E+03 -0.99312861405E+03  0.82650986332E+03  0.13454197619E+04  0.00000000000E+00 0.  1.
         22    1    1    2    0    0  0.85089553286E+03  0.20171373565E+04 -0.81328834623E+03  0.23354451946E+04  0.00000000000E+00 0.  1.
<mgrwt>
<rscale>  0 0.50155829E+04</rscale>
<asrwt>0</asrwt>
<pdfrwt beam="1">  1        1 0.45687568E+00 0.50155829E+04</pdfrwt>
<pdfrwt beam="2">  1       -1 0.32580525E+00 0.50155829E+04</pdfrwt>
<totfact> 0.10170215E-02</totfact>
</mgrwt>
</event>
<event>
 6    1  0.9988873E-007  0.4087751E+04  0.7818608E-02  0.7987075E-01
         -2   -1    0    0    0  501 -0.00000000000E+00  0.00000000000E+00  0.22526404789E+04  0.22526404789E+04  0.00000000000E+00 0.  1.
          2   -1    0    0  501    0  0.00000000000E+00 -0.00000000000E+00 -0.18544579966E+04  0.18544579966E+04  0.00000000000E+00 0. -1.
         23    2    1    2    0    0 -0.80536169600E+03  0.15291070520E+04 -0.89515452648E+03  0.19485117953E+04  0.92848005917E+02 0.  0.
         11    1    3    3    0    0 -0.64401466061E+03  0.11923461705E+04 -0.66117479919E+03  0.15078449484E+04  0.00000000000E+00 0. -1.
        -11    1    3    3    0    0 -0.16134703538E+03  0.33676088145E+03 -0.23397972729E+03  0.44066684682E+03  0.00000000000E+00 0.  1.
         22    1    1    2    0    0  0.80536169600E+03 -0.15291070520E+04  0.12933370088E+04  0.21585866802E+04  0.00000000000E+00 0.  1.
<mgrwt>
<rscale>  0 0.40877510E+04</rscale>
<asrwt>0</asrwt>
<pdfrwt beam="1">  1        2 0.28530123E+00 0.40877510E+04</pdfrwt>
<pdfrwt beam="2">  1       -2 0.34656007E+00 0.40877510E+04</pdfrwt>
<totfact> 0.10308793E-01</totfact>
</mgrwt>
</event>
<event>
 6    1  0.9988873E-007  0.2581321E+04  0.7818608E-02  0.8374574E-01
          2   -1    0    0  501    0  0.00000000000E+00  0.00000000000E+00  0.18691673527E+04  0.18691673527E+04  0.00000000000E+00 0. -1.
         -2   -1    0    0    0  501 -0.00000000000E+00 -0.00000000000E+00 -0.89120172329E+03  0.89120172329E+03  0.00000000000E+00 0.  1.
         23    2    1    2    0    0  0.26744760514E+03 -0.12532144421E+04  0.34022758376E+03  0.13290115127E+04  0.91881079307E+02 0.  0.
         11    1    3    3    0    0  0.33895096005E+02 -0.60621517241E+02  0.20226424975E+02  0.72339160577E+02  0.00000000000E+00 0.  1.
        -11    1    3    3    0    0  0.23355250914E+03 -0.11925929248E+04  0.32000115878E+03  0.12566723521E+04  0.00000000000E+00 0. -1.
         22    1    1    2    0    0 -0.26744760514E+03  0.12532144421E+04  0.63773804568E+03  0.14313575634E+04  0.00000000000E+00 0. -1.
<mgrwt>
<rscale>  0 0.25813215E+04</rscale>
<asrwt>0</asrwt>
<pdfrwt beam="1">  1        2 0.28756421E+00 0.25813215E+04</pdfrwt>
<pdfrwt beam="2">  1       -2 0.13710796E+00 0.25813215E+04</pdfrwt>
<totfact> 0.26533436E+00</totfact>
</mgrwt>
</event>
<event>
 6    1  0.1282385E-006  0.4497052E+04  0.7818608E-02  0.7911153E-01
          2   -1    0    0  501    0  0.00000000000E+00  0.00000000000E+00  0.21876200753E+04  0.21876200753E+04  0.00000000000E+00 0. -1.
         -2   -1    0    0    0  501 -0.00000000000E+00 -0.00000000000E+00 -0.23111279992E+04  0.23111279992E+04  0.00000000000E+00 0.  1.
         23    2    1    2    0    0  0.45240416333E+03  0.10299874375E+03  0.21383041553E+04  0.21898366103E+04  0.88099096324E+02 0.  0.
         13    1    3    3    0    0  0.16692540437E+03  0.21737521351E+02  0.60044029773E+03  0.62359054001E+03  0.00000000000E+00 0.  1.
        -13    1    3    3    0    0  0.28547875897E+03  0.81261222401E+02  0.15378638576E+04  0.15662460702E+04  0.00000000000E+00 0. -1.
         22    1    1    2    0    0 -0.45240416333E+03 -0.10299874375E+03 -0.22618120792E+04  0.23089114642E+04  0.00000000000E+00 0.  1.
<mgrwt>
<rscale>  0 0.44970524E+04</rscale>
<asrwt>0</asrwt>
<pdfrwt beam="1">  1        2 0.33655694E+00 0.44970524E+04</pdfrwt>
<pdfrwt beam="2">  1       -2 0.35555815E+00 0.44970524E+04</pdfrwt>
<totfact> 0.57064003E-02</totfact>
</mgrwt>
</event>
<event>
 6    1  0.9988873E-007  0.2514307E+04  0.7818608E-02  0.8397906E-01
         -2   -1    0    0    0  501 -0.00000000000E+00  0.00000000000E+00  0.12745689180E+04  0.12745689180E+04  0.00000000000E+00 0.  1.
          2   -1    0    0  501    0  0.00000000000E+00 -0.00000000000E+00 -0.12399760885E+04  0.12399760885E+04  0.00000000000E+00 0. -1.
         23    2    1    2    0    0 -0.73790950220E+03  0.87771495944E+03 -0.49406103565E+03  0.12518617950E+04  0.90375125252E+02 0.  0.
         11    1    3    3    0    0 -0.59498226802E+03  0.75862452086E+03 -0.40832155322E+03  0.10470155461E+04  0.00000000000E+00 0.  1.
        -11    1    3    3    0    0 -0.14292723418E+03  0.11909043858E+03 -0.85739482432E+02  0.20484624888E+03  0.00000000000E+00 0. -1.
         22    1    1    2    0    0  0.73790950220E+03 -0.87771495944E+03  0.52865386524E+03  0.12626832115E+04  0.00000000000E+00 0.  1.
<mgrwt>
<rscale>  0 0.25143070E+04</rscale>
<asrwt>0</asrwt>
<pdfrwt beam="1">  1        2 0.19076555E+00 0.25143070E+04</pdfrwt>
<pdfrwt beam="2">  1       -2 0.19608753E+00 0.25143070E+04</pdfrwt>
<totfact> 0.22546549E+00</totfact>
</mgrwt>
</event>
<event>
 6    1  0.9988873E-007  0.5295384E+04  0.7818608E-02  0.7784490E-01
         -2   -1    0    0    0  501 -0.00000000000E+00  0.00000000000E+00  0.28827867612E+04  0.28827867612E+04  0.00000000000E+00 0.  1.
          2   -1    0    0  501    0  0.00000000000E+00 -0.00000000000E+00 -0.24317691929E+04  0.24317691929E+04  0.00000000000E+00 0. -1.
         23    2    1    2    0    0  0.14404068085E+04 -0.21747870594E+04  0.67605026934E+03  0.26963294085E+04  0.93154628233E+02 0.  0.
         11    1    3    3    0    0  0.16192125191E+03 -0.29422283583E+03  0.71830684724E+02  0.34343153060E+03  0.00000000000E+00 0.  1.
        -11    1    3    3    0    0  0.12784855566E+04 -0.18805642235E+04  0.60421958462E+03  0.23528978779E+04  0.00000000000E+00 0. -1.
         22    1    1    2    0    0 -0.14404068085E+04  0.21747870594E+04 -0.22503270113E+03  0.26182265456E+04  0.00000000000E+00 0. -1.
<mgrwt>
<rscale>  0 0.52953837E+04</rscale>
<asrwt>0</asrwt>
<pdfrwt beam="1">  1        2 0.37411834E+00 0.52953837E+04</pdfrwt>
<pdfrwt beam="2">  1       -2 0.44350566E+00 0.52953837E+04</pdfrwt>
<totfact> 0.10419759E-02</totfact>
</mgrwt>
</event>
<event>
 6    1  0.9988873E-007  0.3558358E+04  0.7818608E-02  0.8100097E-01
          2   -1    0    0  501    0  0.00000000000E+00  0.00000000000E+00  0.16705622497E+04  0.16705622497E+04  0.00000000000E+00 0. -1.
         -2   -1    0    0    0  501 -0.00000000000E+00 -0.00000000000E+00 -0.18948578342E+04  0.18948578342E+04  0.00000000000E+00 0.  1.
         23    2    1    2    0    0 -0.10768789513E+04  0.14000665272E+04  0.92418084836E+02  0.17709390714E+04  0.88484664939E+02 0.  0.
         11    1    3    3    0    0 -0.65521500503E+03  0.91973357002E+03  0.49301880197E+02  0.11303305791E+04  0.00000000000E+00 0. -1.
        -11    1    3    3    0    0 -0.42166394624E+03  0.48033295714E+03  0.43116204640E+02  0.64060849228E+03  0.00000000000E+00 0.  1.
         22    1    1    2    0    0  0.10768789513E+04 -0.14000665272E+04 -0.31671366937E+03  0.17944810126E+04  0.00000000000E+00 0.  1.
<mgrwt>
<rscale>  0 0.35583580E+04</rscale>
<asrwt>0</asrwt>
<pdfrwt beam="1">  1        2 0.25700958E+00 0.35583580E+04</pdfrwt>
<pdfrwt beam="2">  1       -2 0.29151659E+00 0.35583580E+04</pdfrwt>
<totfact> 0.29830140E-01</totfact>
</mgrwt>
</event>
<event>
 6    1  0.9988873E-007  0.4313179E+04  0.7818608E-02  0.7944186E-01
          2   -1    0    0  501    0  0.00000000000E+00  0.00000000000E+00  0.22967229100E+04  0.22967229100E+04  0.00000000000E+00 0. -1.
         -2   -1    0    0    0  501 -0.00000000000E+00 -0.00000000000E+00 -0.20250060075E+04  0.20250060075E+04  0.00000000000E+00 0.  1.
         23    2    1    2    0    0 -0.71725217773E+03  0.11861346431E+04 -0.15188616433E+04  0.20573222388E+04  0.65330121025E+02 0.  0.
         11    1    3    3    0    0 -0.14649364933E+03  0.22398412262E+03 -0.25852916778E+03  0.37211101445E+03  0.00000000000E+00 0.  1.
        -11    1    3    3    0    0 -0.57075852839E+03  0.96215052044E+03 -0.12603324755E+04  0.16852112243E+04  0.00000000000E+00 0. -1.
         22    1    1    2    0    0  0.71725217773E+03 -0.11861346431E+04  0.17905785458E+04  0.22644066787E+04  0.00000000000E+00 0. -1.
<mgrwt>
<rscale>  0 0.43131787E+04</rscale>
<asrwt>0</asrwt>
<pdfrwt beam="1">  1        2 0.35334199E+00 0.43131787E+04</pdfrwt>
<pdfrwt beam="2">  1       -2 0.31153938E+00 0.43131787E+04</pdfrwt>
<totfact> 0.94563403E-02</totfact>
</mgrwt>
</event>
<event>
 6    1  0.9988873E-007  0.1290997E+04  0.7818608E-02  0.9036735E-01
         -1   -1    0    0    0  501 -0.00000000000E+00  0.00000000000E+00  0.11313204908E+03  0.11313204908E+03  0.00000000000E+00 0.  1.
          1   -1    0    0  501    0  0.00000000000E+00 -0.00000000000E+00 -0.36830277908E+04  0.36830277908E+04  0.00000000000E+00 0. -1.
         23    2    1    2    0    0 -0.58037891877E+03  0.26329243113E+03 -0.15593786974E+04  0.16870506964E+04  0.91189564467E+02 0.  0.
         13    1    3    3    0    0 -0.54586836989E+01  0.42408309214E+01 -0.60964308414E+02  0.61354940918E+02  0.00000000000E+00 0. -1.
        -13    1    3    3    0    0 -0.57492023507E+03  0.25905160021E+03 -0.14984143890E+04  0.16256957555E+04  0.00000000000E+00 0.  1.
         22    1    1    2    0    0  0.58037891877E+03 -0.26329243113E+03 -0.20105170443E+04  0.21091091435E+04  0.00000000000E+00 0. -1.
<mgrwt>
<rscale>  0 0.12909973E+04</rscale>
<asrwt>0</asrwt>
<pdfrwt beam="1">  1        1 0.56661965E+00 0.12909973E+04</pdfrwt>
<pdfrwt beam="2">  1       -1 0.17404931E-01 0.12909973E+04</pdfrwt>
<totfact> 0.46144902E+00</totfact>
</mgrwt>
</event>
<event>
 6    1  0.9988873E-007  0.1561029E+04  0.7818608E-02  0.8844854E-01
         -2   -1    0    0    0  501 -0.00000000000E+00  0.00000000000E+00  0.15832971069E+04  0.15832971069E+04  0.00000000000E+00 0.  1.
          2   -1    0    0  501    0  0.00000000000E+00 -0.00000000000E+00 -0.38476831406E+03  0.38476831406E+03  0.00000000000E+00 0. -1.
         23    2    1    2    0    0 -0.58228992560E+03  0.26011237653E+03  0.11626718190E+04  0.13293121599E+04  0.92439461518E+02 0.  0.
         13    1    3    3    0    0 -0.56673041608E+03  0.24464524273E+03  0.11463042719E+04  0.13019401457E+04  0.00000000000E+00 0.  1.
        -13    1    3    3    0    0 -0.15559509524E+02  0.15467133800E+02  0.16367547085E+02  0.27372014215E+02  0.00000000000E+00 0. -1.
         22    1    1    2    0    0  0.58228992560E+03 -0.26011237653E+03  0.35856973851E+02  0.63875326101E+03  0.00000000000E+00 0. -1.
<mgrwt>
<rscale>  0 0.15610286E+04</rscale>
<asrwt>0</asrwt>
<pdfrwt beam="1">  1        2 0.59195126E-01 0.15610286E+04</pdfrwt>
<pdfrwt beam="2">  1       -2 0.24358417E+00 0.15610286E+04</pdfrwt>
<totfact> 0.56250814E+00</totfact>
</mgrwt>
</event>
<event>
 6    1  0.9988873E-007  0.1283269E+04  0.7818608E-02  0.9042939E-01
         -2   -1    0    0    0  501 -0.00000000000E+00  0.00000000000E+00  0.32373969810E+03  0.32373969810E+03  0.00000000000E+00 0.  1.
          2   -1    0    0  501    0  0.00000000000E+00 -0.00000000000E+00 -0.12716852392E+04  0.12716852392E+04  0.00000000000E+00 0. -1.
         23    2    1    2    0    0  0.18795796473E+03 -0.52493012858E+03 -0.86269899803E+03  0.10313798952E+04  0.92817512241E+02 0.  0.
         13    1    3    3    0    0  0.69820894339E+02 -0.17587036326E+03 -0.37578750822E+03  0.42073934127E+03  0.00000000000E+00 0. -1.
        -13    1    3    3    0    0  0.11813707039E+03 -0.34905976532E+03 -0.48691148981E+03  0.61064055391E+03  0.00000000000E+00 0.  1.
         22    1    1    2    0    0 -0.18795796473E+03  0.52493012858E+03 -0.85246543040E+02  0.56404504208E+03  0.00000000000E+00 0.  1.
<mgrwt>
<rscale>  0 0.12832693E+04</rscale>
<asrwt>0</asrwt>
<pdfrwt beam="1">  1        2 0.19564388E+00 0.12832693E+04</pdfrwt>
<pdfrwt beam="2">  1       -2 0.49806108E-01 0.12832693E+04</pdfrwt>
<totfact> 0.64269032E+01</totfact>
</mgrwt>
</event>
<event>
 6    1  0.9988873E-007  0.7688208E+03  0.7818608E-02  0.9606278E-01
         -1   -1    0    0    0  501 -0.00000000000E+00  0.00000000000E+00  0.18893972400E+03  0.18893972400E+03  0.00000000000E+00 0.  1.
          1   -1    0    0  501    0  0.00000000000E+00 -0.00000000000E+00 -0.78210843503E+03  0.78210843503E+03  0.00000000000E+00 0. -1.
         23    2    1    2    0    0 -0.59239065503E+01 -0.55538622333E+02 -0.77422065978E+03  0.78157668522E+03  0.91240635719E+02 0.  0.
         13    1    3    3    0    0  0.25186644752E+02 -0.67791962558E+02 -0.58108750738E+03  0.58557049831E+03  0.00000000000E+00 0.  1.
        -13    1    3    3    0    0 -0.31110551303E+02  0.12253340225E+02 -0.19313315241E+03  0.19600618691E+03  0.00000000000E+00 0. -1.
         22    1    1    2    0    0  0.59239065503E+01  0.55538622333E+02  0.18105194875E+03  0.18947147380E+03  0.00000000000E+00 0.  1.
<mgrwt>
<rscale>  0 0.76882079E+03</rscale>
<asrwt>0</asrwt>
<pdfrwt beam="1">  1        1 0.12032437E+00 0.76882079E+03</pdfrwt>
<pdfrwt beam="2">  1       -1 0.29067650E-01 0.76882079E+03</pdfrwt>
<totfact> 0.24980489E+02</totfact>
</mgrwt>
</event>
<event>
 6    1  0.9988873E-007  0.1323958E+04  0.7818608E-02  0.9010779E-01
         -1   -1    0    0    0  501 -0.00000000000E+00  0.00000000000E+00  0.54024719702E+03  0.54024719702E+03  0.00000000000E+00 0.  1.
          1   -1    0    0  501    0  0.00000000000E+00 -0.00000000000E+00 -0.81113985325E+03  0.81113985325E+03  0.00000000000E+00 0. -1.
         23    2    1    2    0    0 -0.33748068345E+03 -0.54689928646E+02 -0.71072803922E+03  0.79430593937E+03  0.94357721393E+02 0.  0.
         11    1    3    3    0    0 -0.15512027744E+03 -0.31566629144E+02 -0.22627289520E+03  0.27614882880E+03  0.00000000000E+00 0.  1.
        -11    1    3    3    0    0 -0.18236040601E+03 -0.23123299502E+02 -0.48445514402E+03  0.51815711056E+03  0.00000000000E+00 0. -1.
         22    1    1    2    0    0  0.33748068345E+03  0.54689928646E+02  0.43983538298E+03  0.55708111090E+03  0.00000000000E+00 0.  1.
<mgrwt>
<rscale>  0 0.13239578E+04</rscale>
<asrwt>0</asrwt>
<pdfrwt beam="1">  1        1 0.12479075E+00 0.13239578E+04</pdfrwt>
<pdfrwt beam="2">  1       -1 0.83114953E-01 0.13239578E+04</pdfrwt>
<totfact> 0.30488911E+01</totfact>
</mgrwt>
</event>
<event>
 6    1  0.9988873E-007  0.9897873E+03  0.7818608E-02  0.9319817E-01
          1   -1    0    0  501    0  0.00000000000E+00  0.00000000000E+00  0.30988153700E+03  0.30988153700E+03  0.00000000000E+00 0. -1.
         -1   -1    0    0    0  501 -0.00000000000E+00 -0.00000000000E+00 -0.79036558547E+03  0.79036558547E+03  0.00000000000E+00 0.  1.
         23    2    1    2    0    0  0.43362508030E+03  0.18849347426E+03 -0.38745131179E+03  0.61835959388E+03  0.93217853589E+02 0.  0.
         13    1    3    3    0    0  0.64565289299E+02  0.42135532264E+02 -0.10864837648E+03  0.13322368173E+03  0.00000000000E+00 0. -1.
        -13    1    3    3    0    0  0.36905979101E+03  0.14635794200E+03 -0.27880293531E+03  0.48513591215E+03  0.00000000000E+00 0.  1.
         22    1    1    2    0    0 -0.43362508030E+03 -0.18849347426E+03 -0.93032736679E+02  0.48188752858E+03  0.00000000000E+00 0.  1.
<mgrwt>
<rscale>  0 0.98978725E+03</rscale>
<asrwt>0</asrwt>
<pdfrwt beam="1">  1        1 0.47674083E-01 0.98978725E+03</pdfrwt>
<pdfrwt beam="2">  1       -1 0.12159470E+00 0.98978725E+03</pdfrwt>
<totfact> 0.50543585E+01</totfact>
</mgrwt>
</event>
<event>
 6    1  0.9988873E-007  0.3406061E+04  0.7818608E-02  0.8136420E-01
          2   -1    0    0  501    0  0.00000000000E+00  0.00000000000E+00  0.38003792045E+04  0.38003792045E+04  0.00000000000E+00 0. -1.
         -2   -1    0    0    0  501 -0.00000000000E+00 -0.00000000000E+00 -0.76316428691E+03  0.76316428691E+03  0.00000000000E+00 0.  1.
         23    2    1    2    0    0 -0.88757294126E+03 -0.56740354075E+03 -0.27116718202E+03  0.10914944392E+04  0.89977586175E+02 0.  0.
         11    1    3    3    0    0 -0.37349269879E+03 -0.20719342333E+03 -0.14632029717E+03  0.45148149473E+03  0.00000000000E+00 0. -1.
        -11    1    3    3    0    0 -0.51408024247E+03 -0.36021011741E+03 -0.12484688486E+03  0.64001294443E+03  0.00000000000E+00 0.  1.
         22    1    1    2    0    0  0.88757294126E+03  0.56740354075E+03  0.33083820996E+04  0.34720490523E+04  0.00000000000E+00 0. -1.
<mgrwt>
<rscale>  0 0.34060615E+04</rscale>
<asrwt>0</asrwt>
<pdfrwt beam="1">  1        2 0.58467371E+00 0.34060615E+04</pdfrwt>
<pdfrwt beam="2">  1       -2 0.11740989E+00 0.34060615E+04</pdfrwt>
<totfact> 0.22729845E-01</totfact>
</mgrwt>
</event>
<event>
 6    1  0.9988873E-007  0.2884359E+04  0.7818608E-02  0.8277546E-01
          2   -1    0    0  501    0  0.00000000000E+00  0.00000000000E+00  0.19077199047E+04  0.19077199047E+04  0.00000000000E+00 0. -1.
         -2   -1    0    0    0  501 -0.00000000000E+00 -0.00000000000E+00 -0.10902451362E+04  0.10902451362E+04  0.00000000000E+00 0.  1.
         23    2    1    2    0    0 -0.28880126993E+03 -0.73042485361E+03 -0.84638739179E+03  0.11580291919E+04  0.87939479349E+02 0.  0.
         13    1    3    3    0    0 -0.94878919067E+02 -0.30780580618E+03 -0.29524637843E+03  0.43694032496E+03  0.00000000000E+00 0. -1.
        -13    1    3    3    0    0 -0.19392235086E+03 -0.42261904742E+03 -0.55114101336E+03  0.72108886694E+03  0.00000000000E+00 0.  1.
         22    1    1    2    0    0  0.28880126993E+03  0.73042485361E+03  0.16638621602E+04  0.18399358490E+04  0.00000000000E+00 0. -1.
<mgrwt>
<rscale>  0 0.28843594E+04</rscale>
<asrwt>0</asrwt>
<pdfrwt beam="1">  1        2 0.29349537E+00 0.28843594E+04</pdfrwt>
<pdfrwt beam="2">  1       -2 0.16773002E+00 0.28843594E+04</pdfrwt>
<totfact> 0.14377486E+00</totfact>
</mgrwt>
</event>
<event>
 6    1  0.9988873E-007  0.3694855E+04  0.7818608E-02  0.8069103E-01
          2   -1    0    0  501    0  0.00000000000E+00  0.00000000000E+00  0.15834415725E+04  0.15834415725E+04  0.00000000000E+00 0. -1.
         -2   -1    0    0    0  501 -0.00000000000E+00 -0.00000000000E+00 -0.21554244339E+04  0.21554244339E+04  0.00000000000E+00 0.  1.
         23    2    1    2    0    0 -0.10220398832E+04 -0.56084213912E+03 -0.17349747677E+04  0.20921542520E+04  0.88670975017E+02 0.  0.
         11    1    3    3    0    0 -0.53014578789E+03 -0.31914477678E+03 -0.85421139680E+03  0.10547914748E+04  0.00000000000E+00 0. -1.
        -11    1    3    3    0    0 -0.49189409533E+03 -0.24169736234E+03 -0.88076337085E+03  0.10373627772E+04  0.00000000000E+00 0.  1.
         22    1    1    2    0    0  0.10220398832E+04  0.56084213912E+03  0.11629919063E+04  0.16467117544E+04  0.00000000000E+00 0. -1.
<mgrwt>
<rscale>  0 0.36948552E+04</rscale>
<asrwt>0</asrwt>
<pdfrwt beam="1">  1        2 0.24360640E+00 0.36948552E+04</pdfrwt>
<pdfrwt beam="2">  1       -2 0.33160376E+00 0.36948552E+04</pdfrwt>
<totfact> 0.18687443E-01</totfact>
</mgrwt>
</event>
<event>
 6    1  0.9988873E-007  0.1952110E+04  0.7818608E-02  0.8629344E-01
          2   -1    0    0  501    0  0.00000000000E+00  0.00000000000E+00  0.15021564609E+04  0.15021564609E+04  0.00000000000E+00 0. -1.
         -2   -1    0    0    0  501 -0.00000000000E+00 -0.00000000000E+00 -0.63421075375E+03  0.63421075375E+03  0.00000000000E+00 0.  1.
         23    2    1    2    0    0 -0.16059023305E+03  0.66911818456E+03  0.11891874026E+04  0.13769565255E+04  0.91291986155E+02 0.  0.
         13    1    3    3    0    0 -0.15776636302E+03  0.61115330619E+03  0.10358695115E+04  0.12130227672E+04  0.00000000000E+00 0.  1.
        -13    1    3    3    0    0 -0.28238700219E+01  0.57964878367E+02  0.15331789108E+03  0.16393375824E+03  0.00000000000E+00 0. -1.
         22    1    1    2    0    0  0.16059023305E+03 -0.66911818456E+03 -0.32124169547E+03  0.75941068913E+03  0.00000000000E+00 0.  1.
<mgrwt>
<rscale>  0 0.19521104E+04</rscale>
<asrwt>0</asrwt>
<pdfrwt beam="1">  1        2 0.23110099E+00 0.19521104E+04</pdfrwt>
<pdfrwt beam="2">  1       -2 0.97570886E-01 0.19521104E+04</pdfrwt>
<totfact> 0.10335766E+01</totfact>
</mgrwt>
</event>
<event>
 6    1  0.9988873E-007  0.2093482E+04  0.7818608E-02  0.8564120E-01
         -2   -1    0    0    0  501 -0.00000000000E+00  0.00000000000E+00  0.11333444008E+04  0.11333444008E+04  0.00000000000E+00 0.  1.
          2   -1    0    0  501    0  0.00000000000E+00 -0.00000000000E+00 -0.96675508526E+03  0.96675508526E+03  0.00000000000E+00 0. -1.
         23    2    1    2    0    0 -0.47636407488E+03  0.92903621847E+03  0.11977591987E+03  0.10550049826E+04  0.93049531687E+02 0.  0.
         13    1    3    3    0    0 -0.37832301317E+03  0.69030947362E+03  0.12404171597E+03  0.79689511164E+03  0.00000000000E+00 0.  1.
        -13    1    3    3    0    0 -0.98041061711E+02  0.23872674485E+03 -0.42657961008E+01  0.25810987099E+03  0.00000000000E+00 0. -1.
         22    1    1    2    0    0  0.47636407488E+03 -0.92903621847E+03  0.46813395673E+02  0.10450945034E+04  0.00000000000E+00 0. -1.
<mgrwt>
<rscale>  0 0.20934818E+04</rscale>
<asrwt>0</asrwt>
<pdfrwt beam="1">  1        2 0.14873155E+00 0.20934818E+04</pdfrwt>
<pdfrwt beam="2">  1       -2 0.17436068E+00 0.20934818E+04</pdfrwt>
<totfact> 0.48442028E+00</totfact>
</mgrwt>
</event>
<event>
 6    1  0.9988873E-007  0.3030607E+04  0.7818608E-02  0.8235044E-01
          1   -1    0    0  501    0  0.00000000000E+00  0.00000000000E+00  0.11240118717E+04  0.11240118717E+04  0.00000000000E+00 0. -1.
         -1   -1    0    0    0  501 -0.00000000000E+00 -0.00000000000E+00 -0.20428120597E+04  0.20428120597E+04  0.00000000000E+00 0.  1.
         23    2    1    2    0    0 -0.54800417315E+03  0.64521192772E+03 -0.17714731370E+04  0.19653006634E+04  0.87650539246E+02 0.  0.
         13    1    3    3    0    0 -0.27367431546E+03  0.26052664265E+03 -0.74722265967E+03  0.83732518510E+03  0.00000000000E+00 0. -1.
        -13    1    3    3    0    0 -0.27432985770E+03  0.38468528507E+03 -0.10242504773E+04  0.11279754783E+04  0.00000000000E+00 0.  1.
         22    1    1    2    0    0  0.54800417315E+03 -0.64521192772E+03  0.85267294897E+03  0.12015232679E+04  0.00000000000E+00 0. -1.
<mgrwt>
<rscale>  0 0.30306072E+04</rscale>
<asrwt>0</asrwt>
<pdfrwt beam="1">  1        1 0.17292490E+00 0.30306072E+04</pdfrwt>
<pdfrwt beam="2">  1       -1 0.31427878E+00 0.30306072E+04</pdfrwt>
<totfact> 0.27530765E-01</totfact>
</mgrwt>
</event>
<event>
 6    1  0.9988873E-007  0.2494593E+04  0.7818608E-02  0.8404914E-01
         -2   -1    0    0    0  501 -0.00000000000E+00  0.00000000000E+00  0.62394916722E+03  0.62394916722E+03  0.00000000000E+00 0.  1.
          2   -1    0    0  501    0  0.00000000000E+00 -0.00000000000E+00 -0.24933897139E+04  0.24933897139E+04  0.00000000000E+00 0. -1.
         23    2    1    2    0    0  0.50962370472E+03 -0.71649291645E+03  0.16664921872E+03  0.89951563466E+03  0.90983488418E+02 0.  0.
         13    1    3    3    0    0  0.41242626330E+03 -0.58236785638E+03  0.98411614156E+02  0.72036975825E+03  0.00000000000E+00 0.  1.
        -13    1    3    3    0    0  0.97197441419E+02 -0.13412506007E+03  0.68237604568E+02  0.17914587641E+03  0.00000000000E+00 0. -1.
         22    1    1    2    0    0 -0.50962370472E+03  0.71649291645E+03 -0.20360897654E+04  0.22178232465E+04  0.00000000000E+00 0. -1.
<mgrwt>
<rscale>  0 0.24945929E+04</rscale>
<asrwt>0</asrwt>
<pdfrwt beam="1">  1        2 0.38359841E+00 0.24945929E+04</pdfrwt>
<pdfrwt beam="2">  1       -2 0.95992181E-01 0.24945929E+04</pdfrwt>
<totfact> 0.28498959E+00</totfact>
</mgrwt>
</event>
<event>
 6    1  0.9988873E-007  0.3739835E+04  0.7818608E-02  0.8059191E-01
         -2   -1    0    0    0  501 -0.00000000000E+00  0.00000000000E+00  0.69273751146E+03  0.69273751146E+03  0.00000000000E+00 0.  1.
          2   -1    0    0  501    0  0.00000000000E+00 -0.00000000000E+00 -0.50474983871E+04  0.50474983871E+04  0.00000000000E+00 0. -1.
         23    2    1    2    0    0 -0.42204572339E+03  0.15765514051E+04 -0.35759351484E+04  0.39318646870E+04  0.92794426691E+02 0.  0.
         11    1    3    3    0    0 -0.15828018080E+02  0.88188815995E+02 -0.24851383816E+03  0.26417214308E+03  0.00000000000E+00 0.  1.
        -11    1    3    3    0    0 -0.40621770531E+03  0.14883625891E+04 -0.33274213102E+04  0.36676925439E+04  0.00000000000E+00 0. -1.
         22    1    1    2    0    0  0.42204572339E+03 -0.15765514051E+04 -0.77882572725E+03  0.18083712116E+04  0.00000000000E+00 0.  1.
<mgrwt>
<rscale>  0 0.37398350E+04</rscale>
<asrwt>0</asrwt>
<pdfrwt beam="1">  1        2 0.77653820E+00 0.37398350E+04</pdfrwt>
<pdfrwt beam="2">  1       -2 0.10657500E+00 0.37398350E+04</pdfrwt>
<totfact> 0.16876662E-02</totfact>
</mgrwt>
</event>
<event>
 6    1  0.9988873E-007  0.2737283E+04  0.7818608E-02  0.8323008E-01
          4   -1    0    0  501    0  0.00000000000E+00  0.00000000000E+00  0.24074811722E+04  0.24074811722E+04  0.00000000000E+00 0. -1.
         -4   -1    0    0    0  501 -0.00000000000E+00 -0.00000000000E+00 -0.77806641273E+03  0.77806641273E+03  0.00000000000E+00 0.  1.
         23    2    1    2    0    0 -0.13394511724E+04 -0.12935025943E+03  0.53779991731E+03  0.14527798865E+04  0.10237047792E+03 0.  0.
         13    1    3    3    0    0 -0.89602377895E+03 -0.58451846434E+02  0.31580464519E+03  0.95184442254E+03  0.00000000000E+00 0.  1.
        -13    1    3    3    0    0 -0.44342739348E+03 -0.70898412994E+02  0.22199527212E+03  0.50093546401E+03  0.00000000000E+00 0. -1.
         22    1    1    2    0    0  0.13394511724E+04  0.12935025943E+03  0.10916148422E+04  0.17327676984E+04  0.00000000000E+00 0.  1.
<mgrwt>
<rscale>  0 0.27372835E+04</rscale>
<asrwt>0</asrwt>
<pdfrwt beam="1">  1        4 0.37038172E+00 0.27372835E+04</pdfrwt>
<pdfrwt beam="2">  1       -4 0.11970253E+00 0.27372835E+04</pdfrwt>
<totfact> 0.10079861E-02</totfact>
</mgrwt>
</event>
<event>
 6    1  0.9988873E-007  0.3550130E+04  0.7818608E-02  0.8102012E-01
          2   -1    0    0  501    0  0.00000000000E+00  0.00000000000E+00  0.22178683005E+04  0.22178683005E+04  0.00000000000E+00 0. -1.
         -2   -1    0    0    0  501 -0.00000000000E+00 -0.00000000000E+00 -0.14206683409E+04  0.14206683409E+04  0.00000000000E+00 0.  1.
         23    2    1    2    0    0 -0.15650184364E+03 -0.10739829009E+04 -0.10392824134E+04  0.15053231957E+04  0.89207008050E+02 0.  0.
         11    1    3    3    0    0 -0.11158874334E+02 -0.30280189610E+03 -0.32196779574E+03  0.44212754976E+03  0.00000000000E+00 0.  1.
        -11    1    3    3    0    0 -0.14534296931E+03 -0.77118100483E+03 -0.71731461761E+03  0.10631956460E+04  0.00000000000E+00 0. -1.
         22    1    1    2    0    0  0.15650184364E+03  0.10739829009E+04  0.18364823730E+04  0.21332134457E+04  0.00000000000E+00 0. -1.
<mgrwt>
<rscale>  0 0.35501297E+04</rscale>
<asrwt>0</asrwt>
<pdfrwt beam="1">  1        2 0.34121051E+00 0.35501297E+04</pdfrwt>
<pdfrwt beam="2">  1       -2 0.21856436E+00 0.35501297E+04</pdfrwt>
<totfact> 0.41676010E-01</totfact>
</mgrwt>
</event>
<event>
 6    1  0.9988873E-007  0.9484384E+03  0.7818608E-02  0.9366978E-01
          2   -1    0    0  501    0  0.00000000000E+00  0.00000000000E+00  0.50457414409E+03  0.50457414409E+03  0.00000000000E+00 0. -1.
         -2   -1    0    0    0  501 -0.00000000000E+00 -0.00000000000E+00 -0.44569035562E+03  0.44569035562E+03  0.00000000000E+00 0.  1.
         23    2    1    2    0    0 -0.25536247775E+02  0.37277946472E+03  0.31498707344E+03  0.49726833876E+03  0.91882071329E+02 0.  0.
         11    1    3    3    0    0  0.11094125976E+02  0.21745861549E+03  0.22900208415E+03  0.31599570191E+03  0.00000000000E+00 0.  1.
        -11    1    3    3    0    0 -0.36630373751E+02  0.15532084923E+03  0.85984989290E+02  0.18127263685E+03  0.00000000000E+00 0. -1.
         22    1    1    2    0    0  0.25536247775E+02 -0.37277946472E+03 -0.25610328497E+03  0.45299616095E+03  0.00000000000E+00 0.  1.
<mgrwt>
<rscale>  0 0.94843836E+03</rscale>
<asrwt>0</asrwt>
<pdfrwt beam="1">  1        2 0.77626791E-01 0.94843836E+03</pdfrwt>
<pdfrwt beam="2">  1       -2 0.68567747E-01 0.94843836E+03</pdfrwt>
<totfact> 0.11870070E+02</totfact>
</mgrwt>
</event>
<event>
 6    1  0.9988873E-007  0.1690634E+04  0.7818608E-02  0.8766724E-01
         -2   -1    0    0    0  501 -0.00000000000E+00  0.00000000000E+00  0.93444264130E+03  0.93444264130E+03  0.00000000000E+00 0.  1.
          2   -1    0    0  501    0  0.00000000000E+00 -0.00000000000E+00 -0.76469218401E+03  0.76469218401E+03  0.00000000000E+00 0. -1.
         23    2    1    2    0    0 -0.21749760626E+03  0.81333105772E+03  0.12367916190E+03  0.85596510193E+03  0.92558643298E+02 0.  0.
         13    1    3    3    0    0 -0.40212512635E+02  0.80946268772E+02  0.36213521928E+02  0.97369213671E+02  0.00000000000E+00 0.  1.
        -13    1    3    3    0    0 -0.17728509362E+03  0.73238478895E+03  0.87465639975E+02  0.75859588826E+03  0.00000000000E+00 0. -1.
         22    1    1    2    0    0  0.21749760626E+03 -0.81333105772E+03  0.46071295390E+02  0.84316972339E+03  0.00000000000E+00 0. -1.
<mgrwt>
<rscale>  0 0.16906342E+04</rscale>
<asrwt>0</asrwt>
<pdfrwt beam="1">  1        2 0.11764495E+00 0.16906342E+04</pdfrwt>
<pdfrwt beam="2">  1       -2 0.14376041E+00 0.16906342E+04</pdfrwt>
<totfact> 0.11664130E+01</totfact>
</mgrwt>
</event>
<event>
 6    1  0.9988873E-007  0.1920419E+04  0.7818608E-02  0.8644759E-01
         -2   -1    0    0    0  501 -0.00000000000E+00  0.00000000000E+00  0.12902596221E+04  0.12902596221E+04  0.00000000000E+00 0.  1.
          2   -1    0    0  501    0  0.00000000000E+00 -0.00000000000E+00 -0.71458694324E+03  0.71458694324E+03  0.00000000000E+00 0. -1.
         23    2    1    2    0    0  0.36944376404E+03 -0.18511850849E+03 -0.61385927093E+03  0.74558336149E+03  0.91179972808E+02 0.  0.
         13    1    3    3    0    0  0.21792072710E+03 -0.14376366796E+03 -0.43703655426E+03  0.50907601130E+03  0.00000000000E+00 0. -1.
        -13    1    3    3    0    0  0.15152303694E+03 -0.41354840528E+02 -0.17682271668E+03  0.23650735019E+03  0.00000000000E+00 0.  1.
         22    1    1    2    0    0 -0.36944376404E+03  0.18511850849E+03  0.11895319498E+04  0.12592632038E+04  0.00000000000E+00 0.  1.
<mgrwt>
<rscale>  0 0.19204194E+04</rscale>
<asrwt>0</asrwt>
<pdfrwt beam="1">  1        2 0.10993645E+00 0.19204194E+04</pdfrwt>
<pdfrwt beam="2">  1       -2 0.19850148E+00 0.19204194E+04</pdfrwt>
<totfact> 0.50740321E+00</totfact>
</mgrwt>
</event>
<event>
 6    1  0.9988873E-007  0.1467687E+04  0.7818608E-02  0.8906230E-01
         -2   -1    0    0    0  501 -0.00000000000E+00  0.00000000000E+00  0.15220595250E+04  0.15220595250E+04  0.00000000000E+00 0.  1.
          2   -1    0    0  501    0  0.00000000000E+00 -0.00000000000E+00 -0.35381402950E+03  0.35381402950E+03  0.00000000000E+00 0. -1.
         23    2    1    2    0    0 -0.22503257045E+03  0.34263489512E+03  0.13601027651E+04  0.14232726917E+04  0.88245645409E+02 0.  0.
         13    1    3    3    0    0 -0.75080104782E+02  0.19329569073E+03  0.70089063625E+03  0.73092265676E+03  0.00000000000E+00 0.  1.
        -13    1    3    3    0    0 -0.14995246567E+03  0.14933920439E+03  0.65921212890E+03  0.69235003490E+03  0.00000000000E+00 0. -1.
         22    1    1    2    0    0  0.22503257045E+03 -0.34263489512E+03 -0.19185726966E+03  0.45260086283E+03  0.00000000000E+00 0. -1.
<mgrwt>
<rscale>  0 0.14676866E+04</rscale>
<asrwt>0</asrwt>
<pdfrwt beam="1">  1        2 0.54432929E-01 0.14676866E+04</pdfrwt>
<pdfrwt beam="2">  1       -2 0.23416300E+00 0.14676866E+04</pdfrwt>
<totfact> 0.71201818E+00</totfact>
</mgrwt>
</event>
<event>
 6    1  0.9988873E-007  0.1314983E+04  0.7818608E-02  0.9017767E-01
         -2   -1    0    0    0  501 -0.00000000000E+00  0.00000000000E+00  0.27766836039E+03  0.27766836039E+03  0.00000000000E+00 0.  1.
          2   -1    0    0  501    0  0.00000000000E+00 -0.00000000000E+00 -0.15568762660E+04  0.15568762660E+04  0.00000000000E+00 0. -1.
         23    2    1    2    0    0  0.30276277816E+03  0.14383339096E+03  0.14241850777E+03  0.37393687501E+03  0.84808082964E+02 0.  0.
         13    1    3    3    0    0  0.95095318804E+02  0.13667767610E+02  0.13521489896E+02  0.97019370328E+02  0.00000000000E+00 0. -1.
        -13    1    3    3    0    0  0.20766745936E+03  0.13016562335E+03  0.12889701788E+03  0.27691750468E+03  0.00000000000E+00 0.  1.
         22    1    1    2    0    0 -0.30276277816E+03 -0.14383339096E+03 -0.14216264134E+04  0.14606077514E+04  0.00000000000E+00 0. -1.
<mgrwt>
<rscale>  0 0.13149833E+04</rscale>
<asrwt>0</asrwt>
<pdfrwt beam="1">  1        2 0.23951942E+00 0.13149833E+04</pdfrwt>
<pdfrwt beam="2">  1       -2 0.42718211E-01 0.13149833E+04</pdfrwt>
<totfact> 0.59957397E+01</totfact>
</mgrwt>
</event>
<event>
 6    1  0.9988873E-007  0.1716210E+04  0.7818608E-02  0.8752173E-01
         -1   -1    0    0    0  501 -0.00000000000E+00  0.00000000000E+00  0.63329593324E+03  0.63329593324E+03  0.00000000000E+00 0.  1.
          1   -1    0    0  501    0  0.00000000000E+00 -0.00000000000E+00 -0.11627168541E+04  0.11627168541E+04  0.00000000000E+00 0. -1.
         23    2    1    2    0    0 -0.36973914485E+03 -0.17233544448E+03  0.52163954621E+03  0.66856671499E+03  0.92016822181E+02 0.  0.
         11    1    3    3    0    0 -0.31349034652E+03 -0.10539376203E+03  0.41067944188E+03  0.52729654505E+03  0.00000000000E+00 0.  1.
        -11    1    3    3    0    0 -0.56248798329E+02 -0.66941682448E+02  0.11096010433E+03  0.14127016994E+03  0.00000000000E+00 0. -1.
         22    1    1    2    0    0  0.36973914485E+03  0.17233544448E+03 -0.10510604671E+04  0.11274460724E+04  0.00000000000E+00 0. -1.
<mgrwt>
<rscale>  0 0.17162096E+04</rscale>
<asrwt>0</asrwt>
<pdfrwt beam="1">  1        1 0.17887952E+00 0.17162096E+04</pdfrwt>
<pdfrwt beam="2">  1       -1 0.97430144E-01 0.17162096E+04</pdfrwt>
<totfact> 0.10941618E+01</totfact>
</mgrwt>
</event>
<event>
 6    1  0.9988873E-007  0.1527699E+04  0.7818608E-02  0.8866240E-01
         -1   -1    0    0    0  501 -0.00000000000E+00  0.00000000000E+00  0.66324220648E+03  0.66324220648E+03  0.00000000000E+00 0.  1.
          1   -1    0    0  501    0  0.00000000000E+00 -0.00000000000E+00 -0.87971763553E+03  0.87971763553E+03  0.00000000000E+00 0. -1.
         23    2    1    2    0    0  0.49005828209E+03 -0.44470787794E+03 -0.48843254592E+03  0.82749992702E+03  0.90926127976E+02 0.  0.
         13    1    3    3    0    0  0.15354242085E+03 -0.12358116008E+03 -0.19656789559E+03  0.27836399858E+03  0.00000000000E+00 0.  1.
        -13    1    3    3    0    0  0.33651586123E+03 -0.32112671786E+03 -0.29186465033E+03  0.54913592844E+03  0.00000000000E+00 0. -1.
         22    1    1    2    0    0 -0.49005828209E+03  0.44470787794E+03  0.27195711687E+03  0.71545991499E+03  0.00000000000E+00 0.  1.
<mgrwt>
<rscale>  0 0.15276987E+04</rscale>
<asrwt>0</asrwt>
<pdfrwt beam="1">  1        1 0.13534118E+00 0.15276987E+04</pdfrwt>
<pdfrwt beam="2">  1       -1 0.10203726E+00 0.15276987E+04</pdfrwt>
<totfact> 0.16613711E+01</totfact>
</mgrwt>
</event>
<event>
 6    1  0.9988873E-007  0.3109240E+04  0.7818608E-02  0.8213207E-01
          2   -1    0    0  501    0  0.00000000000E+00  0.00000000000E+00  0.17642310728E+04  0.17642310728E+04  0.00000000000E+00 0. -1.
         -2   -1    0    0    0  501 -0.00000000000E+00 -0.00000000000E+00 -0.13699131220E+04  0.13699131220E+04  0.00000000000E+00 0.  1.
         23    2    1    2    0    0 -0.15060876328E+03  0.12969125873E+04  0.10454494750E+04  0.16751590954E+04  0.92347883456E+02 0.  0.
         11    1    3    3    0    0 -0.24731146528E+02  0.61239130708E+03  0.49039330223E+03  0.78493333059E+03  0.00000000000E+00 0. -1.
        -11    1    3    3    0    0 -0.12587761675E+03  0.68452128017E+03  0.55505617281E+03  0.89022576483E+03  0.00000000000E+00 0.  1.
         22    1    1    2    0    0  0.15060876328E+03 -0.12969125873E+04 -0.65113152421E+03  0.14589850994E+04  0.00000000000E+00 0.  1.
<mgrwt>
<rscale>  0 0.31092400E+04</rscale>
<asrwt>0</asrwt>
<pdfrwt beam="1">  1        2 0.27142017E+00 0.31092400E+04</pdfrwt>
<pdfrwt beam="2">  1       -2 0.21075586E+00 0.31092400E+04</pdfrwt>
<totfact> 0.86779501E-01</totfact>
</mgrwt>
</event>
<event>
 6    1  0.9988873E-007  0.2813352E+04  0.7818608E-02  0.8299135E-01
         -1   -1    0    0    0  501 -0.00000000000E+00  0.00000000000E+00  0.32361735859E+04  0.32361735859E+04  0.00000000000E+00 0.  1.
          1   -1    0    0  501    0  0.00000000000E+00 -0.00000000000E+00 -0.61144351761E+03  0.61144351761E+03  0.00000000000E+00 0. -1.
         23    2    1    2    0    0 -0.83221558636E+03  0.53179771828E+03 -0.53179828605E+02  0.99339338921E+03  0.92794052654E+02 0.  0.
         11    1    3    3    0    0 -0.45989589607E+03  0.32709553658E+03  0.61567427887E+01  0.56438783718E+03  0.00000000000E+00 0. -1.
        -11    1    3    3    0    0 -0.37231969028E+03  0.20470218171E+03 -0.59336571394E+02  0.42900555203E+03  0.00000000000E+00 0.  1.
         22    1    1    2    0    0  0.83221558636E+03 -0.53179771828E+03  0.26779098968E+04  0.28542237142E+04  0.00000000000E+00 0.  1.
<mgrwt>
<rscale>  0 0.28133520E+04</rscale>
<asrwt>0</asrwt>
<pdfrwt beam="1">  1        1 0.94068236E-01 0.28133520E+04</pdfrwt>
<pdfrwt beam="2">  1       -1 0.49787285E+00 0.28133520E+04</pdfrwt>
<totfact> 0.44181292E-02</totfact>
</mgrwt>
</event>
<event>
 6    1  0.9988873E-007  0.2217429E+04  0.7818608E-02  0.8511208E-01
          2   -1    0    0  501    0  0.00000000000E+00  0.00000000000E+00  0.23026713947E+04  0.23026713947E+04  0.00000000000E+00 0. -1.
         -2   -1    0    0    0  501 -0.00000000000E+00 -0.00000000000E+00 -0.53383575456E+03  0.53383575456E+03  0.00000000000E+00 0.  1.
         23    2    1    2    0    0 -0.23303084981E+03 -0.10746974995E+04  0.10466770120E+04  0.15209117796E+04  0.91442776677E+02 0.  0.
         13    1    3    3    0    0 -0.19013839417E+02 -0.83026727904E+02  0.50152463598E+02  0.98844490189E+02  0.00000000000E+00 0.  1.
        -13    1    3    3    0    0 -0.21401701039E+03 -0.99167077162E+03  0.99652454837E+03  0.14220672894E+04  0.00000000000E+00 0. -1.
         22    1    1    2    0    0  0.23303084981E+03  0.10746974995E+04  0.72215862814E+03  0.13155953696E+04  0.00000000000E+00 0.  1.
<mgrwt>
<rscale>  0 0.22174294E+04</rscale>
<asrwt>0</asrwt>
<pdfrwt beam="1">  1        2 0.35425713E+00 0.22174294E+04</pdfrwt>
<pdfrwt beam="2">  1       -2 0.82128579E-01 0.22174294E+04</pdfrwt>
<totfact> 0.53713629E+00</totfact>
</mgrwt>
</event>
<event>
 6    1  0.9988873E-007  0.3242807E+04  0.7818608E-02  0.8177603E-01
          2   -1    0    0  501    0  0.00000000000E+00  0.00000000000E+00  0.24375737898E+04  0.24375737898E+04  0.00000000000E+00 0. -1.
         -2   -1    0    0    0  501 -0.00000000000E+00 -0.00000000000E+00 -0.10785105364E+04  0.10785105364E+04  0.00000000000E+00 0.  1.
         23    2    1    2    0    0  0.10522339932E+04  0.11521191047E+04  0.11530115863E+04  0.19422253435E+04  0.90712507274E+02 0.  0.
         11    1    3    3    0    0  0.89246574525E+03  0.92734894935E+03  0.95940726875E+03  0.16052829930E+04  0.00000000000E+00 0.  1.
        -11    1    3    3    0    0  0.15976824794E+03  0.22477015535E+03  0.19360431753E+03  0.33694235048E+03  0.00000000000E+00 0. -1.
         22    1    1    2    0    0 -0.10522339932E+04 -0.11521191047E+04  0.20605166714E+03  0.15738589827E+04  0.00000000000E+00 0.  1.
<mgrwt>
<rscale>  0 0.32428068E+04</rscale>
<asrwt>0</asrwt>
<pdfrwt beam="1">  1        2 0.37501135E+00 0.32428068E+04</pdfrwt>
<pdfrwt beam="2">  1       -2 0.16592470E+00 0.32428068E+04</pdfrwt>
<totfact> 0.72350630E-01</totfact>
</mgrwt>
</event>
<event>
 6    1  0.9988873E-007  0.6379041E+04  0.7818608E-02  0.7645103E-01
         -2   -1    0    0    0  501 -0.00000000000E+00  0.00000000000E+00  0.30400911756E+04  0.30400911756E+04  0.00000000000E+00 0.  1.
          2   -1    0    0  501    0  0.00000000000E+00 -0.00000000000E+00 -0.33462947703E+04  0.33462947703E+04  0.00000000000E+00 0. -1.
         23    2    1    2    0    0 -0.17919066454E+04 -0.12155953874E+03 -0.27911541826E+04  0.33203322002E+04  0.91422650182E+02 0.  0.
         13    1    3    3    0    0 -0.12368319751E+04 -0.70296636743E+02 -0.19977166053E+04  0.23506523747E+04  0.00000000000E+00 0. -1.
        -13    1    3    3    0    0 -0.55507467028E+03 -0.51262901994E+02 -0.79343757734E+03  0.96967982543E+03  0.00000000000E+00 0.  1.
         22    1    1    2    0    0  0.17919066454E+04  0.12155953874E+03  0.24849505879E+04  0.30660537457E+04  0.00000000000E+00 0.  1.
<mgrwt>
<rscale>  0 0.63790411E+04</rscale>
<asrwt>0</asrwt>
<pdfrwt beam="1">  1        2 0.51481458E+00 0.63790411E+04</pdfrwt>
<pdfrwt beam="2">  1       -2 0.46770634E+00 0.63790411E+04</pdfrwt>
<totfact> 0.18104493E-03</totfact>
</mgrwt>
</event>
<event>
 6    1  0.9988873E-007  0.1639901E+04  0.7818608E-02  0.8796403E-01
         -2   -1    0    0    0  501 -0.00000000000E+00  0.00000000000E+00  0.24857614721E+03  0.24857614721E+03  0.00000000000E+00 0.  1.
          2   -1    0    0  501    0  0.00000000000E+00 -0.00000000000E+00 -0.27046810790E+04  0.27046810790E+04  0.00000000000E+00 0. -1.
         23    2    1    2    0    0 -0.65235747063E+03 -0.49140808161E+03 -0.12916254633E+04  0.15309124703E+04  0.91348136852E+02 0.  0.
         13    1    3    3    0    0 -0.55062798392E+02 -0.76155587165E+02 -0.16327052765E+03  0.18838484658E+03  0.00000000000E+00 0.  1.
        -13    1    3    3    0    0 -0.59729467224E+03 -0.41525249444E+03 -0.11283549356E+04  0.13425276237E+04  0.00000000000E+00 0. -1.
         22    1    1    2    0    0  0.65235747063E+03  0.49140808161E+03 -0.11644794686E+04  0.14223447560E+04  0.00000000000E+00 0. -1.
<mgrwt>
<rscale>  0 0.16399015E+04</rscale>
<asrwt>0</asrwt>
<pdfrwt beam="1">  1        2 0.41610477E+00 0.16399015E+04</pdfrwt>
<pdfrwt beam="2">  1       -2 0.38242485E-01 0.16399015E+04</pdfrwt>
<totfact> 0.16337925E+01</totfact>
</mgrwt>
</event>
<event>
 6    1  0.9988873E-007  0.4375857E+04  0.7818608E-02  0.7932738E-01
          2   -1    0    0  501    0  0.00000000000E+00  0.00000000000E+00  0.22819957162E+04  0.22819957162E+04  0.00000000000E+00 0. -1.
         -2   -1    0    0    0  501 -0.00000000000E+00 -0.00000000000E+00 -0.20977386451E+04  0.20977386451E+04  0.00000000000E+00 0.  1.
         23    2    1    2    0    0 -0.10676995776E+04  0.57057204641E+03 -0.17307348097E+04  0.21141817241E+04  0.93736506709E+02 0.  0.
         13    1    3    3    0    0 -0.26994974859E+03  0.18183027011E+03 -0.42172534050E+03  0.53271697618E+03  0.00000000000E+00 0. -1.
        -13    1    3    3    0    0 -0.79774982902E+03  0.38874177630E+03 -0.13090094692E+04  0.15814647479E+04  0.00000000000E+00 0.  1.
         22    1    1    2    0    0  0.10676995776E+04 -0.57057204641E+03  0.19149918808E+04  0.22655526372E+04  0.00000000000E+00 0. -1.
<mgrwt>
<rscale>  0 0.43758568E+04</rscale>
<asrwt>0</asrwt>
<pdfrwt beam="1">  1        2 0.35107626E+00 0.43758568E+04</pdfrwt>
<pdfrwt beam="2">  1       -2 0.32272902E+00 0.43758568E+04</pdfrwt>
<totfact> 0.81813796E-02</totfact>
</mgrwt>
</event>
<event>
 6    1  0.9988873E-007  0.2898564E+04  0.7818608E-02  0.8273305E-01
          2   -1    0    0  501    0  0.00000000000E+00  0.00000000000E+00  0.29799952696E+04  0.29799952696E+04  0.00000000000E+00 0. -1.
         -2   -1    0    0    0  501 -0.00000000000E+00 -0.00000000000E+00 -0.70483956112E+03  0.70483956112E+03  0.00000000000E+00 0.  1.
         23    2    1    2    0    0  0.44747775601E+03 -0.54877211468E+03 -0.46655590455E+03  0.85316222519E+03  0.93937183507E+02 0.  0.
         11    1    3    3    0    0  0.24082621387E+03 -0.36657572200E+03 -0.27708581621E+03  0.51879820237E+03  0.00000000000E+00 0.  1.
        -11    1    3    3    0    0  0.20665154214E+03 -0.18219639268E+03 -0.18947008834E+03  0.33436402281E+03  0.00000000000E+00 0. -1.
         22    1    1    2    0    0 -0.44747775601E+03  0.54877211468E+03  0.27417116131E+04  0.28316726056E+04  0.00000000000E+00 0. -1.
<mgrwt>
<rscale>  0 0.28985642E+04</rscale>
<asrwt>0</asrwt>
<pdfrwt beam="1">  1        2 0.45846081E+00 0.28985642E+04</pdfrwt>
<pdfrwt beam="2">  1       -2 0.10843686E+00 0.28985642E+04</pdfrwt>
<totfact> 0.10516158E+00</totfact>
</mgrwt>
</event>
<event>
 6    1  0.9988873E-007  0.1143410E+04  0.7818608E-02  0.9163885E-01
         -1   -1    0    0    0  501 -0.00000000000E+00  0.00000000000E+00  0.23064246607E+03  0.23064246607E+03  0.00000000000E+00 0.  1.
          1   -1    0    0  501    0  0.00000000000E+00 -0.00000000000E+00 -0.14171130669E+04  0.14171130669E+04  0.00000000000E+00 0. -1.
         23    2    1    2    0    0  0.44218354749E+03  0.32667982095E+03 -0.80500428237E+03  0.97860491672E+03  0.85963325360E+02 0.  0.
         13    1    3    3    0    0  0.27414795205E+03  0.15452585469E+03 -0.42441328526E+03  0.52835781066E+03  0.00000000000E+00 0.  1.
        -13    1    3    3    0    0  0.16803559544E+03  0.17215396626E+03 -0.38059099710E+03  0.45024710606E+03  0.00000000000E+00 0. -1.
         22    1    1    2    0    0 -0.44218354749E+03 -0.32667982095E+03 -0.38146631842E+03  0.66915061621E+03  0.00000000000E+00 0. -1.
<mgrwt>
<rscale>  0 0.11434097E+04</rscale>
<asrwt>0</asrwt>
<pdfrwt beam="1">  1        1 0.21801739E+00 0.11434097E+04</pdfrwt>
<pdfrwt beam="2">  1       -1 0.35483457E-01 0.11434097E+04</pdfrwt>
<totfact> 0.56192550E+01</totfact>
</mgrwt>
</event>
<event>
 6    1  0.9988873E-007  0.2645501E+04  0.7818608E-02  0.8352908E-01
         -2   -1    0    0    0  501 -0.00000000000E+00  0.00000000000E+00  0.96485787601E+03  0.96485787601E+03  0.00000000000E+00 0.  1.
          2   -1    0    0  501    0  0.00000000000E+00 -0.00000000000E+00 -0.18133950884E+04  0.18133950884E+04  0.00000000000E+00 0. -1.
         23    2    1    2    0    0 -0.11539626100E+03  0.12920371743E+04 -0.68841062485E+03  0.14712269965E+04  0.89013088433E+02 0.  0.
         13    1    3    3    0    0 -0.60490910753E+02  0.83438199268E+03 -0.39789337636E+03  0.92637551724E+03  0.00000000000E+00 0.  1.
        -13    1    3    3    0    0 -0.54905350242E+02  0.45765518163E+03 -0.29051724849E+03  0.54485147924E+03  0.00000000000E+00 0. -1.
         22    1    1    2    0    0  0.11539626100E+03 -0.12920371743E+04 -0.16012658757E+03  0.13070259680E+04  0.00000000000E+00 0.  1.
<mgrwt>
<rscale>  0 0.26455007E+04</rscale>
<asrwt>0</asrwt>
<pdfrwt beam="1">  1        2 0.27898386E+00 0.26455007E+04</pdfrwt>
<pdfrwt beam="2">  1       -2 0.14843967E+00 0.26455007E+04</pdfrwt>
<totfact> 0.23028670E+00</totfact>
</mgrwt>
</event>
<event>
 6    1  0.9988873E-007  0.3308430E+04  0.7818608E-02  0.8160754E-01
         -2   -1    0    0    0  501 -0.00000000000E+00  0.00000000000E+00  0.69349533819E+03  0.69349533819E+03  0.00000000000E+00 0.  1.
          2   -1    0    0  501    0  0.00000000000E+00 -0.00000000000E+00 -0.39458473167E+04  0.39458473167E+04  0.00000000000E+00 0. -1.
         23    2    1    2    0    0  0.11065702475E+03 -0.10957391879E+04  0.10108846831E+03  0.11096893893E+04  0.91117052737E+02 0.  0.
         13    1    3    3    0    0  0.67635271361E+02 -0.40497444916E+03  0.72954607562E+02  0.41701463903E+03  0.00000000000E+00 0.  1.
        -13    1    3    3    0    0  0.43021753387E+02 -0.69076473872E+03  0.28133860750E+02  0.69267475026E+03  0.00000000000E+00 0. -1.
         22    1    1    2    0    0 -0.11065702475E+03  0.10957391879E+04 -0.33534404469E+04  0.35296532656E+04  0.00000000000E+00 0. -1.
<mgrwt>
<rscale>  0 0.33084297E+04</rscale>
<asrwt>0</asrwt>
<pdfrwt beam="1">  1        2 0.60705344E+00 0.33084297E+04</pdfrwt>
<pdfrwt beam="2">  1       -2 0.10669159E+00 0.33084297E+04</pdfrwt>
<totfact> 0.22280475E-01</totfact>
</mgrwt>
</event>
<event>
 6    1  0.9988873E-007  0.1770982E+04  0.7818608E-02  0.8721885E-01
          1   -1    0    0  501    0  0.00000000000E+00  0.00000000000E+00  0.30400271892E+03  0.30400271892E+03  0.00000000000E+00 0. -1.
         -1   -1    0    0    0  501 -0.00000000000E+00 -0.00000000000E+00 -0.25792334414E+04  0.25792334414E+04  0.00000000000E+00 0.  1.
         23    2    1    2    0    0 -0.24515558212E+03 -0.21237715382E+02 -0.25214763727E+04  0.25351137389E+04  0.91685718334E+02 0.  0.
         11    1    3    3    0    0 -0.81479604385E+02  0.93365517322E+01 -0.12645357163E+04  0.12671924380E+04  0.00000000000E+00 0. -1.
        -11    1    3    3    0    0 -0.16367597774E+03 -0.30574267114E+02 -0.12569406564E+04  0.12679213009E+04  0.00000000000E+00 0.  1.
         22    1    1    2    0    0  0.24515558212E+03  0.21237715382E+02  0.24624565027E+03  0.34812242139E+03  0.00000000000E+00 0. -1.
<mgrwt>
<rscale>  0 0.17709816E+04</rscale>
<asrwt>0</asrwt>
<pdfrwt beam="1">  1        1 0.46769650E-01 0.17709816E+04</pdfrwt>
<pdfrwt beam="2">  1       -1 0.39680513E+00 0.17709816E+04</pdfrwt>
<totfact> 0.61524774E-01</totfact>
</mgrwt>
</event>
<event>
 6    1  0.9988873E-007  0.1116233E+04  0.7818608E-02  0.9189513E-01
         -2   -1    0    0    0  501 -0.00000000000E+00  0.00000000000E+00  0.24853751985E+03  0.24853751985E+03  0.00000000000E+00 0.  1.
          2   -1    0    0  501    0  0.00000000000E+00 -0.00000000000E+00 -0.12533085907E+04  0.12533085907E+04  0.00000000000E+00 0. -1.
         23    2    1    2    0    0 -0.24807438138E+03 -0.58263784288E+02  0.15666850990E+03  0.31278031464E+03  0.91383455679E+02 0.  0.
         11    1    3    3    0    0 -0.10266200127E+03 -0.70711725059E+02  0.67682776064E+02  0.14184707519E+03  0.00000000000E+00 0.  1.
        -11    1    3    3    0    0 -0.14541238012E+03  0.12447940771E+02  0.88985733838E+02  0.17093323945E+03  0.00000000000E+00 0. -1.
         22    1    1    2    0    0  0.24807438138E+03  0.58263784288E+02 -0.11614395807E+04  0.11890657959E+04  0.00000000000E+00 0. -1.
<mgrwt>
<rscale>  0 0.11162333E+04</rscale>
<asrwt>0</asrwt>
<pdfrwt beam="1">  1        2 0.19281671E+00 0.11162333E+04</pdfrwt>
<pdfrwt beam="2">  1       -2 0.38236541E-01 0.11162333E+04</pdfrwt>
<totfact> 0.11270928E+02</totfact>
</mgrwt>
</event>
<event>
 6    1  0.9988873E-007  0.2524110E+04  0.7818608E-02  0.8394446E-01
          1   -1    0    0  501    0  0.00000000000E+00  0.00000000000E+00  0.13402716156E+04  0.13402716156E+04  0.00000000000E+00 0. -1.
         -1   -1    0    0    0  501 -0.00000000000E+00 -0.00000000000E+00 -0.11884032383E+04  0.11884032383E+04  0.00000000000E+00 0.  1.
         23    2    1    2    0    0 -0.31597693139E+03 -0.73703915156E+03  0.10502267930E+04  0.13244672410E+04  0.90382651145E+02 0.  0.
         11    1    3    3    0    0 -0.95454303909E+02 -0.13625737960E+03  0.23871594899E+03  0.29096890200E+03  0.00000000000E+00 0. -1.
        -11    1    3    3    0    0 -0.22052262748E+03 -0.60078177196E+03  0.81151084396E+03  0.10334983390E+04  0.00000000000E+00 0.  1.
         22    1    1    2    0    0  0.31597693139E+03  0.73703915156E+03 -0.89835841564E+03  0.12042076129E+04  0.00000000000E+00 0.  1.
<mgrwt>
<rscale>  0 0.25241102E+04</rscale>
<asrwt>0</asrwt>
<pdfrwt beam="1">  1        1 0.20619563E+00 0.25241102E+04</pdfrwt>
<pdfrwt beam="2">  1       -1 0.18283127E+00 0.25241102E+04</pdfrwt>
<totfact> 0.14909498E+00</totfact>
</mgrwt>
</event>
<event>
 6    1  0.9988873E-007  0.2515997E+04  0.7818608E-02  0.8397309E-01
         -1   -1    0    0    0  501 -0.00000000000E+00  0.00000000000E+00  0.64453788482E+03  0.64453788482E+03  0.00000000000E+00 0.  1.
          1   -1    0    0  501    0  0.00000000000E+00 -0.00000000000E+00 -0.24553410398E+04  0.24553410398E+04  0.00000000000E+00 0. -1.
         23    2    1    2    0    0 -0.67546173453E+03 -0.99946364576E+03 -0.13391006348E+04  0.18046262845E+04  0.91155815730E+02 0.  0.
         11    1    3    3    0    0 -0.41790342258E+03 -0.55591326304E+03 -0.72809867792E+03  0.10068815777E+04  0.00000000000E+00 0. -1.
        -11    1    3    3    0    0 -0.25755831195E+03 -0.44355038272E+03 -0.61100195685E+03  0.79774470687E+03  0.00000000000E+00 0.  1.
         22    1    1    2    0    0  0.67546173453E+03  0.99946364576E+03 -0.47170252017E+03  0.12952526400E+04  0.00000000000E+00 0.  1.
<mgrwt>
<rscale>  0 0.25159971E+04</rscale>
<asrwt>0</asrwt>
<pdfrwt beam="1">  1        1 0.37774477E+00 0.25159971E+04</pdfrwt>
<pdfrwt beam="2">  1       -1 0.99159676E-01 0.25159971E+04</pdfrwt>
<totfact> 0.12537405E+00</totfact>
</mgrwt>
</event>
<event>
 6    1  0.9988873E-007  0.1966311E+04  0.7818608E-02  0.8622535E-01
         -1   -1    0    0    0  501 -0.00000000000E+00  0.00000000000E+00  0.12193033066E+04  0.12193033066E+04  0.00000000000E+00 0.  1.
          1   -1    0    0  501    0  0.00000000000E+00 -0.00000000000E+00 -0.79274323852E+03  0.79274323852E+03  0.00000000000E+00 0. -1.
         23    2    1    2    0    0  0.62517922616E+03  0.30772980551E+03 -0.49304224268E+03  0.85826358980E+03  0.89325463792E+02 0.  0.
         11    1    3    3    0    0  0.12691733137E+03  0.84199591384E+02 -0.70795180345E+02  0.16795695208E+03  0.00000000000E+00 0. -1.
        -11    1    3    3    0    0  0.49826189479E+03  0.22353021412E+03 -0.42224706233E+03  0.69030663772E+03  0.00000000000E+00 0.  1.
         22    1    1    2    0    0 -0.62517922616E+03 -0.30772980551E+03  0.91960231075E+03  0.11537829553E+04  0.00000000000E+00 0.  1.
<mgrwt>
<rscale>  0 0.19663107E+04</rscale>
<asrwt>0</asrwt>
<pdfrwt beam="1">  1        1 0.12196050E+00 0.19663107E+04</pdfrwt>
<pdfrwt beam="2">  1       -1 0.18758512E+00 0.19663107E+04</pdfrwt>
<totfact> 0.38351357E+00</totfact>
</mgrwt>
</event>
<event>
 6    1  0.9988873E-007  0.2435719E+04  0.7818608E-02  0.8426251E-01
          1   -1    0    0  501    0  0.00000000000E+00  0.00000000000E+00  0.20698350957E+04  0.20698350957E+04  0.00000000000E+00 0. -1.
         -1   -1    0    0    0  501 -0.00000000000E+00 -0.00000000000E+00 -0.71656974333E+03  0.71656974333E+03  0.00000000000E+00 0.  1.
         23    2    1    2    0    0  0.14454655576E+03 -0.98805229653E+03  0.14712883252E+04  0.17808848394E+04  0.98592230850E+02 0.  0.
         13    1    3    3    0    0  0.49126211732E+02 -0.27636877409E+03  0.49374580566E+03  0.56795950963E+03  0.00000000000E+00 0. -1.
        -13    1    3    3    0    0  0.95420344027E+02 -0.71168352244E+03  0.97754251956E+03  0.12129253298E+04  0.00000000000E+00 0.  1.
         22    1    1    2    0    0 -0.14454655576E+03  0.98805229653E+03 -0.11802297285E+03  0.10055199996E+04  0.00000000000E+00 0.  1.
<mgrwt>
<rscale>  0 0.24357185E+04</rscale>
<asrwt>0</asrwt>
<pdfrwt beam="1">  1        1 0.31843617E+00 0.24357185E+04</pdfrwt>
<pdfrwt beam="2">  1       -1 0.11024150E+00 0.24357185E+04</pdfrwt>
<totfact> 0.18116998E+00</totfact>
</mgrwt>
</event>
<event>
 6    1  0.9988873E-007  0.9985888E+03  0.7818608E-02  0.9310094E-01
          2   -1    0    0  501    0  0.00000000000E+00  0.00000000000E+00  0.15040599801E+04  0.15040599801E+04  0.00000000000E+00 0. -1.
         -2   -1    0    0    0  501 -0.00000000000E+00 -0.00000000000E+00 -0.16574797248E+03  0.16574797248E+03  0.00000000000E+00 0.  1.
         23    2    1    2    0    0  0.41756355775E+03  0.18664084017E+03  0.99387173583E+03  0.10972407261E+04  0.83438934485E+02 0.  0.
         11    1    3    3    0    0  0.30714603135E+03  0.99620567478E+02  0.73090985677E+03  0.79905704475E+03  0.00000000000E+00 0.  1.
        -11    1    3    3    0    0  0.11041752640E+03  0.87020272692E+02  0.26296187906E+03  0.29818368137E+03  0.00000000000E+00 0. -1.
         22    1    1    2    0    0 -0.41756355775E+03 -0.18664084017E+03  0.34444027177E+03  0.57256722644E+03  0.00000000000E+00 0. -1.
<mgrwt>
<rscale>  0 0.99858879E+03</rscale>
<asrwt>0</asrwt>
<pdfrwt beam="1">  1        2 0.23139383E+00 0.99858879E+03</pdfrwt>
<pdfrwt beam="2">  1       -2 0.25499689E-01 0.99858879E+03</pdfrwt>
<totfact> 0.17433179E+02</totfact>
</mgrwt>
</event>
<event>
 6    1  0.9988873E-007  0.2214704E+04  0.7818608E-02  0.8512333E-01
          2   -1    0    0  501    0  0.00000000000E+00  0.00000000000E+00  0.14228202319E+04  0.14228202319E+04  0.00000000000E+00 0. -1.
         -2   -1    0    0    0  501 -0.00000000000E+00 -0.00000000000E+00 -0.86182937367E+03  0.86182937367E+03  0.00000000000E+00 0.  1.
         23    2    1    2    0    0  0.84024763456E+03  0.52169435759E+03  0.79027341017E+03  0.12693902403E+04  0.92943149939E+02 0.  0.
         11    1    3    3    0    0  0.41846406214E+03  0.27540524128E+03  0.45701788042E+03  0.67810438817E+03  0.00000000000E+00 0.  1.
        -11    1    3    3    0    0  0.42178357243E+03  0.24628911631E+03  0.33325552975E+03  0.59128585209E+03  0.00000000000E+00 0. -1.
         22    1    1    2    0    0 -0.84024763456E+03 -0.52169435759E+03 -0.22928255197E+03  0.10152593653E+04  0.00000000000E+00 0.  1.
<mgrwt>
<rscale>  0 0.22147038E+04</rscale>
<asrwt>0</asrwt>
<pdfrwt beam="1">  1        2 0.21889542E+00 0.22147038E+04</pdfrwt>
<pdfrwt beam="2">  1       -2 0.13258913E+00 0.22147038E+04</pdfrwt>
<totfact> 0.52964827E+00</totfact>
</mgrwt>
</event>
<event>
 6    1  0.9988873E-007  0.1475839E+04  0.7818608E-02  0.8900681E-01
         -2   -1    0    0    0  501 -0.00000000000E+00  0.00000000000E+00  0.29971432253E+03  0.29971432253E+03  0.00000000000E+00 0.  1.
          2   -1    0    0  501    0  0.00000000000E+00 -0.00000000000E+00 -0.18168131986E+04  0.18168131986E+04  0.00000000000E+00 0. -1.
         23    2    1    2    0    0 -0.13520523659E+03  0.71576422987E+03 -0.90337557012E+03  0.11640280802E+04  0.90967367471E+02 0.  0.
         13    1    3    3    0    0 -0.51902686467E+01  0.25666183629E+03 -0.32932969569E+03  0.41756470823E+03  0.00000000000E+00 0. -1.
        -13    1    3    3    0    0 -0.13001496794E+03  0.45910239357E+03 -0.57404587444E+03  0.74646337193E+03  0.00000000000E+00 0.  1.
         22    1    1    2    0    0  0.13520523659E+03 -0.71576422987E+03 -0.61372330592E+03  0.95249944093E+03  0.00000000000E+00 0. -1.
<mgrwt>
<rscale>  0 0.14758387E+04</rscale>
<asrwt>0</asrwt>
<pdfrwt beam="1">  1        2 0.27950973E+00 0.14758387E+04</pdfrwt>
<pdfrwt beam="2">  1       -2 0.46109895E-01 0.14758387E+04</pdfrwt>
<totfact> 0.36455752E+01</totfact>
</mgrwt>
</event>
<event>
 6    1  0.9988873E-007  0.2772332E+04  0.7818608E-02  0.8311910E-01
          2   -1    0    0  501    0  0.00000000000E+00  0.00000000000E+00  0.13759616530E+04  0.13759616530E+04  0.00000000000E+00 0. -1.
         -2   -1    0    0    0  501 -0.00000000000E+00 -0.00000000000E+00 -0.13964461355E+04  0.13964461355E+04  0.00000000000E+00 0.  1.
         23    2    1    2    0    0 -0.10229999641E+04  0.52431070429E+03 -0.78214508866E+03  0.13934380571E+04  0.92130549158E+02 0.  0.
         11    1    3    3    0    0 -0.52478054655E+03  0.25969451650E+03 -0.34355222302E+03  0.67886964425E+03  0.00000000000E+00 0. -1.
        -11    1    3    3    0    0 -0.49821941758E+03  0.26461618778E+03 -0.43859286564E+03  0.71456841287E+03  0.00000000000E+00 0.  1.
         22    1    1    2    0    0  0.10229999641E+04 -0.52431070429E+03  0.76166060617E+03  0.13789697314E+04  0.00000000000E+00 0. -1.
<mgrwt>
<rscale>  0 0.27723321E+04</rscale>
<asrwt>0</asrwt>
<pdfrwt beam="1">  1        2 0.21168641E+00 0.27723321E+04</pdfrwt>
<pdfrwt beam="2">  1       -2 0.21483787E+00 0.27723321E+04</pdfrwt>
<totfact> 0.13889011E+00</totfact>
</mgrwt>
</event>
<event>
 6    1  0.9988873E-007  0.1238893E+04  0.7818608E-02  0.9079479E-01
         -1   -1    0    0    0  501 -0.00000000000E+00  0.00000000000E+00  0.35888103719E+03  0.35888103719E+03  0.00000000000E+00 0.  1.
          1   -1    0    0  501    0  0.00000000000E+00 -0.00000000000E+00 -0.10691946070E+04  0.10691946070E+04  0.00000000000E+00 0. -1.
         23    2    1    2    0    0  0.37311521989E+03  0.47631644654E+03 -0.49123567931E+03  0.78457937642E+03  0.90332611606E+02 0.  0.
         11    1    3    3    0    0  0.22806363705E+03  0.22073769159E+03 -0.27085796236E+03  0.41725554137E+03  0.00000000000E+00 0. -1.
        -11    1    3    3    0    0  0.14505158284E+03  0.25557875495E+03 -0.22037771695E+03  0.36732383505E+03  0.00000000000E+00 0.  1.
         22    1    1    2    0    0 -0.37311521989E+03 -0.47631644654E+03 -0.21907789051E+03  0.64349626779E+03  0.00000000000E+00 0. -1.
<mgrwt>
<rscale>  0 0.12388925E+04</rscale>
<asrwt>0</asrwt>
<pdfrwt beam="1">  1        1 0.16449147E+00 0.12388925E+04</pdfrwt>
<pdfrwt beam="2">  1       -1 0.55212469E-01 0.12388925E+04</pdfrwt>
<totfact> 0.43782810E+01</totfact>
</mgrwt>
</event>
<event>
 6    1  0.9988873E-007  0.1682007E+04  0.7818608E-02  0.8771694E-01
          1   -1    0    0  501    0  0.00000000000E+00  0.00000000000E+00  0.12860763913E+04  0.12860763913E+04  0.00000000000E+00 0. -1.
         -1   -1    0    0    0  501 -0.00000000000E+00 -0.00000000000E+00 -0.54995686814E+03  0.54995686814E+03  0.00000000000E+00 0.  1.
         23    2    1    2    0    0 -0.52405876567E+03 -0.39490572464E+03  0.93893739861E+03  0.11492121679E+04  0.92179428805E+02 0.  0.
         11    1    3    3    0    0 -0.39682775477E+03 -0.33017993218E+03  0.68280404387E+03  0.85598622471E+03  0.00000000000E+00 0.  1.
        -11    1    3    3    0    0 -0.12723101090E+03 -0.64725792460E+02  0.25613335474E+03  0.29322594318E+03  0.00000000000E+00 0. -1.
         22    1    1    2    0    0  0.52405876567E+03  0.39490572464E+03 -0.20281787543E+03  0.68682109157E+03  0.00000000000E+00 0.  1.
<mgrwt>
<rscale>  0 0.16820066E+04</rscale>
<asrwt>0</asrwt>
<pdfrwt beam="1">  1        1 0.19785791E+00 0.16820066E+04</pdfrwt>
<pdfrwt beam="2">  1       -1 0.84608749E-01 0.16820066E+04</pdfrwt>
<totfact> 0.12199299E+01</totfact>
</mgrwt>
</event>
<event>
 6    1  0.9988873E-007  0.1744531E+04  0.7818608E-02  0.8736366E-01
         -2   -1    0    0    0  501 -0.00000000000E+00  0.00000000000E+00  0.56000154932E+03  0.56000154932E+03  0.00000000000E+00 0.  1.
          2   -1    0    0  501    0  0.00000000000E+00 -0.00000000000E+00 -0.13586517044E+04  0.13586517044E+04  0.00000000000E+00 0. -1.
         23    2    1    2    0    0 -0.17379753973E+03 -0.33813173656E+02 -0.13371436247E+04  0.13517986583E+04  0.89764268736E+02 0.  0.
         11    1    3    3    0    0 -0.26871526591E+02 -0.43481515230E+02 -0.32190777980E+03  0.32594069983E+03  0.00000000000E+00 0. -1.
        -11    1    3    3    0    0 -0.14692601313E+03  0.96683415742E+01 -0.10152358449E+04  0.10258579585E+04  0.00000000000E+00 0.  1.
         22    1    1    2    0    0  0.17379753973E+03  0.33813173656E+02  0.53849346963E+03  0.56685459543E+03  0.00000000000E+00 0.  1.
<mgrwt>
<rscale>  0 0.17445310E+04</rscale>
<asrwt>0</asrwt>
<pdfrwt beam="1">  1        2 0.20902334E+00 0.17445310E+04</pdfrwt>
<pdfrwt beam="2">  1       -2 0.86154086E-01 0.17445310E+04</pdfrwt>
<totfact> 0.16935453E+01</totfact>
</mgrwt>
</event>
<event>
 6    1  0.9988873E-007  0.1224917E+04  0.7818608E-02  0.9091322E-01
         -2   -1    0    0    0  501 -0.00000000000E+00  0.00000000000E+00  0.34428349064E+03  0.34428349064E+03  0.00000000000E+00 0.  1.
          2   -1    0    0  501    0  0.00000000000E+00 -0.00000000000E+00 -0.10895246498E+04  0.10895246498E+04  0.00000000000E+00 0. -1.
         23    2    1    2    0    0  0.13287425167E+03  0.33346588057E+03  0.20128945226E+03  0.42149630182E+03  0.91030921133E+02 0.  0.
         11    1    3    3    0    0  0.51386243584E+02  0.14341743881E+03  0.35419758527E+02  0.15640865410E+03  0.00000000000E+00 0. -1.
        -11    1    3    3    0    0  0.81488008083E+02  0.19004844176E+03  0.16586969373E+03  0.26508764772E+03  0.00000000000E+00 0.  1.
         22    1    1    2    0    0 -0.13287425167E+03 -0.33346588057E+03 -0.94653061145E+03  0.10123118386E+04  0.00000000000E+00 0. -1.
<mgrwt>
<rscale>  0 0.12249169E+04</rscale>
<asrwt>0</asrwt>
<pdfrwt beam="1">  1        2 0.16761918E+00 0.12249169E+04</pdfrwt>
<pdfrwt beam="2">  1       -2 0.52966691E-01 0.12249169E+04</pdfrwt>
<totfact> 0.73224623E+01</totfact>
</mgrwt>
</event>
<event>
 6    1  0.1025548E-006  0.3045455E+04  0.7818608E-02  0.8230869E-01
         -2   -1    0    0    0  501 -0.00000000000E+00  0.00000000000E+00  0.74970826531E+03  0.74970826531E+03  0.00000000000E+00 0.  1.
          2   -1    0    0  501    0  0.00000000000E+00 -0.00000000000E+00 -0.30928019326E+04  0.30928019326E+04  0.00000000000E+00 0. -1.
         23    2    1    2    0    0 -0.12591277373E+04  0.74779567561E+03 -0.65416273465E+03  0.16070932957E+04  0.10108880456E+03 0.  0.
         11    1    3    3    0    0 -0.59449645530E+03  0.30458646761E+03 -0.26704340944E+03  0.71938246722E+03  0.00000000000E+00 0. -1.
        -11    1    3    3    0    0 -0.66463128201E+03  0.44320920800E+03 -0.38711932521E+03  0.88771082850E+03  0.00000000000E+00 0.  1.
         22    1    1    2    0    0  0.12591277373E+04 -0.74779567561E+03 -0.16889309326E+04  0.22354169022E+04  0.00000000000E+00 0. -1.
<mgrwt>
<rscale>  0 0.30454551E+04</rscale>
<asrwt>0</asrwt>
<pdfrwt beam="1">  1        2 0.47581569E+00 0.30454551E+04</pdfrwt>
<pdfrwt beam="2">  1       -2 0.11533973E+00 0.30454551E+04</pdfrwt>
<totfact> 0.75877637E-01</totfact>
</mgrwt>
</event>
<event>
 6    1  0.9988873E-007  0.2309823E+04  0.7818608E-02  0.8474058E-01
         -2   -1    0    0    0  501 -0.00000000000E+00  0.00000000000E+00  0.61005709671E+03  0.61005709671E+03  0.00000000000E+00 0.  1.
          2   -1    0    0  501    0  0.00000000000E+00 -0.00000000000E+00 -0.21863871659E+04  0.21863871659E+04  0.00000000000E+00 0. -1.
         23    2    1    2    0    0  0.32786670079E+03  0.50949068196E+03 -0.19771865731E+04  0.20699710936E+04  0.91849087659E+02 0.  0.
         13    1    3    3    0    0  0.88993283690E+02  0.79521791717E+02 -0.44809964433E+03  0.46372061755E+03  0.00000000000E+00 0. -1.
        -13    1    3    3    0    0  0.23887341710E+03  0.42996889025E+03 -0.15290869288E+04  0.16062504761E+04  0.00000000000E+00 0.  1.
         22    1    1    2    0    0 -0.32786670079E+03 -0.50949068196E+03  0.40085650396E+03  0.72647316899E+03  0.00000000000E+00 0.  1.
<mgrwt>
<rscale>  0 0.23098234E+04</rscale>
<asrwt>0</asrwt>
<pdfrwt beam="1">  1        2 0.33636725E+00 0.23098234E+04</pdfrwt>
<pdfrwt beam="2">  1       -2 0.93854939E-01 0.23098234E+04</pdfrwt>
<totfact> 0.45642561E+00</totfact>
</mgrwt>
</event>
<event>
 6    1  0.9988873E-007  0.2740956E+04  0.7818608E-02  0.8321837E-01
         -2   -1    0    0    0  501 -0.00000000000E+00  0.00000000000E+00  0.82476544032E+03  0.82476544032E+03  0.00000000000E+00 0.  1.
          2   -1    0    0  501    0  0.00000000000E+00 -0.00000000000E+00 -0.22772660493E+04  0.22772660493E+04  0.00000000000E+00 0. -1.
         23    2    1    2    0    0 -0.66754641817E+03 -0.95110085745E+03 -0.15463890915E+04  0.19362587380E+04  0.86992049190E+02 0.  0.
         13    1    3    3    0    0 -0.47955080232E+03 -0.66694273069E+03 -0.11553154837E+04  0.14175808424E+04  0.00000000000E+00 0. -1.
        -13    1    3    3    0    0 -0.18799561585E+03 -0.28415812676E+03 -0.39107360782E+03  0.51867789554E+03  0.00000000000E+00 0.  1.
         22    1    1    2    0    0  0.66754641817E+03  0.95110085745E+03  0.93888482459E+02  0.11657727517E+04  0.00000000000E+00 0.  1.
<mgrwt>
<rscale>  0 0.27409563E+04</rscale>
<asrwt>0</asrwt>
<pdfrwt beam="1">  1        2 0.35034862E+00 0.27409563E+04</pdfrwt>
<pdfrwt beam="2">  1       -2 0.12688699E+00 0.27409563E+04</pdfrwt>
<totfact> 0.18852962E+00</totfact>
</mgrwt>
</event>
<event>
 6    1  0.9988873E-007  0.2386143E+04  0.7818608E-02  0.8444710E-01
         -2   -1    0    0    0  501 -0.00000000000E+00  0.00000000000E+00  0.85551906151E+03  0.85551906151E+03  0.00000000000E+00 0.  1.
          2   -1    0    0  501    0  0.00000000000E+00 -0.00000000000E+00 -0.16638079049E+04  0.16638079049E+04  0.00000000000E+00 0. -1.
         23    2    1    2    0    0  0.61323757072E+03 -0.86849257283E+03 -0.97175535548E+03  0.14436592818E+04  0.97488378125E+02 0.  0.
         13    1    3    3    0    0  0.14657218358E+03 -0.16219073561E+03 -0.16098726646E+03  0.27148874688E+03  0.00000000000E+00 0. -1.
        -13    1    3    3    0    0  0.46666538713E+03 -0.70630183722E+03 -0.81076808902E+03  0.11721705349E+04  0.00000000000E+00 0.  1.
         22    1    1    2    0    0 -0.61323757072E+03  0.86849257283E+03  0.16346651205E+03  0.10756676846E+04  0.00000000000E+00 0.  1.
<mgrwt>
<rscale>  0 0.23861428E+04</rscale>
<asrwt>0</asrwt>
<pdfrwt beam="1">  1        2 0.25597044E+00 0.23861428E+04</pdfrwt>
<pdfrwt beam="2">  1       -2 0.13161832E+00 0.23861428E+04</pdfrwt>
<totfact> 0.38929539E+00</totfact>
</mgrwt>
</event>
<event>
 6    1  0.9988873E-007  0.5482652E+04  0.7818608E-02  0.7758081E-01
          2   -1    0    0  501    0  0.00000000000E+00  0.00000000000E+00  0.29134504660E+04  0.29134504660E+04  0.00000000000E+00 0. -1.
         -2   -1    0    0    0  501 -0.00000000000E+00 -0.00000000000E+00 -0.25793703063E+04  0.25793703063E+04  0.00000000000E+00 0.  1.
         23    2    1    2    0    0 -0.24457610773E+04 -0.33229535792E+03  0.13603262804E+04  0.28197422938E+04  0.91058016984E+02 0.  0.
         11    1    3    3    0    0 -0.15610518450E+04 -0.21316750038E+03  0.91801406344E+03  0.18234782880E+04  0.00000000000E+00 0. -1.
        -11    1    3    3    0    0 -0.88470923229E+03 -0.11912785755E+03  0.44231221696E+03  0.99626400589E+03  0.00000000000E+00 0.  1.
         22    1    1    2    0    0  0.24457610773E+04  0.33229535792E+03 -0.10262461207E+04  0.26730784785E+04  0.00000000000E+00 0.  1.
<mgrwt>
<rscale>  0 0.54826518E+04</rscale>
<asrwt>0</asrwt>
<pdfrwt beam="1">  1        2 0.44822315E+00 0.54826518E+04</pdfrwt>
<pdfrwt beam="2">  1       -2 0.39682620E+00 0.54826518E+04</pdfrwt>
<totfact> 0.10760460E-02</totfact>
</mgrwt>
</event>
<event>
 6    1  0.9988873E-007  0.1377962E+04  0.7818608E-02  0.8969927E-01
         -1   -1    0    0    0  501 -0.00000000000E+00  0.00000000000E+00  0.81073952882E+03  0.81073952882E+03  0.00000000000E+00 0.  1.
          1   -1    0    0  501    0  0.00000000000E+00 -0.00000000000E+00 -0.58550841847E+03  0.58550841847E+03  0.00000000000E+00 0. -1.
         23    2    1    2    0    0 -0.17026256706E+03 -0.15480221484E+03  0.76787340924E+03  0.80682981727E+03  0.91606298707E+02 0.  0.
         11    1    3    3    0    0 -0.82090462477E+02 -0.51497677650E+02  0.19091632738E+03  0.21410254294E+03  0.00000000000E+00 0.  1.
        -11    1    3    3    0    0 -0.88172104583E+02 -0.10330453719E+03  0.57695708186E+03  0.59272727433E+03  0.00000000000E+00 0. -1.
         22    1    1    2    0    0  0.17026256706E+03  0.15480221484E+03 -0.54264229889E+03  0.58941813002E+03  0.00000000000E+00 0. -1.
<mgrwt>
<rscale>  0 0.13779620E+04</rscale>
<asrwt>0</asrwt>
<pdfrwt beam="1">  1        1 0.90078218E-01 0.13779620E+04</pdfrwt>
<pdfrwt beam="2">  1       -1 0.12472916E+00 0.13779620E+04</pdfrwt>
<totfact> 0.19504299E+01</totfact>
</mgrwt>
</event>
<event>
 6    1  0.9988873E-007  0.4175307E+04  0.7818608E-02  0.7970086E-01
         -2   -1    0    0    0  501 -0.00000000000E+00  0.00000000000E+00  0.14645062789E+04  0.14645062789E+04  0.00000000000E+00 0.  1.
          2   -1    0    0  501    0  0.00000000000E+00 -0.00000000000E+00 -0.29759503662E+04  0.29759503662E+04  0.00000000000E+00 0. -1.
         23    2    1    2    0    0  0.11144711233E+04 -0.97892137778E+03 -0.23170161197E+04  0.27524758254E+04  0.85008950630E+02 0.  0.
         11    1    3    3    0    0  0.92363401821E+03 -0.78279944469E+03 -0.19349361787E+04  0.22825101940E+04  0.00000000000E+00 0. -1.
        -11    1    3    3    0    0  0.19083710513E+03 -0.19612193309E+03 -0.38207994104E+03  0.46996563138E+03  0.00000000000E+00 0.  1.
         22    1    1    2    0    0 -0.11144711233E+04  0.97892137778E+03  0.80557203237E+03  0.16879808198E+04  0.00000000000E+00 0.  1.
<mgrwt>
<rscale>  0 0.41753074E+04</rscale>
<asrwt>0</asrwt>
<pdfrwt beam="1">  1        2 0.45783851E+00 0.41753074E+04</pdfrwt>
<pdfrwt beam="2">  1       -2 0.22530866E+00 0.41753074E+04</pdfrwt>
<totfact> 0.12821185E-01</totfact>
</mgrwt>
</event>
<event>
 6    1  0.9988873E-007  0.1858830E+04  0.7818608E-02  0.8675625E-01
          2   -1    0    0  501    0  0.00000000000E+00  0.00000000000E+00  0.70007488156E+03  0.70007488156E+03  0.00000000000E+00 0. -1.
         -2   -1    0    0    0  501 -0.00000000000E+00 -0.00000000000E+00 -0.12338853066E+04  0.12338853066E+04  0.00000000000E+00 0.  1.
         23    2    1    2    0    0 -0.13395422169E+03 -0.88791489705E+03 -0.27107372473E+02  0.90290025714E+03  0.90318695683E+02 0.  0.
         13    1    3    3    0    0 -0.25945426712E+02 -0.47414622923E+03 -0.15634948750E+02  0.47511289551E+03  0.00000000000E+00 0. -1.
        -13    1    3    3    0    0 -0.10800879498E+03 -0.41376866782E+03 -0.11472423723E+02  0.42778736163E+03  0.00000000000E+00 0.  1.
         22    1    1    2    0    0  0.13395422169E+03  0.88791489705E+03 -0.50670305260E+03  0.10310599311E+04  0.00000000000E+00 0.  1.
<mgrwt>
<rscale>  0 0.18588299E+04</rscale>
<asrwt>0</asrwt>
<pdfrwt beam="1">  1        2 0.10770383E+00 0.18588299E+04</pdfrwt>
<pdfrwt beam="2">  1       -2 0.18982851E+00 0.18588299E+04</pdfrwt>
<totfact> 0.59783246E+00</totfact>
</mgrwt>
</event>
<event>
 6    1  0.9988873E-007  0.2717571E+04  0.7818608E-02  0.8329326E-01
          2   -1    0    0  501    0  0.00000000000E+00  0.00000000000E+00  0.79431290261E+03  0.79431290261E+03  0.00000000000E+00 0. -1.
         -2   -1    0    0    0  501 -0.00000000000E+00 -0.00000000000E+00 -0.23243970847E+04  0.23243970847E+04  0.00000000000E+00 0.  1.
         23    2    1    2    0    0 -0.54544563599E+03 -0.10387416177E+04 -0.15489696357E+04  0.19453167240E+04  0.91951802799E+02 0.  0.
         13    1    3    3    0    0 -0.26076619540E+03 -0.40268467088E+03 -0.61241968349E+03  0.77795361144E+03  0.00000000000E+00 0. -1.
        -13    1    3    3    0    0 -0.28467944060E+03 -0.63605694684E+03 -0.93654995218E+03  0.11673631125E+04  0.00000000000E+00 0.  1.
         22    1    1    2    0    0  0.54544563599E+03  0.10387416177E+04  0.18885453542E+02  0.11733932634E+04  0.00000000000E+00 0. -1.
<mgrwt>
<rscale>  0 0.27175714E+04</rscale>
<asrwt>0</asrwt>
<pdfrwt beam="1">  1        2 0.12220199E+00 0.27175714E+04</pdfrwt>
<pdfrwt beam="2">  1       -2 0.35759955E+00 0.27175714E+04</pdfrwt>
<totfact> 0.42432498E-01</totfact>
</mgrwt>
</event>
<event>
 6    1  0.9988873E-007  0.1006785E+04  0.7818608E-02  0.9301134E-01
          1   -1    0    0  501    0  0.00000000000E+00  0.00000000000E+00  0.87914119993E+03  0.87914119993E+03  0.00000000000E+00 0. -1.
         -1   -1    0    0    0  501 -0.00000000000E+00 -0.00000000000E+00 -0.28824054023E+03  0.28824054023E+03  0.00000000000E+00 0.  1.
         23    2    1    2    0    0 -0.17517063734E+03  0.26368035345E+03 -0.14963735617E+03  0.36201931620E+03  0.91948713742E+02 0.  0.
         11    1    3    3    0    0 -0.11520240910E+02  0.80564233316E+02 -0.57809188072E+02  0.99825917807E+02  0.00000000000E+00 0. -1.
        -11    1    3    3    0    0 -0.16365039643E+03  0.18311612013E+03 -0.91828168095E+02  0.26219339839E+03  0.00000000000E+00 0.  1.
         22    1    1    2    0    0  0.17517063734E+03 -0.26368035345E+03  0.74053801587E+03  0.80536242396E+03  0.00000000000E+00 0. -1.
<mgrwt>
<rscale>  0 0.10067852E+04</rscale>
<asrwt>0</asrwt>
<pdfrwt beam="1">  1        1 0.13525249E+00 0.10067852E+04</pdfrwt>
<pdfrwt beam="2">  1       -1 0.44344699E-01 0.10067852E+04</pdfrwt>
<totfact> 0.95444826E+01</totfact>
</mgrwt>
</event>
<event>
 6    1  0.9988873E-007  0.1307215E+04  0.7818608E-02  0.9023863E-01
          1   -1    0    0  501    0  0.00000000000E+00  0.00000000000E+00  0.22333998734E+04  0.22333998734E+04  0.00000000000E+00 0. -1.
         -1   -1    0    0    0  501 -0.00000000000E+00 -0.00000000000E+00 -0.19127919149E+03  0.19127919149E+03  0.00000000000E+00 0.  1.
         23    2    1    2    0    0 -0.69416490729E+02 -0.25192044548E+03  0.21298800943E+04  0.21490266125E+04  0.11680584264E+03 0.  0.
         13    1    3    3    0    0 -0.17019953205E+02 -0.15079380760E+03  0.79908528901E+03  0.81336692232E+03  0.00000000000E+00 0.  1.
        -13    1    3    3    0    0 -0.52396537523E+02 -0.10112663788E+03  0.13307948053E+04  0.13356596902E+04  0.00000000000E+00 0. -1.
         22    1    1    2    0    0  0.69416490729E+02  0.25192044548E+03 -0.87759412437E+02  0.27565245239E+03  0.00000000000E+00 0.  1.
<mgrwt>
<rscale>  0 0.13072152E+04</rscale>
<asrwt>0</asrwt>
<pdfrwt beam="1">  1        1 0.34359996E+00 0.13072152E+04</pdfrwt>
<pdfrwt beam="2">  1       -1 0.29427569E-01 0.13072152E+04</pdfrwt>
<totfact> 0.21480099E+01</totfact>
</mgrwt>
</event>
<event>
 6    1  0.9988873E-007  0.2921950E+04  0.7818608E-02  0.8266376E-01
          2   -1    0    0  501    0  0.00000000000E+00  0.00000000000E+00  0.15765201778E+04  0.15765201778E+04  0.00000000000E+00 0. -1.
         -2   -1    0    0    0  501 -0.00000000000E+00 -0.00000000000E+00 -0.13538985796E+04  0.13538985796E+04  0.00000000000E+00 0.  1.
         23    2    1    2    0    0 -0.10377558801E+04 -0.69996107994E+03 -0.64152176402E+03  0.14093577689E+04  0.88636148038E+02 0.  0.
         11    1    3    3    0    0 -0.22629213307E+03 -0.14682502015E+03 -0.17975453184E+03  0.32415645566E+03  0.00000000000E+00 0. -1.
        -11    1    3    3    0    0 -0.81146374706E+03 -0.55313605979E+03 -0.46176723218E+03  0.10852013132E+04  0.00000000000E+00 0.  1.
         22    1    1    2    0    0  0.10377558801E+04  0.69996107994E+03  0.86414336222E+03  0.15210609885E+04  0.00000000000E+00 0. -1.
<mgrwt>
<rscale>  0 0.29219503E+04</rscale>
<asrwt>0</asrwt>
<pdfrwt beam="1">  1        2 0.24254156E+00 0.29219503E+04</pdfrwt>
<pdfrwt beam="2">  1       -2 0.20829209E+00 0.29219503E+04</pdfrwt>
<totfact> 0.11632246E+00</totfact>
</mgrwt>
</event>
<event>
 6    1  0.9988873E-007  0.2619858E+04  0.7818608E-02  0.8361487E-01
         -2   -1    0    0    0  501 -0.00000000000E+00  0.00000000000E+00  0.94202675749E+03  0.94202675749E+03  0.00000000000E+00 0.  1.
          2   -1    0    0  501    0  0.00000000000E+00 -0.00000000000E+00 -0.18215129050E+04  0.18215129050E+04  0.00000000000E+00 0. -1.
         23    2    1    2    0    0 -0.33057679112E+02  0.12834451655E+04 -0.70586814291E+03  0.14679828268E+04  0.91648467152E+02 0.  0.
         11    1    3    3    0    0  0.12877558602E+02  0.16595745147E+03 -0.12155544542E+03  0.20611509776E+03  0.00000000000E+00 0. -1.
        -11    1    3    3    0    0 -0.45935237714E+02  0.11174877140E+04 -0.58431269749E+03  0.12618677290E+04  0.00000000000E+00 0.  1.
         22    1    1    2    0    0  0.33057679112E+02 -0.12834451655E+04 -0.17361800457E+03  0.12955568357E+04  0.00000000000E+00 0. -1.
<mgrwt>
<rscale>  0 0.26198579E+04</rscale>
<asrwt>0</asrwt>
<pdfrwt beam="1">  1        2 0.28023275E+00 0.26198579E+04</pdfrwt>
<pdfrwt beam="2">  1       -2 0.14492719E+00 0.26198579E+04</pdfrwt>
<totfact> 0.24327508E+00</totfact>
</mgrwt>
</event>
<event>
 6    1  0.9988873E-007  0.1088397E+04  0.7818608E-02  0.9216575E-01
         -2   -1    0    0    0  501 -0.00000000000E+00  0.00000000000E+00  0.13577895262E+03  0.13577895262E+03  0.00000000000E+00 0.  1.
          2   -1    0    0  501    0  0.00000000000E+00 -0.00000000000E+00 -0.21811345377E+04  0.21811345377E+04  0.00000000000E+00 0. -1.
         23    2    1    2    0    0 -0.20907062547E+03  0.29615787007E+03 -0.18828813934E+04  0.19196505127E+04  0.91628264545E+02 0.  0.
         11    1    3    3    0    0  0.67620588214E+00  0.95274505478E+01 -0.17333373268E+03  0.17359669482E+03  0.00000000000E+00 0. -1.
        -11    1    3    3    0    0 -0.20974683135E+03  0.28663041953E+03 -0.17095476607E+04  0.17460538179E+04  0.00000000000E+00 0.  1.
         22    1    1    2    0    0  0.20907062547E+03 -0.29615787007E+03 -0.16247419172E+03  0.39726297765E+03  0.00000000000E+00 0.  1.
<mgrwt>
<rscale>  0 0.10883973E+04</rscale>
<asrwt>0</asrwt>
<pdfrwt beam="1">  1        2 0.33555913E+00 0.10883973E+04</pdfrwt>
<pdfrwt beam="2">  1       -2 0.20889071E-01 0.10883973E+04</pdfrwt>
<totfact> 0.10453001E+02</totfact>
</mgrwt>
</event>
<event>
 6    1  0.9988873E-007  0.1855077E+04  0.7818608E-02  0.8677547E-01
         -2   -1    0    0    0  501 -0.00000000000E+00  0.00000000000E+00  0.51756346152E+03  0.51756346152E+03  0.00000000000E+00 0.  1.
          2   -1    0    0  501    0  0.00000000000E+00 -0.00000000000E+00 -0.16622641993E+04  0.16622641993E+04  0.00000000000E+00 0. -1.
         23    2    1    2    0    0 -0.52707056309E+03 -0.11266370018E+02  0.31988209109E+03  0.62325027046E+03  0.90476725530E+02 0.  0.
         13    1    3    3    0    0 -0.14684110293E+03 -0.16218203873E+02  0.13624975520E+03  0.20097098158E+03  0.00000000000E+00 0. -1.
        -13    1    3    3    0    0 -0.38022946016E+03  0.49518338551E+01  0.18363233589E+03  0.42227928888E+03  0.00000000000E+00 0.  1.
         22    1    1    2    0    0  0.52707056309E+03  0.11266370018E+02 -0.14645828288E+04  0.15565773903E+04  0.00000000000E+00 0. -1.
<mgrwt>
<rscale>  0 0.18550765E+04</rscale>
<asrwt>0</asrwt>
<pdfrwt beam="1">  1        2 0.25573295E+00 0.18550765E+04</pdfrwt>
<pdfrwt beam="2">  1       -2 0.79625148E-01 0.18550765E+04</pdfrwt>
<totfact> 0.13514998E+01</totfact>
</mgrwt>
</event>
<event>
 6    1  0.9988873E-007  0.2823567E+04  0.7818608E-02  0.8295989E-01
          2   -1    0    0  501    0  0.00000000000E+00  0.00000000000E+00  0.23234735417E+04  0.23234735417E+04  0.00000000000E+00 0. -1.
         -2   -1    0    0    0  501 -0.00000000000E+00 -0.00000000000E+00 -0.85782435356E+03  0.85782435356E+03  0.00000000000E+00 0.  1.
         23    2    1    2    0    0 -0.10265964668E+03  0.98749453079E+03  0.18620727292E+04  0.21122627811E+04  0.93030943138E+02 0.  0.
         13    1    3    3    0    0 -0.76305871900E+02  0.31371482771E+03  0.59868016749E+03  0.68018932817E+03  0.00000000000E+00 0. -1.
        -13    1    3    3    0    0 -0.26353774778E+02  0.67377970308E+03  0.12633925617E+04  0.14320734530E+04  0.00000000000E+00 0.  1.
         22    1    1    2    0    0  0.10265964668E+03 -0.98749453079E+03 -0.39642354103E+03  0.10690351141E+04  0.00000000000E+00 0.  1.
<mgrwt>
<rscale>  0 0.28235667E+04</rscale>
<asrwt>0</asrwt>
<pdfrwt beam="1">  1        2 0.35745747E+00 0.28235667E+04</pdfrwt>
<pdfrwt beam="2">  1       -2 0.13197298E+00 0.28235667E+04</pdfrwt>
<totfact> 0.15958447E+00</totfact>
</mgrwt>
</event>
<event>
 6    1  0.9988873E-007  0.5285642E+04  0.7818608E-02  0.7785894E-01
          1   -1    0    0  501    0  0.00000000000E+00  0.00000000000E+00  0.27225418545E+04  0.27225418545E+04  0.00000000000E+00 0. -1.
         -1   -1    0    0    0  501 -0.00000000000E+00 -0.00000000000E+00 -0.25654346881E+04  0.25654346881E+04  0.00000000000E+00 0.  1.
         23    2    1    2    0    0 -0.99718045501E+03  0.23572193192E+04 -0.57707641775E+03  0.26252941893E+04  0.91107682122E+02 0.  0.
         11    1    3    3    0    0 -0.66232396373E+02  0.21140491552E+03 -0.35565078065E+02  0.22437389200E+03  0.00000000000E+00 0.  1.
        -11    1    3    3    0    0 -0.93094805864E+03  0.21458144037E+04 -0.54151133968E+03  0.24009202973E+04  0.00000000000E+00 0. -1.
         22    1    1    2    0    0  0.99718045501E+03 -0.23572193192E+04  0.73418358419E+03  0.26626823532E+04  0.00000000000E+00 0. -1.
<mgrwt>
<rscale>  0 0.52856422E+04</rscale>
<asrwt>0</asrwt>
<pdfrwt beam="1">  1        1 0.41885259E+00 0.52856422E+04</pdfrwt>
<pdfrwt beam="2">  1       -1 0.39468226E+00 0.52856422E+04</pdfrwt>
<totfact> 0.51968893E-03</totfact>
</mgrwt>
</event>
<event>
 6    1  0.9988873E-007  0.8208961E+03  0.7818608E-02  0.9530254E-01
          2   -1    0    0  501    0  0.00000000000E+00  0.00000000000E+00  0.29601328366E+04  0.29601328366E+04  0.00000000000E+00 0. -1.
         -2   -1    0    0    0  501 -0.00000000000E+00 -0.00000000000E+00 -0.56912174555E+02  0.56912174555E+02  0.00000000000E+00 0.  1.
         23    2    1    2    0    0  0.74909661688E+02 -0.29445688061E+03  0.24560087945E+04  0.24763835955E+04  0.90444464680E+02 0.  0.
         13    1    3    3    0    0  0.58058787839E+02 -0.75041631100E+02  0.87608188874E+03  0.88120459884E+03  0.00000000000E+00 0. -1.
        -13    1    3    3    0    0  0.16850873849E+02 -0.21941524951E+03  0.15799269058E+04  0.15951789966E+04  0.00000000000E+00 0.  1.
         22    1    1    2    0    0 -0.74909661688E+02  0.29445688061E+03  0.44721186751E+03  0.54066141567E+03  0.00000000000E+00 0.  1.
<mgrwt>
<rscale>  0 0.82089609E+03</rscale>
<asrwt>0</asrwt>
<pdfrwt beam="1">  1        2 0.45540493E+00 0.82089609E+03</pdfrwt>
<pdfrwt beam="2">  1       -2 0.87557215E-02 0.82089609E+03</pdfrwt>
<totfact> 0.16409912E+02</totfact>
</mgrwt>
</event>
<event>
 6    1  0.9988873E-007  0.1068005E+04  0.7818608E-02  0.9236950E-01
          2   -1    0    0  501    0  0.00000000000E+00  0.00000000000E+00  0.87501132598E+03  0.87501132598E+03  0.00000000000E+00 0. -1.
         -2   -1    0    0    0  501 -0.00000000000E+00 -0.00000000000E+00 -0.32589118882E+03  0.32589118882E+03  0.00000000000E+00 0.  1.
         23    2    1    2    0    0  0.51377095727E+03 -0.10659872374E+03  0.36233614952E+03  0.64393560153E+03  0.89675466151E+02 0.  0.
         11    1    3    3    0    0  0.12195607089E+03 -0.44192259638E+02  0.13246778198E+03  0.18540213673E+03  0.00000000000E+00 0. -1.
        -11    1    3    3    0    0  0.39181488638E+03 -0.62406464105E+02  0.22986836754E+03  0.45853346480E+03  0.00000000000E+00 0.  1.
         22    1    1    2    0    0 -0.51377095727E+03  0.10659872374E+03  0.18678398763E+03  0.55696691327E+03  0.00000000000E+00 0. -1.
<mgrwt>
<rscale>  0 0.10680046E+04</rscale>
<asrwt>0</asrwt>
<pdfrwt beam="1">  1        2 0.13461713E+00 0.10680046E+04</pdfrwt>
<pdfrwt beam="2">  1       -2 0.50137106E-01 0.10680046E+04</pdfrwt>
<totfact> 0.11414440E+02</totfact>
</mgrwt>
</event>
<event>
 6    1  0.9988873E-007  0.1086143E+04  0.7818608E-02  0.9218804E-01
         -2   -1    0    0    0  501 -0.00000000000E+00  0.00000000000E+00  0.20607368622E+03  0.20607368622E+03  0.00000000000E+00 0.  1.
          2   -1    0    0  501    0  0.00000000000E+00 -0.00000000000E+00 -0.14311713233E+04  0.14311713233E+04  0.00000000000E+00 0. -1.
         23    2    1    2    0    0 -0.29360578987E+03  0.16836066998E+03 -0.12496357718E+04  0.12979047745E+04  0.91747296963E+02 0.  0.
         13    1    3    3    0    0 -0.24162482921E+03  0.92543000368E+02 -0.92290650844E+03  0.95849005646E+03  0.00000000000E+00 0.  1.
        -13    1    3    3    0    0 -0.51980960665E+02  0.75817669617E+02 -0.32672926332E+03  0.33941471802E+03  0.00000000000E+00 0. -1.
         22    1    1    2    0    0  0.29360578987E+03 -0.16836066998E+03  0.24538134708E+02  0.33934023501E+03  0.00000000000E+00 0.  1.
<mgrwt>
<rscale>  0 0.10861432E+04</rscale>
<asrwt>0</asrwt>
<pdfrwt beam="1">  1        2 0.22018021E+00 0.10861432E+04</pdfrwt>
<pdfrwt beam="2">  1       -2 0.31703643E-01 0.10861432E+04</pdfrwt>
<totfact> 0.12746970E+02</totfact>
</mgrwt>
</event>
<event>
 6    1  0.9988873E-007  0.2089170E+04  0.7818608E-02  0.8566029E-01
         -2   -1    0    0    0  501 -0.00000000000E+00  0.00000000000E+00  0.61975342083E+03  0.61975342083E+03  0.00000000000E+00 0.  1.
          2   -1    0    0  501    0  0.00000000000E+00 -0.00000000000E+00 -0.17606323828E+04  0.17606323828E+04  0.00000000000E+00 0. -1.
         23    2    1    2    0    0 -0.67279467546E+03 -0.56825488170E+03 -0.12072941459E+04  0.14972225896E+04  0.92466438515E+02 0.  0.
         13    1    3    3    0    0 -0.29327287797E+03 -0.27196748888E+03 -0.61958608989E+03  0.73747014770E+03  0.00000000000E+00 0. -1.
        -13    1    3    3    0    0 -0.37952179748E+03 -0.29628739282E+03 -0.58770805602E+03  0.75975244193E+03  0.00000000000E+00 0.  1.
         22    1    1    2    0    0  0.67279467546E+03  0.56825488170E+03  0.66415183943E+02  0.88316321400E+03  0.00000000000E+00 0.  1.
<mgrwt>
<rscale>  0 0.20891701E+04</rscale>
<asrwt>0</asrwt>
<pdfrwt beam="1">  1        2 0.27086651E+00 0.20891701E+04</pdfrwt>
<pdfrwt beam="2">  1       -2 0.95346683E-01 0.20891701E+04</pdfrwt>
<totfact> 0.77345339E+00</totfact>
</mgrwt>
</event>
<event>
 6    1  0.9988873E-007  0.2813447E+03  0.7818608E-02  0.1094957E+00
         -2   -1    0    0    0  501 -0.00000000000E+00  0.00000000000E+00  0.75961972189E+02  0.75961972189E+02  0.00000000000E+00 0.  1.
          2   -1    0    0  501    0  0.00000000000E+00 -0.00000000000E+00 -0.26050815559E+03  0.26050815559E+03  0.00000000000E+00 0. -1.
         23    2    1    2    0    0 -0.96831332193E+02  0.79821378934E+02 -0.11320781499E+03  0.19212012869E+03  0.91358497376E+02 0.  0.
         13    1    3    3    0    0 -0.60573598945E+02 -0.54981334411E+01 -0.58965120207E+02  0.84712901977E+02  0.00000000000E+00 0. -1.
        -13    1    3    3    0    0 -0.36257733249E+02  0.85319512375E+02 -0.54242694786E+02  0.10740722671E+03  0.00000000000E+00 0.  1.
         22    1    1    2    0    0  0.96831332193E+02 -0.79821378934E+02 -0.71338368404E+02  0.14434999908E+03  0.00000000000E+00 0. -1.
<mgrwt>
<rscale>  0 0.28134472E+03</rscale>
<asrwt>0</asrwt>
<pdfrwt beam="1">  1        2 0.40078178E-01 0.28134472E+03</pdfrwt>
<pdfrwt beam="2">  1       -2 0.11686457E-01 0.28134472E+03</pdfrwt>
<totfact> 0.65401733E+03</totfact>
</mgrwt>
</event>
<event>
 6    1  0.9988873E-007  0.5069407E+03  0.7818608E-02  0.1011983E+00
         -2   -1    0    0    0  501 -0.00000000000E+00  0.00000000000E+00  0.29616553607E+02  0.29616553607E+02  0.00000000000E+00 0.  1.
          2   -1    0    0  501    0  0.00000000000E+00 -0.00000000000E+00 -0.21693011404E+04  0.21693011404E+04  0.00000000000E+00 0. -1.
         23    2    1    2    0    0  0.13762109739E+03 -0.53220429294E+02 -0.19541248657E+04  0.19618430420E+04  0.91935575899E+02 0.  0.
         13    1    3    3    0    0 -0.65906808853E+01 -0.19961915263E+02 -0.44014825012E+03  0.44064997131E+03  0.00000000000E+00 0. -1.
        -13    1    3    3    0    0  0.14421177827E+03 -0.33258514032E+02 -0.15139766156E+04  0.15211930707E+04  0.00000000000E+00 0.  1.
         22    1    1    2    0    0 -0.13762109739E+03  0.53220429294E+02 -0.18555972112E+03  0.23707465205E+03  0.00000000000E+00 0.  1.
<mgrwt>
<rscale>  0 0.50694072E+03</rscale>
<asrwt>0</asrwt>
<pdfrwt beam="1">  1        2 0.33373866E+00 0.50694072E+03</pdfrwt>
<pdfrwt beam="2">  1       -2 0.45563925E-02 0.50694072E+03</pdfrwt>
<totfact> 0.13368886E+03</totfact>
</mgrwt>
</event>
<event>
 6    1  0.9988873E-007  0.2607223E+04  0.7818608E-02  0.8365752E-01
          1   -1    0    0  501    0  0.00000000000E+00  0.00000000000E+00  0.10001697781E+04  0.10001697781E+04  0.00000000000E+00 0. -1.
         -1   -1    0    0    0  501 -0.00000000000E+00 -0.00000000000E+00 -0.16991139452E+04  0.16991139452E+04  0.00000000000E+00 0.  1.
         23    2    1    2    0    0 -0.44927432356E+03  0.12093321359E+04 -0.16782243435E+03  0.13041414626E+04  0.91043683117E+02 0.  0.
         11    1    3    3    0    0 -0.14638487912E+03  0.28844665363E+03 -0.27716541367E+02  0.32465090712E+03  0.00000000000E+00 0. -1.
        -11    1    3    3    0    0 -0.30288944444E+03  0.92088548228E+03 -0.14010589299E+03  0.97949055548E+03  0.00000000000E+00 0.  1.
         22    1    1    2    0    0  0.44927432356E+03 -0.12093321359E+04 -0.53112173277E+03  0.13951422608E+04  0.00000000000E+00 0.  1.
<mgrwt>
<rscale>  0 0.26072226E+04</rscale>
<asrwt>0</asrwt>
<pdfrwt beam="1">  1        1 0.15387227E+00 0.26072226E+04</pdfrwt>
<pdfrwt beam="2">  1       -1 0.26140214E+00 0.26072226E+04</pdfrwt>
<totfact> 0.78223817E-01</totfact>
</mgrwt>
</event>
<event>
 6    1  0.9988873E-007  0.1611468E+04  0.7818608E-02  0.8813534E-01
          2   -1    0    0  501    0  0.00000000000E+00  0.00000000000E+00  0.25405117474E+04  0.25405117474E+04  0.00000000000E+00 0. -1.
         -2   -1    0    0    0  501 -0.00000000000E+00 -0.00000000000E+00 -0.25554179759E+03  0.25554179759E+03  0.00000000000E+00 0.  1.
         23    2    1    2    0    0 -0.38778820285E+03  0.69721114516E+03  0.13097915607E+04  0.15361107043E+04  0.87172772209E+02 0.  0.
         13    1    3    3    0    0 -0.31522710615E+03  0.49239901978E+03  0.92797598241E+03  0.10967973136E+04  0.00000000000E+00 0.  1.
        -13    1    3    3    0    0 -0.72561096699E+02  0.20481212539E+03  0.38181557828E+03  0.43931339073E+03  0.00000000000E+00 0. -1.
         22    1    1    2    0    0  0.38778820285E+03 -0.69721114516E+03  0.97517838912E+03  0.12599428407E+04  0.00000000000E+00 0. -1.
<mgrwt>
<rscale>  0 0.16114676E+04</rscale>
<asrwt>0</asrwt>
<pdfrwt beam="1">  1        2 0.39084794E+00 0.16114676E+04</pdfrwt>
<pdfrwt beam="2">  1       -2 0.39314124E-01 0.16114676E+04</pdfrwt>
<totfact> 0.19372135E+01</totfact>
</mgrwt>
</event>
<event>
 6    1  0.9988873E-007  0.2470631E+04  0.7818608E-02  0.8413524E-01
         -2   -1    0    0    0  501 -0.00000000000E+00  0.00000000000E+00  0.72525940514E+03  0.72525940514E+03  0.00000000000E+00 0.  1.
          2   -1    0    0  501    0  0.00000000000E+00 -0.00000000000E+00 -0.21040813534E+04  0.21040813534E+04  0.00000000000E+00 0. -1.
         23    2    1    2    0    0  0.91037376781E+03 -0.81352422585E+03 -0.48850359944E+03  0.13182918429E+04  0.93035225778E+02 0.  0.
         11    1    3    3    0    0  0.67027364944E+03 -0.64244842410E+03 -0.39533526605E+03  0.10091068900E+04  0.00000000000E+00 0. -1.
        -11    1    3    3    0    0  0.24010011837E+03 -0.17107580175E+03 -0.93168333396E+02  0.30918495295E+03  0.00000000000E+00 0.  1.
         22    1    1    2    0    0 -0.91037376781E+03  0.81352422585E+03 -0.89031834878E+03  0.15110489156E+04  0.00000000000E+00 0. -1.
<mgrwt>
<rscale>  0 0.24706313E+04</rscale>
<asrwt>0</asrwt>
<pdfrwt beam="1">  1        2 0.32370483E+00 0.24706313E+04</pdfrwt>
<pdfrwt beam="2">  1       -2 0.11157837E+00 0.24706313E+04</pdfrwt>
<totfact> 0.33164431E+00</totfact>
</mgrwt>
</event>
<event>
 6    1  0.9988873E-007  0.2912449E+04  0.7818608E-02  0.8269183E-01
          1   -1    0    0  501    0  0.00000000000E+00  0.00000000000E+00  0.35126763380E+04  0.35126763380E+04  0.00000000000E+00 0. -1.
         -1   -1    0    0    0  501 -0.00000000000E+00 -0.00000000000E+00 -0.60369620888E+03  0.60369620888E+03  0.00000000000E+00 0.  1.
         23    2    1    2    0    0  0.50542211284E+03  0.45482202409E+03  0.32737479379E+04  0.33447702270E+04  0.88021160948E+02 0.  0.
         13    1    3    3    0    0  0.21135988669E+03  0.23913959356E+03  0.16484524369E+04  0.16790640797E+04  0.00000000000E+00 0.  1.
        -13    1    3    3    0    0  0.29406222615E+03  0.21568243052E+03  0.16252955010E+04  0.16657061474E+04  0.00000000000E+00 0. -1.
         22    1    1    2    0    0 -0.50542211284E+03 -0.45482202409E+03 -0.36476780878E+03  0.77160231989E+03  0.00000000000E+00 0.  1.
<mgrwt>
<rscale>  0 0.29124487E+04</rscale>
<asrwt>0</asrwt>
<pdfrwt beam="1">  1        1 0.54041173E+00 0.29124487E+04</pdfrwt>
<pdfrwt beam="2">  1       -1 0.92876342E-01 0.29124487E+04</pdfrwt>
<totfact> 0.23570564E-01</totfact>
</mgrwt>
</event>
<event>
 6    1  0.9988873E-007  0.6168136E+04  0.7818608E-02  0.7669898E-01
          2   -1    0    0  501    0  0.00000000000E+00  0.00000000000E+00  0.35886715639E+04  0.35886715639E+04  0.00000000000E+00 0. -1.
         -2   -1    0    0    0  501 -0.00000000000E+00 -0.00000000000E+00 -0.26504169750E+04  0.26504169750E+04  0.00000000000E+00 0.  1.
         23    2    1    2    0    0 -0.30686718846E+04  0.17624204382E+03  0.22252254829E+03  0.30831289784E+04  0.91430952911E+02 0.  0.
         11    1    3    3    0    0 -0.13623483165E+04  0.52754122183E+02  0.60971401144E+02  0.13647320047E+04  0.00000000000E+00 0.  1.
        -11    1    3    3    0    0 -0.17063235681E+04  0.12348792164E+03  0.16155114714E+03  0.17183969736E+04  0.00000000000E+00 0. -1.
         22    1    1    2    0    0  0.30686718846E+04 -0.17624204382E+03  0.71573204060E+03  0.31559595605E+04  0.00000000000E+00 0.  1.
<mgrwt>
<rscale>  0 0.61681362E+04</rscale>
<asrwt>0</asrwt>
<pdfrwt beam="1">  1        2 0.55210332E+00 0.61681362E+04</pdfrwt>
<pdfrwt beam="2">  1       -2 0.40775646E+00 0.61681362E+04</pdfrwt>
<totfact> 0.30832485E-03</totfact>
</mgrwt>
</event>
<event>
 6    1  0.9988873E-007  0.1333426E+04  0.7818608E-02  0.9003470E-01
          2   -1    0    0  501    0  0.00000000000E+00  0.00000000000E+00  0.22228105885E+04  0.22228105885E+04  0.00000000000E+00 0. -1.
         -2   -1    0    0    0  501 -0.00000000000E+00 -0.00000000000E+00 -0.19997496477E+03  0.19997496477E+03  0.00000000000E+00 0.  1.
         23    2    1    2    0    0 -0.52107951956E+03 -0.39463133788E+03  0.80870957520E+03  0.10438875076E+04  0.91826973498E+02 0.  0.
         13    1    3    3    0    0 -0.41343834946E+03 -0.33241370104E+03  0.59946265341E+03  0.80049085583E+03  0.00000000000E+00 0.  1.
        -13    1    3    3    0    0 -0.10764117010E+03 -0.62217636833E+02  0.20924692179E+03  0.24339665181E+03  0.00000000000E+00 0. -1.
         22    1    1    2    0    0  0.52107951956E+03  0.39463133788E+03  0.12141260486E+04  0.13788980457E+04  0.00000000000E+00 0.  1.
<mgrwt>
<rscale>  0 0.13334264E+04</rscale>
<asrwt>0</asrwt>
<pdfrwt beam="1">  1        2 0.34197084E+00 0.13334264E+04</pdfrwt>
<pdfrwt beam="2">  1       -2 0.30765381E-01 0.13334264E+04</pdfrwt>
<totfact> 0.48055591E+01</totfact>
</mgrwt>
</event>
<event>
 6    1  0.9988873E-007  0.1084031E+04  0.7818608E-02  0.9220898E-01
          1   -1    0    0  501    0  0.00000000000E+00  0.00000000000E+00  0.16194082116E+04  0.16194082116E+04  0.00000000000E+00 0. -1.
         -1   -1    0    0    0  501 -0.00000000000E+00 -0.00000000000E+00 -0.18141247709E+03  0.18141247709E+03  0.00000000000E+00 0.  1.
         23    2    1    2    0    0 -0.33567774629E+03  0.38817630149E+02  0.14199198967E+04  0.14624228552E+04  0.91223553698E+02 0.  0.
         11    1    3    3    0    0 -0.24060758883E+03  0.68827262180E+02  0.10031717067E+04  0.10339161846E+04  0.00000000000E+00 0. -1.
        -11    1    3    3    0    0 -0.95070157453E+02 -0.30009632031E+02  0.41674819001E+03  0.42850667057E+03  0.00000000000E+00 0.  1.
         22    1    1    2    0    0  0.33567774629E+03 -0.38817630149E+02  0.18075837803E+02  0.33839783344E+03  0.00000000000E+00 0.  1.
<mgrwt>
<rscale>  0 0.10840311E+04</rscale>
<asrwt>0</asrwt>
<pdfrwt beam="1">  1        1 0.24913972E+00 0.10840311E+04</pdfrwt>
<pdfrwt beam="2">  1       -1 0.27909613E-01 0.10840311E+04</pdfrwt>
<totfact> 0.62518689E+01</totfact>
</mgrwt>
</event>
<event>
 6    1  0.9988873E-007  0.1538843E+04  0.7818608E-02  0.8859026E-01
          2   -1    0    0  501    0  0.00000000000E+00  0.00000000000E+00  0.11312356061E+04  0.11312356061E+04  0.00000000000E+00 0. -1.
         -2   -1    0    0    0  501 -0.00000000000E+00 -0.00000000000E+00 -0.52333026367E+03  0.52333026367E+03  0.00000000000E+00 0.  1.
         23    2    1    2    0    0  0.76374444726E+03  0.55654652696E+02  0.34615241386E+03  0.84529606512E+03  0.91109401264E+02 0.  0.
         11    1    3    3    0    0  0.43514089410E+03  0.66973157799E+02  0.16712810372E+03  0.47091910626E+03  0.00000000000E+00 0. -1.
        -11    1    3    3    0    0  0.32860355316E+03 -0.11318505103E+02  0.17902431014E+03  0.37437695886E+03  0.00000000000E+00 0.  1.
         22    1    1    2    0    0 -0.76374444726E+03 -0.55654652696E+02  0.26175292855E+03  0.80926980463E+03  0.00000000000E+00 0.  1.
<mgrwt>
<rscale>  0 0.15388435E+04</rscale>
<asrwt>0</asrwt>
<pdfrwt beam="1">  1        2 0.17403625E+00 0.15388435E+04</pdfrwt>
<pdfrwt beam="2">  1       -2 0.80512349E-01 0.15388435E+04</pdfrwt>
<totfact> 0.27366071E+01</totfact>
</mgrwt>
</event>
<event>
 6    1  0.9988873E-007  0.2103424E+04  0.7818608E-02  0.8559736E-01
          2   -1    0    0  501    0  0.00000000000E+00  0.00000000000E+00  0.23635378082E+04  0.23635378082E+04  0.00000000000E+00 0. -1.
         -2   -1    0    0    0  501 -0.00000000000E+00 -0.00000000000E+00 -0.46798420471E+03  0.46798420471E+03  0.00000000000E+00 0.  1.
         23    2    1    2    0    0 -0.77667101901E+03 -0.24434090032E+03  0.18414243271E+04  0.20155254897E+04  0.92623430026E+02 0.  0.
         11    1    3    3    0    0 -0.20574615762E+03 -0.63379905495E+02  0.39183023046E+03  0.44707876633E+03  0.00000000000E+00 0.  1.
        -11    1    3    3    0    0 -0.57092486139E+03 -0.18096099483E+03  0.14495940967E+04  0.15684467234E+04  0.00000000000E+00 0. -1.
         22    1    1    2    0    0  0.77667101901E+03  0.24434090032E+03  0.54129276389E+02  0.81599652322E+03  0.00000000000E+00 0.  1.
<mgrwt>
<rscale>  0 0.21034242E+04</rscale>
<asrwt>0</asrwt>
<pdfrwt beam="1">  1        2 0.36362119E+00 0.21034242E+04</pdfrwt>
<pdfrwt beam="2">  1       -2 0.71997571E-01 0.21034242E+04</pdfrwt>
<totfact> 0.67166992E+00</totfact>
</mgrwt>
</event>
<event>
 6    1  0.9988873E-007  0.2901442E+04  0.7818608E-02  0.8272449E-01
          2   -1    0    0  501    0  0.00000000000E+00  0.00000000000E+00  0.14989942620E+04  0.14989942620E+04  0.00000000000E+00 0. -1.
         -2   -1    0    0    0  501 -0.00000000000E+00 -0.00000000000E+00 -0.14040024549E+04  0.14040024549E+04  0.00000000000E+00 0.  1.
         23    2    1    2    0    0 -0.45134452521E+03  0.11300847435E+04 -0.74012519590E+03  0.14271160250E+04  0.89841167141E+02 0.  0.
         13    1    3    3    0    0 -0.28502323887E+03  0.69254578735E+03 -0.50530803130E+03  0.90343462451E+03  0.00000000000E+00 0.  1.
        -13    1    3    3    0    0 -0.16632128634E+03  0.43753895615E+03 -0.23481716460E+03  0.52368140050E+03  0.00000000000E+00 0. -1.
         22    1    1    2    0    0  0.45134452521E+03 -0.11300847435E+04  0.83511700303E+03  0.14758806919E+04  0.00000000000E+00 0.  1.
<mgrwt>
<rscale>  0 0.29014421E+04</rscale>
<asrwt>0</asrwt>
<pdfrwt beam="1">  1        2 0.23061450E+00 0.29014421E+04</pdfrwt>
<pdfrwt beam="2">  1       -2 0.21600038E+00 0.29014421E+04</pdfrwt>
<totfact> 0.11495742E+00</totfact>
</mgrwt>
</event>
<event>
 6    1  0.9988873E-007  0.4703078E+04  0.7818608E-02  0.7876017E-01
         -2   -1    0    0    0  501 -0.00000000000E+00  0.00000000000E+00  0.23287463593E+04  0.23287463593E+04  0.00000000000E+00 0.  1.
          2   -1    0    0  501    0  0.00000000000E+00 -0.00000000000E+00 -0.23745551773E+04  0.23745551773E+04  0.00000000000E+00 0. -1.
         23    2    1    2    0    0  0.18167919399E+04  0.14898415641E+04  0.50327659309E+02  0.23517907325E+04  0.89587596237E+02 0.  0.
         11    1    3    3    0    0  0.98764687289E+03  0.84839697031E+03  0.61012998047E+02  0.13034363624E+04  0.00000000000E+00 0.  1.
        -11    1    3    3    0    0  0.82914506704E+03  0.64144459375E+03 -0.10685338738E+02  0.10483543702E+04  0.00000000000E+00 0. -1.
         22    1    1    2    0    0 -0.18167919399E+04 -0.14898415641E+04 -0.96136477281E+02  0.23515108040E+04  0.00000000000E+00 0.  1.
<mgrwt>
<rscale>  0 0.47030784E+04</rscale>
<asrwt>0</asrwt>
<pdfrwt beam="1">  1        2 0.36531618E+00 0.47030784E+04</pdfrwt>
<pdfrwt beam="2">  1       -2 0.35826867E+00 0.47030784E+04</pdfrwt>
<totfact> 0.42268850E-02</totfact>
</mgrwt>
</event>
<event>
 6    1  0.9988873E-007  0.5411890E+04  0.7818608E-02  0.7767931E-01
          2   -1    0    0  501    0  0.00000000000E+00  0.00000000000E+00  0.25085358573E+04  0.25085358573E+04  0.00000000000E+00 0. -1.
         -2   -1    0    0    0  501 -0.00000000000E+00 -0.00000000000E+00 -0.29188896724E+04  0.29188896724E+04  0.00000000000E+00 0.  1.
         23    2    1    2    0    0 -0.24553328607E+04 -0.68250736085E+03 -0.11151856435E+04  0.27833257471E+04  0.93741347341E+02 0.  0.
         13    1    3    3    0    0 -0.53004477499E+03 -0.18460022815E+03 -0.26167514609E+03  0.61927262963E+03  0.00000000000E+00 0. -1.
        -13    1    3    3    0    0 -0.19252880857E+04 -0.49790713270E+03 -0.85351049742E+03  0.21640531174E+04  0.00000000000E+00 0.  1.
         22    1    1    2    0    0  0.24553328607E+04  0.68250736085E+03  0.70483182838E+03  0.26440997827E+04  0.00000000000E+00 0. -1.
<mgrwt>
<rscale>  0 0.54118904E+04</rscale>
<asrwt>0</asrwt>
<pdfrwt beam="1">  1        2 0.38592860E+00 0.54118904E+04</pdfrwt>
<pdfrwt beam="2">  1       -2 0.44905995E+00 0.54118904E+04</pdfrwt>
<totfact> 0.85706663E-03</totfact>
</mgrwt>
</event>
<event>
 6    1  0.9988873E-007  0.3408936E+04  0.7818608E-02  0.8135717E-01
         -1   -1    0    0    0  501 -0.00000000000E+00  0.00000000000E+00  0.16235571625E+04  0.16235571625E+04  0.00000000000E+00 0.  1.
          1   -1    0    0  501    0  0.00000000000E+00 -0.00000000000E+00 -0.17894113575E+04  0.17894113575E+04  0.00000000000E+00 0. -1.
         23    2    1    2    0    0  0.38255174151E+03  0.14253415120E+04 -0.93443127559E+03  0.17490409406E+04  0.89655686670E+02 0.  0.
         13    1    3    3    0    0  0.34247850258E+03  0.11415781077E+04 -0.74590602120E+03  0.14060113417E+04  0.00000000000E+00 0. -1.
        -13    1    3    3    0    0  0.40073238930E+02  0.28376340437E+03 -0.18852525440E+03  0.34302959884E+03  0.00000000000E+00 0.  1.
         22    1    1    2    0    0 -0.38255174151E+03 -0.14253415120E+04  0.76857708058E+03  0.16639275795E+04  0.00000000000E+00 0.  1.
<mgrwt>
<rscale>  0 0.34089363E+04</rscale>
<asrwt>0</asrwt>
<pdfrwt beam="1">  1        1 0.27529406E+00 0.34089363E+04</pdfrwt>
<pdfrwt beam="2">  1       -1 0.24977802E+00 0.34089363E+04</pdfrwt>
<totfact> 0.23821144E-01</totfact>
</mgrwt>
</event>
<event>
 6    1  0.9988873E-007  0.8133577E+03  0.7818608E-02  0.9540881E-01
          1   -1    0    0  501    0  0.00000000000E+00  0.00000000000E+00  0.18971865173E+04  0.18971865173E+04  0.00000000000E+00 0. -1.
         -1   -1    0    0    0  501 -0.00000000000E+00 -0.00000000000E+00 -0.87175247497E+02  0.87175247497E+02  0.00000000000E+00 0.  1.
         23    2    1    2    0    0  0.25076688542E+03 -0.21327166724E+03  0.14771627376E+04  0.15162197134E+04  0.92431764685E+02 0.  0.
         13    1    3    3    0    0  0.21037234562E+02 -0.64670724678E+02  0.32094735164E+03  0.32807326985E+03  0.00000000000E+00 0. -1.
        -13    1    3    3    0    0  0.22972965086E+03 -0.14860094256E+03  0.11562153860E+04  0.11881464436E+04  0.00000000000E+00 0.  1.
         22    1    1    2    0    0 -0.25076688542E+03  0.21327166724E+03  0.33284853216E+03  0.46814205134E+03  0.00000000000E+00 0.  1.
<mgrwt>
<rscale>  0 0.81335774E+03</rscale>
<asrwt>0</asrwt>
<pdfrwt beam="1">  1        1 0.29187482E+00 0.81335774E+03</pdfrwt>
<pdfrwt beam="2">  1       -1 0.13411578E-01 0.81335774E+03</pdfrwt>
<totfact> 0.14105202E+02</totfact>
</mgrwt>
</event>
<event>
 6    1  0.9988873E-007  0.2363491E+04  0.7818608E-02  0.8453300E-01
          2   -1    0    0  501    0  0.00000000000E+00  0.00000000000E+00  0.22846675284E+04  0.22846675284E+04  0.00000000000E+00 0. -1.
         -2   -1    0    0    0  501 -0.00000000000E+00 -0.00000000000E+00 -0.61125838017E+03  0.61125838017E+03  0.00000000000E+00 0.  1.
         23    2    1    2    0    0  0.23402510773E+03 -0.59524009535E+03 -0.37690727536E+03  0.74816522381E+03  0.92809405520E+02 0.  0.
         11    1    3    3    0    0  0.23824193297E+03 -0.55824790705E+03 -0.33981751529E+03  0.69561188032E+03  0.00000000000E+00 0. -1.
        -11    1    3    3    0    0 -0.42168252412E+01 -0.36992188296E+02 -0.37089760070E+02  0.52553343491E+02  0.00000000000E+00 0.  1.
         22    1    1    2    0    0 -0.23402510773E+03  0.59524009535E+03  0.20503164236E+04  0.21477606848E+04  0.00000000000E+00 0. -1.
<mgrwt>
<rscale>  0 0.23634908E+04</rscale>
<asrwt>0</asrwt>
<pdfrwt beam="1">  1        2 0.35148731E+00 0.23634908E+04</pdfrwt>
<pdfrwt beam="2">  1       -2 0.94039752E-01 0.23634908E+04</pdfrwt>
<totfact> 0.39808798E+00</totfact>
</mgrwt>
</event>
<event>
 6    1  0.9988873E-007  0.1164059E+04  0.7818608E-02  0.9144910E-01
          1   -1    0    0  501    0  0.00000000000E+00  0.00000000000E+00  0.14081637596E+04  0.14081637596E+04  0.00000000000E+00 0. -1.
         -1   -1    0    0    0  501 -0.00000000000E+00 -0.00000000000E+00 -0.24056755147E+03  0.24056755147E+03  0.00000000000E+00 0.  1.
         23    2    1    2    0    0  0.12975523611E+03  0.23083316140E+03  0.13157714867E+04  0.13452905708E+04  0.91824534070E+02 0.  0.
         13    1    3    3    0    0  0.11319378748E+03  0.11639079813E+03  0.68223091354E+03  0.70128358801E+03  0.00000000000E+00 0.  1.
        -13    1    3    3    0    0  0.16561448624E+02  0.11444236327E+03  0.63354057311E+03  0.64400698278E+03  0.00000000000E+00 0. -1.
         22    1    1    2    0    0 -0.12975523611E+03 -0.23083316140E+03 -0.14817527852E+03  0.30344074028E+03  0.00000000000E+00 0.  1.
<mgrwt>
<rscale>  0 0.11640593E+04</rscale>
<asrwt>0</asrwt>
<pdfrwt beam="1">  1        1 0.21664057E+00 0.11640593E+04</pdfrwt>
<pdfrwt beam="2">  1       -1 0.37010393E-01 0.11640593E+04</pdfrwt>
<totfact> 0.52763815E+01</totfact>
</mgrwt>
</event>
<event>
 6    1  0.9988873E-007  0.3270928E+04  0.7818608E-02  0.8170332E-01
         -2   -1    0    0    0  501 -0.00000000000E+00  0.00000000000E+00  0.97354292328E+03  0.97354292328E+03  0.00000000000E+00 0.  1.
          2   -1    0    0  501    0  0.00000000000E+00 -0.00000000000E+00 -0.27474318089E+04  0.27474318089E+04  0.00000000000E+00 0. -1.
         23    2    1    2    0    0  0.13313892238E+03 -0.11314357976E+04  0.44519906103E+03  0.12265360675E+04  0.91189825596E+02 0.  0.
         11    1    3    3    0    0  0.10140915406E+03 -0.95333000613E+03  0.33970432151E+03  0.10171140266E+04  0.00000000000E+00 0. -1.
        -11    1    3    3    0    0  0.31729768325E+02 -0.17810579146E+03  0.10549473951E+03  0.20942204090E+03  0.00000000000E+00 0.  1.
         22    1    1    2    0    0 -0.13313892238E+03  0.11314357976E+04 -0.22190879466E+04  0.24944386646E+04  0.00000000000E+00 0. -1.
<mgrwt>
<rscale>  0 0.32709282E+04</rscale>
<asrwt>0</asrwt>
<pdfrwt beam="1">  1        2 0.42268181E+00 0.32709282E+04</pdfrwt>
<pdfrwt beam="2">  1       -2 0.14977584E+00 0.32709282E+04</pdfrwt>
<totfact> 0.62617697E-01</totfact>
</mgrwt>
</event>
<event>
 6    1  0.9988873E-007  0.7167666E+03  0.7818608E-02  0.9688981E-01
         -2   -1    0    0    0  501 -0.00000000000E+00  0.00000000000E+00  0.91640633712E+02  0.91640633712E+02  0.00000000000E+00 0.  1.
          2   -1    0    0  501    0  0.00000000000E+00 -0.00000000000E+00 -0.14015462809E+04  0.14015462809E+04  0.00000000000E+00 0. -1.
         23    2    1    2    0    0  0.31654652620E+03  0.12956641949E+03 -0.84435594150E+03  0.91549695558E+03  0.90601100613E+02 0.  0.
         11    1    3    3    0    0  0.15931683807E+03  0.71352182244E+02 -0.54640640759E+03  0.57361393904E+03  0.00000000000E+00 0.  1.
        -11    1    3    3    0    0  0.15722968812E+03  0.58214237246E+02 -0.29794953391E+03  0.34188301655E+03  0.00000000000E+00 0. -1.
         22    1    1    2    0    0 -0.31654652620E+03 -0.12956641949E+03 -0.46554970574E+03  0.57768995908E+03  0.00000000000E+00 0. -1.
<mgrwt>
<rscale>  0 0.71676660E+03</rscale>
<asrwt>0</asrwt>
<pdfrwt beam="1">  1        2 0.21562250E+00 0.71676660E+03</pdfrwt>
<pdfrwt beam="2">  1       -2 0.14098560E-01 0.71676660E+03</pdfrwt>
<totfact> 0.56859878E+02</totfact>
</mgrwt>
</event>
<event>
 6    1  0.9988873E-007  0.3192569E+04  0.7818608E-02  0.8190782E-01
         -1   -1    0    0    0  501 -0.00000000000E+00  0.00000000000E+00  0.15563976449E+04  0.15563976449E+04  0.00000000000E+00 0.  1.
          1   -1    0    0  501    0  0.00000000000E+00 -0.00000000000E+00 -0.16371940712E+04  0.16371940712E+04  0.00000000000E+00 0. -1.
         23    2    1    2    0    0  0.65815412972E+03  0.28030479452E+03 -0.14664554083E+04  0.16341724489E+04  0.91052139271E+02 0.  0.
         11    1    3    3    0    0  0.27997032052E+03  0.14797987642E+03 -0.73138595723E+03  0.79699864657E+03  0.00000000000E+00 0. -1.
        -11    1    3    3    0    0  0.37818380921E+03  0.13232491810E+03 -0.73506945103E+03  0.83717380234E+03  0.00000000000E+00 0.  1.
         22    1    1    2    0    0 -0.65815412972E+03 -0.28030479452E+03  0.13856589820E+04  0.15594192671E+04  0.00000000000E+00 0.  1.
<mgrwt>
<rscale>  0 0.31925695E+04</rscale>
<asrwt>0</asrwt>
<pdfrwt beam="1">  1        1 0.25187601E+00 0.31925695E+04</pdfrwt>
<pdfrwt beam="2">  1       -1 0.23944579E+00 0.31925695E+04</pdfrwt>
<totfact> 0.36014523E-01</totfact>
</mgrwt>
</event>
<event>
 6    1  0.9988873E-007  0.2001874E+04  0.7818608E-02  0.8605745E-01
         -2   -1    0    0    0  501 -0.00000000000E+00  0.00000000000E+00  0.54952968305E+03  0.54952968305E+03  0.00000000000E+00 0.  1.
          2   -1    0    0  501    0  0.00000000000E+00 -0.00000000000E+00 -0.18231494749E+04  0.18231494749E+04  0.00000000000E+00 0. -1.
         23    2    1    2    0    0  0.60055549220E+03 -0.36112782087E+02 -0.15832040571E+04  0.16960600262E+04  0.90074933338E+02 0.  0.
         11    1    3    3    0    0  0.39114290852E+03  0.12062568077E+02 -0.10883186394E+04  0.11565360960E+04  0.00000000000E+00 0.  1.
        -11    1    3    3    0    0  0.20941258368E+03 -0.48175350164E+02 -0.49488541770E+03  0.53952393017E+03  0.00000000000E+00 0. -1.
         22    1    1    2    0    0 -0.60055549220E+03  0.36112782087E+02  0.30958426525E+03  0.67661913181E+03  0.00000000000E+00 0.  1.
<mgrwt>
<rscale>  0 0.20018739E+04</rscale>
<asrwt>0</asrwt>
<pdfrwt beam="1">  1        2 0.28048453E+00 0.20018739E+04</pdfrwt>
<pdfrwt beam="2">  1       -2 0.84543031E-01 0.20018739E+04</pdfrwt>
<totfact> 0.94915537E+00</totfact>
</mgrwt>
</event>
<event>
 6    1  0.1054876E-006  0.4269128E+04  0.7818608E-02  0.7952351E-01
          1   -1    0    0  501    0  0.00000000000E+00  0.00000000000E+00  0.17833840081E+04  0.17833840081E+04  0.00000000000E+00 0. -1.
         -1   -1    0    0    0  501 -0.00000000000E+00 -0.00000000000E+00 -0.25548980037E+04  0.25548980037E+04  0.00000000000E+00 0.  1.
         23    2    1    2    0    0 -0.61884138601E+03 -0.54933029369E+03  0.16124445740E+04  0.18147949613E+04  0.93673980220E+02 0.  0.
         11    1    3    3    0    0 -0.40573970053E+03 -0.32855247447E+03  0.92958273896E+03  0.10661592290E+04  0.00000000000E+00 0. -1.
        -11    1    3    3    0    0 -0.21310168548E+03 -0.22077781922E+03  0.68286183507E+03  0.74863573226E+03  0.00000000000E+00 0.  1.
         22    1    1    2    0    0  0.61884138601E+03  0.54933029369E+03 -0.23839585696E+04  0.25234870505E+04  0.00000000000E+00 0.  1.
<mgrwt>
<rscale>  0 0.42691284E+04</rscale>
<asrwt>0</asrwt>
<pdfrwt beam="1">  1        1 0.27436677E+00 0.42691284E+04</pdfrwt>
<pdfrwt beam="2">  1       -1 0.39306123E+00 0.42691284E+04</pdfrwt>
<totfact> 0.25531404E-02</totfact>
</mgrwt>
</event>
<event>
 6    1  0.9988873E-007  0.2620205E+04  0.7818608E-02  0.8361370E-01
         -1   -1    0    0    0  501 -0.00000000000E+00  0.00000000000E+00  0.14533098467E+04  0.14533098467E+04  0.00000000000E+00 0.  1.
          1   -1    0    0  501    0  0.00000000000E+00 -0.00000000000E+00 -0.11810062647E+04  0.11810062647E+04  0.00000000000E+00 0. -1.
         23    2    1    2    0    0 -0.82197036710E+03 -0.59216043716E+03 -0.69653059153E+03  0.12325568868E+04  0.88047411125E+02 0.  0.
         11    1    3    3    0    0 -0.28098945997E+03 -0.21750116506E+03 -0.19620985064E+03  0.40590656425E+03  0.00000000000E+00 0. -1.
        -11    1    3    3    0    0 -0.54098090713E+03 -0.37465927210E+03 -0.50032074088E+03  0.82665032257E+03  0.00000000000E+00 0.  1.
         22    1    1    2    0    0  0.82197036710E+03  0.59216043716E+03  0.96883417356E+03  0.14017592245E+04  0.00000000000E+00 0.  1.
<mgrwt>
<rscale>  0 0.26202046E+04</rscale>
<asrwt>0</asrwt>
<pdfrwt beam="1">  1        1 0.18169327E+00 0.26202046E+04</pdfrwt>
<pdfrwt beam="2">  1       -1 0.22358613E+00 0.26202046E+04</pdfrwt>
<totfact> 0.10102583E+00</totfact>
</mgrwt>
</event>
<event>
 6    1  0.1708351E-006  0.4361406E+04  0.7818608E-02  0.7935360E-01
          2   -1    0    0  501    0  0.00000000000E+00  0.00000000000E+00  0.25924666174E+04  0.25924666174E+04  0.00000000000E+00 0. -1.
         -2   -1    0    0    0  501 -0.00000000000E+00 -0.00000000000E+00 -0.18343405062E+04  0.18343405062E+04  0.00000000000E+00 0.  1.
         23    2    1    2    0    0 -0.17175639483E+04  0.10220934910E+04 -0.50364474506E+03  0.20631729061E+04  0.91232616804E+02 0.  0.
         13    1    3    3    0    0 -0.10089129263E+04  0.57356889577E+03 -0.33218779669E+03  0.12071600156E+04  0.00000000000E+00 0. -1.
        -13    1    3    3    0    0 -0.70865102200E+03  0.44852459522E+03 -0.17145694837E+03  0.85601289046E+03  0.00000000000E+00 0.  1.
         22    1    1    2    0    0  0.17175639483E+04 -0.10220934910E+04  0.12617708562E+04  0.23636342175E+04  0.00000000000E+00 0. -1.
<mgrwt>
<rscale>  0 0.43614064E+04</rscale>
<asrwt>0</asrwt>
<pdfrwt beam="1">  1        2 0.39884102E+00 0.43614064E+04</pdfrwt>
<pdfrwt beam="2">  1       -2 0.28220623E+00 0.43614064E+04</pdfrwt>
<totfact> 0.96173592E-02</totfact>
</mgrwt>
</event>
<event>
 6    1  0.9988873E-007  0.2253582E+04  0.7818608E-02  0.8496451E-01
         -2   -1    0    0    0  501 -0.00000000000E+00  0.00000000000E+00  0.10087105736E+04  0.10087105736E+04  0.00000000000E+00 0.  1.
          2   -1    0    0  501    0  0.00000000000E+00 -0.00000000000E+00 -0.12586934992E+04  0.12586934992E+04  0.00000000000E+00 0. -1.
         23    2    1    2    0    0  0.57507246785E+02 -0.28970703259E+03 -0.12173220109E+04  0.12559782703E+04  0.91494747864E+02 0.  0.
         13    1    3    3    0    0 -0.21322447467E+02 -0.65101548589E+02 -0.34661619949E+03  0.35332088552E+03  0.00000000000E+00 0. -1.
        -13    1    3    3    0    0  0.78829694253E+02 -0.22460548400E+03 -0.87070581145E+03  0.90265738474E+03  0.00000000000E+00 0.  1.
         22    1    1    2    0    0 -0.57507246785E+02  0.28970703259E+03  0.96733908533E+03  0.10114258026E+04  0.00000000000E+00 0.  1.
<mgrwt>
<rscale>  0 0.22535815E+04</rscale>
<asrwt>0</asrwt>
<pdfrwt beam="1">  1        2 0.19364515E+00 0.22535815E+04</pdfrwt>
<pdfrwt beam="2">  1       -2 0.15518624E+00 0.22535815E+04</pdfrwt>
<totfact> 0.43534141E+00</totfact>
</mgrwt>
</event>
<event>
 6    1  0.9988873E-007  0.1204380E+04  0.7818608E-02  0.9109031E-01
          1   -1    0    0  501    0  0.00000000000E+00  0.00000000000E+00  0.67702056102E+03  0.67702056102E+03  0.00000000000E+00 0. -1.
         -1   -1    0    0    0  501 -0.00000000000E+00 -0.00000000000E+00 -0.53563045146E+03  0.53563045146E+03  0.00000000000E+00 0.  1.
         23    2    1    2    0    0 -0.43885570184E+03 -0.40315488641E+03  0.12700352312E+02  0.60298779144E+03  0.91130610676E+02 0.  0.
         11    1    3    3    0    0 -0.40974474217E+03 -0.40047529144E+03  0.18211017675E+02  0.57323891525E+03  0.00000000000E+00 0. -1.
        -11    1    3    3    0    0 -0.29110959670E+02 -0.26795949756E+01 -0.55106653627E+01  0.29748876195E+02  0.00000000000E+00 0.  1.
         22    1    1    2    0    0  0.43885570184E+03  0.40315488641E+03  0.12868975725E+03  0.60966322105E+03  0.00000000000E+00 0. -1.
<mgrwt>
<rscale>  0 0.12043801E+04</rscale>
<asrwt>0</asrwt>
<pdfrwt beam="1">  1        1 0.10415701E+00 0.12043801E+04</pdfrwt>
<pdfrwt beam="2">  1       -1 0.82404684E-01 0.12043801E+04</pdfrwt>
<totfact> 0.41530971E+01</totfact>
</mgrwt>
</event>
<event>
 6    1  0.9988873E-007  0.1450952E+04  0.7818608E-02  0.8917741E-01
         -1   -1    0    0    0  501 -0.00000000000E+00  0.00000000000E+00  0.28764545676E+03  0.28764545676E+03  0.00000000000E+00 0.  1.
          1   -1    0    0  501    0  0.00000000000E+00 -0.00000000000E+00 -0.18297370984E+04  0.18297370984E+04  0.00000000000E+00 0. -1.
         23    2    1    2    0    0 -0.11627055068E+03  0.43804400730E+03  0.47182510521E+02  0.46475019313E+03  0.91461245506E+02 0.  0.
         11    1    3    3    0    0 -0.70310137019E+02  0.13548924486E+03 -0.11764940287E+02  0.15309887217E+03  0.00000000000E+00 0. -1.
        -11    1    3    3    0    0 -0.45960413662E+02  0.30255476244E+03  0.58947450808E+02  0.31165132096E+03  0.00000000000E+00 0.  1.
         22    1    1    2    0    0  0.11627055068E+03 -0.43804400730E+03 -0.15892741521E+04  0.16526323620E+04  0.00000000000E+00 0. -1.
<mgrwt>
<rscale>  0 0.14509522E+04</rscale>
<asrwt>0</asrwt>
<pdfrwt beam="1">  1        1 0.28149802E+00 0.14509522E+04</pdfrwt>
<pdfrwt beam="2">  1       -1 0.44253147E-01 0.14509522E+04</pdfrwt>
<totfact> 0.19088978E+01</totfact>
</mgrwt>
</event>
<event>
 6    1  0.9988873E-007  0.1361369E+04  0.7818608E-02  0.8982266E-01
          2   -1    0    0  501    0  0.00000000000E+00  0.00000000000E+00  0.21623177229E+04  0.21623177229E+04  0.00000000000E+00 0. -1.
         -2   -1    0    0    0  501 -0.00000000000E+00 -0.00000000000E+00 -0.21427549528E+03  0.21427549528E+03  0.00000000000E+00 0.  1.
         23    2    1    2    0    0  0.44767035033E+03  0.33987837103E+03  0.16389424123E+04  0.17351349222E+04  0.92924258770E+02 0.  0.
         13    1    3    3    0    0  0.40044606076E+03  0.27487720022E+03  0.14676932934E+04  0.15459748142E+04  0.00000000000E+00 0. -1.
        -13    1    3    3    0    0  0.47224289571E+02  0.65001170807E+02  0.17124911887E+03  0.18916010797E+03  0.00000000000E+00 0.  1.
         22    1    1    2    0    0 -0.44767035033E+03 -0.33987837103E+03  0.30909981541E+03  0.64145829603E+03  0.00000000000E+00 0. -1.
<mgrwt>
<rscale>  0 0.13613695E+04</rscale>
<asrwt>0</asrwt>
<pdfrwt beam="1">  1        2 0.33266425E+00 0.13613695E+04</pdfrwt>
<pdfrwt beam="2">  1       -2 0.32965462E-01 0.13613695E+04</pdfrwt>
<totfact> 0.45510897E+01</totfact>
</mgrwt>
</event>
<event>
 6    1  0.9988873E-007  0.2726519E+04  0.7818608E-02  0.8326451E-01
          2   -1    0    0  501    0  0.00000000000E+00  0.00000000000E+00  0.14123894170E+04  0.14123894170E+04  0.00000000000E+00 0. -1.
         -2   -1    0    0    0  501 -0.00000000000E+00 -0.00000000000E+00 -0.13158390299E+04  0.13158390299E+04  0.00000000000E+00 0.  1.
         23    2    1    2    0    0  0.16701192066E+03 -0.12411489205E+04  0.58336024210E+03  0.13846037004E+04  0.92057647007E+02 0.  0.
         11    1    3    3    0    0  0.68759967769E+02 -0.23718350525E+03  0.11599300296E+03  0.27283387815E+03  0.00000000000E+00 0.  1.
        -11    1    3    3    0    0  0.98251952892E+02 -0.10039654153E+04  0.46736723913E+03  0.11117698222E+04  0.00000000000E+00 0. -1.
         22    1    1    2    0    0 -0.16701192066E+03  0.12411489205E+04 -0.48680985494E+03  0.13436247465E+04  0.00000000000E+00 0.  1.
<mgrwt>
<rscale>  0 0.27265195E+04</rscale>
<asrwt>0</asrwt>
<pdfrwt beam="1">  1        2 0.21729068E+00 0.27265195E+04</pdfrwt>
<pdfrwt beam="2">  1       -2 0.20243677E+00 0.27265195E+04</pdfrwt>
<totfact> 0.15977818E+00</totfact>
</mgrwt>
</event>
<event>
 6    1  0.9988873E-007  0.6229979E+04  0.7818608E-02  0.7662523E-01
         -1   -1    0    0    0  501 -0.00000000000E+00  0.00000000000E+00  0.28076328620E+04  0.28076328620E+04  0.00000000000E+00 0.  1.
          1   -1    0    0  501    0  0.00000000000E+00 -0.00000000000E+00 -0.34559929248E+04  0.34559929248E+04  0.00000000000E+00 0. -1.
         23    2    1    2    0    0 -0.23860435793E+04  0.19459062417E+04 -0.79480510184E+03  0.31812239289E+04  0.93356694109E+02 0.  0.
         11    1    3    3    0    0 -0.20410100248E+04  0.17054614521E+04 -0.69087076790E+03  0.27480216709E+04  0.00000000000E+00 0. -1.
        -11    1    3    3    0    0 -0.34503355448E+03  0.24044478958E+03 -0.10393433394E+03  0.43320225798E+03  0.00000000000E+00 0.  1.
         22    1    1    2    0    0  0.23860435793E+04 -0.19459062417E+04  0.14644503900E+03  0.30824018578E+04  0.00000000000E+00 0.  1.
<mgrwt>
<rscale>  0 0.62299789E+04</rscale>
<asrwt>0</asrwt>
<pdfrwt beam="1">  1        1 0.53169121E+00 0.62299789E+04</pdfrwt>
<pdfrwt beam="2">  1       -1 0.43194352E+00 0.62299789E+04</pdfrwt>
<totfact> 0.76747455E-04</totfact>
</mgrwt>
</event>
<event>
 6    1  0.9988873E-007  0.6647994E+03  0.7818608E-02  0.9779399E-01
          1   -1    0    0  501    0  0.00000000000E+00  0.00000000000E+00  0.61253923157E+03  0.61253923157E+03  0.00000000000E+00 0. -1.
         -1   -1    0    0    0  501 -0.00000000000E+00 -0.00000000000E+00 -0.18037956899E+03  0.18037956899E+03  0.00000000000E+00 0.  1.
         23    2    1    2    0    0  0.23950200332E+03  0.14553771482E+03  0.22044157979E+02  0.29619235356E+03  0.93281988490E+02 0.  0.
         13    1    3    3    0    0  0.14569679855E+02  0.18816118678E+02 -0.24166902446E+02  0.33916973141E+02  0.00000000000E+00 0.  1.
        -13    1    3    3    0    0  0.22493232347E+03  0.12672159614E+03  0.46211060426E+02  0.26227538042E+03  0.00000000000E+00 0. -1.
         22    1    1    2    0    0 -0.23950200332E+03 -0.14553771482E+03  0.41011550460E+03  0.49672644699E+03  0.00000000000E+00 0. -1.
<mgrwt>
<rscale>  0 0.66479941E+03</rscale>
<asrwt>0</asrwt>
<pdfrwt beam="1">  1        1 0.94236804E-01 0.66479941E+03</pdfrwt>
<pdfrwt beam="2">  1       -1 0.27750703E-01 0.66479941E+03</pdfrwt>
<totfact> 0.39298175E+02</totfact>
</mgrwt>
</event>
<event>
 6    1  0.9988873E-007  0.3043848E+04  0.7818608E-02  0.8231319E-01
         -1   -1    0    0    0  501 -0.00000000000E+00  0.00000000000E+00  0.12021211725E+04  0.12021211725E+04  0.00000000000E+00 0.  1.
          1   -1    0    0  501    0  0.00000000000E+00 -0.00000000000E+00 -0.19268051683E+04  0.19268051683E+04  0.00000000000E+00 0. -1.
         23    2    1    2    0    0  0.14248386976E+04 -0.49855355720E+03 -0.17517290275E+03  0.15224757798E+04  0.92336291030E+02 0.  0.
         11    1    3    3    0    0  0.11280548990E+04 -0.43192954096E+03 -0.15154705283E+03  0.12173896224E+04  0.00000000000E+00 0. -1.
        -11    1    3    3    0    0  0.29678379858E+03 -0.66624016244E+02 -0.23625849918E+02  0.30508615738E+03  0.00000000000E+00 0.  1.
         22    1    1    2    0    0 -0.14248386976E+04  0.49855355720E+03 -0.54951109309E+03  0.16064505610E+04  0.00000000000E+00 0. -1.
<mgrwt>
<rscale>  0 0.30438484E+04</rscale>
<asrwt>0</asrwt>
<pdfrwt beam="1">  1        1 0.29643156E+00 0.30438484E+04</pdfrwt>
<pdfrwt beam="2">  1       -1 0.18494172E+00 0.30438484E+04</pdfrwt>
<totfact> 0.54351634E-01</totfact>
</mgrwt>
</event>
<event>
 6    1  0.9988873E-007  0.3398531E+04  0.7818608E-02  0.8138267E-01
          2   -1    0    0  501    0  0.00000000000E+00  0.00000000000E+00  0.13365507891E+04  0.13365507891E+04  0.00000000000E+00 0. -1.
         -2   -1    0    0    0  501 -0.00000000000E+00 -0.00000000000E+00 -0.21604145276E+04  0.21604145276E+04  0.00000000000E+00 0.  1.
         23    2    1    2    0    0 -0.12597310373E+04 -0.55142326027E+03  0.61280050679E+03  0.15082486319E+04  0.91102011246E+02 0.  0.
         13    1    3    3    0    0 -0.10309326545E+04 -0.48614984632E+03  0.49292322604E+03  0.12418281354E+04  0.00000000000E+00 0.  1.
        -13    1    3    3    0    0 -0.22879838277E+03 -0.65273413951E+02  0.11987728076E+03  0.26642049652E+03  0.00000000000E+00 0. -1.
         22    1    1    2    0    0  0.12597310373E+04  0.55142326027E+03 -0.14366642453E+04  0.19887166847E+04  0.00000000000E+00 0.  1.
<mgrwt>
<rscale>  0 0.33985313E+04</rscale>
<asrwt>0</asrwt>
<pdfrwt beam="1">  1        2 0.20562320E+00 0.33985313E+04</pdfrwt>
<pdfrwt beam="2">  1       -2 0.33237146E+00 0.33985313E+04</pdfrwt>
<totfact> 0.26161988E-01</totfact>
</mgrwt>
</event>
<event>
 6    1  0.9988873E-007  0.3262800E+04  0.7818608E-02  0.8172426E-01
         -1   -1    0    0    0  501 -0.00000000000E+00  0.00000000000E+00  0.16517508263E+04  0.16517508263E+04  0.00000000000E+00 0.  1.
          1   -1    0    0  501    0  0.00000000000E+00 -0.00000000000E+00 -0.16113002316E+04  0.16113002316E+04  0.00000000000E+00 0. -1.
         23    2    1    2    0    0  0.10668903947E+04 -0.12178693269E+04  0.20879185895E+03  0.16352305540E+04  0.94467521985E+02 0.  0.
         13    1    3    3    0    0  0.62375118741E+03 -0.70615712350E+03  0.16826264850E+03  0.95709756334E+03  0.00000000000E+00 0. -1.
        -13    1    3    3    0    0  0.44313920726E+03 -0.51171220339E+03  0.40529210458E+02  0.67813299065E+03  0.00000000000E+00 0.  1.
         22    1    1    2    0    0 -0.10668903947E+04  0.12178693269E+04 -0.16834126422E+03  0.16278205039E+04  0.00000000000E+00 0. -1.
<mgrwt>
<rscale>  0 0.32628003E+04</rscale>
<asrwt>0</asrwt>
<pdfrwt beam="1">  1        1 0.24789234E+00 0.32628003E+04</pdfrwt>
<pdfrwt beam="2">  1       -1 0.25411551E+00 0.32628003E+04</pdfrwt>
<totfact> 0.29894887E-01</totfact>
</mgrwt>
</event>
<event>
 6    1  0.9988873E-007  0.2701846E+04  0.7818608E-02  0.8334406E-01
         -2   -1    0    0    0  501 -0.00000000000E+00  0.00000000000E+00  0.49252345457E+03  0.49252345457E+03  0.00000000000E+00 0.  1.
          2   -1    0    0  501    0  0.00000000000E+00 -0.00000000000E+00 -0.37053934648E+04  0.37053934648E+04  0.00000000000E+00 0. -1.
         23    2    1    2    0    0  0.92930261063E+03  0.90226448064E+03 -0.10214420064E+04  0.16523244086E+04  0.95643314138E+02 0.  0.
         13    1    3    3    0    0  0.31297269627E+03  0.24258324427E+03 -0.30904191759E+03  0.50230015512E+03  0.00000000000E+00 0. -1.
        -13    1    3    3    0    0  0.61632991436E+03  0.65968123637E+03 -0.71240008884E+03  0.11500242535E+04  0.00000000000E+00 0.  1.
         22    1    1    2    0    0 -0.92930261063E+03 -0.90226448064E+03 -0.21914280038E+04  0.25455925108E+04  0.00000000000E+00 0. -1.
<mgrwt>
<rscale>  0 0.27018462E+04</rscale>
<asrwt>0</asrwt>
<pdfrwt beam="1">  1        2 0.57006052E+00 0.27018462E+04</pdfrwt>
<pdfrwt beam="2">  1       -2 0.75772840E-01 0.27018462E+04</pdfrwt>
<totfact> 0.79233649E-01</totfact>
</mgrwt>
</event>
<event>
 6    1  0.9988873E-007  0.6280744E+04  0.7818608E-02  0.7656535E-01
          2   -1    0    0  501    0  0.00000000000E+00  0.00000000000E+00  0.27693111590E+04  0.27693111590E+04  0.00000000000E+00 0. -1.
         -2   -1    0    0    0  501 -0.00000000000E+00 -0.00000000000E+00 -0.35611512425E+04  0.35611512425E+04  0.00000000000E+00 0.  1.
         23    2    1    2    0    0  0.18682471745E+04 -0.19021293742E+04 -0.20672028323E+04  0.33749601088E+04  0.92652708585E+02 0.  0.
         13    1    3    3    0    0  0.10781195855E+04 -0.10334534655E+04 -0.11692887169E+04  0.18967350921E+04  0.00000000000E+00 0.  1.
        -13    1    3    3    0    0  0.79012758900E+03 -0.86867590873E+03 -0.89791411539E+03  0.14782250167E+04  0.00000000000E+00 0. -1.
         22    1    1    2    0    0 -0.18682471745E+04  0.19021293742E+04  0.12753627488E+04  0.29555022928E+04  0.00000000000E+00 0. -1.
<mgrwt>
<rscale>  0 0.62807439E+04</rscale>
<asrwt>0</asrwt>
<pdfrwt beam="1">  1        2 0.42604787E+00 0.62807439E+04</pdfrwt>
<pdfrwt beam="2">  1       -2 0.54786942E+00 0.62807439E+04</pdfrwt>
<totfact> 0.14196404E-03</totfact>
</mgrwt>
</event>
<event>
 6    1  0.9988873E-007  0.1757539E+04  0.7818608E-02  0.8729211E-01
         -2   -1    0    0    0  501 -0.00000000000E+00  0.00000000000E+00  0.54796354944E+03  0.54796354944E+03  0.00000000000E+00 0.  1.
          2   -1    0    0  501    0  0.00000000000E+00 -0.00000000000E+00 -0.14092830150E+04  0.14092830150E+04  0.00000000000E+00 0. -1.
         23    2    1    2    0    0 -0.84215616887E+03 -0.69106187599E+02 -0.68598911477E+03  0.10942613908E+04  0.11324419629E+03 0.  0.
         11    1    3    3    0    0 -0.37899035198E+03 -0.65339287333E+01 -0.37280944132E+03  0.53166084928E+03  0.00000000000E+00 0. -1.
        -11    1    3    3    0    0 -0.46316581689E+03 -0.62572258865E+02 -0.31317967345E+03  0.56260054157E+03  0.00000000000E+00 0.  1.
         22    1    1    2    0    0  0.84215616887E+03  0.69106187599E+02 -0.17533035079E+03  0.86298517359E+03  0.00000000000E+00 0.  1.
<mgrwt>
<rscale>  0 0.17575389E+04</rscale>
<asrwt>0</asrwt>
<pdfrwt beam="1">  1        2 0.21681277E+00 0.17575389E+04</pdfrwt>
<pdfrwt beam="2">  1       -2 0.84302084E-01 0.17575389E+04</pdfrwt>
<totfact> 0.16625304E+01</totfact>
</mgrwt>
</event>
<event>
 6    1  0.9988873E-007  0.3492407E+04  0.7818608E-02  0.8115592E-01
          2   -1    0    0  501    0  0.00000000000E+00  0.00000000000E+00  0.21300176266E+04  0.21300176266E+04  0.00000000000E+00 0. -1.
         -2   -1    0    0    0  501 -0.00000000000E+00 -0.00000000000E+00 -0.14315501801E+04  0.14315501801E+04  0.00000000000E+00 0.  1.
         23    2    1    2    0    0 -0.14692485731E+04  0.93128694266E+03  0.20745121116E+03  0.17540602182E+04  0.87775310087E+02 0.  0.
         13    1    3    3    0    0 -0.14109680658E+04  0.87752500099E+03  0.18632872050E+03  0.16720046059E+04  0.00000000000E+00 0. -1.
        -13    1    3    3    0    0 -0.58280507256E+02  0.53761941667E+02  0.21122490655E+02  0.82055612296E+02  0.00000000000E+00 0.  1.
         22    1    1    2    0    0  0.14692485731E+04 -0.93128694266E+03  0.49101623530E+03  0.18075075885E+04  0.00000000000E+00 0. -1.
<mgrwt>
<rscale>  0 0.34924073E+04</rscale>
<asrwt>0</asrwt>
<pdfrwt beam="1">  1        2 0.32769502E+00 0.34924073E+04</pdfrwt>
<pdfrwt beam="2">  1       -2 0.22023849E+00 0.34924073E+04</pdfrwt>
<totfact> 0.45780519E-01</totfact>
</mgrwt>
</event>
<event>
 6    1  0.9988873E-007  0.3690594E+03  0.7818608E-02  0.1055053E+00
         -2   -1    0    0    0  501 -0.00000000000E+00  0.00000000000E+00  0.22492563737E+03  0.22492563737E+03  0.00000000000E+00 0.  1.
          2   -1    0    0  501    0  0.00000000000E+00 -0.00000000000E+00 -0.15138873692E+03  0.15138873692E+03  0.00000000000E+00 0. -1.
         23    2    1    2    0    0 -0.61653776536E+02 -0.57519547923E+02  0.19336956730E+03  0.22978944604E+03  0.91113738822E+02 0.  0.
         13    1    3    3    0    0 -0.56073843551E+02 -0.48952977201E+02  0.20270816222E+03  0.21594274459E+03  0.00000000000E+00 0.  1.
        -13    1    3    3    0    0 -0.55799329852E+01 -0.85665707224E+01 -0.93385949264E+01  0.13846701458E+02  0.00000000000E+00 0. -1.
         22    1    1    2    0    0  0.61653776536E+02  0.57519547923E+02 -0.11983266685E+03  0.14652492825E+03  0.00000000000E+00 0.  1.
<mgrwt>
<rscale>  0 0.36905939E+03</rscale>
<asrwt>0</asrwt>
<pdfrwt beam="1">  1        2 0.23290575E-01 0.36905939E+03</pdfrwt>
<pdfrwt beam="2">  1       -2 0.34603944E-01 0.36905939E+03</pdfrwt>
<totfact> 0.18401600E+03</totfact>
</mgrwt>
</event>
<event>
 6    1  0.9988873E-007  0.3971064E+04  0.7818608E-02  0.8010409E-01
         -2   -1    0    0    0  501 -0.00000000000E+00  0.00000000000E+00  0.19683881496E+04  0.19683881496E+04  0.00000000000E+00 0.  1.
          2   -1    0    0  501    0  0.00000000000E+00 -0.00000000000E+00 -0.20028255144E+04  0.20028255144E+04  0.00000000000E+00 0. -1.
         23    2    1    2    0    0 -0.99300215913E+02 -0.59921268153E+03 -0.19065184902E+04  0.20030662836E+04  0.92441400783E+02 0.  0.
         11    1    3    3    0    0 -0.93198771400E+02 -0.28521318480E+03 -0.90207149924E+03  0.95066585166E+03  0.00000000000E+00 0. -1.
        -11    1    3    3    0    0 -0.61014445128E+01 -0.31399949673E+03 -0.10044469909E+04  0.10524004320E+04  0.00000000000E+00 0.  1.
         22    1    1    2    0    0  0.99300215913E+02  0.59921268153E+03  0.18720811254E+04  0.19681473803E+04  0.00000000000E+00 0.  1.
<mgrwt>
<rscale>  0 0.39710643E+04</rscale>
<asrwt>0</asrwt>
<pdfrwt beam="1">  1        2 0.30812700E+00 0.39710643E+04</pdfrwt>
<pdfrwt beam="2">  1       -2 0.30282895E+00 0.39710643E+04</pdfrwt>
<totfact> 0.16076264E-01</totfact>
</mgrwt>
</event>
<event>
 6    1  0.9988873E-007  0.4619977E+04  0.7818608E-02  0.7889963E-01
          1   -1    0    0  501    0  0.00000000000E+00  0.00000000000E+00  0.12287283618E+04  0.12287283618E+04  0.00000000000E+00 0. -1.
         -1   -1    0    0    0  501 -0.00000000000E+00 -0.00000000000E+00 -0.43427396636E+04  0.43427396636E+04  0.00000000000E+00 0.  1.
         23    2    1    2    0    0  0.14545342851E+04  0.12905106414E+04 -0.55901489884E+02  0.19475028872E+04  0.92492253226E+02 0.  0.
         11    1    3    3    0    0  0.48818666422E+03  0.38673778695E+03 -0.43542106645E+02  0.62433024116E+03  0.00000000000E+00 0.  1.
        -11    1    3    3    0    0  0.96634762087E+03  0.90377285442E+03 -0.12359383239E+02  0.13231726460E+04  0.00000000000E+00 0. -1.
         22    1    1    2    0    0 -0.14545342851E+04 -0.12905106414E+04 -0.30581098119E+04  0.36239651383E+04  0.00000000000E+00 0.  1.
<mgrwt>
<rscale>  0 0.46199772E+04</rscale>
<asrwt>0</asrwt>
<pdfrwt beam="1">  1        1 0.18903513E+00 0.46199772E+04</pdfrwt>
<pdfrwt beam="2">  1       -1 0.66811379E+00 0.46199772E+04</pdfrwt>
<totfact> 0.19496307E-03</totfact>
</mgrwt>
</event>
<event>
 6    1  0.9988873E-007  0.5607111E+04  0.7818608E-02  0.7741120E-01
         -2   -1    0    0    0  501 -0.00000000000E+00  0.00000000000E+00  0.22341482171E+04  0.22341482171E+04  0.00000000000E+00 0.  1.
          2   -1    0    0  501    0  0.00000000000E+00 -0.00000000000E+00 -0.35180848212E+04  0.35180848212E+04  0.00000000000E+00 0. -1.
         23    2    1    2    0    0 -0.11299264626E+04 -0.21185255201E+04 -0.21255216119E+04  0.32079945440E+04  0.92209985870E+02 0.  0.
         11    1    3    3    0    0 -0.92395728320E+03 -0.16705906001E+04 -0.16578234612E+04  0.25284280972E+04  0.00000000000E+00 0.  1.
        -11    1    3    3    0    0 -0.20596917940E+03 -0.44793492000E+03 -0.46769815074E+03  0.67956644681E+03  0.00000000000E+00 0. -1.
         22    1    1    2    0    0  0.11299264626E+04  0.21185255201E+04  0.84158500778E+03  0.25442384942E+04  0.00000000000E+00 0.  1.
<mgrwt>
<rscale>  0 0.56071108E+04</rscale>
<asrwt>0</asrwt>
<pdfrwt beam="1">  1        2 0.54124382E+00 0.56071108E+04</pdfrwt>
<pdfrwt beam="2">  1       -2 0.34371511E+00 0.56071108E+04</pdfrwt>
<totfact> 0.93174288E-03</totfact>
</mgrwt>
</event>
<event>
 6    1  0.9988873E-007  0.2520129E+04  0.7818608E-02  0.8395849E-01
          1   -1    0    0  501    0  0.00000000000E+00  0.00000000000E+00  0.11440160424E+04  0.11440160424E+04  0.00000000000E+00 0. -1.
         -1   -1    0    0    0  501 -0.00000000000E+00 -0.00000000000E+00 -0.13878846045E+04  0.13878846045E+04  0.00000000000E+00 0.  1.
         23    2    1    2    0    0  0.45570168029E+03 -0.10531906273E+04 -0.64136408808E+03  0.13174554188E+04  0.86408148375E+02 0.  0.
         11    1    3    3    0    0  0.22662087088E+03 -0.57679657735E+03 -0.38902149984E+03  0.73170283456E+03  0.00000000000E+00 0.  1.
        -11    1    3    3    0    0  0.22908080940E+03 -0.47639404996E+03 -0.25234258824E+03  0.58575258422E+03  0.00000000000E+00 0. -1.
         22    1    1    2    0    0 -0.45570168029E+03  0.10531906273E+04  0.39749552597E+03  0.12144452281E+04  0.00000000000E+00 0. -1.
<mgrwt>
<rscale>  0 0.25201288E+04</rscale>
<asrwt>0</asrwt>
<pdfrwt beam="1">  1        1 0.17600247E+00 0.25201288E+04</pdfrwt>
<pdfrwt beam="2">  1       -1 0.21352071E+00 0.25201288E+04</pdfrwt>
<totfact> 0.12682179E+00</totfact>
</mgrwt>
</event>
<event>
 6    1  0.9988873E-007  0.2350218E+04  0.7818608E-02  0.8458380E-01
         -2   -1    0    0    0  501 -0.00000000000E+00  0.00000000000E+00  0.11663103967E+04  0.11663103967E+04  0.00000000000E+00 0.  1.
          2   -1    0    0  501    0  0.00000000000E+00 -0.00000000000E+00 -0.11839741705E+04  0.11839741705E+04  0.00000000000E+00 0. -1.
         23    2    1    2    0    0  0.61731658358E+02  0.57328699365E+03 -0.10307264788E+04  0.11846238881E+04  0.92021234230E+02 0.  0.
         13    1    3    3    0    0  0.37362923629E+02  0.16135763772E+03 -0.22514063315E+03  0.27950059035E+03  0.00000000000E+00 0. -1.
        -13    1    3    3    0    0  0.24368734729E+02  0.41192935594E+03 -0.80558584560E+03  0.90512329776E+03  0.00000000000E+00 0.  1.
         22    1    1    2    0    0 -0.61731658358E+02 -0.57328699365E+03  0.10130627050E+04  0.11656606792E+04  0.00000000000E+00 0.  1.
<mgrwt>
<rscale>  0 0.23502182E+04</rscale>
<asrwt>0</asrwt>
<pdfrwt beam="1">  1        2 0.18214987E+00 0.23502182E+04</pdfrwt>
<pdfrwt beam="2">  1       -2 0.17943237E+00 0.23502182E+04</pdfrwt>
<totfact> 0.31992109E+00</totfact>
</mgrwt>
</event>
<event>
 6    1  0.9988873E-007  0.2879065E+04  0.7818608E-02  0.8279134E-01
          1   -1    0    0  501    0  0.00000000000E+00  0.00000000000E+00  0.11825442804E+04  0.11825442804E+04  0.00000000000E+00 0. -1.
         -1   -1    0    0    0  501 -0.00000000000E+00 -0.00000000000E+00 -0.17523683511E+04  0.17523683511E+04  0.00000000000E+00 0.  1.
         23    2    1    2    0    0 -0.55522638992E+03 -0.24966589408E+03  0.10429773002E+04  0.12110397637E+04  0.90588397746E+02 0.  0.
         13    1    3    3    0    0 -0.24545943837E+03 -0.12791509127E+03  0.55743597086E+03  0.62237245124E+03  0.00000000000E+00 0.  1.
        -13    1    3    3    0    0 -0.30976695156E+03 -0.12175080281E+03  0.48554132932E+03  0.58866731244E+03  0.00000000000E+00 0. -1.
         22    1    1    2    0    0  0.55522638992E+03  0.24966589408E+03 -0.16128013708E+04  0.17238728678E+04  0.00000000000E+00 0.  1.
<mgrwt>
<rscale>  0 0.28790646E+04</rscale>
<asrwt>0</asrwt>
<pdfrwt beam="1">  1        1 0.18192989E+00 0.28790646E+04</pdfrwt>
<pdfrwt beam="2">  1       -1 0.26959513E+00 0.28790646E+04</pdfrwt>
<totfact> 0.49191406E-01</totfact>
</mgrwt>
</event>
<event>
 6    1  0.9988873E-007  0.1957913E+04  0.7818608E-02  0.8626555E-01
         -1   -1    0    0    0  501 -0.00000000000E+00  0.00000000000E+00  0.10071508002E+04  0.10071508002E+04  0.00000000000E+00 0.  1.
          1   -1    0    0  501    0  0.00000000000E+00 -0.00000000000E+00 -0.95155137655E+03  0.95155137655E+03  0.00000000000E+00 0. -1.
         23    2    1    2    0    0 -0.21376792940E+02 -0.77252335849E+03  0.62561748677E+03  0.99840540020E+03  0.90370330851E+02 0.  0.
         13    1    3    3    0    0  0.24473405756E+01 -0.22261383433E+03  0.23328611135E+03  0.32246754637E+03  0.00000000000E+00 0.  1.
        -13    1    3    3    0    0 -0.23824133516E+02 -0.54990952416E+03  0.39233137541E+03  0.67593785383E+03  0.00000000000E+00 0. -1.
         22    1    1    2    0    0  0.21376792940E+02  0.77252335849E+03 -0.57001806315E+03  0.96029677653E+03  0.00000000000E+00 0. -1.
<mgrwt>
<rscale>  0 0.19579129E+04</rscale>
<asrwt>0</asrwt>
<pdfrwt beam="1">  1        1 0.14639252E+00 0.19579129E+04</pdfrwt>
<pdfrwt beam="2">  1       -1 0.15494628E+00 0.19579129E+04</pdfrwt>
<totfact> 0.49154095E+00</totfact>
</mgrwt>
</event>
<event>
 6    1  0.9988873E-007  0.2711728E+04  0.7818608E-02  0.8331210E-01
          2   -1    0    0  501    0  0.00000000000E+00  0.00000000000E+00  0.13534283464E+04  0.13534283464E+04  0.00000000000E+00 0. -1.
         -2   -1    0    0    0  501 -0.00000000000E+00 -0.00000000000E+00 -0.13583041482E+04  0.13583041482E+04  0.00000000000E+00 0.  1.
         23    2    1    2    0    0 -0.57249410115E+03  0.10283120815E+04  0.66797721764E+03  0.13560384220E+04  0.86437294296E+02 0.  0.
         11    1    3    3    0    0 -0.78136693639E+02  0.20564233151E+03  0.13734395478E+03  0.25934045831E+03  0.00000000000E+00 0. -1.
        -11    1    3    3    0    0 -0.49435740751E+03  0.82266974998E+03  0.53063326286E+03  0.10966979637E+04  0.00000000000E+00 0.  1.
         22    1    1    2    0    0  0.57249410115E+03 -0.10283120815E+04 -0.67285301936E+03  0.13556940726E+04  0.00000000000E+00 0.  1.
<mgrwt>
<rscale>  0 0.27117281E+04</rscale>
<asrwt>0</asrwt>
<pdfrwt beam="1">  1        2 0.20821974E+00 0.27117281E+04</pdfrwt>
<pdfrwt beam="2">  1       -2 0.20896987E+00 0.27117281E+04</pdfrwt>
<totfact> 0.15686043E+00</totfact>
</mgrwt>
</event>
<event>
 6    1  0.9988873E-007  0.3173160E+04  0.7818608E-02  0.8195942E-01
          2   -1    0    0  501    0  0.00000000000E+00  0.00000000000E+00  0.17223321645E+04  0.17223321645E+04  0.00000000000E+00 0. -1.
         -2   -1    0    0    0  501 -0.00000000000E+00 -0.00000000000E+00 -0.14615275138E+04  0.14615275138E+04  0.00000000000E+00 0.  1.
         23    2    1    2    0    0  0.11605063376E+02  0.11414066297E+04  0.12342885150E+04  0.16836548237E+04  0.91003600708E+02 0.  0.
         13    1    3    3    0    0  0.13345239843E+02  0.80353956601E+03  0.80675215519E+03  0.11387286637E+04  0.00000000000E+00 0. -1.
        -13    1    3    3    0    0 -0.17401764663E+01  0.33786706371E+03  0.42753635978E+03  0.54492616003E+03  0.00000000000E+00 0.  1.
         22    1    1    2    0    0 -0.11605063376E+02 -0.11414066297E+04 -0.97348386431E+03  0.15002048547E+04  0.00000000000E+00 0.  1.
<mgrwt>
<rscale>  0 0.31731598E+04</rscale>
<asrwt>0</asrwt>
<pdfrwt beam="1">  1        2 0.26497418E+00 0.31731598E+04</pdfrwt>
<pdfrwt beam="2">  1       -2 0.22485039E+00 0.31731598E+04</pdfrwt>
<totfact> 0.74082870E-01</totfact>
</mgrwt>
</event>
<event>
 6    1  0.9988873E-007  0.2183008E+04  0.7818608E-02  0.8525534E-01
          2   -1    0    0  501    0  0.00000000000E+00  0.00000000000E+00  0.27966368526E+04  0.27966368526E+04  0.00000000000E+00 0. -1.
         -2   -1    0    0    0  501 -0.00000000000E+00 -0.00000000000E+00 -0.42600479753E+03  0.42600479753E+03  0.00000000000E+00 0.  1.
         23    2    1    2    0    0  0.20132158423E+03 -0.31929067330E+03  0.26962422533E+04  0.27241449947E+04  0.93630919542E+02 0.  0.
         13    1    3    3    0    0  0.86464246000E+02 -0.77456144004E+02  0.10316577734E+04  0.10381682337E+04  0.00000000000E+00 0.  1.
        -13    1    3    3    0    0  0.11485733823E+03 -0.24183452930E+03  0.16645844799E+04  0.16859767610E+04  0.00000000000E+00 0. -1.
         22    1    1    2    0    0 -0.20132158423E+03  0.31929067330E+03 -0.32561019822E+03  0.49849665548E+03  0.00000000000E+00 0.  1.
<mgrwt>
<rscale>  0 0.21830078E+04</rscale>
<asrwt>0</asrwt>
<pdfrwt beam="1">  1        2 0.43025181E+00 0.21830078E+04</pdfrwt>
<pdfrwt beam="2">  1       -2 0.65539201E-01 0.21830078E+04</pdfrwt>
<totfact> 0.45638890E+00</totfact>
</mgrwt>
</event>
<event>
 6    1  0.9988873E-007  0.1868354E+04  0.7818608E-02  0.8670771E-01
         -1   -1    0    0    0  501 -0.00000000000E+00  0.00000000000E+00  0.34884415767E+03  0.34884415767E+03  0.00000000000E+00 0.  1.
          1   -1    0    0  501    0  0.00000000000E+00 -0.00000000000E+00 -0.25016515081E+04  0.25016515081E+04  0.00000000000E+00 0. -1.
         23    2    1    2    0    0  0.53957505158E+03 -0.31201448040E+03 -0.22495171522E+02  0.63087311862E+03  0.94871422356E+02 0.  0.
         11    1    3    3    0    0  0.35320151549E+03 -0.15467724608E+03 -0.30904713473E+02  0.38682226192E+03  0.00000000000E+00 0.  1.
        -11    1    3    3    0    0  0.18637353609E+03 -0.15733723432E+03  0.84095419508E+01  0.24405085670E+03  0.00000000000E+00 0. -1.
         22    1    1    2    0    0 -0.53957505158E+03  0.31201448040E+03 -0.21303121789E+04  0.22196225472E+04  0.00000000000E+00 0. -1.
<mgrwt>
<rscale>  0 0.18683538E+04</rscale>
<asrwt>0</asrwt>
<pdfrwt beam="1">  1        1 0.38486945E+00 0.18683538E+04</pdfrwt>
<pdfrwt beam="2">  1       -1 0.53668334E-01 0.18683538E+04</pdfrwt>
<totfact> 0.44449602E+00</totfact>
</mgrwt>
</event>
<event>
 6    1  0.1021027E-006  0.4061416E+04  0.7818608E-02  0.7992270E-01
         -1   -1    0    0    0  501 -0.00000000000E+00  0.00000000000E+00  0.13220050543E+04  0.13220050543E+04  0.00000000000E+00 0.  1.
          1   -1    0    0  501    0  0.00000000000E+00 -0.00000000000E+00 -0.31193332838E+04  0.31193332838E+04  0.00000000000E+00 0. -1.
         23    2    1    2    0    0  0.10112213987E+04 -0.11042996489E+04  0.59925258231E+03  0.16154498018E+04  0.92347025065E+02 0.  0.
         13    1    3    3    0    0  0.54560712715E+03 -0.65014959288E+03  0.36867750900E+03  0.92536735190E+03  0.00000000000E+00 0. -1.
        -13    1    3    3    0    0  0.46561427154E+03 -0.45415005601E+03  0.23057507331E+03  0.69008244990E+03  0.00000000000E+00 0.  1.
         22    1    1    2    0    0 -0.10112213987E+04  0.11042996489E+04 -0.23965808118E+04  0.28258885362E+04  0.00000000000E+00 0. -1.
<mgrwt>
<rscale>  0 0.40614157E+04</rscale>
<asrwt>0</asrwt>
<pdfrwt beam="1">  1        1 0.47989742E+00 0.40614157E+04</pdfrwt>
<pdfrwt beam="2">  1       -1 0.20338540E+00 0.40614157E+04</pdfrwt>
<totfact> 0.54200994E-02</totfact>
</mgrwt>
</event>
<event>
 6    1  0.9988873E-007  0.3391392E+04  0.7818608E-02  0.8140022E-01
         -2   -1    0    0    0  501 -0.00000000000E+00  0.00000000000E+00  0.16899681294E+04  0.16899681294E+04  0.00000000000E+00 0.  1.
          2   -1    0    0  501    0  0.00000000000E+00 -0.00000000000E+00 -0.17014436591E+04  0.17014436591E+04  0.00000000000E+00 0. -1.
         23    2    1    2    0    0  0.33713979674E+03 -0.45091633043E+03  0.15922098400E+04  0.16917660770E+04  0.99757231919E+02 0.  0.
         13    1    3    3    0    0  0.21365257637E+03 -0.30043046405E+03  0.89661648887E+03  0.96944675730E+03  0.00000000000E+00 0.  1.
        -13    1    3    3    0    0  0.12348722037E+03 -0.15048586638E+03  0.69559335111E+03  0.72231931975E+03  0.00000000000E+00 0. -1.
         22    1    1    2    0    0 -0.33713979674E+03  0.45091633043E+03 -0.16036853697E+04  0.16996457115E+04  0.00000000000E+00 0. -1.
<mgrwt>
<rscale>  0 0.33913924E+04</rscale>
<asrwt>0</asrwt>
<pdfrwt beam="1">  1        2 0.26176056E+00 0.33913924E+04</pdfrwt>
<pdfrwt beam="2">  1       -2 0.25999510E+00 0.33913924E+04</pdfrwt>
<totfact> 0.45280651E-01</totfact>
</mgrwt>
</event>
<event>
 6    1  0.9988873E-007  0.5693116E+03  0.7818608E-02  0.9971203E-01
          1   -1    0    0  501    0  0.00000000000E+00  0.00000000000E+00  0.58576687354E+03  0.58576687354E+03  0.00000000000E+00 0. -1.
         -1   -1    0    0    0  501 -0.00000000000E+00 -0.00000000000E+00 -0.13832966076E+03  0.13832966076E+03  0.00000000000E+00 0.  1.
         23    2    1    2    0    0 -0.13064723633E+03  0.22627903616E+03  0.34714381625E+03  0.44422215542E+03  0.92485629372E+02 0.  0.
         13    1    3    3    0    0 -0.13735991512E+03  0.16140860430E+03  0.26712941856E+03  0.34099649570E+03  0.00000000000E+00 0.  1.
        -13    1    3    3    0    0  0.67126787863E+01  0.64870431858E+02  0.80014397692E+02  0.10322565972E+03  0.00000000000E+00 0. -1.
         22    1    1    2    0    0  0.13064723633E+03 -0.22627903616E+03  0.10029339653E+03  0.27987437888E+03  0.00000000000E+00 0.  1.
<mgrwt>
<rscale>  0 0.56931163E+03</rscale>
<asrwt>0</asrwt>
<pdfrwt beam="1">  1        1 0.90117979E-01 0.56931163E+03</pdfrwt>
<pdfrwt beam="2">  1       -1 0.21281487E-01 0.56931163E+03</pdfrwt>
<totfact> 0.65883983E+02</totfact>
</mgrwt>
</event>
<event>
 6    1  0.1018067E-006  0.4242014E+04  0.7818608E-02  0.7957428E-01
          2   -1    0    0  501    0  0.00000000000E+00  0.00000000000E+00  0.20987302848E+04  0.20987302848E+04  0.00000000000E+00 0. -1.
         -2   -1    0    0    0  501 -0.00000000000E+00 -0.00000000000E+00 -0.21435198278E+04  0.21435198278E+04  0.00000000000E+00 0.  1.
         23    2    1    2    0    0 -0.77295835746E+03 -0.18449946465E+04  0.67983441999E+03  0.21146811348E+04  0.90728139549E+02 0.  0.
         13    1    3    3    0    0 -0.45775282255E+03 -0.10434925641E+04  0.34410872018E+03  0.11903046623E+04  0.00000000000E+00 0. -1.
        -13    1    3    3    0    0 -0.31520553491E+03 -0.80150208237E+03  0.33572569981E+03  0.92437647244E+03  0.00000000000E+00 0.  1.
         22    1    1    2    0    0  0.77295835746E+03  0.18449946465E+04 -0.72462396294E+03  0.21275689779E+04  0.00000000000E+00 0.  1.
<mgrwt>
<rscale>  0 0.42420137E+04</rscale>
<asrwt>0</asrwt>
<pdfrwt beam="1">  1        2 0.32288158E+00 0.42420137E+04</pdfrwt>
<pdfrwt beam="2">  1       -2 0.32977228E+00 0.42420137E+04</pdfrwt>
<totfact> 0.94823319E-02</totfact>
</mgrwt>
</event>
<event>
 6    1  0.9988873E-007  0.1449521E+04  0.7818608E-02  0.8918733E-01
         -1   -1    0    0    0  501 -0.00000000000E+00  0.00000000000E+00  0.98680964028E+03  0.98680964028E+03  0.00000000000E+00 0.  1.
          1   -1    0    0  501    0  0.00000000000E+00 -0.00000000000E+00 -0.53229904550E+03  0.53229904550E+03  0.00000000000E+00 0. -1.
         23    2    1    2    0    0  0.16540136924E+03 -0.40879207352E+03 -0.37085256732E+03  0.58332403017E+03  0.90921533022E+02 0.  0.
         13    1    3    3    0    0  0.13754857018E+03 -0.23654759755E+03 -0.25381766455E+03  0.37322618062E+03  0.00000000000E+00 0.  1.
        -13    1    3    3    0    0  0.27852799060E+02 -0.17224447597E+03 -0.11703490277E+03  0.21009784955E+03  0.00000000000E+00 0. -1.
         22    1    1    2    0    0 -0.16540136924E+03  0.40879207352E+03  0.82536316209E+03  0.93578465561E+03  0.00000000000E+00 0.  1.
<mgrwt>
<rscale>  0 0.14495211E+04</rscale>
<asrwt>0</asrwt>
<pdfrwt beam="1">  1        1 0.81892161E-01 0.14495211E+04</pdfrwt>
<pdfrwt beam="2">  1       -1 0.15181687E+00 0.14495211E+04</pdfrwt>
<totfact> 0.13324744E+01</totfact>
</mgrwt>
</event>
<event>
 6    1  0.9988873E-007  0.2990508E+04  0.7818608E-02  0.8246447E-01
         -1   -1    0    0    0  501 -0.00000000000E+00  0.00000000000E+00  0.12526646670E+04  0.12526646670E+04  0.00000000000E+00 0.  1.
          1   -1    0    0  501    0  0.00000000000E+00 -0.00000000000E+00 -0.17848226608E+04  0.17848226608E+04  0.00000000000E+00 0. -1.
         23    2    1    2    0    0  0.92681223305E+03  0.63011227796E+03 -0.12696300278E+04  0.16958885059E+04  0.89749756264E+02 0.  0.
         11    1    3    3    0    0  0.40233688686E+03  0.31777789483E+03 -0.61843790849E+03  0.80332011529E+03  0.00000000000E+00 0. -1.
        -11    1    3    3    0    0  0.52447534619E+03  0.31233438312E+03 -0.65119211928E+03  0.89256839058E+03  0.00000000000E+00 0.  1.
         22    1    1    2    0    0 -0.92681223305E+03 -0.63011227796E+03  0.73747203401E+03  0.13415988220E+04  0.00000000000E+00 0.  1.
<mgrwt>
<rscale>  0 0.29905078E+04</rscale>
<asrwt>0</asrwt>
<pdfrwt beam="1">  1        1 0.27458810E+00 0.29905078E+04</pdfrwt>
<pdfrwt beam="2">  1       -1 0.19271764E+00 0.29905078E+04</pdfrwt>
<totfact> 0.60098210E-01</totfact>
</mgrwt>
</event>
<event>
 6    1  0.9988873E-007  0.1711667E+04  0.7818608E-02  0.8754738E-01
          2   -1    0    0  501    0  0.00000000000E+00  0.00000000000E+00  0.14110816411E+04  0.14110816411E+04  0.00000000000E+00 0. -1.
         -2   -1    0    0    0  501 -0.00000000000E+00 -0.00000000000E+00 -0.51907086397E+03  0.51907086397E+03  0.00000000000E+00 0.  1.
         23    2    1    2    0    0  0.75970001457E+03 -0.27066997059E+03  0.13221189221E+03  0.82213594805E+03  0.89561082611E+02 0.  0.
         11    1    3    3    0    0  0.61933525644E+02 -0.49012558924E+02  0.19845467834E+02  0.81436079992E+02  0.00000000000E+00 0.  1.
        -11    1    3    3    0    0  0.69776648893E+03 -0.22165741167E+03  0.11236642437E+03  0.74069986806E+03  0.00000000000E+00 0. -1.
         22    1    1    2    0    0 -0.75970001457E+03  0.27066997059E+03  0.75979888496E+03  0.11080165571E+04  0.00000000000E+00 0. -1.
<mgrwt>
<rscale>  0 0.17116675E+04</rscale>
<asrwt>0</asrwt>
<pdfrwt beam="1">  1        2 0.21708948E+00 0.17116675E+04</pdfrwt>
<pdfrwt beam="2">  1       -2 0.79857056E-01 0.17116675E+04</pdfrwt>
<totfact> 0.18816473E+01</totfact>
</mgrwt>
</event>
<event>
 6    1  0.9988873E-007  0.1423223E+04  0.7818608E-02  0.8937178E-01
         -1   -1    0    0    0  501 -0.00000000000E+00  0.00000000000E+00  0.19208988656E+03  0.19208988656E+03  0.00000000000E+00 0.  1.
          1   -1    0    0  501    0  0.00000000000E+00 -0.00000000000E+00 -0.26362200252E+04  0.26362200252E+04  0.00000000000E+00 0. -1.
         23    2    1    2    0    0  0.35599082640E+03 -0.57829149058E+03 -0.16299106628E+04  0.17680722632E+04  0.91215364224E+02 0.  0.
         11    1    3    3    0    0  0.88117412964E+02 -0.20890736906E+03 -0.60883351998E+03  0.64968086194E+03  0.00000000000E+00 0. -1.
        -11    1    3    3    0    0  0.26787341344E+03 -0.36938412151E+03 -0.10210771428E+04  0.11183914013E+04  0.00000000000E+00 0.  1.
         22    1    1    2    0    0 -0.35599082640E+03  0.57829149058E+03 -0.81421947580E+03  0.10602376485E+04  0.00000000000E+00 0.  1.
<mgrwt>
<rscale>  0 0.14232234E+04</rscale>
<asrwt>0</asrwt>
<pdfrwt beam="1">  1        1 0.40557233E+00 0.14232234E+04</pdfrwt>
<pdfrwt beam="2">  1       -1 0.29552289E-01 0.14232234E+04</pdfrwt>
<totfact> 0.11144981E+01</totfact>
</mgrwt>
</event>
<event>
 6    1  0.9988873E-007  0.8251623E+03  0.7818608E-02  0.9524293E-01
          2   -1    0    0  501    0  0.00000000000E+00  0.00000000000E+00  0.86731024028E+03  0.86731024028E+03  0.00000000000E+00 0. -1.
         -2   -1    0    0    0  501 -0.00000000000E+00 -0.00000000000E+00 -0.19626565765E+03  0.19626565765E+03  0.00000000000E+00 0.  1.
         23    2    1    2    0    0  0.12525985447E+03 -0.35230414017E+03  0.13063425499E+03  0.40642176034E+03  0.91132323459E+02 0.  0.
         13    1    3    3    0    0  0.18364886478E+02 -0.16016164272E+03  0.27422325383E+02  0.16352677085E+03  0.00000000000E+00 0. -1.
        -13    1    3    3    0    0  0.10689496799E+03 -0.19214249745E+03  0.10321192961E+03  0.24289498950E+03  0.00000000000E+00 0.  1.
         22    1    1    2    0    0 -0.12525985447E+03  0.35230414017E+03  0.54041032764E+03  0.65715413759E+03  0.00000000000E+00 0. -1.
<mgrwt>
<rscale>  0 0.82516232E+03</rscale>
<asrwt>0</asrwt>
<pdfrwt beam="1">  1        2 0.13343234E+00 0.82516232E+03</pdfrwt>
<pdfrwt beam="2">  1       -2 0.30194717E-01 0.82516232E+03</pdfrwt>
<totfact> 0.31390281E+02</totfact>
</mgrwt>
</event>
<event>
 6    1  0.9988873E-007  0.4358835E+04  0.7818608E-02  0.7935828E-01
          2   -1    0    0  501    0  0.00000000000E+00  0.00000000000E+00  0.37216511466E+04  0.37216511466E+04  0.00000000000E+00 0. -1.
         -2   -1    0    0    0  501 -0.00000000000E+00 -0.00000000000E+00 -0.12762775599E+04  0.12762775599E+04  0.00000000000E+00 0.  1.
         23    2    1    2    0    0  0.13042215962E+03 -0.17236734312E+04 -0.29690850597E+03  0.17562977724E+04  0.91472221911E+02 0.  0.
         11    1    3    3    0    0  0.14464681801E+03 -0.15571916311E+04 -0.26492455156E+03  0.15861757456E+04  0.00000000000E+00 0. -1.
        -11    1    3    3    0    0 -0.14224658396E+02 -0.16648180008E+03 -0.31983954410E+02  0.17012202681E+03  0.00000000000E+00 0.  1.
         22    1    1    2    0    0 -0.13042215962E+03  0.17236734312E+04  0.27422820927E+04  0.32416309341E+04  0.00000000000E+00 0. -1.
<mgrwt>
<rscale>  0 0.43588346E+04</rscale>
<asrwt>0</asrwt>
<pdfrwt beam="1">  1        2 0.57256171E+00 0.43588346E+04</pdfrwt>
<pdfrwt beam="2">  1       -2 0.19635040E+00 0.43588346E+04</pdfrwt>
<totfact> 0.60441847E-02</totfact>
</mgrwt>
</event>
<event>
 6    1  0.9988873E-007  0.1312492E+04  0.7818608E-02  0.9019717E-01
          1   -1    0    0  501    0  0.00000000000E+00  0.00000000000E+00  0.37607030244E+03  0.37607030244E+03  0.00000000000E+00 0. -1.
         -1   -1    0    0    0  501 -0.00000000000E+00 -0.00000000000E+00 -0.11451558690E+04  0.11451558690E+04  0.00000000000E+00 0.  1.
         23    2    1    2    0    0  0.30836963020E+03 -0.55483370101E+03 -0.56241051036E+03  0.85365831462E+03  0.97440604197E+02 0.  0.
         11    1    3    3    0    0  0.28054422303E+03 -0.45712263763E+03 -0.50644765073E+03  0.73766888903E+03  0.00000000000E+00 0.  1.
        -11    1    3    3    0    0  0.27825407175E+02 -0.97711063376E+02 -0.55962859630E+02  0.11598942559E+03  0.00000000000E+00 0. -1.
         22    1    1    2    0    0 -0.30836963020E+03  0.55483370101E+03 -0.20667505618E+03  0.66756785681E+03  0.00000000000E+00 0. -1.
<mgrwt>
<rscale>  0 0.13124925E+04</rscale>
<asrwt>0</asrwt>
<pdfrwt beam="1">  1        1 0.57856970E-01 0.13124925E+04</pdfrwt>
<pdfrwt beam="2">  1       -1 0.17617782E+00 0.13124925E+04</pdfrwt>
<totfact> 0.14176817E+01</totfact>
</mgrwt>
</event>
<event>
 6    1  0.9988873E-007  0.1973485E+04  0.7818608E-02  0.8619119E-01
         -1   -1    0    0    0  501 -0.00000000000E+00  0.00000000000E+00  0.15759876948E+04  0.15759876948E+04  0.00000000000E+00 0.  1.
          1   -1    0    0  501    0  0.00000000000E+00 -0.00000000000E+00 -0.61780991478E+03  0.61780991478E+03  0.00000000000E+00 0. -1.
         23    2    1    2    0    0  0.10284774348E+03  0.35281438221E+03  0.14956690406E+04  0.15426812592E+04  0.88226649981E+02 0.  0.
         13    1    3    3    0    0  0.62190545808E+02  0.30302785481E+03  0.11386834170E+04  0.11799548588E+04  0.00000000000E+00 0. -1.
        -13    1    3    3    0    0  0.40657197675E+02  0.49786527393E+02  0.35698562360E+03  0.36272640032E+03  0.00000000000E+00 0.  1.
         22    1    1    2    0    0 -0.10284774348E+03 -0.35281438221E+03 -0.53749126055E+03  0.65111635044E+03  0.00000000000E+00 0. -1.
<mgrwt>
<rscale>  0 0.19734851E+04</rscale>
<asrwt>0</asrwt>
<pdfrwt beam="1">  1        1 0.95047680E-01 0.19734851E+04</pdfrwt>
<pdfrwt beam="2">  1       -1 0.24245964E+00 0.19734851E+04</pdfrwt>
<totfact> 0.23836142E+00</totfact>
</mgrwt>
</event>
<event>
 6    1  0.9988873E-007  0.2289031E+04  0.7818608E-02  0.8482259E-01
         -2   -1    0    0    0  501 -0.00000000000E+00  0.00000000000E+00  0.13681259032E+04  0.13681259032E+04  0.00000000000E+00 0.  1.
          2   -1    0    0  501    0  0.00000000000E+00 -0.00000000000E+00 -0.95745285024E+03  0.95745285024E+03  0.00000000000E+00 0. -1.
         23    2    1    2    0    0 -0.18719349953E+03  0.50855625361E+03 -0.81635494675E+03  0.98421057825E+03  0.92542930121E+02 0.  0.
         13    1    3    3    0    0 -0.10333923526E+03  0.24345492486E+03 -0.31869945753E+03  0.41414809213E+03  0.00000000000E+00 0. -1.
        -13    1    3    3    0    0 -0.83854264270E+02  0.26510132875E+03 -0.49765548922E+03  0.57006248613E+03  0.00000000000E+00 0.  1.
         22    1    1    2    0    0  0.18719349953E+03 -0.50855625361E+03  0.12270279997E+04  0.13413681752E+04  0.00000000000E+00 0.  1.
<mgrwt>
<rscale>  0 0.22890313E+04</rscale>
<asrwt>0</asrwt>
<pdfrwt beam="1">  1        2 0.14730044E+00 0.22890313E+04</pdfrwt>
<pdfrwt beam="2">  1       -2 0.21048091E+00 0.22890313E+04</pdfrwt>
<totfact> 0.27688694E+00</totfact>
</mgrwt>
</event>
<event>
 6    1  0.9988873E-007  0.5209006E+03  0.7818608E-02  0.1008463E+00
          1   -1    0    0  501    0  0.00000000000E+00  0.00000000000E+00  0.73394736635E+03  0.73394736635E+03  0.00000000000E+00 0. -1.
         -1   -1    0    0    0  501 -0.00000000000E+00 -0.00000000000E+00 -0.92424013495E+02  0.92424013495E+02  0.00000000000E+00 0.  1.
         23    2    1    2    0    0 -0.13679622558E+03 -0.89141004832E+02  0.63612099647E+03  0.66300519139E+03  0.90921040329E+02 0.  0.
         11    1    3    3    0    0 -0.33867638751E+02  0.36986793892E+01  0.25873271961E+03  0.26096612305E+03  0.00000000000E+00 0.  1.
        -11    1    3    3    0    0 -0.10292858683E+03 -0.92839684221E+02  0.37738827687E+03  0.40203906834E+03  0.00000000000E+00 0. -1.
         22    1    1    2    0    0  0.13679622558E+03  0.89141004832E+02  0.54023563765E+01  0.16336618845E+03  0.00000000000E+00 0.  1.
<mgrwt>
<rscale>  0 0.52090061E+03</rscale>
<asrwt>0</asrwt>
<pdfrwt beam="1">  1        1 0.11291498E+00 0.52090061E+03</pdfrwt>
<pdfrwt beam="2">  1       -1 0.14219079E-01 0.52090061E+03</pdfrwt>
<totfact> 0.91683388E+02</totfact>
</mgrwt>
</event>
<event>
 6    1  0.9988873E-007  0.3552794E+04  0.7818608E-02  0.8101391E-01
         -1   -1    0    0    0  501 -0.00000000000E+00  0.00000000000E+00  0.89306001317E+03  0.89306001317E+03  0.00000000000E+00 0.  1.
          1   -1    0    0  501    0  0.00000000000E+00 -0.00000000000E+00 -0.35334538029E+04  0.35334538029E+04  0.00000000000E+00 0. -1.
         23    2    1    2    0    0  0.94352535640E+03 -0.67153329123E+03 -0.29977760255E+04  0.32145240794E+04  0.72848463491E+02 0.  0.
         13    1    3    3    0    0  0.16921197970E+03 -0.15389880731E+03 -0.61846283055E+03  0.65940413233E+03  0.00000000000E+00 0.  1.
        -13    1    3    3    0    0  0.77431337671E+03 -0.51763448393E+03 -0.23793131949E+04  0.25551199470E+04  0.00000000000E+00 0. -1.
         22    1    1    2    0    0 -0.94352535640E+03  0.67153329123E+03  0.35738223574E+03  0.12119897367E+04  0.00000000000E+00 0.  1.
<mgrwt>
<rscale>  0 0.35527940E+04</rscale>
<asrwt>0</asrwt>
<pdfrwt beam="1">  1        1 0.54360828E+00 0.35527940E+04</pdfrwt>
<pdfrwt beam="2">  1       -1 0.13739385E+00 0.35527940E+04</pdfrwt>
<totfact> 0.83934403E-02</totfact>
</mgrwt>
</event>
<event>
 6    1  0.9988873E-007  0.1212449E+04  0.7818608E-02  0.9102030E-01
          1   -1    0    0  501    0  0.00000000000E+00  0.00000000000E+00  0.27730743531E+04  0.27730743531E+04  0.00000000000E+00 0. -1.
         -1   -1    0    0    0  501 -0.00000000000E+00 -0.00000000000E+00 -0.13252723626E+03  0.13252723626E+03  0.00000000000E+00 0.  1.
         23    2    1    2    0    0  0.27591474772E+01 -0.25587407238E+03  0.26356690674E+04  0.26496661498E+04  0.92196090594E+02 0.  0.
         13    1    3    3    0    0 -0.28844044471E+02 -0.23570665976E+02  0.40616755341E+03  0.40787208367E+03  0.00000000000E+00 0. -1.
        -13    1    3    3    0    0  0.31603191948E+02 -0.23230340641E+03  0.22295015140E+04  0.22417940662E+04  0.00000000000E+00 0.  1.
         22    1    1    2    0    0 -0.27591474772E+01  0.25587407238E+03  0.48780494225E+01  0.25593543947E+03  0.00000000000E+00 0.  1.
<mgrwt>
<rscale>  0 0.12124486E+04</rscale>
<asrwt>0</asrwt>
<pdfrwt beam="1">  1        1 0.42662678E+00 0.12124486E+04</pdfrwt>
<pdfrwt beam="2">  1       -1 0.20388808E-01 0.12124486E+04</pdfrwt>
<totfact> 0.17219317E+01</totfact>
</mgrwt>
</event>
<event>
 6    1  0.9988873E-007  0.3547434E+04  0.7818608E-02  0.8102640E-01
          1   -1    0    0  501    0  0.00000000000E+00  0.00000000000E+00  0.25558997855E+04  0.25558997855E+04  0.00000000000E+00 0. -1.
         -1   -1    0    0    0  501 -0.00000000000E+00 -0.00000000000E+00 -0.12309061120E+04  0.12309061120E+04  0.00000000000E+00 0.  1.
         23    2    1    2    0    0  0.19396312656E+03  0.17389520012E+04  0.96571768959E+03  0.20005654351E+04  0.89864605561E+02 0.  0.
         11    1    3    3    0    0  0.89175512956E+02  0.10974283332E+04  0.63926768783E+03  0.12731710000E+04  0.00000000000E+00 0.  1.
        -11    1    3    3    0    0  0.10478761360E+03  0.64152366802E+03  0.32645000175E+03  0.72739443512E+03  0.00000000000E+00 0. -1.
         22    1    1    2    0    0 -0.19396312656E+03 -0.17389520012E+04  0.35927598388E+03  0.17862404624E+04  0.00000000000E+00 0.  1.
<mgrwt>
<rscale>  0 0.35474344E+04</rscale>
<asrwt>0</asrwt>
<pdfrwt beam="1">  1        1 0.39321535E+00 0.35474344E+04</pdfrwt>
<pdfrwt beam="2">  1       -1 0.18937017E+00 0.35474344E+04</pdfrwt>
<totfact> 0.17964777E-01</totfact>
</mgrwt>
</event>
<event>
 6    1  0.9988873E-007  0.5174771E+04  0.7818608E-02  0.7802098E-01
         -2   -1    0    0    0  501 -0.00000000000E+00  0.00000000000E+00  0.14954889316E+04  0.14954889316E+04  0.00000000000E+00 0.  1.
          2   -1    0    0  501    0  0.00000000000E+00 -0.00000000000E+00 -0.44765052958E+04  0.44765052958E+04  0.00000000000E+00 0. -1.
         23    2    1    2    0    0 -0.80742896030E+03  0.19370487550E+03 -0.43180514792E+04  0.43981054118E+04  0.91101763508E+02 0.  0.
         11    1    3    3    0    0 -0.13420083132E+03  0.33340533150E+02 -0.55675423672E+03  0.57366953412E+03  0.00000000000E+00 0. -1.
        -11    1    3    3    0    0 -0.67322812899E+03  0.16036434235E+03 -0.37612972425E+04  0.38244358777E+04  0.00000000000E+00 0.  1.
         22    1    1    2    0    0  0.80742896030E+03 -0.19370487550E+03  0.13370351151E+04  0.15738888155E+04  0.00000000000E+00 0.  1.
<mgrwt>
<rscale>  0 0.51747712E+04</rscale>
<asrwt>0</asrwt>
<pdfrwt beam="1">  1        2 0.68869312E+00 0.51747712E+04</pdfrwt>
<pdfrwt beam="2">  1       -2 0.23007522E+00 0.51747712E+04</pdfrwt>
<totfact> 0.78782932E-03</totfact>
</mgrwt>
</event>
<event>
 6    1  0.9988873E-007  0.3641460E+04  0.7818608E-02  0.8081060E-01
         -2   -1    0    0    0  501 -0.00000000000E+00  0.00000000000E+00  0.20815665428E+04  0.20815665428E+04  0.00000000000E+00 0.  1.
          2   -1    0    0  501    0  0.00000000000E+00 -0.00000000000E+00 -0.15925782096E+04  0.15925782096E+04  0.00000000000E+00 0. -1.
         23    2    1    2    0    0 -0.17541490652E+03 -0.12949467857E+04  0.15222456681E+04  0.20082281016E+04  0.89948133224E+02 0.  0.
         11    1    3    3    0    0 -0.96587447596E+02 -0.90203872412E+03  0.10046840606E+04  0.13536591360E+04  0.00000000000E+00 0. -1.
        -11    1    3    3    0    0 -0.78827458924E+02 -0.39290806160E+03  0.51756160753E+03  0.65456896560E+03  0.00000000000E+00 0.  1.
         22    1    1    2    0    0  0.17541490652E+03  0.12949467857E+04 -0.10332573349E+04  0.16659166508E+04  0.00000000000E+00 0. -1.
<mgrwt>
<rscale>  0 0.36414599E+04</rscale>
<asrwt>0</asrwt>
<pdfrwt beam="1">  1        2 0.24501203E+00 0.36414599E+04</pdfrwt>
<pdfrwt beam="2">  1       -2 0.32024101E+00 0.36414599E+04</pdfrwt>
<totfact> 0.21819409E-01</totfact>
</mgrwt>
</event>
<event>
 6    1  0.9988873E-007  0.2186411E+04  0.7818608E-02  0.8524106E-01
          1   -1    0    0  501    0  0.00000000000E+00  0.00000000000E+00  0.20962933480E+04  0.20962933480E+04  0.00000000000E+00 0. -1.
         -1   -1    0    0    0  501 -0.00000000000E+00 -0.00000000000E+00 -0.57010045789E+03  0.57010045789E+03  0.00000000000E+00 0.  1.
         23    2    1    2    0    0 -0.10068053075E+04 -0.30985241216E+03  0.11133101212E+04  0.15349621351E+04  0.83569646605E+02 0.  0.
         11    1    3    3    0    0 -0.20978820680E+03 -0.99098990490E+02  0.22982138276E+03  0.32657245690E+03  0.00000000000E+00 0. -1.
        -11    1    3    3    0    0 -0.79701710074E+03 -0.21075342167E+03  0.88348873840E+03  0.12083896782E+04  0.00000000000E+00 0.  1.
         22    1    1    2    0    0  0.10068053075E+04  0.30985241216E+03  0.41288276891E+03  0.11314316707E+04  0.00000000000E+00 0.  1.
<mgrwt>
<rscale>  0 0.21864106E+04</rscale>
<asrwt>0</asrwt>
<pdfrwt beam="1">  1        1 0.32250667E+00 0.21864106E+04</pdfrwt>
<pdfrwt beam="2">  1       -1 0.87707764E-01 0.21864106E+04</pdfrwt>
<totfact> 0.29909950E+00</totfact>
</mgrwt>
</event>
<event>
 6    1  0.9988873E-007  0.1561631E+04  0.7818608E-02  0.8844473E-01
          1   -1    0    0  501    0  0.00000000000E+00  0.00000000000E+00  0.11350420790E+04  0.11350420790E+04  0.00000000000E+00 0. -1.
         -1   -1    0    0    0  501 -0.00000000000E+00 -0.00000000000E+00 -0.53713664550E+03  0.53713664550E+03  0.00000000000E+00 0.  1.
         23    2    1    2    0    0  0.72531151503E+03 -0.28375952814E+02 -0.18790609258E+00  0.73164821920E+03  0.91799198344E+02 0.  0.
         11    1    3    3    0    0  0.26484509846E+03  0.25048670004E+02  0.26382870168E+02  0.26733203678E+03  0.00000000000E+00 0.  1.
        -11    1    3    3    0    0  0.46046641657E+03 -0.53424622817E+02 -0.26570776260E+02  0.46431618242E+03  0.00000000000E+00 0. -1.
         22    1    1    2    0    0 -0.72531151503E+03  0.28375952814E+02  0.59809333960E+03  0.94053050530E+03  0.00000000000E+00 0. -1.
<mgrwt>
<rscale>  0 0.15616308E+04</rscale>
<asrwt>0</asrwt>
<pdfrwt beam="1">  1        1 0.17462186E+00 0.15616308E+04</pdfrwt>
<pdfrwt beam="2">  1       -1 0.82636407E-01 0.15616308E+04</pdfrwt>
<totfact> 0.16718409E+01</totfact>
</mgrwt>
</event>
<event>
 6    1  0.9988873E-007  0.1988450E+04  0.7818608E-02  0.8612040E-01
          2   -1    0    0  501    0  0.00000000000E+00  0.00000000000E+00  0.25095531339E+04  0.25095531339E+04  0.00000000000E+00 0. -1.
         -2   -1    0    0    0  501 -0.00000000000E+00 -0.00000000000E+00 -0.39388802784E+03  0.39388802784E+03  0.00000000000E+00 0.  1.
         23    2    1    2    0    0  0.23823831853E+03 -0.60349764539E+03  0.21561558330E+04  0.22533593181E+04  0.87483347207E+02 0.  0.
         13    1    3    3    0    0  0.28007392964E+02 -0.56764780949E+02  0.13626691511E+03  0.15025087877E+03  0.00000000000E+00 0.  1.
        -13    1    3    3    0    0  0.21023092557E+03 -0.54673286444E+03  0.20198889179E+04  0.21031084394E+04  0.00000000000E+00 0. -1.
         22    1    1    2    0    0 -0.23823831853E+03  0.60349764539E+03 -0.40490726942E+02  0.65008184360E+03  0.00000000000E+00 0.  1.
<mgrwt>
<rscale>  0 0.19884496E+04</rscale>
<asrwt>0</asrwt>
<pdfrwt beam="1">  1        2 0.38608509E+00 0.19884496E+04</pdfrwt>
<pdfrwt beam="2">  1       -2 0.60598160E-01 0.19884496E+04</pdfrwt>
<totfact> 0.81104709E+00</totfact>
</mgrwt>
</event>
<event>
 6    1  0.9988873E-007  0.1994151E+04  0.7818608E-02  0.8609360E-01
          2   -1    0    0  501    0  0.00000000000E+00  0.00000000000E+00  0.11296355579E+04  0.11296355579E+04  0.00000000000E+00 0. -1.
         -2   -1    0    0    0  501 -0.00000000000E+00 -0.00000000000E+00 -0.88007119366E+03  0.88007119366E+03  0.00000000000E+00 0.  1.
         23    2    1    2    0    0 -0.91753022012E+03  0.34927928781E+03  0.28529980430E+03  0.10272940341E+04  0.10039585822E+03 0.  0.
         13    1    3    3    0    0 -0.23538781367E+03  0.74587988610E+02  0.11535561933E+03  0.27253937290E+03  0.00000000000E+00 0. -1.
        -13    1    3    3    0    0 -0.68214240645E+03  0.27469129920E+03  0.16994418497E+03  0.75475466116E+03  0.00000000000E+00 0.  1.
         22    1    1    2    0    0  0.91753022012E+03 -0.34927928781E+03 -0.35735440111E+02  0.98241271745E+03  0.00000000000E+00 0.  1.
<mgrwt>
<rscale>  0 0.19941512E+04</rscale>
<asrwt>0</asrwt>
<pdfrwt beam="1">  1        2 0.17379009E+00 0.19941512E+04</pdfrwt>
<pdfrwt beam="2">  1       -2 0.13539557E+00 0.19941512E+04</pdfrwt>
<totfact> 0.76042552E+00</totfact>
</mgrwt>
</event>
<event>
 6    1  0.9988873E-007  0.2712458E+04  0.7818608E-02  0.8330974E-01
          2   -1    0    0  501    0  0.00000000000E+00  0.00000000000E+00  0.16708189466E+04  0.16708189466E+04  0.00000000000E+00 0. -1.
         -2   -1    0    0    0  501 -0.00000000000E+00 -0.00000000000E+00 -0.11008719089E+04  0.11008719089E+04  0.00000000000E+00 0.  1.
         23    2    1    2    0    0  0.10121872431E+04 -0.90034214945E+03  0.27730583157E+03  0.13857695458E+04  0.91212437774E+02 0.  0.
         11    1    3    3    0    0  0.38035862728E+03 -0.32557784631E+03  0.58756518070E+02  0.50410906337E+03  0.00000000000E+00 0. -1.
        -11    1    3    3    0    0  0.63182861578E+03 -0.57476430314E+03  0.21854931350E+03  0.88166048245E+03  0.00000000000E+00 0.  1.
         22    1    1    2    0    0 -0.10121872431E+04  0.90034214945E+03  0.29264120614E+03  0.13859213097E+04  0.00000000000E+00 0. -1.
<mgrwt>
<rscale>  0 0.27124584E+04</rscale>
<asrwt>0</asrwt>
<pdfrwt beam="1">  1        2 0.25704907E+00 0.27124584E+04</pdfrwt>
<pdfrwt beam="2">  1       -2 0.16936491E+00 0.27124584E+04</pdfrwt>
<totfact> 0.19219531E+00</totfact>
</mgrwt>
</event>
<event>
 6    1  0.9988873E-007  0.2152316E+04  0.7818608E-02  0.8538541E-01
         -2   -1    0    0    0  501 -0.00000000000E+00  0.00000000000E+00  0.92892686474E+03  0.92892686474E+03  0.00000000000E+00 0.  1.
          2   -1    0    0  501    0  0.00000000000E+00 -0.00000000000E+00 -0.12467248892E+04  0.12467248892E+04  0.00000000000E+00 0. -1.
         23    2    1    2    0    0 -0.81611431630E+02 -0.10250104176E+04  0.15512840125E+03  0.10438539866E+04  0.90882025181E+02 0.  0.
         11    1    3    3    0    0  0.20205853789E+02 -0.18646940655E+03  0.27407793519E+02  0.18955290357E+03  0.00000000000E+00 0.  1.
        -11    1    3    3    0    0 -0.10181728542E+03 -0.83854101105E+03  0.12772060773E+03  0.85430108303E+03  0.00000000000E+00 0. -1.
         22    1    1    2    0    0  0.81611431630E+02  0.10250104176E+04 -0.47292642566E+03  0.11317977673E+04  0.00000000000E+00 0. -1.
<mgrwt>
<rscale>  0 0.21523162E+04</rscale>
<asrwt>0</asrwt>
<pdfrwt beam="1">  1        2 0.19180383E+00 0.21523162E+04</pdfrwt>
<pdfrwt beam="2">  1       -2 0.14291183E+00 0.21523162E+04</pdfrwt>
<totfact> 0.55499630E+00</totfact>
</mgrwt>
</event>
<event>
 6    1  0.9988873E-007  0.1420204E+04  0.7818608E-02  0.8939322E-01
         -2   -1    0    0    0  501 -0.00000000000E+00  0.00000000000E+00  0.39600224908E+03  0.39600224908E+03  0.00000000000E+00 0.  1.
          2   -1    0    0  501    0  0.00000000000E+00 -0.00000000000E+00 -0.12733387117E+04  0.12733387117E+04  0.00000000000E+00 0. -1.
         23    2    1    2    0    0 -0.22186995330E+03  0.64223993899E+03 -0.67073914602E+03  0.95914319491E+03  0.91467212332E+02 0.  0.
         13    1    3    3    0    0 -0.89599725052E+02  0.26338818063E+03 -0.21279532230E+03  0.35026175015E+03  0.00000000000E+00 0.  1.
        -13    1    3    3    0    0 -0.13227022825E+03  0.37885175835E+03 -0.45794382372E+03  0.60888144476E+03  0.00000000000E+00 0. -1.
         22    1    1    2    0    0  0.22186995330E+03 -0.64223993899E+03 -0.20659731660E+03  0.71019776586E+03  0.00000000000E+00 0. -1.
<mgrwt>
<rscale>  0 0.14202042E+04</rscale>
<asrwt>0</asrwt>
<pdfrwt beam="1">  1        2 0.19589826E+00 0.14202042E+04</pdfrwt>
<pdfrwt beam="2">  1       -2 0.60923423E-01 0.14202042E+04</pdfrwt>
<totfact> 0.41758765E+01</totfact>
</mgrwt>
</event>
<event>
 6    1  0.9988873E-007  0.1703676E+04  0.7818608E-02  0.8759271E-01
         -1   -1    0    0    0  501 -0.00000000000E+00  0.00000000000E+00  0.43315146818E+03  0.43315146818E+03  0.00000000000E+00 0.  1.
          1   -1    0    0  501    0  0.00000000000E+00 -0.00000000000E+00 -0.16752286919E+04  0.16752286919E+04  0.00000000000E+00 0. -1.
         23    2    1    2    0    0  0.69625975611E+03 -0.10683282909E+03 -0.12102053594E+04  0.14032512945E+04  0.91248464969E+02 0.  0.
         11    1    3    3    0    0  0.44821371424E+03 -0.10454222032E+03 -0.83548418325E+03  0.95386499565E+03  0.00000000000E+00 0. -1.
        -11    1    3    3    0    0  0.24804604187E+03 -0.22906087756E+01 -0.37472117611E+03  0.44938629886E+03  0.00000000000E+00 0.  1.
         22    1    1    2    0    0 -0.69625975611E+03  0.10683282909E+03 -0.31871864394E+02  0.70512886560E+03  0.00000000000E+00 0.  1.
<mgrwt>
<rscale>  0 0.17036758E+04</rscale>
<asrwt>0</asrwt>
<pdfrwt beam="1">  1        1 0.25772749E+00 0.17036758E+04</pdfrwt>
<pdfrwt beam="2">  1       -1 0.66638689E-01 0.17036758E+04</pdfrwt>
<totfact> 0.10755662E+01</totfact>
</mgrwt>
</event>
<event>
 6    1  0.9988873E-007  0.8210470E+03  0.7818608E-02  0.9530042E-01
         -1   -1    0    0    0  501 -0.00000000000E+00  0.00000000000E+00  0.33732925142E+03  0.33732925142E+03  0.00000000000E+00 0.  1.
          1   -1    0    0  501    0  0.00000000000E+00 -0.00000000000E+00 -0.49959950836E+03  0.49959950836E+03  0.00000000000E+00 0. -1.
         23    2    1    2    0    0  0.34549916125E+02  0.16539022753E+03 -0.45821505789E+03  0.49614884653E+03  0.87492940085E+02 0.  0.
         11    1    3    3    0    0  0.41984128701E+02  0.47442990966E+02 -0.94962461494E+02  0.11415504171E+03  0.00000000000E+00 0.  1.
        -11    1    3    3    0    0 -0.74342125762E+01  0.11794723657E+03 -0.36325259640E+03  0.38199380482E+03  0.00000000000E+00 0. -1.
         22    1    1    2    0    0 -0.34549916125E+02 -0.16539022753E+03  0.29594480095E+03  0.34077991326E+03  0.00000000000E+00 0.  1.
<mgrwt>
<rscale>  0 0.82104696E+03</rscale>
<asrwt>0</asrwt>
<pdfrwt beam="1">  1        1 0.76861462E-01 0.82104696E+03</pdfrwt>
<pdfrwt beam="2">  1       -1 0.51896808E-01 0.82104696E+03</pdfrwt>
<totfact> 0.16766757E+02</totfact>
</mgrwt>
</event>
<event>
 6    1  0.9988873E-007  0.1287483E+04  0.7818608E-02  0.9039551E-01
         -1   -1    0    0    0  501 -0.00000000000E+00  0.00000000000E+00  0.74469693512E+03  0.74469693512E+03  0.00000000000E+00 0.  1.
          1   -1    0    0  501    0  0.00000000000E+00 -0.00000000000E+00 -0.55647176404E+03  0.55647176404E+03  0.00000000000E+00 0. -1.
         23    2    1    2    0    0 -0.27602905334E+02 -0.24882607679E+03 -0.50117060788E+03  0.56772280687E+03  0.91982989568E+02 0.  0.
         11    1    3    3    0    0 -0.57460596042E+02 -0.15892024591E+03 -0.27884223925E+03  0.32605269367E+03  0.00000000000E+00 0. -1.
        -11    1    3    3    0    0  0.29857690708E+02 -0.89905830880E+02 -0.22232836862E+03  0.24167011320E+03  0.00000000000E+00 0.  1.
         22    1    1    2    0    0  0.27602905334E+02  0.24882607679E+03  0.68939577896E+03  0.73344589229E+03  0.00000000000E+00 0.  1.
<mgrwt>
<rscale>  0 0.12874825E+04</rscale>
<asrwt>0</asrwt>
<pdfrwt beam="1">  1        1 0.85611041E-01 0.12874825E+04</pdfrwt>
<pdfrwt beam="2">  1       -1 0.11456876E+00 0.12874825E+04</pdfrwt>
<totfact> 0.25999602E+01</totfact>
</mgrwt>
</event>
<event>
 6    1  0.9988873E-007  0.1345227E+04  0.7818608E-02  0.8994449E-01
          2   -1    0    0  501    0  0.00000000000E+00  0.00000000000E+00  0.93148891610E+03  0.93148891610E+03  0.00000000000E+00 0. -1.
         -2   -1    0    0    0  501 -0.00000000000E+00 -0.00000000000E+00 -0.48568383335E+03  0.48568383335E+03  0.00000000000E+00 0.  1.
         23    2    1    2    0    0 -0.22990517929E+03  0.61708735641E+03  0.35083295330E+03  0.75183606605E+03  0.92306620508E+02 0.  0.
         11    1    3    3    0    0 -0.94887116284E+02  0.23315272240E+03  0.84820928402E+02  0.26562821141E+03  0.00000000000E+00 0. -1.
        -11    1    3    3    0    0 -0.13501806301E+03  0.38393463401E+03  0.26601202489E+03  0.48620785465E+03  0.00000000000E+00 0.  1.
         22    1    1    2    0    0  0.22990517929E+03 -0.61708735641E+03  0.94972129455E+02  0.66533668340E+03  0.00000000000E+00 0. -1.
<mgrwt>
<rscale>  0 0.13452273E+04</rscale>
<asrwt>0</asrwt>
<pdfrwt beam="1">  1        2 0.14330599E+00 0.13452273E+04</pdfrwt>
<pdfrwt beam="2">  1       -2 0.74720590E-01 0.13452273E+04</pdfrwt>
<totfact> 0.43950194E+01</totfact>
</mgrwt>
</event>
<event>
 6    1  0.9988873E-007  0.1312145E+04  0.7818608E-02  0.9019989E-01
          2   -1    0    0  501    0  0.00000000000E+00  0.00000000000E+00  0.33838314556E+03  0.33838314556E+03  0.00000000000E+00 0. -1.
         -2   -1    0    0    0  501 -0.00000000000E+00 -0.00000000000E+00 -0.12720227413E+04  0.12720227413E+04  0.00000000000E+00 0.  1.
         23    2    1    2    0    0 -0.13590673846E+03  0.28406123334E+03  0.23315919123E+03  0.40186096211E+03  0.89261405838E+02 0.  0.
         13    1    3    3    0    0 -0.98003992778E+02  0.26874945123E+03  0.19752026332E+03  0.34762811244E+03  0.00000000000E+00 0. -1.
        -13    1    3    3    0    0 -0.37902745680E+02  0.15311782112E+02  0.35638927904E+02  0.54232849673E+02  0.00000000000E+00 0.  1.
         22    1    1    2    0    0  0.13590673846E+03 -0.28406123334E+03 -0.11667987870E+04  0.12085449247E+04  0.00000000000E+00 0.  1.
<mgrwt>
<rscale>  0 0.13121449E+04</rscale>
<asrwt>0</asrwt>
<pdfrwt beam="1">  1        2 0.52058946E-01 0.13121449E+04</pdfrwt>
<pdfrwt beam="2">  1       -2 0.19569581E+00 0.13121449E+04</pdfrwt>
<totfact> 0.13333524E+01</totfact>
</mgrwt>
</event>
<event>
 6    1  0.9988873E-007  0.1365166E+04  0.7818608E-02  0.8979426E-01
         -2   -1    0    0    0  501 -0.00000000000E+00  0.00000000000E+00  0.42794028774E+03  0.42794028774E+03  0.00000000000E+00 0.  1.
          2   -1    0    0  501    0  0.00000000000E+00 -0.00000000000E+00 -0.10887488438E+04  0.10887488438E+04  0.00000000000E+00 0. -1.
         23    2    1    2    0    0 -0.25109096235E+03 -0.16979550277E+03  0.34385652234E+03  0.46729449468E+03  0.90827598587E+02 0.  0.
         11    1    3    3    0    0 -0.13079852913E+03 -0.52709669958E+02  0.20821207342E+03  0.25147332274E+03  0.00000000000E+00 0. -1.
        -11    1    3    3    0    0 -0.12029243322E+03 -0.11708583281E+03  0.13564444892E+03  0.21582117194E+03  0.00000000000E+00 0.  1.
         22    1    1    2    0    0  0.25109096235E+03  0.16979550277E+03 -0.10046650784E+04  0.10493946369E+04  0.00000000000E+00 0. -1.
<mgrwt>
<rscale>  0 0.13651659E+04</rscale>
<asrwt>0</asrwt>
<pdfrwt beam="1">  1        2 0.16749982E+00 0.13651659E+04</pdfrwt>
<pdfrwt beam="2">  1       -2 0.65836969E-01 0.13651659E+04</pdfrwt>
<totfact> 0.45882089E+01</totfact>
</mgrwt>
</event>
<event>
 6    1  0.9988873E-007  0.2417722E+04  0.7818608E-02  0.8432898E-01
         -1   -1    0    0    0  501 -0.00000000000E+00  0.00000000000E+00  0.35329686821E+03  0.35329686821E+03  0.00000000000E+00 0.  1.
          1   -1    0    0  501    0  0.00000000000E+00 -0.00000000000E+00 -0.41363091336E+04  0.41363091336E+04  0.00000000000E+00 0. -1.
         23    2    1    2    0    0  0.24780833817E+03  0.10101296454E+04 -0.75665725317E+03  0.12895129512E+04  0.92426075688E+02 0.  0.
         11    1    3    3    0    0  0.16840960606E+03  0.81817103557E+03 -0.62939617888E+03  0.10458992250E+04  0.00000000000E+00 0. -1.
        -11    1    3    3    0    0  0.79398732115E+02  0.19195860981E+03 -0.12726107429E+03  0.24361372616E+03  0.00000000000E+00 0.  1.
         22    1    1    2    0    0 -0.24780833817E+03 -0.10101296454E+04 -0.30263550123E+04  0.32000930507E+04  0.00000000000E+00 0. -1.
<mgrwt>
<rscale>  0 0.24177221E+04</rscale>
<asrwt>0</asrwt>
<pdfrwt beam="1">  1        1 0.63635529E+00 0.24177221E+04</pdfrwt>
<pdfrwt beam="2">  1       -1 0.54353361E-01 0.24177221E+04</pdfrwt>
<totfact> 0.22238153E-01</totfact>
</mgrwt>
</event>
<event>
 6    1  0.9988873E-007  0.4069793E+04  0.7818608E-02  0.7990613E-01
          2   -1    0    0  501    0  0.00000000000E+00  0.00000000000E+00  0.19959729716E+04  0.19959729716E+04  0.00000000000E+00 0. -1.
         -2   -1    0    0    0  501 -0.00000000000E+00 -0.00000000000E+00 -0.20745794396E+04  0.20745794396E+04  0.00000000000E+00 0.  1.
         23    2    1    2    0    0  0.94568716121E+03 -0.14846788123E+04  0.97994678142E+03  0.20165002296E+04  0.85919141102E+02 0.  0.
         13    1    3    3    0    0  0.16183453156E+03 -0.31824355484E+03  0.20030455703E+03  0.40937915356E+03  0.00000000000E+00 0. -1.
        -13    1    3    3    0    0  0.78385262965E+03 -0.11664352575E+04  0.77964222439E+03  0.16071210760E+04  0.00000000000E+00 0.  1.
         22    1    1    2    0    0 -0.94568716121E+03  0.14846788123E+04 -0.10585532494E+04  0.20540521815E+04  0.00000000000E+00 0.  1.
<mgrwt>
<rscale>  0 0.40697934E+04</rscale>
<asrwt>0</asrwt>
<pdfrwt beam="1">  1        2 0.30707276E+00 0.40697934E+04</pdfrwt>
<pdfrwt beam="2">  1       -2 0.31916607E+00 0.40697934E+04</pdfrwt>
<totfact> 0.12764375E-01</totfact>
</mgrwt>
</event>
<event>
 6    1  0.9988873E-007  0.2906003E+04  0.7818608E-02  0.8271094E-01
         -2   -1    0    0    0  501 -0.00000000000E+00  0.00000000000E+00  0.12785850670E+04  0.12785850670E+04  0.00000000000E+00 0.  1.
          2   -1    0    0  501    0  0.00000000000E+00 -0.00000000000E+00 -0.16512106050E+04  0.16512106050E+04  0.00000000000E+00 0. -1.
         23    2    1    2    0    0  0.73881819415E+03 -0.98628965183E+03  0.58683258186E+03  0.13680083994E+04  0.91950531695E+02 0.  0.
         13    1    3    3    0    0  0.11651659744E+03 -0.18980309044E+03  0.74738588134E+02  0.23491953340E+03  0.00000000000E+00 0. -1.
        -13    1    3    3    0    0  0.62230159671E+03 -0.79648656139E+03  0.51209399372E+03  0.11330888660E+04  0.00000000000E+00 0.  1.
         22    1    1    2    0    0 -0.73881819415E+03  0.98628965183E+03 -0.95945811982E+03  0.15617872726E+04  0.00000000000E+00 0.  1.
<mgrwt>
<rscale>  0 0.29060029E+04</rscale>
<asrwt>0</asrwt>
<pdfrwt beam="1">  1        2 0.25403240E+00 0.29060029E+04</pdfrwt>
<pdfrwt beam="2">  1       -2 0.19670540E+00 0.29060029E+04</pdfrwt>
<totfact> 0.12594912E+00</totfact>
</mgrwt>
</event>
<event>
 6    1  0.9988873E-007  0.2678956E+04  0.7818608E-02  0.8341865E-01
          1   -1    0    0  501    0  0.00000000000E+00  0.00000000000E+00  0.93018168737E+03  0.93018168737E+03  0.00000000000E+00 0. -1.
         -1   -1    0    0    0  501 -0.00000000000E+00 -0.00000000000E+00 -0.19288722543E+04  0.19288722543E+04  0.00000000000E+00 0.  1.
         23    2    1    2    0    0 -0.12310019164E+04 -0.51269222203E+03 -0.38355118193E+03  0.13905119792E+04  0.90515315368E+02 0.  0.
         13    1    3    3    0    0 -0.43788986826E+03 -0.15226584791E+03 -0.99107963116E+02  0.47408312933E+03  0.00000000000E+00 0.  1.
        -13    1    3    3    0    0 -0.79311204813E+03 -0.36042637412E+03 -0.28444321881E+03  0.91642884982E+03  0.00000000000E+00 0. -1.
         22    1    1    2    0    0  0.12310019164E+04  0.51269222203E+03 -0.61513938498E+03  0.14685419625E+04  0.00000000000E+00 0. -1.
<mgrwt>
<rscale>  0 0.26789563E+04</rscale>
<asrwt>0</asrwt>
<pdfrwt beam="1">  1        1 0.14310488E+00 0.26789563E+04</pdfrwt>
<pdfrwt beam="2">  1       -1 0.29674957E+00 0.26789563E+04</pdfrwt>
<totfact> 0.52140192E-01</totfact>
</mgrwt>
</event>
<event>
 6    1  0.9988873E-007  0.2345651E+04  0.7818608E-02  0.8460136E-01
         -2   -1    0    0    0  501 -0.00000000000E+00  0.00000000000E+00  0.63011136182E+03  0.63011136182E+03  0.00000000000E+00 0.  1.
          2   -1    0    0  501    0  0.00000000000E+00 -0.00000000000E+00 -0.21829781527E+04  0.21829781527E+04  0.00000000000E+00 0. -1.
         23    2    1    2    0    0  0.31765709070E+03  0.10183895198E+04 -0.19826017379E+03  0.10888556765E+04  0.90974427374E+02 0.  0.
         11    1    3    3    0    0  0.12518513285E+03  0.44928508108E+03 -0.43192524902E+02  0.46839512783E+03  0.00000000000E+00 0. -1.
        -11    1    3    3    0    0  0.19247195785E+03  0.56910443868E+03 -0.15506764889E+03  0.62046054864E+03  0.00000000000E+00 0.  1.
         22    1    1    2    0    0 -0.31765709070E+03 -0.10183895198E+04 -0.13546066171E+04  0.17242338381E+04  0.00000000000E+00 0. -1.
<mgrwt>
<rscale>  0 0.23456507E+04</rscale>
<asrwt>0</asrwt>
<pdfrwt beam="1">  1        2 0.33584280E+00 0.23456507E+04</pdfrwt>
<pdfrwt beam="2">  1       -2 0.96940207E-01 0.23456507E+04</pdfrwt>
<totfact> 0.42376754E+00</totfact>
</mgrwt>
</event>
<event>
 6    1  0.9988873E-007  0.1188365E+04  0.7818608E-02  0.9123102E-01
         -1   -1    0    0    0  501 -0.00000000000E+00  0.00000000000E+00  0.31179850642E+03  0.31179850642E+03  0.00000000000E+00 0.  1.
          1   -1    0    0  501    0  0.00000000000E+00 -0.00000000000E+00 -0.11323102502E+04  0.11323102502E+04  0.00000000000E+00 0. -1.
         23    2    1    2    0    0 -0.44394216863E+03 -0.30096242459E+03 -0.11134439967E+03  0.55496233896E+03  0.89008944638E+02 0.  0.
         11    1    3    3    0    0 -0.10660190126E+03 -0.53678955215E+02  0.90949837839E+01  0.11970010157E+03  0.00000000000E+00 0. -1.
        -11    1    3    3    0    0 -0.33734026737E+03 -0.24728346938E+03 -0.12043938346E+03  0.43526223740E+03  0.00000000000E+00 0.  1.
         22    1    1    2    0    0  0.44394216863E+03  0.30096242459E+03 -0.70916734413E+03  0.88914641769E+03  0.00000000000E+00 0. -1.
<mgrwt>
<rscale>  0 0.11883647E+04</rscale>
<asrwt>0</asrwt>
<pdfrwt beam="1">  1        1 0.17420158E+00 0.11883647E+04</pdfrwt>
<pdfrwt beam="2">  1       -1 0.47969000E-01 0.11883647E+04</pdfrwt>
<totfact> 0.51561010E+01</totfact>
</mgrwt>
</event>
<event>
 6    1  0.9988873E-007  0.2895957E+04  0.7818608E-02  0.8274081E-01
         -2   -1    0    0    0  501 -0.00000000000E+00  0.00000000000E+00  0.23166638815E+04  0.23166638815E+04  0.00000000000E+00 0.  1.
          2   -1    0    0  501    0  0.00000000000E+00 -0.00000000000E+00 -0.90502620974E+03  0.90502620974E+03  0.00000000000E+00 0. -1.
         23    2    1    2    0    0 -0.33871566370E+03  0.23821460892E+03  0.22484174172E+04  0.22880548076E+04  0.91320424623E+02 0.  0.
         11    1    3    3    0    0 -0.10743728134E+03  0.62187597896E+02  0.47371684231E+03  0.48971186778E+03  0.00000000000E+00 0.  1.
        -11    1    3    3    0    0 -0.23127838235E+03  0.17602701103E+03  0.17747005748E+04  0.17983429398E+04  0.00000000000E+00 0. -1.
         22    1    1    2    0    0  0.33871566370E+03 -0.23821460892E+03 -0.83677974535E+03  0.93363528370E+03  0.00000000000E+00 0. -1.
<mgrwt>
<rscale>  0 0.28959569E+04</rscale>
<asrwt>0</asrwt>
<pdfrwt beam="1">  1        2 0.13923480E+00 0.28959569E+04</pdfrwt>
<pdfrwt beam="2">  1       -2 0.35640983E+00 0.28959569E+04</pdfrwt>
<totfact> 0.35589698E-01</totfact>
</mgrwt>
</event>
<event>
 6    1  0.9988873E-007  0.3132216E+04  0.7818608E-02  0.8206952E-01
         -1   -1    0    0    0  501 -0.00000000000E+00  0.00000000000E+00  0.10379146947E+04  0.10379146947E+04  0.00000000000E+00 0.  1.
          1   -1    0    0  501    0  0.00000000000E+00 -0.00000000000E+00 -0.23630977413E+04  0.23630977413E+04  0.00000000000E+00 0. -1.
         23    2    1    2    0    0 -0.37142503647E+03 -0.10784031517E+03  0.98332589581E+03  0.10603288545E+04  0.88212079851E+02 0.  0.
         13    1    3    3    0    0 -0.10794734166E+03 -0.33792482644E+02  0.18999981485E+03  0.22112098521E+03  0.00000000000E+00 0. -1.
        -13    1    3    3    0    0 -0.26347769481E+03 -0.74047832525E+02  0.79332608096E+03  0.83920786930E+03  0.00000000000E+00 0.  1.
         22    1    1    2    0    0  0.37142503647E+03  0.10784031517E+03 -0.23085089424E+04  0.23406835815E+04  0.00000000000E+00 0. -1.
<mgrwt>
<rscale>  0 0.31322157E+04</rscale>
<asrwt>0</asrwt>
<pdfrwt beam="1">  1        1 0.36355350E+00 0.31322157E+04</pdfrwt>
<pdfrwt beam="2">  1       -1 0.15967918E+00 0.31322157E+04</pdfrwt>
<totfact> 0.41647462E-01</totfact>
</mgrwt>
</event>
<event>
 6    1  0.9988873E-007  0.4074347E+04  0.7818608E-02  0.7989714E-01
          2   -1    0    0  501    0  0.00000000000E+00  0.00000000000E+00  0.23294431515E+04  0.23294431515E+04  0.00000000000E+00 0. -1.
         -2   -1    0    0    0  501 -0.00000000000E+00 -0.00000000000E+00 -0.17815743923E+04  0.17815743923E+04  0.00000000000E+00 0.  1.
         23    2    1    2    0    0  0.17937618295E+04  0.22635737149E+03  0.12187775059E+04  0.21825627978E+04  0.96657108802E+02 0.  0.
         13    1    3    3    0    0  0.13198245147E+03  0.24864238580E+02  0.12087558322E+03  0.18068897165E+03  0.00000000000E+00 0. -1.
        -13    1    3    3    0    0  0.16617793781E+04  0.20149313291E+03  0.10979019227E+04  0.20018738262E+04  0.00000000000E+00 0.  1.
         22    1    1    2    0    0 -0.17937618295E+04 -0.22635737149E+03 -0.67090874671E+03  0.19284547459E+04  0.00000000000E+00 0.  1.
<mgrwt>
<rscale>  0 0.40743472E+04</rscale>
<asrwt>0</asrwt>
<pdfrwt beam="1">  1        2 0.35837587E+00 0.40743472E+04</pdfrwt>
<pdfrwt beam="2">  1       -2 0.27408837E+00 0.40743472E+04</pdfrwt>
<totfact> 0.15653813E-01</totfact>
</mgrwt>
</event>
<event>
 6    1  0.9988873E-007  0.1717736E+04  0.7818608E-02  0.8751313E-01
          2   -1    0    0  501    0  0.00000000000E+00  0.00000000000E+00  0.26943666094E+04  0.26943666094E+04  0.00000000000E+00 0. -1.
         -2   -1    0    0    0  501 -0.00000000000E+00 -0.00000000000E+00 -0.27377640081E+03  0.27377640081E+03  0.00000000000E+00 0.  1.
         23    2    1    2    0    0 -0.60382670655E+03 -0.60688806068E+03  0.12567079547E+04  0.15233102480E+04  0.90771243627E+02 0.  0.
         11    1    3    3    0    0 -0.49265396267E+03 -0.54087947582E+03  0.10677916156E+04  0.12943869084E+04  0.00000000000E+00 0. -1.
        -11    1    3    3    0    0 -0.11117274387E+03 -0.66008584862E+02  0.18891633907E+03  0.22892333962E+03  0.00000000000E+00 0.  1.
         22    1    1    2    0    0  0.60382670655E+03  0.60688806068E+03  0.11638822539E+04  0.14448327622E+04  0.00000000000E+00 0. -1.
<mgrwt>
<rscale>  0 0.17177357E+04</rscale>
<asrwt>0</asrwt>
<pdfrwt beam="1">  1        2 0.41451792E+00 0.17177357E+04</pdfrwt>
<pdfrwt beam="2">  1       -2 0.42119448E-01 0.17177357E+04</pdfrwt>
<totfact> 0.13620090E+01</totfact>
</mgrwt>
</event>
<event>
 6    1  0.9988873E-007  0.2256483E+04  0.7818608E-02  0.8495279E-01
          2   -1    0    0  501    0  0.00000000000E+00  0.00000000000E+00  0.23031163687E+04  0.23031163687E+04  0.00000000000E+00 0. -1.
         -2   -1    0    0    0  501 -0.00000000000E+00 -0.00000000000E+00 -0.55269860811E+03  0.55269860811E+03  0.00000000000E+00 0.  1.
         23    2    1    2    0    0  0.24120630697E+03  0.52269412674E+03 -0.34846538475E+03  0.67941885237E+03  0.93766838133E+02 0.  0.
         11    1    3    3    0    0  0.23016016354E+03  0.44782962972E+03 -0.32835467910E+03  0.60111718776E+03  0.00000000000E+00 0. -1.
        -11    1    3    3    0    0  0.11046143436E+02  0.74864497023E+02 -0.20110705656E+02  0.78301664614E+02  0.00000000000E+00 0.  1.
         22    1    1    2    0    0 -0.24120630697E+03 -0.52269412674E+03  0.20988831454E+04  0.21763961245E+04  0.00000000000E+00 0. -1.
<mgrwt>
<rscale>  0 0.22564833E+04</rscale>
<asrwt>0</asrwt>
<pdfrwt beam="1">  1        2 0.35432559E+00 0.22564833E+04</pdfrwt>
<pdfrwt beam="2">  1       -2 0.85030556E-01 0.22564833E+04</pdfrwt>
<totfact> 0.49452285E+00</totfact>
</mgrwt>
</event>
<event>
 6    1  0.9988873E-007  0.2159738E+04  0.7818608E-02  0.8535375E-01
          1   -1    0    0  501    0  0.00000000000E+00  0.00000000000E+00  0.21275318822E+04  0.21275318822E+04  0.00000000000E+00 0. -1.
         -1   -1    0    0    0  501 -0.00000000000E+00 -0.00000000000E+00 -0.54810779399E+03  0.54810779399E+03  0.00000000000E+00 0.  1.
         23    2    1    2    0    0 -0.57635999940E+03  0.80816995574E+03  0.27049591835E+03  0.10328912231E+04  0.91469725128E+02 0.  0.
         13    1    3    3    0    0 -0.28631690412E+03  0.35558754573E+03  0.85962504547E+02  0.46455292965E+03  0.00000000000E+00 0.  1.
        -13    1    3    3    0    0 -0.29004309528E+03  0.45258241001E+03  0.18453341380E+03  0.56833829343E+03  0.00000000000E+00 0. -1.
         22    1    1    2    0    0  0.57635999940E+03 -0.80816995574E+03  0.13089281698E+04  0.16427484531E+04  0.00000000000E+00 0. -1.
<mgrwt>
<rscale>  0 0.21597378E+04</rscale>
<asrwt>0</asrwt>
<pdfrwt beam="1">  1        1 0.32731259E+00 0.21597378E+04</pdfrwt>
<pdfrwt beam="2">  1       -1 0.84324277E-01 0.21597378E+04</pdfrwt>
<totfact> 0.31104350E+00</totfact>
</mgrwt>
</event>
<event>
 6    1  0.9988873E-007  0.2283506E+04  0.7818608E-02  0.8484453E-01
         -2   -1    0    0    0  501 -0.00000000000E+00  0.00000000000E+00  0.43481456724E+03  0.43481456724E+03  0.00000000000E+00 0.  1.
          2   -1    0    0  501    0  0.00000000000E+00 -0.00000000000E+00 -0.29980592570E+04  0.29980592570E+04  0.00000000000E+00 0. -1.
         23    2    1    2    0    0  0.81948840110E+03 -0.74663068963E+03 -0.88465527255E+03  0.14212374113E+04  0.91006603239E+02 0.  0.
         13    1    3    3    0    0  0.70814649305E+03 -0.64291381147E+03 -0.80119301098E+03  0.12476858040E+04  0.00000000000E+00 0.  1.
        -13    1    3    3    0    0  0.11134190804E+03 -0.10371687816E+03 -0.83462261567E+02  0.17355160733E+03  0.00000000000E+00 0. -1.
         22    1    1    2    0    0 -0.81948840110E+03  0.74663068963E+03 -0.16785894172E+04  0.20116364129E+04  0.00000000000E+00 0.  1.
<mgrwt>
<rscale>  0 0.22835059E+04</rscale>
<asrwt>0</asrwt>
<pdfrwt beam="1">  1        2 0.46123988E+00 0.22835059E+04</pdfrwt>
<pdfrwt beam="2">  1       -2 0.66894550E-01 0.22835059E+04</pdfrwt>
<totfact> 0.32552321E+00</totfact>
</mgrwt>
</event>
<event>
 6    1  0.9988873E-007  0.7896834E+03  0.7818608E-02  0.9575071E-01
          1   -1    0    0  501    0  0.00000000000E+00  0.00000000000E+00  0.46623298022E+03  0.46623298022E+03  0.00000000000E+00 0. -1.
         -1   -1    0    0    0  501 -0.00000000000E+00 -0.00000000000E+00 -0.33438214470E+03  0.33438214470E+03  0.00000000000E+00 0.  1.
         23    2    1    2    0    0 -0.20492139352E+03 -0.64767404082E+02  0.39691924343E+03  0.45936909193E+03  0.85366753824E+02 0.  0.
         13    1    3    3    0    0 -0.11230447483E+03 -0.27099066959E+02  0.29398081578E+03  0.31586607058E+03  0.00000000000E+00 0.  1.
        -13    1    3    3    0    0 -0.92616918686E+02 -0.37668337123E+02  0.10293842766E+03  0.14350302135E+03  0.00000000000E+00 0. -1.
         22    1    1    2    0    0  0.20492139352E+03  0.64767404082E+02 -0.26506840791E+03  0.34124603298E+03  0.00000000000E+00 0.  1.
<mgrwt>
<rscale>  0 0.78968344E+03</rscale>
<asrwt>0</asrwt>
<pdfrwt beam="1">  1        1 0.71728151E-01 0.78968344E+03</pdfrwt>
<pdfrwt beam="2">  1       -1 0.51443406E-01 0.78968344E+03</pdfrwt>
<totfact> 0.18769104E+02</totfact>
</mgrwt>
</event>
<event>
 6    1  0.9988873E-007  0.1667318E+04  0.7818608E-02  0.8780227E-01
          1   -1    0    0  501    0  0.00000000000E+00  0.00000000000E+00  0.53732794742E+03  0.53732794742E+03  0.00000000000E+00 0. -1.
         -1   -1    0    0    0  501 -0.00000000000E+00 -0.00000000000E+00 -0.12934140482E+04  0.12934140482E+04  0.00000000000E+00 0.  1.
         23    2    1    2    0    0  0.12861696177E+03  0.36236285302E+03  0.42981825895E+03  0.58405907261E+03  0.92369391376E+02 0.  0.
         13    1    3    3    0    0  0.10771530926E+03  0.24174894195E+03  0.23478350236E+03  0.35379150889E+03  0.00000000000E+00 0. -1.
        -13    1    3    3    0    0  0.20901652503E+02  0.12061391108E+03  0.19503475659E+03  0.23026756372E+03  0.00000000000E+00 0.  1.
         22    1    1    2    0    0 -0.12861696177E+03 -0.36236285302E+03 -0.11859043597E+04  0.12466829230E+04  0.00000000000E+00 0.  1.
<mgrwt>
<rscale>  0 0.16673182E+04</rscale>
<asrwt>0</asrwt>
<pdfrwt beam="1">  1        1 0.82665839E-01 0.16673182E+04</pdfrwt>
<pdfrwt beam="2">  1       -1 0.19898677E+00 0.16673182E+04</pdfrwt>
<totfact> 0.58496408E+00</totfact>
</mgrwt>
</event>
<event>
 6    1  0.9988873E-007  0.3153657E+04  0.7818608E-02  0.8201165E-01
         -2   -1    0    0    0  501 -0.00000000000E+00  0.00000000000E+00  0.14433434136E+04  0.14433434136E+04  0.00000000000E+00 0.  1.
          2   -1    0    0  501    0  0.00000000000E+00 -0.00000000000E+00 -0.17226587583E+04  0.17226587583E+04  0.00000000000E+00 0. -1.
         23    2    1    2    0    0  0.15868367639E+03  0.10894996223E+04 -0.12711082107E+04  0.16841644529E+04  0.92216511713E+02 0.  0.
         11    1    3    3    0    0  0.12552932377E+03  0.55295359995E+03 -0.67066833994E+03  0.87824331311E+03  0.00000000000E+00 0. -1.
        -11    1    3    3    0    0  0.33154352620E+02  0.53654602239E+03 -0.60043987076E+03  0.80592113984E+03  0.00000000000E+00 0.  1.
         22    1    1    2    0    0 -0.15868367639E+03 -0.10894996223E+04  0.99179286601E+03  0.14818377189E+04  0.00000000000E+00 0. -1.
<mgrwt>
<rscale>  0 0.31536570E+04</rscale>
<asrwt>0</asrwt>
<pdfrwt beam="1">  1        2 0.26502442E+00 0.31536570E+04</pdfrwt>
<pdfrwt beam="2">  1       -2 0.22205283E+00 0.31536570E+04</pdfrwt>
<totfact> 0.77246227E-01</totfact>
</mgrwt>
</event>
<event>
 6    1  0.9988873E-007  0.3815972E+04  0.7818608E-02  0.8042736E-01
          2   -1    0    0  501    0  0.00000000000E+00  0.00000000000E+00  0.34759345509E+04  0.34759345509E+04  0.00000000000E+00 0. -1.
         -2   -1    0    0    0  501 -0.00000000000E+00 -0.00000000000E+00 -0.10473185069E+04  0.10473185069E+04  0.00000000000E+00 0.  1.
         23    2    1    2    0    0  0.10530945151E+04  0.74367344469E+03  0.28804995940E+04  0.31571428892E+04  0.90636976505E+02 0.  0.
         11    1    3    3    0    0  0.98872937927E+03  0.67761827164E+03  0.27113026852E+04  0.29644416942E+04  0.00000000000E+00 0.  1.
        -11    1    3    3    0    0  0.64365135846E+02  0.66055173051E+02  0.16919690880E+03  0.19270119498E+03  0.00000000000E+00 0. -1.
         22    1    1    2    0    0 -0.10530945151E+04 -0.74367344469E+03 -0.45188354997E+03  0.13661101686E+04  0.00000000000E+00 0.  1.
<mgrwt>
<rscale>  0 0.38159720E+04</rscale>
<asrwt>0</asrwt>
<pdfrwt beam="1">  1        2 0.53475916E+00 0.38159720E+04</pdfrwt>
<pdfrwt beam="2">  1       -2 0.16112593E+00 0.38159720E+04</pdfrwt>
<totfact> 0.16693642E-01</totfact>
</mgrwt>
</event>
<event>
 6    1  0.9988873E-007  0.6706603E+04  0.7818608E-02  0.7608474E-01
          2   -1    0    0  501    0  0.00000000000E+00  0.00000000000E+00  0.50309203252E+04  0.50309203252E+04  0.00000000000E+00 0. -1.
         -2   -1    0    0    0  501 -0.00000000000E+00 -0.00000000000E+00 -0.22351040580E+04  0.22351040580E+04  0.00000000000E+00 0.  1.
         23    2    1    2    0    0 -0.45480843921E+03  0.29036169215E+04 -0.34966060174E+03  0.29611589176E+04  0.91420212517E+02 0.  0.
         11    1    3    3    0    0 -0.34674778258E+03  0.19365728817E+04 -0.23064497691E+03  0.19808446825E+04  0.00000000000E+00 0. -1.
        -11    1    3    3    0    0 -0.10806065663E+03  0.96704403988E+03 -0.11901562483E+03  0.98031423509E+03  0.00000000000E+00 0.  1.
         22    1    1    2    0    0  0.45480843921E+03 -0.29036169215E+04  0.31454768690E+04  0.43048654656E+04  0.00000000000E+00 0. -1.
<mgrwt>
<rscale>  0 0.67066028E+04</rscale>
<asrwt>0</asrwt>
<pdfrwt beam="1">  1        2 0.77398774E+00 0.67066028E+04</pdfrwt>
<pdfrwt beam="2">  1       -2 0.34386216E+00 0.67066028E+04</pdfrwt>
<totfact> 0.33163739E-04</totfact>
</mgrwt>
</event>
<event>
 6    1  0.9988873E-007  0.1371316E+04  0.7818608E-02  0.8974847E-01
          2   -1    0    0  501    0  0.00000000000E+00  0.00000000000E+00  0.13592299065E+04  0.13592299065E+04  0.00000000000E+00 0. -1.
         -2   -1    0    0    0  501 -0.00000000000E+00 -0.00000000000E+00 -0.34587758530E+03  0.34587758530E+03  0.00000000000E+00 0.  1.
         23    2    1    2    0    0 -0.58282520202E+02 -0.12866040721E+02  0.13544286955E+04  0.13588482243E+04  0.91809685323E+02 0.  0.
         13    1    3    3    0    0  0.21223837433E+02  0.88940416960E+01  0.47740117554E+03  0.47795547665E+03  0.00000000000E+00 0.  1.
        -13    1    3    3    0    0 -0.79506357635E+02 -0.21760082417E+02  0.87702751997E+03  0.88089274766E+03  0.00000000000E+00 0. -1.
         22    1    1    2    0    0  0.58282520202E+02  0.12866040721E+02 -0.34107637435E+03  0.34625926746E+03  0.00000000000E+00 0.  1.
<mgrwt>
<rscale>  0 0.13713164E+04</rscale>
<asrwt>0</asrwt>
<pdfrwt beam="1">  1        2 0.20911229E+00 0.13713164E+04</pdfrwt>
<pdfrwt beam="2">  1       -2 0.53211937E-01 0.13713164E+04</pdfrwt>
<totfact> 0.49589362E+01</totfact>
</mgrwt>
</event>
<event>
 6    1  0.9988873E-007  0.2428176E+04  0.7818608E-02  0.8429030E-01
         -2   -1    0    0    0  501 -0.00000000000E+00  0.00000000000E+00  0.12255452959E+04  0.12255452959E+04  0.00000000000E+00 0.  1.
          2   -1    0    0  501    0  0.00000000000E+00 -0.00000000000E+00 -0.12027374136E+04  0.12027374136E+04  0.00000000000E+00 0. -1.
         23    2    1    2    0    0  0.19033584776E+03 -0.10155400677E+04 -0.62305816097E+03  0.12098032021E+04  0.88729656178E+02 0.  0.
         13    1    3    3    0    0  0.16075253171E+03 -0.62601346209E+03 -0.39429787659E+03  0.75710306211E+03  0.00000000000E+00 0. -1.
        -13    1    3    3    0    0  0.29583316046E+02 -0.38952660560E+03 -0.22876028438E+03  0.45270014001E+03  0.00000000000E+00 0.  1.
         22    1    1    2    0    0 -0.19033584776E+03  0.10155400677E+04  0.64586604324E+03  0.12184795074E+04  0.00000000000E+00 0.  1.
<mgrwt>
<rscale>  0 0.24281756E+04</rscale>
<asrwt>0</asrwt>
<pdfrwt beam="1">  1        2 0.18503653E+00 0.24281756E+04</pdfrwt>
<pdfrwt beam="2">  1       -2 0.18854543E+00 0.24281756E+04</pdfrwt>
<totfact> 0.26837751E+00</totfact>
</mgrwt>
</event>
<event>
 6    1  0.9988873E-007  0.1032347E+04  0.7818608E-02  0.9273762E-01
          2   -1    0    0  501    0  0.00000000000E+00  0.00000000000E+00  0.30009717609E+04  0.30009717609E+04  0.00000000000E+00 0. -1.
         -2   -1    0    0    0  501 -0.00000000000E+00 -0.00000000000E+00 -0.88782878239E+02  0.88782878239E+02  0.00000000000E+00 0.  1.
         23    2    1    2    0    0 -0.28756313339E+03  0.27993424767E+03  0.24231389055E+04  0.24571207648E+04  0.69170507633E+02 0.  0.
         13    1    3    3    0    0 -0.18194708564E+03  0.22092934309E+03  0.16859972054E+04  0.17101172747E+04  0.00000000000E+00 0.  1.
        -13    1    3    3    0    0 -0.10561604775E+03  0.59004904587E+02  0.73714170011E+03  0.74700349018E+03  0.00000000000E+00 0. -1.
         22    1    1    2    0    0  0.28756313339E+03 -0.27993424767E+03  0.48904997717E+03  0.63263387427E+03  0.00000000000E+00 0.  1.
<mgrwt>
<rscale>  0 0.10323467E+04</rscale>
<asrwt>0</asrwt>
<pdfrwt beam="1">  1        2 0.46168788E+00 0.10323467E+04</pdfrwt>
<pdfrwt beam="2">  1       -2 0.13658907E-01 0.10323467E+04</pdfrwt>
<totfact> 0.72871001E+01</totfact>
</mgrwt>
</event>
<event>
 6    1  0.9988873E-007  0.2259057E+03  0.7818608E-02  0.1129555E+00
          1   -1    0    0  501    0  0.00000000000E+00  0.00000000000E+00  0.13692137979E+03  0.13692137979E+03  0.00000000000E+00 0. -1.
         -1   -1    0    0    0  501 -0.00000000000E+00 -0.00000000000E+00 -0.93180069269E+02  0.93180069269E+02  0.00000000000E+00 0.  1.
         23    2    1    2    0    0  0.46227173104E+02  0.80890689284E+02  0.45809502889E+02  0.13691060956E+03  0.89251046544E+02 0.  0.
         11    1    3    3    0    0  0.57824519988E+02  0.38745155916E+02 -0.51218043964E+01  0.69793231041E+02  0.00000000000E+00 0.  1.
        -11    1    3    3    0    0 -0.11597346884E+02  0.42145533367E+02  0.50931307285E+02  0.67117378520E+02  0.00000000000E+00 0. -1.
         22    1    1    2    0    0 -0.46227173104E+02 -0.80890689284E+02 -0.20681923715E+01  0.93190839494E+02  0.00000000000E+00 0.  1.
<mgrwt>
<rscale>  0 0.22590568E+03</rscale>
<asrwt>0</asrwt>
<pdfrwt beam="1">  1        1 0.21064828E-01 0.22590568E+03</pdfrwt>
<pdfrwt beam="2">  1       -1 0.14335395E-01 0.22590568E+03</pdfrwt>
<totfact> 0.80748756E+03</totfact>
</mgrwt>
</event>
<event>
 6    1  0.9988873E-007  0.2000134E+04  0.7818608E-02  0.8606558E-01
         -2   -1    0    0    0  501 -0.00000000000E+00  0.00000000000E+00  0.56580063423E+03  0.56580063423E+03  0.00000000000E+00 0.  1.
          2   -1    0    0  501    0  0.00000000000E+00 -0.00000000000E+00 -0.17676439330E+04  0.17676439330E+04  0.00000000000E+00 0. -1.
         23    2    1    2    0    0  0.47580274643E+03  0.41747348102E+03  0.29812449678E+03  0.70538567747E+03  0.89545393673E+02 0.  0.
         11    1    3    3    0    0  0.24684833746E+03  0.22095308461E+03  0.10667195562E+03  0.34804205697E+03  0.00000000000E+00 0. -1.
        -11    1    3    3    0    0  0.22895440897E+03  0.19652039641E+03  0.19145254115E+03  0.35734362050E+03  0.00000000000E+00 0.  1.
         22    1    1    2    0    0 -0.47580274643E+03 -0.41747348102E+03 -0.14999677956E+04  0.16280588898E+04  0.00000000000E+00 0. -1.
<mgrwt>
<rscale>  0 0.20001341E+04</rscale>
<asrwt>0</asrwt>
<pdfrwt beam="1">  1        2 0.27194522E+00 0.20001341E+04</pdfrwt>
<pdfrwt beam="2">  1       -2 0.87046252E-01 0.20001341E+04</pdfrwt>
<totfact> 0.95341324E+00</totfact>
</mgrwt>
</event>
<event>
 6    1  0.9988873E-007  0.1553409E+04  0.7818608E-02  0.8849693E-01
         -2   -1    0    0    0  501 -0.00000000000E+00  0.00000000000E+00  0.40179093103E+03  0.40179093103E+03  0.00000000000E+00 0.  1.
          2   -1    0    0  501    0  0.00000000000E+00 -0.00000000000E+00 -0.15014516504E+04  0.15014516504E+04  0.00000000000E+00 0. -1.
         23    2    1    2    0    0  0.96040567108E+02  0.49815128253E+03  0.16433989025E+03  0.54123082233E+03  0.92437615126E+02 0.  0.
         11    1    3    3    0    0  0.26968223386E+02  0.35909792287E+03  0.12332532566E+03  0.38064122114E+03  0.00000000000E+00 0.  1.
        -11    1    3    3    0    0  0.69072343722E+02  0.13905335966E+03  0.41014564585E+02  0.16058960119E+03  0.00000000000E+00 0. -1.
         22    1    1    2    0    0 -0.96040567108E+02 -0.49815128253E+03 -0.12640006096E+04  0.13620117591E+04  0.00000000000E+00 0. -1.
<mgrwt>
<rscale>  0 0.15534087E+04</rscale>
<asrwt>0</asrwt>
<pdfrwt beam="1">  1        2 0.23099256E+00 0.15534087E+04</pdfrwt>
<pdfrwt beam="2">  1       -2 0.61813990E-01 0.15534087E+04</pdfrwt>
<totfact> 0.29638951E+01</totfact>
</mgrwt>
</event>
<event>
 6    1  0.9988873E-007  0.1950754E+04  0.7818608E-02  0.8629997E-01
          2   -1    0    0  501    0  0.00000000000E+00  0.00000000000E+00  0.94178989165E+03  0.94178989165E+03  0.00000000000E+00 0. -1.
         -2   -1    0    0    0  501 -0.00000000000E+00 -0.00000000000E+00 -0.10101617698E+04  0.10101617698E+04  0.00000000000E+00 0.  1.
         23    2    1    2    0    0 -0.88750694540E+02  0.37244673291E+03 -0.92961816165E+03  0.10094345977E+04  0.90415850358E+02 0.  0.
         13    1    3    3    0    0 -0.14066430657E+02  0.24579766934E+03 -0.59655455746E+03  0.64536168057E+03  0.00000000000E+00 0.  1.
        -13    1    3    3    0    0 -0.74684263883E+02  0.12664906358E+03 -0.33306360419E+03  0.36407291717E+03  0.00000000000E+00 0. -1.
         22    1    1    2    0    0  0.88750694540E+02 -0.37244673291E+03  0.86124628348E+03  0.94251706374E+03  0.00000000000E+00 0. -1.
<mgrwt>
<rscale>  0 0.19507538E+04</rscale>
<asrwt>0</asrwt>
<pdfrwt beam="1">  1        2 0.14489075E+00 0.19507538E+04</pdfrwt>
<pdfrwt beam="2">  1       -2 0.15540950E+00 0.19507538E+04</pdfrwt>
<totfact> 0.69882305E+00</totfact>
</mgrwt>
</event>
<event>
 6    1  0.9988873E-007  0.2553399E+04  0.7818608E-02  0.8384205E-01
          1   -1    0    0  501    0  0.00000000000E+00  0.00000000000E+00  0.19059675448E+04  0.19059675448E+04  0.00000000000E+00 0. -1.
         -1   -1    0    0    0  501 -0.00000000000E+00 -0.00000000000E+00 -0.85518861667E+03  0.85518861667E+03  0.00000000000E+00 0.  1.
         23    2    1    2    0    0  0.65910448062E+03  0.74764567767E+03 -0.33399208025E+03  0.10549956997E+04  0.89846763966E+02 0.  0.
         13    1    3    3    0    0  0.10639777740E+03  0.81757635135E+02 -0.27745668940E+02  0.13702050971E+03  0.00000000000E+00 0. -1.
        -13    1    3    3    0    0  0.55270670322E+03  0.66588804254E+03 -0.30624641131E+03  0.91797518998E+03  0.00000000000E+00 0.  1.
         22    1    1    2    0    0 -0.65910448062E+03 -0.74764567767E+03  0.13847710084E+04  0.17061604618E+04  0.00000000000E+00 0. -1.
<mgrwt>
<rscale>  0 0.25533991E+04</rscale>
<asrwt>0</asrwt>
<pdfrwt beam="1">  1        1 0.29322578E+00 0.25533991E+04</pdfrwt>
<pdfrwt beam="2">  1       -1 0.13156748E+00 0.25533991E+04</pdfrwt>
<totfact> 0.15015013E+00</totfact>
</mgrwt>
</event>
<event>
 6    1  0.9988873E-007  0.2494850E+04  0.7818608E-02  0.8404822E-01
          1   -1    0    0  501    0  0.00000000000E+00  0.00000000000E+00  0.12745205196E+04  0.12745205196E+04  0.00000000000E+00 0. -1.
         -1   -1    0    0    0  501 -0.00000000000E+00 -0.00000000000E+00 -0.12209058345E+04  0.12209058345E+04  0.00000000000E+00 0.  1.
         23    2    1    2    0    0  0.87000924168E+03 -0.86388036375E+03  0.24673599589E+03  0.12542570650E+04  0.95272084422E+02 0.  0.
         13    1    3    3    0    0  0.55728167122E+03 -0.59659108924E+03  0.19746759239E+03  0.83992692473E+03  0.00000000000E+00 0. -1.
        -13    1    3    3    0    0  0.31272757046E+03 -0.26728927452E+03  0.49268403501E+02  0.41433014032E+03  0.00000000000E+00 0.  1.
         22    1    1    2    0    0 -0.87000924168E+03  0.86388036375E+03 -0.19312131077E+03  0.12411692891E+04  0.00000000000E+00 0.  1.
<mgrwt>
<rscale>  0 0.24948503E+04</rscale>
<asrwt>0</asrwt>
<pdfrwt beam="1">  1        1 0.19608008E+00 0.24948503E+04</pdfrwt>
<pdfrwt beam="2">  1       -1 0.18783167E+00 0.24948503E+04</pdfrwt>
<totfact> 0.15348035E+00</totfact>
</mgrwt>
</event>
<event>
 6    1  0.9988873E-007  0.2039765E+04  0.7818608E-02  0.8588252E-01
         -2   -1    0    0    0  501 -0.00000000000E+00  0.00000000000E+00  0.85251945724E+03  0.85251945724E+03  0.00000000000E+00 0.  1.
          2   -1    0    0  501    0  0.00000000000E+00 -0.00000000000E+00 -0.12201018100E+04  0.12201018100E+04  0.00000000000E+00 0. -1.
         23    2    1    2    0    0  0.74840050891E+03 -0.61304669182E+03  0.13728693281E+03  0.98137309948E+03  0.91191503897E+02 0.  0.
         11    1    3    3    0    0  0.34495052484E+03 -0.34150174816E+03  0.68188608400E+02  0.49016731317E+03  0.00000000000E+00 0.  1.
        -11    1    3    3    0    0  0.40344998407E+03 -0.27154494366E+03  0.69098324411E+02  0.49120578632E+03  0.00000000000E+00 0. -1.
         22    1    1    2    0    0 -0.74840050891E+03  0.61304669182E+03 -0.50486928554E+03  0.10912481677E+04  0.00000000000E+00 0. -1.
<mgrwt>
<rscale>  0 0.20397652E+04</rscale>
<asrwt>0</asrwt>
<pdfrwt beam="1">  1        2 0.18770797E+00 0.20397652E+04</pdfrwt>
<pdfrwt beam="2">  1       -2 0.13115684E+00 0.20397652E+04</pdfrwt>
<totfact> 0.72466546E+00</totfact>
</mgrwt>
</event>
<event>
 6    1  0.9988873E-007  0.1961017E+04  0.7818608E-02  0.8625066E-01
         -1   -1    0    0    0  501 -0.00000000000E+00  0.00000000000E+00  0.43532147109E+03  0.43532147109E+03  0.00000000000E+00 0.  1.
          1   -1    0    0  501    0  0.00000000000E+00 -0.00000000000E+00 -0.22084761554E+04  0.22084761554E+04  0.00000000000E+00 0. -1.
         23    2    1    2    0    0 -0.65120648352E+03  0.23246949675E+03 -0.18215122881E+04  0.19506523250E+04  0.95002769761E+02 0.  0.
         11    1    3    3    0    0 -0.12692664481E+03  0.15267778485E+02 -0.40478368380E+03  0.42449182430E+03  0.00000000000E+00 0.  1.
        -11    1    3    3    0    0 -0.52427983871E+03  0.21720171827E+03 -0.14167286043E+04  0.15261605008E+04  0.00000000000E+00 0. -1.
         22    1    1    2    0    0  0.65120648352E+03 -0.23246949675E+03  0.48357603803E+02  0.69314530146E+03  0.00000000000E+00 0.  1.
<mgrwt>
<rscale>  0 0.19610172E+04</rscale>
<asrwt>0</asrwt>
<pdfrwt beam="1">  1        1 0.33976555E+00 0.19610172E+04</pdfrwt>
<pdfrwt beam="2">  1       -1 0.66972536E-01 0.19610172E+04</pdfrwt>
<totfact> 0.45196535E+00</totfact>
</mgrwt>
</event>
<event>
 6    1  0.9988873E-007  0.2678527E+04  0.7818608E-02  0.8342006E-01
         -2   -1    0    0    0  501 -0.00000000000E+00  0.00000000000E+00  0.82528451177E+03  0.82528451177E+03  0.00000000000E+00 0.  1.
          2   -1    0    0  501    0  0.00000000000E+00 -0.00000000000E+00 -0.21733428121E+04  0.21733428121E+04  0.00000000000E+00 0. -1.
         23    2    1    2    0    0  0.87763364095E+03  0.10941553498E+03 -0.17983845096E+04  0.20061525073E+04  0.90821093744E+02 0.  0.
         13    1    3    3    0    0  0.61718407643E+03  0.86141287386E+02 -0.11718583781E+04  0.13272484937E+04  0.00000000000E+00 0. -1.
        -13    1    3    3    0    0  0.26044956451E+03  0.23274247591E+02 -0.62652613147E+03  0.67890401359E+03  0.00000000000E+00 0.  1.
         22    1    1    2    0    0 -0.87763364095E+03 -0.10941553498E+03  0.45032620919E+03  0.99247481666E+03  0.00000000000E+00 0.  1.
<mgrwt>
<rscale>  0 0.26785266E+04</rscale>
<asrwt>0</asrwt>
<pdfrwt beam="1">  1        2 0.33436043E+00 0.26785266E+04</pdfrwt>
<pdfrwt beam="2">  1       -2 0.12696685E+00 0.26785266E+04</pdfrwt>
<totfact> 0.21654808E+00</totfact>
</mgrwt>
</event>
<event>
 6    1  0.1538351E-006  0.4031085E+04  0.7818608E-02  0.7998305E-01
         -2   -1    0    0    0  501 -0.00000000000E+00  0.00000000000E+00  0.19921915576E+04  0.19921915576E+04  0.00000000000E+00 0.  1.
          2   -1    0    0  501    0  0.00000000000E+00 -0.00000000000E+00 -0.20391667596E+04  0.20391667596E+04  0.00000000000E+00 0. -1.
         23    2    1    2    0    0 -0.13700144604E+04  0.86866726322E+03  0.11710662261E+04  0.20027757192E+04  0.90509885112E+02 0.  0.
         11    1    3    3    0    0 -0.61420819287E+03  0.39721036794E+03  0.58312066771E+03  0.93544507786E+03  0.00000000000E+00 0. -1.
        -11    1    3    3    0    0 -0.75580626757E+03  0.47145689528E+03  0.58794555844E+03  0.10673306413E+04  0.00000000000E+00 0.  1.
         22    1    1    2    0    0  0.13700144604E+04 -0.86866726322E+03 -0.12180414282E+04  0.20285825980E+04  0.00000000000E+00 0. -1.
<mgrwt>
<rscale>  0 0.40310846E+04</rscale>
<asrwt>0</asrwt>
<pdfrwt beam="1">  1        2 0.31371796E+00 0.40310846E+04</pdfrwt>
<pdfrwt beam="2">  1       -2 0.30649101E+00 0.40310846E+04</pdfrwt>
<totfact> 0.14499797E-01</totfact>
</mgrwt>
</event>
<event>
 6    1  0.9988873E-007  0.4083564E+04  0.7818608E-02  0.7987898E-01
          2   -1    0    0  501    0  0.00000000000E+00  0.00000000000E+00  0.25500534473E+04  0.25500534473E+04  0.00000000000E+00 0. -1.
         -2   -1    0    0    0  501 -0.00000000000E+00 -0.00000000000E+00 -0.16348183238E+04  0.16348183238E+04  0.00000000000E+00 0.  1.
         23    2    1    2    0    0  0.35152823167E+03  0.17541346734E+04 -0.54796879296E+03  0.18736975563E+04  0.99559953829E+02 0.  0.
         13    1    3    3    0    0  0.17233090359E+03  0.10202635301E+04 -0.35613039487E+03  0.10942871969E+04  0.00000000000E+00 0. -1.
        -13    1    3    3    0    0  0.17919732808E+03  0.73387114333E+03 -0.19183839809E+03  0.77941035943E+03  0.00000000000E+00 0.  1.
         22    1    1    2    0    0 -0.35152823167E+03 -0.17541346734E+04  0.14632039164E+04  0.23111742148E+04  0.00000000000E+00 0. -1.
<mgrwt>
<rscale>  0 0.40835642E+04</rscale>
<asrwt>0</asrwt>
<pdfrwt beam="1">  1        2 0.39231592E+00 0.40835642E+04</pdfrwt>
<pdfrwt beam="2">  1       -2 0.25151051E+00 0.40835642E+04</pdfrwt>
<totfact> 0.16044496E-01</totfact>
</mgrwt>
</event>
<event>
 6    1  0.9988873E-007  0.2545662E+04  0.7818608E-02  0.8386896E-01
          2   -1    0    0  501    0  0.00000000000E+00  0.00000000000E+00  0.36136731237E+04  0.36136731237E+04  0.00000000000E+00 0. -1.
         -2   -1    0    0    0  501 -0.00000000000E+00 -0.00000000000E+00 -0.44832459559E+03  0.44832459559E+03  0.00000000000E+00 0.  1.
         23    2    1    2    0    0 -0.71856145317E+03  0.11155385054E+03 -0.78977441825E+02  0.73717805159E+03  0.91756307008E+02 0.  0.
         13    1    3    3    0    0 -0.35242464846E+03  0.27778456815E+02 -0.75864581015E+02  0.36156632885E+03  0.00000000000E+00 0. -1.
        -13    1    3    3    0    0 -0.36613680472E+03  0.83775393726E+02 -0.31128608101E+01  0.37561172275E+03  0.00000000000E+00 0.  1.
         22    1    1    2    0    0  0.71856145317E+03 -0.11155385054E+03  0.32443259699E+04  0.33248196677E+04  0.00000000000E+00 0. -1.
<mgrwt>
<rscale>  0 0.25456618E+04</rscale>
<asrwt>0</asrwt>
<pdfrwt beam="1">  1        2 0.55594969E+00 0.25456618E+04</pdfrwt>
<pdfrwt beam="2">  1       -2 0.68973017E-01 0.25456618E+04</pdfrwt>
<totfact> 0.11529051E+00</totfact>
</mgrwt>
</event>
<event>
 6    1  0.9988873E-007  0.5246304E+03  0.7818608E-02  0.1007543E+00
         -1   -1    0    0    0  501 -0.00000000000E+00  0.00000000000E+00  0.12418044983E+03  0.12418044983E+03  0.00000000000E+00 0.  1.
          1   -1    0    0  501    0  0.00000000000E+00 -0.00000000000E+00 -0.55410705917E+03  0.55410705917E+03  0.00000000000E+00 0. -1.
         23    2    1    2    0    0  0.29102203493E+02  0.12991785422E+03  0.59433107506E+02  0.17114007524E+03  0.89616092253E+02 0.  0.
         13    1    3    3    0    0  0.59424013508E+02  0.82744820065E+02  0.52592197533E+02  0.11464666533E+03  0.00000000000E+00 0. -1.
        -13    1    3    3    0    0 -0.30321810015E+02  0.47173034156E+02  0.68409099726E+01  0.56493409911E+02  0.00000000000E+00 0.  1.
         22    1    1    2    0    0 -0.29102203493E+02 -0.12991785422E+03 -0.48935971685E+03  0.50714743376E+03  0.00000000000E+00 0. -1.
<mgrwt>
<rscale>  0 0.52463040E+03</rscale>
<asrwt>0</asrwt>
<pdfrwt beam="1">  1        1 0.85247240E-01 0.52463040E+03</pdfrwt>
<pdfrwt beam="2">  1       -1 0.19104685E-01 0.52463040E+03</pdfrwt>
<totfact> 0.85273122E+02</totfact>
</mgrwt>
</event>
<event>
 6    1  0.9988873E-007  0.3048243E+04  0.7818608E-02  0.8230087E-01
          2   -1    0    0  501    0  0.00000000000E+00  0.00000000000E+00  0.19601040414E+04  0.19601040414E+04  0.00000000000E+00 0. -1.
         -2   -1    0    0    0  501 -0.00000000000E+00 -0.00000000000E+00 -0.11851139942E+04  0.11851139942E+04  0.00000000000E+00 0.  1.
         23    2    1    2    0    0 -0.85065012737E+02  0.13954153810E+04  0.10102566134E+04  0.17275542888E+04  0.96980688208E+02 0.  0.
         13    1    3    3    0    0 -0.81379984989E+02  0.11053972384E+04  0.75412771629E+03  0.13406097005E+04  0.00000000000E+00 0. -1.
        -13    1    3    3    0    0 -0.36850277480E+01  0.29001814258E+03  0.25612889711E+03  0.38694458827E+03  0.00000000000E+00 0.  1.
         22    1    1    2    0    0  0.85065012737E+02 -0.13954153810E+04 -0.23526656614E+03  0.14176637468E+04  0.00000000000E+00 0.  1.
<mgrwt>
<rscale>  0 0.30482433E+04</rscale>
<asrwt>0</asrwt>
<pdfrwt beam="1">  1        2 0.30155447E+00 0.30482433E+04</pdfrwt>
<pdfrwt beam="2">  1       -2 0.18232523E+00 0.30482433E+04</pdfrwt>
<totfact> 0.10478347E+00</totfact>
</mgrwt>
</event>
<event>
 6    1  0.9988873E-007  0.4667611E+04  0.7818608E-02  0.7881933E-01
         -1   -1    0    0    0  501 -0.00000000000E+00  0.00000000000E+00  0.14058602738E+04  0.14058602738E+04  0.00000000000E+00 0.  1.
          1   -1    0    0  501    0  0.00000000000E+00 -0.00000000000E+00 -0.38742453303E+04  0.38742453303E+04  0.00000000000E+00 0. -1.
         23    2    1    2    0    0 -0.20482939998E+03 -0.14770356922E+04  0.79484634958E+03  0.16923111940E+04  0.92449656487E+02 0.  0.
         11    1    3    3    0    0 -0.17372529611E+03 -0.14029153240E+04  0.75408152095E+03  0.16021831434E+04  0.00000000000E+00 0. -1.
        -11    1    3    3    0    0 -0.31104103869E+02 -0.74120368208E+02  0.40764828626E+02  0.90128050648E+02  0.00000000000E+00 0.  1.
         22    1    1    2    0    0  0.20482939998E+03  0.14770356922E+04 -0.32632314061E+04  0.35877944101E+04  0.00000000000E+00 0. -1.
<mgrwt>
<rscale>  0 0.46676108E+04</rscale>
<asrwt>0</asrwt>
<pdfrwt beam="1">  1        1 0.59603774E+00 0.46676108E+04</pdfrwt>
<pdfrwt beam="2">  1       -1 0.21628620E+00 0.46676108E+04</pdfrwt>
<totfact> 0.10626552E-02</totfact>
</mgrwt>
</event>
<event>
 6    1  0.9988873E-007  0.3208321E+04  0.7818608E-02  0.8186623E-01
          2   -1    0    0  501    0  0.00000000000E+00  0.00000000000E+00  0.19688741691E+04  0.19688741691E+04  0.00000000000E+00 0. -1.
         -2   -1    0    0    0  501 -0.00000000000E+00 -0.00000000000E+00 -0.13070066552E+04  0.13070066552E+04  0.00000000000E+00 0.  1.
         23    2    1    2    0    0 -0.82566293049E+03 -0.55491220936E+02 -0.10702712933E+04  0.13562185109E+04  0.95128637185E+02 0.  0.
         11    1    3    3    0    0 -0.30549725267E+03  0.68614295962E+01 -0.33544659077E+03  0.45376212475E+03  0.00000000000E+00 0.  1.
        -11    1    3    3    0    0 -0.52016567783E+03 -0.62352650532E+02 -0.73482470254E+03  0.90245638614E+03  0.00000000000E+00 0. -1.
         22    1    1    2    0    0  0.82566293049E+03  0.55491220936E+02  0.17321388071E+04  0.19196623134E+04  0.00000000000E+00 0. -1.
<mgrwt>
<rscale>  0 0.32083215E+04</rscale>
<asrwt>0</asrwt>
<pdfrwt beam="1">  1        2 0.30290372E+00 0.32083215E+04</pdfrwt>
<pdfrwt beam="2">  1       -2 0.20107795E+00 0.32083215E+04</pdfrwt>
<totfact> 0.76564737E-01</totfact>
</mgrwt>
</event>
<event>
 6    1  0.9988873E-007  0.2949036E+04  0.7818608E-02  0.8258435E-01
          2   -1    0    0  501    0  0.00000000000E+00  0.00000000000E+00  0.20232375047E+04  0.20232375047E+04  0.00000000000E+00 0. -1.
         -2   -1    0    0    0  501 -0.00000000000E+00 -0.00000000000E+00 -0.10746161299E+04  0.10746161299E+04  0.00000000000E+00 0.  1.
         23    2    1    2    0    0 -0.14265038734E+04 -0.28427100589E+03  0.72020490986E+03  0.16254754946E+04  0.88046384043E+02 0.  0.
         11    1    3    3    0    0 -0.93141630077E+03 -0.21693497863E+03  0.44124525389E+03  0.10532304992E+04  0.00000000000E+00 0. -1.
        -11    1    3    3    0    0 -0.49508757264E+03 -0.67336027258E+02  0.27895965597E+03  0.57224499545E+03  0.00000000000E+00 0.  1.
         22    1    1    2    0    0  0.14265038734E+04  0.28427100589E+03  0.22841646497E+03  0.14723781400E+04  0.00000000000E+00 0. -1.
<mgrwt>
<rscale>  0 0.29490362E+04</rscale>
<asrwt>0</asrwt>
<pdfrwt beam="1">  1        2 0.31126731E+00 0.29490362E+04</pdfrwt>
<pdfrwt beam="2">  1       -2 0.16532556E+00 0.29490362E+04</pdfrwt>
<totfact> 0.12837147E+00</totfact>
</mgrwt>
</event>
<event>
 6    1  0.9988873E-007  0.3553120E+04  0.7818608E-02  0.8101315E-01
         -2   -1    0    0    0  501 -0.00000000000E+00  0.00000000000E+00  0.30465966880E+04  0.30465966880E+04  0.00000000000E+00 0.  1.
          2   -1    0    0  501    0  0.00000000000E+00 -0.00000000000E+00 -0.10359642439E+04  0.10359642439E+04  0.00000000000E+00 0. -1.
         23    2    1    2    0    0  0.12887810914E+03 -0.17370390735E+04  0.61112347113E+03  0.18481617565E+04  0.91190302384E+02 0.  0.
         13    1    3    3    0    0  0.12582949660E+03 -0.11760834416E+04  0.43385125811E+03  0.12598540542E+04  0.00000000000E+00 0. -1.
        -13    1    3    3    0    0  0.30486125333E+01 -0.56095563194E+03  0.17727221302E+03  0.58830770227E+03  0.00000000000E+00 0.  1.
         22    1    1    2    0    0 -0.12887810914E+03  0.17370390735E+04  0.13995089730E+04  0.22343991755E+04  0.00000000000E+00 0. -1.
<mgrwt>
<rscale>  0 0.35531199E+04</rscale>
<asrwt>0</asrwt>
<pdfrwt beam="1">  1        2 0.15937912E+00 0.35531199E+04</pdfrwt>
<pdfrwt beam="2">  1       -2 0.46870718E+00 0.35531199E+04</pdfrwt>
<totfact> 0.51052602E-02</totfact>
</mgrwt>
</event>
<event>
 6    1  0.1075504E-006  0.3518188E+04  0.7818608E-02  0.8109493E-01
          1   -1    0    0  501    0  0.00000000000E+00  0.00000000000E+00  0.13482289131E+04  0.13482289131E+04  0.00000000000E+00 0. -1.
         -1   -1    0    0    0  501 -0.00000000000E+00 -0.00000000000E+00 -0.22951680569E+04  0.22951680569E+04  0.00000000000E+00 0.  1.
         23    2    1    2    0    0 -0.73234286055E+03 -0.27214878967E+03  0.11572323778E+04  0.13988638736E+04  0.85101889064E+02 0.  0.
         11    1    3    3    0    0 -0.34922465274E+03 -0.86574444849E+02  0.55247787344E+03  0.65930629697E+03  0.00000000000E+00 0.  1.
        -11    1    3    3    0    0 -0.38311820781E+03 -0.18557434482E+03  0.60475450433E+03  0.73955757661E+03  0.00000000000E+00 0. -1.
         22    1    1    2    0    0  0.73234286055E+03  0.27214878967E+03 -0.21041715215E+04  0.22445330965E+04  0.00000000000E+00 0.  1.
<mgrwt>
<rscale>  0 0.35181881E+04</rscale>
<asrwt>0</asrwt>
<pdfrwt beam="1">  1        1 0.20741983E+00 0.35181881E+04</pdfrwt>
<pdfrwt beam="2">  1       -1 0.35310278E+00 0.35181881E+04</pdfrwt>
<totfact> 0.10083414E-01</totfact>
</mgrwt>
</event>
<event>
 6    1  0.9988873E-007  0.4492734E+04  0.7818608E-02  0.7911910E-01
         -2   -1    0    0    0  501 -0.00000000000E+00  0.00000000000E+00  0.21104012180E+04  0.21104012180E+04  0.00000000000E+00 0.  1.
          2   -1    0    0  501    0  0.00000000000E+00 -0.00000000000E+00 -0.23910921218E+04  0.23910921218E+04  0.00000000000E+00 0. -1.
         23    2    1    2    0    0  0.14505463065E+04  0.30758028702E+03  0.15489734272E+04  0.21464218367E+04  0.95487184733E+02 0.  0.
         13    1    3    3    0    0  0.30334434619E+03  0.96346571780E+02  0.36667723921E+03  0.48554366643E+03  0.00000000000E+00 0.  1.
        -13    1    3    3    0    0  0.11472019603E+04  0.21123371524E+03  0.11822961880E+04  0.16608781703E+04  0.00000000000E+00 0. -1.
         22    1    1    2    0    0 -0.14505463065E+04 -0.30758028702E+03 -0.18296643310E+04  0.23550715031E+04  0.00000000000E+00 0. -1.
<mgrwt>
<rscale>  0 0.44927336E+04</rscale>
<asrwt>0</asrwt>
<pdfrwt beam="1">  1        2 0.36786032E+00 0.44927336E+04</pdfrwt>
<pdfrwt beam="2">  1       -2 0.32467711E+00 0.44927336E+04</pdfrwt>
<totfact> 0.68313271E-02</totfact>
</mgrwt>
</event>
<event>
 6    1  0.9988873E-007  0.2259676E+04  0.7818608E-02  0.8493992E-01
          1   -1    0    0  501    0  0.00000000000E+00  0.00000000000E+00  0.24836684087E+04  0.24836684087E+04  0.00000000000E+00 0. -1.
         -1   -1    0    0    0  501 -0.00000000000E+00 -0.00000000000E+00 -0.51397109445E+03  0.51397109445E+03  0.00000000000E+00 0.  1.
         23    2    1    2    0    0 -0.91981287988E+03 -0.25728706542E+03  0.17825152172E+04  0.20243515163E+04  0.91576163334E+02 0.  0.
         11    1    3    3    0    0 -0.30716675423E+02 -0.11154833127E+02  0.10411161468E+03  0.10911999250E+03  0.00000000000E+00 0. -1.
        -11    1    3    3    0    0 -0.88909620446E+03 -0.24613223229E+03  0.16784036026E+04  0.19152315238E+04  0.00000000000E+00 0.  1.
         22    1    1    2    0    0  0.91981287988E+03  0.25728706542E+03  0.18718209704E+03  0.97328798692E+03  0.00000000000E+00 0.  1.
<mgrwt>
<rscale>  0 0.22596759E+04</rscale>
<asrwt>0</asrwt>
<pdfrwt beam="1">  1        1 0.38210283E+00 0.22596759E+04</pdfrwt>
<pdfrwt beam="2">  1       -1 0.79072477E-01 0.22596759E+04</pdfrwt>
<totfact> 0.20167854E+00</totfact>
</mgrwt>
</event>
<event>
 6    1  0.1749576E-006  0.4504649E+04  0.7818608E-02  0.7909823E-01
          2   -1    0    0  501    0  0.00000000000E+00  0.00000000000E+00  0.26511474211E+04  0.26511474211E+04  0.00000000000E+00 0. -1.
         -2   -1    0    0    0  501 -0.00000000000E+00 -0.00000000000E+00 -0.19134978844E+04  0.19134978844E+04  0.00000000000E+00 0.  1.
         23    2    1    2    0    0 -0.15782712038E+03 -0.22250394407E+04  0.67683391277E+03  0.23331864884E+04  0.99725279756E+02 0.  0.
         13    1    3    3    0    0 -0.38772425033E+02 -0.11583021097E+04  0.32558914052E+03  0.12038169989E+04  0.00000000000E+00 0. -1.
        -13    1    3    3    0    0 -0.11905469535E+03 -0.10667373310E+04  0.35124477225E+03  0.11293694895E+04  0.00000000000E+00 0.  1.
         22    1    1    2    0    0  0.15782712038E+03  0.22250394407E+04  0.60815623976E+02  0.22314588172E+04  0.00000000000E+00 0.  1.
<mgrwt>
<rscale>  0 0.45046487E+04</rscale>
<asrwt>0</asrwt>
<pdfrwt beam="1">  1        2 0.40786883E+00 0.45046487E+04</pdfrwt>
<pdfrwt beam="2">  1       -2 0.29438429E+00 0.45046487E+04</pdfrwt>
<totfact> 0.73967144E-02</totfact>
</mgrwt>
</event>
<event>
 6    1  0.9988873E-007  0.1200728E+04  0.7818608E-02  0.9112219E-01
          2   -1    0    0  501    0  0.00000000000E+00  0.00000000000E+00  0.19857292402E+04  0.19857292402E+04  0.00000000000E+00 0. -1.
         -2   -1    0    0    0  501 -0.00000000000E+00 -0.00000000000E+00 -0.18151370313E+03  0.18151370313E+03  0.00000000000E+00 0.  1.
         23    2    1    2    0    0 -0.58626800563E+03 -0.92402331662E+02  0.78641806236E+03  0.98904089578E+03  0.86603460688E+02 0.  0.
         13    1    3    3    0    0 -0.56380795796E+03 -0.79296768780E+02  0.72138440906E+03  0.91900101014E+03  0.00000000000E+00 0.  1.
        -13    1    3    3    0    0 -0.22460047668E+02 -0.13105562882E+02  0.65033653296E+02  0.70039885642E+02  0.00000000000E+00 0. -1.
         22    1    1    2    0    0  0.58626800563E+03  0.92402331662E+02  0.10177974747E+04  0.11782020475E+04  0.00000000000E+00 0. -1.
<mgrwt>
<rscale>  0 0.12007282E+04</rscale>
<asrwt>0</asrwt>
<pdfrwt beam="1">  1        2 0.30549679E+00 0.12007282E+04</pdfrwt>
<pdfrwt beam="2">  1       -2 0.27925186E-01 0.12007282E+04</pdfrwt>
<totfact> 0.78752395E+01</totfact>
</mgrwt>
</event>
<event>
 6    1  0.9988873E-007  0.3834466E+04  0.7818608E-02  0.8038799E-01
         -1   -1    0    0    0  501 -0.00000000000E+00  0.00000000000E+00  0.91844061841E+03  0.91844061841E+03  0.00000000000E+00 0.  1.
          1   -1    0    0  501    0  0.00000000000E+00 -0.00000000000E+00 -0.40021994543E+04  0.40021994543E+04  0.00000000000E+00 0. -1.
         23    2    1    2    0    0 -0.18750247573E+04 -0.11764460190E+03 -0.20264422760E+04  0.27648394324E+04  0.91163017818E+02 0.  0.
         11    1    3    3    0    0 -0.16069342385E+04 -0.11308562176E+03 -0.17791526401E+04  0.24000854404E+04  0.00000000000E+00 0.  1.
        -11    1    3    3    0    0 -0.26809051889E+03 -0.45589801365E+01 -0.24728963595E+03  0.36475399198E+03  0.00000000000E+00 0. -1.
         22    1    1    2    0    0  0.18750247573E+04  0.11764460190E+03 -0.10573165598E+04  0.21558006403E+04  0.00000000000E+00 0.  1.
<mgrwt>
<rscale>  0 0.38344661E+04</rscale>
<asrwt>0</asrwt>
<pdfrwt beam="1">  1        1 0.61572299E+00 0.38344661E+04</pdfrwt>
<pdfrwt beam="2">  1       -1 0.14129856E+00 0.38344661E+04</pdfrwt>
<totfact> 0.30910107E-02</totfact>
</mgrwt>
</event>
<event>
 6    1  0.9988873E-007  0.1665001E+04  0.7818608E-02  0.8781581E-01
          2   -1    0    0  501    0  0.00000000000E+00  0.00000000000E+00  0.31476893914E+04  0.31476893914E+04  0.00000000000E+00 0. -1.
         -2   -1    0    0    0  501 -0.00000000000E+00 -0.00000000000E+00 -0.22017955711E+03  0.22017955711E+03  0.00000000000E+00 0.  1.
         23    2    1    2    0    0 -0.64100174630E+03 -0.52466973888E+03  0.13601153668E+04  0.15950500096E+04  0.90050809437E+02 0.  0.
         13    1    3    3    0    0 -0.34709744947E+03 -0.24961960634E+03  0.63101289718E+03  0.76220985542E+03  0.00000000000E+00 0.  1.
        -13    1    3    3    0    0 -0.29390429683E+03 -0.27505013254E+03  0.72910246964E+03  0.83284015413E+03  0.00000000000E+00 0. -1.
         22    1    1    2    0    0  0.64100174630E+03  0.52466973888E+03  0.15673944674E+04  0.17728189389E+04  0.00000000000E+00 0. -1.
<mgrwt>
<rscale>  0 0.16650007E+04</rscale>
<asrwt>0</asrwt>
<pdfrwt beam="1">  1        2 0.48425987E+00 0.16650007E+04</pdfrwt>
<pdfrwt beam="2">  1       -2 0.33873780E-01 0.16650007E+04</pdfrwt>
<totfact> 0.10983225E+01</totfact>
</mgrwt>
</event>
<event>
 6    1  0.9988873E-007  0.1080786E+04  0.7818608E-02  0.9224124E-01
         -4   -1    0    0    0  501 -0.00000000000E+00  0.00000000000E+00  0.66875960923E+03  0.66875960923E+03  0.00000000000E+00 0.  1.
          4   -1    0    0  501    0  0.00000000000E+00 -0.00000000000E+00 -0.43666624562E+03  0.43666624562E+03  0.00000000000E+00 0. -1.
         23    2    1    2    0    0  0.20565972802E+03 -0.29844046783E+03 -0.28776499489E+03  0.47169456363E+03  0.91238328070E+02 0.  0.
         13    1    3    3    0    0  0.18377003931E+03 -0.19480657662E+03 -0.20834835239E+03  0.33930821621E+03  0.00000000000E+00 0. -1.
        -13    1    3    3    0    0  0.21889688715E+02 -0.10363389121E+03 -0.79416642497E+02  0.13238634742E+03  0.00000000000E+00 0.  1.
         22    1    1    2    0    0 -0.20565972802E+03  0.29844046783E+03  0.51985835849E+03  0.63373129122E+03  0.00000000000E+00 0.  1.
<mgrwt>
<rscale>  0 0.10807863E+04</rscale>
<asrwt>0</asrwt>
<pdfrwt beam="1">  1        4 0.67179422E-01 0.10807863E+04</pdfrwt>
<pdfrwt beam="2">  1       -4 0.10288609E+00 0.10807863E+04</pdfrwt>
<totfact> 0.31280060E+00</totfact>
</mgrwt>
</event>
<event>
 6    1  0.9988873E-007  0.8790662E+03  0.7818608E-02  0.9452135E-01
          2   -1    0    0  501    0  0.00000000000E+00  0.00000000000E+00  0.26076171782E+04  0.26076171782E+04  0.00000000000E+00 0. -1.
         -2   -1    0    0    0  501 -0.00000000000E+00 -0.00000000000E+00 -0.74086544230E+02  0.74086544230E+02  0.00000000000E+00 0.  1.
         23    2    1    2    0    0  0.21940121564E+03 -0.19453353846E+03  0.22598614233E+04  0.22806114289E+04  0.90744952275E+02 0.  0.
         11    1    3    3    0    0  0.13413275517E+03 -0.61780507402E+02  0.98080133019E+03  0.99185668138E+03  0.00000000000E+00 0. -1.
        -11    1    3    3    0    0  0.85268460466E+02 -0.13275303106E+03  0.12790600931E+04  0.12887547476E+04  0.00000000000E+00 0.  1.
         22    1    1    2    0    0 -0.21940121564E+03  0.19453353846E+03  0.27366921065E+03  0.40109229345E+03  0.00000000000E+00 0.  1.
<mgrwt>
<rscale>  0 0.87906620E+03</rscale>
<asrwt>0</asrwt>
<pdfrwt beam="1">  1        2 0.40117180E+00 0.87906620E+03</pdfrwt>
<pdfrwt beam="2">  1       -2 0.11397932E-01 0.87906620E+03</pdfrwt>
<totfact> 0.17156028E+02</totfact>
</mgrwt>
</event>
<event>
 6    1  0.9988873E-007  0.2515014E+04  0.7818608E-02  0.8397656E-01
          3   -1    0    0  501    0  0.00000000000E+00  0.00000000000E+00  0.13130969307E+04  0.13130969307E+04  0.00000000000E+00 0. -1.
         -3   -1    0    0    0  501 -0.00000000000E+00 -0.00000000000E+00 -0.12042707910E+04  0.12042707910E+04  0.00000000000E+00 0.  1.
         23    2    1    2    0    0  0.74104022527E+03 -0.53967343140E+03 -0.80468154085E+03  0.12231945067E+04  0.91128431405E+02 0.  0.
         13    1    3    3    0    0  0.81118984222E+02 -0.80849680351E+02 -0.13483456646E+03  0.17691048789E+03  0.00000000000E+00 0.  1.
        -13    1    3    3    0    0  0.65992124104E+03 -0.45882375105E+03 -0.66984697439E+03  0.10462840188E+04  0.00000000000E+00 0. -1.
         22    1    1    2    0    0 -0.74104022527E+03  0.53967343140E+03  0.91350768049E+03  0.12941732150E+04  0.00000000000E+00 0. -1.
<mgrwt>
<rscale>  0 0.25150143E+04</rscale>
<asrwt>0</asrwt>
<pdfrwt beam="1">  1        3 0.20201491E+00 0.25150143E+04</pdfrwt>
<pdfrwt beam="2">  1       -3 0.18527243E+00 0.25150143E+04</pdfrwt>
<totfact> 0.60492901E-02</totfact>
</mgrwt>
</event>
<event>
 6    1  0.9988873E-007  0.1254969E+04  0.7818608E-02  0.9066058E-01
          2   -1    0    0  501    0  0.00000000000E+00  0.00000000000E+00  0.26093990228E+03  0.26093990228E+03  0.00000000000E+00 0. -1.
         -2   -1    0    0    0  501 -0.00000000000E+00 -0.00000000000E+00 -0.15089171710E+04  0.15089171710E+04  0.00000000000E+00 0.  1.
         23    2    1    2    0    0  0.51408113693E+03 -0.34956902820E+03 -0.55180350266E+03  0.83651049595E+03  0.93727175723E+02 0.  0.
         11    1    3    3    0    0  0.68387634076E+02 -0.75843566760E+02 -0.59308311949E+02  0.11809568569E+03  0.00000000000E+00 0.  1.
        -11    1    3    3    0    0  0.44569350286E+03 -0.27372546144E+03 -0.49249519071E+03  0.71841481026E+03  0.00000000000E+00 0. -1.
         22    1    1    2    0    0 -0.51408113693E+03  0.34956902820E+03 -0.69617376602E+03  0.93334657728E+03  0.00000000000E+00 0. -1.
<mgrwt>
<rscale>  0 0.12549688E+04</rscale>
<asrwt>0</asrwt>
<pdfrwt beam="1">  1        2 0.40144600E-01 0.12549688E+04</pdfrwt>
<pdfrwt beam="2">  1       -2 0.23214110E+00 0.12549688E+04</pdfrwt>
<totfact> 0.10465853E+01</totfact>
</mgrwt>
</event>
<event>
 6    1  0.9988873E-007  0.1231373E+04  0.7818608E-02  0.9085831E-01
          1   -1    0    0  501    0  0.00000000000E+00  0.00000000000E+00  0.33556493474E+03  0.33556493474E+03  0.00000000000E+00 0. -1.
         -1   -1    0    0    0  501 -0.00000000000E+00 -0.00000000000E+00 -0.11296462102E+04  0.11296462102E+04  0.00000000000E+00 0.  1.
         23    2    1    2    0    0  0.86935368125E+02 -0.19226332295E+03 -0.10830552548E+04  0.11073998758E+04  0.93823537863E+02 0.  0.
         13    1    3    3    0    0  0.12384879152E+01 -0.14339283195E+02 -0.28175395073E+03  0.28212131725E+03  0.00000000000E+00 0. -1.
        -13    1    3    3    0    0  0.85696880210E+02 -0.17792403975E+03 -0.80130130412E+03  0.82527855854E+03  0.00000000000E+00 0.  1.
         22    1    1    2    0    0 -0.86935368125E+02  0.19226332295E+03  0.28897397938E+03  0.35781126916E+03  0.00000000000E+00 0. -1.
<mgrwt>
<rscale>  0 0.12313727E+04</rscale>
<asrwt>0</asrwt>
<pdfrwt beam="1">  1        1 0.51625375E-01 0.12313727E+04</pdfrwt>
<pdfrwt beam="2">  1       -1 0.17379172E+00 0.12313727E+04</pdfrwt>
<totfact> 0.17254911E+01</totfact>
</mgrwt>
</event>
<event>
 6    1  0.9988873E-007  0.2179523E+04  0.7818608E-02  0.8527000E-01
         -1   -1    0    0    0  501 -0.00000000000E+00  0.00000000000E+00  0.26696974329E+04  0.26696974329E+04  0.00000000000E+00 0.  1.
          1   -1    0    0  501    0  0.00000000000E+00 -0.00000000000E+00 -0.44483692612E+03  0.44483692612E+03  0.00000000000E+00 0. -1.
         23    2    1    2    0    0  0.69954604988E+03 -0.64952838515E+03  0.18598157920E+04  0.20925219116E+04  0.92094359877E+02 0.  0.
         11    1    3    3    0    0  0.30578785897E+03 -0.34453607787E+03  0.86745963371E+03  0.98219017495E+03  0.00000000000E+00 0. -1.
        -11    1    3    3    0    0  0.39375819091E+03 -0.30499230729E+03  0.99235615832E+03  0.11103317366E+04  0.00000000000E+00 0.  1.
         22    1    1    2    0    0 -0.69954604988E+03  0.64952838515E+03  0.36504471480E+03  0.10220124475E+04  0.00000000000E+00 0. -1.
<mgrwt>
<rscale>  0 0.21795229E+04</rscale>
<asrwt>0</asrwt>
<pdfrwt beam="1">  1        1 0.68436451E-01 0.21795229E+04</pdfrwt>
<pdfrwt beam="2">  1       -1 0.41072267E+00 0.21795229E+04</pdfrwt>
<totfact> 0.28717492E-01</totfact>
</mgrwt>
</event>
<event>
 6    1  0.9988873E-007  0.1180731E+04  0.7818608E-02  0.9129892E-01
         -2   -1    0    0    0  501 -0.00000000000E+00  0.00000000000E+00  0.23483769081E+03  0.23483769081E+03  0.00000000000E+00 0.  1.
          2   -1    0    0  501    0  0.00000000000E+00 -0.00000000000E+00 -0.14841377062E+04  0.14841377062E+04  0.00000000000E+00 0. -1.
         23    2    1    2    0    0 -0.20632170299E+03 -0.51983920443E+03 -0.36713534864E+03  0.67445831105E+03  0.85464644943E+02 0.  0.
         11    1    3    3    0    0 -0.94613929829E+02 -0.13365978075E+03 -0.10801502165E+03  0.19617333562E+03  0.00000000000E+00 0. -1.
        -11    1    3    3    0    0 -0.11170777316E+03 -0.38617942368E+03 -0.25912032700E+03  0.47828497543E+03  0.00000000000E+00 0.  1.
         22    1    1    2    0    0  0.20632170299E+03  0.51983920443E+03 -0.88216466670E+03  0.10445170859E+04  0.00000000000E+00 0. -1.
<mgrwt>
<rscale>  0 0.11807311E+04</rscale>
<asrwt>0</asrwt>
<pdfrwt beam="1">  1        2 0.22832888E+00 0.11807311E+04</pdfrwt>
<pdfrwt beam="2">  1       -2 0.36128875E-01 0.11807311E+04</pdfrwt>
<totfact> 0.92220987E+01</totfact>
</mgrwt>
</event>
<event>
 6    1  0.9988873E-007  0.7930189E+03  0.7818608E-02  0.9570177E-01
          2   -1    0    0  501    0  0.00000000000E+00  0.00000000000E+00  0.30092767036E+03  0.30092767036E+03  0.00000000000E+00 0. -1.
         -2   -1    0    0    0  501 -0.00000000000E+00 -0.00000000000E+00 -0.52245023675E+03  0.52245023675E+03  0.00000000000E+00 0.  1.
         23    2    1    2    0    0 -0.14727231385E+03  0.17235788369E+03  0.21893317028E+03  0.32800165570E+03  0.90867918391E+02 0.  0.
         11    1    3    3    0    0 -0.24197481207E+02  0.95384160035E+02  0.10049618752E+03  0.14065254989E+03  0.00000000000E+00 0.  1.
        -11    1    3    3    0    0 -0.12307483264E+03  0.76973723659E+02  0.11843698276E+03  0.18734910581E+03  0.00000000000E+00 0. -1.
         22    1    1    2    0    0  0.14727231385E+03 -0.17235788369E+03 -0.44045573667E+03  0.49537625142E+03  0.00000000000E+00 0.  1.
<mgrwt>
<rscale>  0 0.79301887E+03</rscale>
<asrwt>0</asrwt>
<pdfrwt beam="1">  1        2 0.46296565E-01 0.79301887E+03</pdfrwt>
<pdfrwt beam="2">  1       -2 0.80376958E-01 0.79301887E+03</pdfrwt>
<totfact> 0.15081488E+02</totfact>
</mgrwt>
</event>
<event>
 6    1  0.9988873E-007  0.1682802E+04  0.7818608E-02  0.8771234E-01
          2   -1    0    0  501    0  0.00000000000E+00  0.00000000000E+00  0.84103819364E+03  0.84103819364E+03  0.00000000000E+00 0. -1.
         -2   -1    0    0    0  501 -0.00000000000E+00 -0.00000000000E+00 -0.84176405027E+03  0.84176405027E+03  0.00000000000E+00 0.  1.
         23    2    1    2    0    0  0.44780346036E+03  0.36073529016E+03 -0.61093046847E+03  0.84434678475E+03  0.95013509222E+02 0.  0.
         11    1    3    3    0    0  0.30389746471E+03  0.20967125980E+03 -0.44183918048E+03  0.57579299028E+03  0.00000000000E+00 0. -1.
        -11    1    3    3    0    0  0.14390599566E+03  0.15106403035E+03 -0.16909128799E+03  0.26855379448E+03  0.00000000000E+00 0.  1.
         22    1    1    2    0    0 -0.44780346036E+03 -0.36073529016E+03  0.61020461185E+03  0.83845545916E+03  0.00000000000E+00 0. -1.
<mgrwt>
<rscale>  0 0.16828021E+04</rscale>
<asrwt>0</asrwt>
<pdfrwt beam="1">  1        2 0.12939049E+00 0.16828021E+04</pdfrwt>
<pdfrwt beam="2">  1       -2 0.12950216E+00 0.16828021E+04</pdfrwt>
<totfact> 0.13453599E+01</totfact>
</mgrwt>
</event>
<event>
 6    1  0.9988873E-007  0.2448224E+04  0.7818608E-02  0.8421667E-01
         -2   -1    0    0    0  501 -0.00000000000E+00  0.00000000000E+00  0.54831657310E+03  0.54831657310E+03  0.00000000000E+00 0.  1.
          2   -1    0    0  501    0  0.00000000000E+00 -0.00000000000E+00 -0.27328196862E+04  0.27328196862E+04  0.00000000000E+00 0. -1.
         23    2    1    2    0    0 -0.35467728270E+03  0.99399956530E+03 -0.19204539508E+04  0.21932240061E+04  0.90868326742E+02 0.  0.
         11    1    3    3    0    0 -0.22740522307E+03  0.56925028465E+03 -0.11934025372E+04  0.13416290984E+04  0.00000000000E+00 0. -1.
        -11    1    3    3    0    0 -0.12727205963E+03  0.42474928065E+03 -0.72705141365E+03  0.85159490761E+03  0.00000000000E+00 0.  1.
         22    1    1    2    0    0  0.35467728270E+03 -0.99399956530E+03 -0.26404916229E+03  0.10879122533E+04  0.00000000000E+00 0. -1.
<mgrwt>
<rscale>  0 0.24482241E+04</rscale>
<asrwt>0</asrwt>
<pdfrwt beam="1">  1        2 0.42043379E+00 0.24482241E+04</pdfrwt>
<pdfrwt beam="2">  1       -2 0.84356397E-01 0.24482241E+04</pdfrwt>
<totfact> 0.27870867E+00</totfact>
</mgrwt>
</event>
<event>
 6    1  0.9988873E-007  0.1687899E+04  0.7818608E-02  0.8768296E-01
         -2   -1    0    0    0  501 -0.00000000000E+00  0.00000000000E+00  0.14137787669E+04  0.14137787669E+04  0.00000000000E+00 0.  1.
          2   -1    0    0  501    0  0.00000000000E+00 -0.00000000000E+00 -0.50379206154E+03  0.50379206154E+03  0.00000000000E+00 0. -1.
         23    2    1    2    0    0  0.31908489225E+03 -0.34270825168E+03  0.12505475444E+04  0.13385666840E+04  0.92884295934E+02 0.  0.
         13    1    3    3    0    0  0.26648486166E+03 -0.28099313375E+03  0.91931444311E+03  0.99755218812E+03  0.00000000000E+00 0. -1.
        -13    1    3    3    0    0  0.52600030584E+02 -0.61715117932E+02  0.33123310129E+03  0.34101449586E+03  0.00000000000E+00 0.  1.
         22    1    1    2    0    0 -0.31908489225E+03  0.34270825168E+03 -0.34056083903E+03  0.57900414447E+03  0.00000000000E+00 0. -1.
<mgrwt>
<rscale>  0 0.16878987E+04</rscale>
<asrwt>0</asrwt>
<pdfrwt beam="1">  1        2 0.77506472E-01 0.16878987E+04</pdfrwt>
<pdfrwt beam="2">  1       -2 0.21750442E+00 0.16878987E+04</pdfrwt>
<totfact> 0.59552070E+00</totfact>
</mgrwt>
</event>
<event>
 6    1  0.9988873E-007  0.1237887E+04  0.7818608E-02  0.9080326E-01
         -2   -1    0    0    0  501 -0.00000000000E+00  0.00000000000E+00  0.38001705650E+03  0.38001705650E+03  0.00000000000E+00 0.  1.
          2   -1    0    0  501    0  0.00000000000E+00 -0.00000000000E+00 -0.10080885177E+04  0.10080885177E+04  0.00000000000E+00 0. -1.
         23    2    1    2    0    0 -0.58714512207E+03  0.85358201263E+01 -0.52311586005E+03  0.79159242867E+03  0.90311214657E+02 0.  0.
         11    1    3    3    0    0 -0.14958540300E+03 -0.30624044930E+02 -0.16504874506E+03  0.22484375278E+03  0.00000000000E+00 0. -1.
        -11    1    3    3    0    0 -0.43755971907E+03  0.39159865056E+02 -0.35806711500E+03  0.56674867589E+03  0.00000000000E+00 0.  1.
         22    1    1    2    0    0  0.58714512207E+03 -0.85358201263E+01 -0.10495560118E+03  0.59651314555E+03  0.00000000000E+00 0.  1.
<mgrwt>
<rscale>  0 0.12378866E+04</rscale>
<asrwt>0</asrwt>
<pdfrwt beam="1">  1        2 0.15509054E+00 0.12378866E+04</pdfrwt>
<pdfrwt beam="2">  1       -2 0.58464164E-01 0.12378866E+04</pdfrwt>
<totfact> 0.67024850E+01</totfact>
</mgrwt>
</event>
<event>
 6    1  0.9988873E-007  0.1770458E+04  0.7818608E-02  0.8722169E-01
         -1   -1    0    0    0  501 -0.00000000000E+00  0.00000000000E+00  0.56893161189E+03  0.56893161189E+03  0.00000000000E+00 0.  1.
          1   -1    0    0  501    0  0.00000000000E+00 -0.00000000000E+00 -0.13773711592E+04  0.13773711592E+04  0.00000000000E+00 0. -1.
         23    2    1    2    0    0 -0.56773746499E+03  0.64228070311E+03 -0.17260738060E+03  0.87900109165E+03  0.89438697130E+02 0.  0.
         11    1    3    3    0    0 -0.21244957818E+03  0.24420763200E+03 -0.21243455499E+02  0.32438168135E+03  0.00000000000E+00 0. -1.
        -11    1    3    3    0    0 -0.35528788682E+03  0.39807307110E+03 -0.15136392510E+03  0.55461941030E+03  0.00000000000E+00 0.  1.
         22    1    1    2    0    0  0.56773746499E+03 -0.64228070311E+03 -0.63583216676E+03  0.10673016795E+04  0.00000000000E+00 0. -1.
<mgrwt>
<rscale>  0 0.17704576E+04</rscale>
<asrwt>0</asrwt>
<pdfrwt beam="1">  1        1 0.21190325E+00 0.17704576E+04</pdfrwt>
<pdfrwt beam="2">  1       -1 0.87527941E-01 0.17704576E+04</pdfrwt>
<totfact> 0.96831370E+00</totfact>
</mgrwt>
</event>
<event>
 6    1  0.9988873E-007  0.2452120E+04  0.7818608E-02  0.8420244E-01
          2   -1    0    0  501    0  0.00000000000E+00  0.00000000000E+00  0.27200468440E+04  0.27200468440E+04  0.00000000000E+00 0. -1.
         -2   -1    0    0    0  501 -0.00000000000E+00 -0.00000000000E+00 -0.55264608640E+03  0.55264608640E+03  0.00000000000E+00 0.  1.
         23    2    1    2    0    0  0.39223101685E+03 -0.86893525141E+03  0.59799502468E+02  0.95949672334E+03  0.90356736797E+02 0.  0.
         11    1    3    3    0    0  0.27234754024E+03 -0.68582547722E+03  0.29155743380E+02  0.73849835833E+03  0.00000000000E+00 0.  1.
        -11    1    3    3    0    0  0.11988347661E+03 -0.18310977419E+03  0.30643759088E+02  0.22099836501E+03  0.00000000000E+00 0. -1.
         22    1    1    2    0    0 -0.39223101685E+03  0.86893525141E+03  0.21076012551E+04  0.23131962070E+04  0.00000000000E+00 0. -1.
<mgrwt>
<rscale>  0 0.24521201E+04</rscale>
<asrwt>0</asrwt>
<pdfrwt beam="1">  1        2 0.41846874E+00 0.24521201E+04</pdfrwt>
<pdfrwt beam="2">  1       -2 0.85022476E-01 0.24521201E+04</pdfrwt>
<totfact> 0.27852885E+00</totfact>
</mgrwt>
</event>
<event>
 6    1  0.9988873E-007  0.2568120E+04  0.7818608E-02  0.8379111E-01
          2   -1    0    0  501    0  0.00000000000E+00  0.00000000000E+00  0.12707136135E+04  0.12707136135E+04  0.00000000000E+00 0. -1.
         -2   -1    0    0    0  501 -0.00000000000E+00 -0.00000000000E+00 -0.12975465437E+04  0.12975465437E+04  0.00000000000E+00 0.  1.
         23    2    1    2    0    0  0.58157649668E+03  0.44742671922E+02  0.11286629066E+04  0.12738862712E+04  0.93129732065E+02 0.  0.
         13    1    3    3    0    0  0.14092193932E+03  0.47295683439E+02  0.24824894711E+03  0.28934998600E+03  0.00000000000E+00 0. -1.
        -13    1    3    3    0    0  0.44065455736E+03 -0.25530115173E+01  0.88041395947E+03  0.98453628517E+03  0.00000000000E+00 0.  1.
         22    1    1    2    0    0 -0.58157649668E+03 -0.44742671922E+02 -0.11554958368E+04  0.12943738861E+04  0.00000000000E+00 0.  1.
<mgrwt>
<rscale>  0 0.25681200E+04</rscale>
<asrwt>0</asrwt>
<pdfrwt beam="1">  1        2 0.19549440E+00 0.25681200E+04</pdfrwt>
<pdfrwt beam="2">  1       -2 0.19962254E+00 0.25681200E+04</pdfrwt>
<totfact> 0.20402276E+00</totfact>
</mgrwt>
</event>
<event>
 6    1  0.9988873E-007  0.1246243E+04  0.7818608E-02  0.9073316E-01
          2   -1    0    0  501    0  0.00000000000E+00  0.00000000000E+00  0.39916515540E+04  0.39916515540E+04  0.00000000000E+00 0. -1.
         -2   -1    0    0    0  501 -0.00000000000E+00 -0.00000000000E+00 -0.97273068033E+02  0.97273068033E+02  0.00000000000E+00 0.  1.
         23    2    1    2    0    0 -0.21726801808E+03  0.46697825920E+03  0.83172808216E+03  0.98326823696E+03  0.98847037922E+02 0.  0.
         13    1    3    3    0    0 -0.99268164238E+02  0.32209021229E+03  0.51331658227E+03  0.61407669465E+03  0.00000000000E+00 0. -1.
        -13    1    3    3    0    0 -0.11799985385E+03  0.14488804691E+03  0.31841149989E+03  0.36919154230E+03  0.00000000000E+00 0.  1.
         22    1    1    2    0    0  0.21726801808E+03 -0.46697825920E+03  0.30626504038E+04  0.31056563850E+04  0.00000000000E+00 0. -1.
<mgrwt>
<rscale>  0 0.12462427E+04</rscale>
<asrwt>0</asrwt>
<pdfrwt beam="1">  1        2 0.61410011E+00 0.12462427E+04</pdfrwt>
<pdfrwt beam="2">  1       -2 0.14965090E-01 0.12462427E+04</pdfrwt>
<totfact> 0.12501127E+01</totfact>
</mgrwt>
</event>
<event>
 6    1  0.9988873E-007  0.1728800E+04  0.7818608E-02  0.8745107E-01
          1   -1    0    0  501    0  0.00000000000E+00  0.00000000000E+00  0.22340458472E+04  0.22340458472E+04  0.00000000000E+00 0. -1.
         -1   -1    0    0    0  501 -0.00000000000E+00 -0.00000000000E+00 -0.33445469885E+03  0.33445469885E+03  0.00000000000E+00 0.  1.
         23    2    1    2    0    0  0.37585867474E+02 -0.16996298743E+03  0.22067390877E+04  0.22154566802E+04  0.90833837380E+02 0.  0.
         13    1    3    3    0    0  0.57594971744E+02 -0.58622640227E+02  0.10427568247E+04  0.10459902438E+04  0.00000000000E+00 0.  1.
        -13    1    3    3    0    0 -0.20009104270E+02 -0.11134034720E+03  0.11639822631E+04  0.11694664364E+04  0.00000000000E+00 0. -1.
         22    1    1    2    0    0 -0.37585867474E+02  0.16996298743E+03 -0.30714793939E+03  0.35304386583E+03  0.00000000000E+00 0.  1.
<mgrwt>
<rscale>  0 0.17287997E+04</rscale>
<asrwt>0</asrwt>
<pdfrwt beam="1">  1        1 0.34369935E+00 0.17287997E+04</pdfrwt>
<pdfrwt beam="2">  1       -1 0.51454571E-01 0.17287997E+04</pdfrwt>
<totfact> 0.74535024E+00</totfact>
</mgrwt>
</event>
<event>
 6    1  0.9988873E-007  0.2846460E+04  0.7818608E-02  0.8288988E-01
         -2   -1    0    0    0  501 -0.00000000000E+00  0.00000000000E+00  0.37790047614E+03  0.37790047614E+03  0.00000000000E+00 0.  1.
          2   -1    0    0  501    0  0.00000000000E+00 -0.00000000000E+00 -0.53600984704E+04  0.53600984704E+04  0.00000000000E+00 0. -1.
         23    2    1    2    0    0  0.63574348786E+03 -0.11955899817E+04 -0.33698207345E+04  0.36324430545E+04  0.73113435376E+02 0.  0.
         13    1    3    3    0    0  0.40331818619E+03 -0.76707244390E+03 -0.22487154455E+04  0.24099350299E+04  0.00000000000E+00 0. -1.
        -13    1    3    3    0    0  0.23242530167E+03 -0.42851753784E+03 -0.11211052890E+04  0.12225080246E+04  0.00000000000E+00 0.  1.
         22    1    1    2    0    0 -0.63574348786E+03  0.11955899817E+04 -0.16123772597E+04  0.21055558920E+04  0.00000000000E+00 0. -1.
<mgrwt>
<rscale>  0 0.28464601E+04</rscale>
<asrwt>0</asrwt>
<pdfrwt beam="1">  1        2 0.82463050E+00 0.28464601E+04</pdfrwt>
<pdfrwt beam="2">  1       -2 0.58138537E-01 0.28464601E+04</pdfrwt>
<totfact> 0.25197937E-02</totfact>
</mgrwt>
</event>
<event>
 6    1  0.9988873E-007  0.2993238E+04  0.7818608E-02  0.8245664E-01
          1   -1    0    0  501    0  0.00000000000E+00  0.00000000000E+00  0.43492400441E+04  0.43492400441E+04  0.00000000000E+00 0. -1.
         -1   -1    0    0    0  501 -0.00000000000E+00 -0.00000000000E+00 -0.51500233579E+03  0.51500233579E+03  0.00000000000E+00 0.  1.
         23    2    1    2    0    0 -0.21877136568E+03  0.10432240465E+04  0.36229247849E+04  0.37775821417E+04  0.91463207523E+02 0.  0.
         13    1    3    3    0    0 -0.17961028224E+03  0.97183034909E+03  0.33320639271E+04  0.34755379577E+04  0.00000000000E+00 0. -1.
        -13    1    3    3    0    0 -0.39161083442E+02  0.71393697424E+02  0.29086085785E+03  0.30204418405E+03  0.00000000000E+00 0.  1.
         22    1    1    2    0    0  0.21877136568E+03 -0.10432240465E+04  0.21131292337E+03  0.10866602382E+04  0.00000000000E+00 0.  1.
<mgrwt>
<rscale>  0 0.29932382E+04</rscale>
<asrwt>0</asrwt>
<pdfrwt beam="1">  1        1 0.66911383E+00 0.29932382E+04</pdfrwt>
<pdfrwt beam="2">  1       -1 0.79231132E-01 0.29932382E+04</pdfrwt>
<totfact> 0.61794174E-02</totfact>
</mgrwt>
</event>
<event>
 6    1  0.9988873E-007  0.1550258E+04  0.7818608E-02  0.8851703E-01
         -2   -1    0    0    0  501 -0.00000000000E+00  0.00000000000E+00  0.28627887559E+03  0.28627887559E+03  0.00000000000E+00 0.  1.
          2   -1    0    0  501    0  0.00000000000E+00 -0.00000000000E+00 -0.20987388837E+04  0.20987388837E+04  0.00000000000E+00 0. -1.
         23    2    1    2    0    0  0.60172666998E+03  0.38574850961E+03 -0.13596436216E+04  0.15388974499E+04  0.93261383297E+02 0.  0.
         11    1    3    3    0    0  0.32901678312E+03  0.19329783402E+03 -0.63043269887E+03  0.73692705475E+03  0.00000000000E+00 0.  1.
        -11    1    3    3    0    0  0.27270988686E+03  0.19245067559E+03 -0.72921092270E+03  0.80197039515E+03  0.00000000000E+00 0. -1.
         22    1    1    2    0    0 -0.60172666998E+03 -0.38574850961E+03 -0.45281638654E+03  0.84612030938E+03  0.00000000000E+00 0.  1.
<mgrwt>
<rscale>  0 0.15502575E+04</rscale>
<asrwt>0</asrwt>
<pdfrwt beam="1">  1        2 0.32288288E+00 0.15502575E+04</pdfrwt>
<pdfrwt beam="2">  1       -2 0.44042907E-01 0.15502575E+04</pdfrwt>
<totfact> 0.27710847E+01</totfact>
</mgrwt>
</event>
<event>
 6    1  0.9988873E-007  0.3861360E+04  0.7818608E-02  0.8033114E-01
          2   -1    0    0  501    0  0.00000000000E+00  0.00000000000E+00  0.36409860310E+04  0.36409860310E+04  0.00000000000E+00 0. -1.
         -2   -1    0    0    0  501 -0.00000000000E+00 -0.00000000000E+00 -0.10237680500E+04  0.10237680500E+04  0.00000000000E+00 0.  1.
         23    2    1    2    0    0 -0.17944839422E+04 -0.51839237660E+03  0.18942494237E+04  0.26618594733E+04  0.91715327613E+02 0.  0.
         13    1    3    3    0    0 -0.11882161483E+04 -0.38567674287E+03  0.12857618118E+04  0.17927039917E+04  0.00000000000E+00 0.  1.
        -13    1    3    3    0    0 -0.60626779389E+03 -0.13271563373E+03  0.60848761188E+03  0.86915548158E+03  0.00000000000E+00 0. -1.
         22    1    1    2    0    0  0.17944839422E+04  0.51839237660E+03  0.72296855725E+03  0.20028946077E+04  0.00000000000E+00 0.  1.
<mgrwt>
<rscale>  0 0.38613600E+04</rscale>
<asrwt>0</asrwt>
<pdfrwt beam="1">  1        2 0.56015169E+00 0.38613600E+04</pdfrwt>
<pdfrwt beam="2">  1       -2 0.15750278E+00 0.38613600E+04</pdfrwt>
<totfact> 0.13494948E-01</totfact>
</mgrwt>
</event>
<event>
 6    1  0.9988873E-007  0.3301029E+04  0.7818608E-02  0.8162634E-01
         -2   -1    0    0    0  501 -0.00000000000E+00  0.00000000000E+00  0.81037596328E+03  0.81037596328E+03  0.00000000000E+00 0.  1.
          2   -1    0    0  501    0  0.00000000000E+00 -0.00000000000E+00 -0.33616463620E+04  0.33616463620E+04  0.00000000000E+00 0. -1.
         23    2    1    2    0    0  0.16423051742E+04 -0.19841834233E+02 -0.10873168311E+04  0.19718586878E+04  0.91699563792E+02 0.  0.
         13    1    3    3    0    0  0.12477631848E+04 -0.16963263080E+02 -0.77830792108E+03  0.14707018521E+04  0.00000000000E+00 0.  1.
        -13    1    3    3    0    0  0.39454198938E+03 -0.28785711523E+01 -0.30900890999E+03  0.50115683574E+03  0.00000000000E+00 0. -1.
         22    1    1    2    0    0 -0.16423051742E+04  0.19841834233E+02 -0.14639535677E+04  0.22001636375E+04  0.00000000000E+00 0.  1.
<mgrwt>
<rscale>  0 0.33010286E+04</rscale>
<asrwt>0</asrwt>
<pdfrwt beam="1">  1        2 0.51717636E+00 0.33010286E+04</pdfrwt>
<pdfrwt beam="2">  1       -2 0.12467323E+00 0.33010286E+04</pdfrwt>
<totfact> 0.40758971E-01</totfact>
</mgrwt>
</event>
<event>
 6    1  0.9988873E-007  0.3318397E+04  0.7818608E-02  0.8158230E-01
         -2   -1    0    0    0  501 -0.00000000000E+00  0.00000000000E+00  0.75621656612E+03  0.75621656612E+03  0.00000000000E+00 0.  1.
          2   -1    0    0  501    0  0.00000000000E+00 -0.00000000000E+00 -0.36404113604E+04  0.36404113604E+04  0.00000000000E+00 0. -1.
         23    2    1    2    0    0  0.37862868296E+03 -0.16089055520E+04 -0.16110765247E+04  0.23102993611E+04  0.99894017413E+02 0.  0.
         13    1    3    3    0    0  0.31528593362E+02 -0.30022621684E+03 -0.28566730011E+03  0.41561477335E+03  0.00000000000E+00 0. -1.
        -13    1    3    3    0    0  0.34710008960E+03 -0.13086793351E+04 -0.13254092246E+04  0.18946845878E+04  0.00000000000E+00 0.  1.
         22    1    1    2    0    0 -0.37862868296E+03  0.16089055520E+04 -0.12731182696E+04  0.20863285654E+04  0.00000000000E+00 0. -1.
<mgrwt>
<rscale>  0 0.33183968E+04</rscale>
<asrwt>0</asrwt>
<pdfrwt beam="1">  1        2 0.56006329E+00 0.33183968E+04</pdfrwt>
<pdfrwt beam="2">  1       -2 0.11634101E+00 0.33183968E+04</pdfrwt>
<totfact> 0.30802320E-01</totfact>
</mgrwt>
</event>
<event>
 6    1  0.9988873E-007  0.1622999E+04  0.7818608E-02  0.8806542E-01
          1   -1    0    0  501    0  0.00000000000E+00  0.00000000000E+00  0.30981655636E+04  0.30981655636E+04  0.00000000000E+00 0. -1.
         -1   -1    0    0    0  501 -0.00000000000E+00 -0.00000000000E+00 -0.21255523177E+03  0.21255523177E+03  0.00000000000E+00 0.  1.
         23    2    1    2    0    0  0.24137400247E+03 -0.58511006586E+03  0.42084858551E+03  0.76598786943E+03  0.94914097749E+02 0.  0.
         13    1    3    3    0    0  0.39380400898E+02 -0.38734473459E+02  0.19440405737E+02  0.58558558591E+02  0.00000000000E+00 0. -1.
        -13    1    3    3    0    0  0.20199360157E+03 -0.54637559240E+03  0.40140817977E+03  0.70742931084E+03  0.00000000000E+00 0.  1.
         22    1    1    2    0    0 -0.24137400247E+03  0.58511006586E+03  0.24647617463E+04  0.25447329259E+04  0.00000000000E+00 0. -1.
<mgrwt>
<rscale>  0 0.16229988E+04</rscale>
<asrwt>0</asrwt>
<pdfrwt beam="1">  1        1 0.47664082E+00 0.16229988E+04</pdfrwt>
<pdfrwt beam="2">  1       -1 0.32700807E-01 0.16229988E+04</pdfrwt>
<totfact> 0.42712937E+00</totfact>
</mgrwt>
</event>
<event>
 6    1  0.9988873E-007  0.4359670E+04  0.7818608E-02  0.7935676E-01
         -2   -1    0    0    0  501 -0.00000000000E+00  0.00000000000E+00  0.28892504609E+04  0.28892504609E+04  0.00000000000E+00 0.  1.
          2   -1    0    0  501    0  0.00000000000E+00 -0.00000000000E+00 -0.16446067897E+04  0.16446067897E+04  0.00000000000E+00 0. -1.
         23    2    1    2    0    0  0.13777876752E+04  0.16813470955E+04  0.46720409223E+03  0.22252561087E+04  0.90874374805E+02 0.  0.
         13    1    3    3    0    0  0.26782043263E+03  0.27912761867E+03  0.10064580453E+03  0.39971188324E+03  0.00000000000E+00 0.  1.
        -13    1    3    3    0    0  0.11099672426E+04  0.14022194768E+04  0.36655828769E+03  0.18255442254E+04  0.00000000000E+00 0. -1.
         22    1    1    2    0    0 -0.13777876752E+04 -0.16813470955E+04  0.77743957894E+03  0.23086011419E+04  0.00000000000E+00 0. -1.
<mgrwt>
<rscale>  0 0.43596701E+04</rscale>
<asrwt>0</asrwt>
<pdfrwt beam="1">  1        2 0.25301643E+00 0.43596701E+04</pdfrwt>
<pdfrwt beam="2">  1       -2 0.44450007E+00 0.43596701E+04</pdfrwt>
<totfact> 0.30477643E-02</totfact>
</mgrwt>
</event>
<event>
 6    1  0.9988873E-007  0.2142855E+04  0.7818608E-02  0.8542597E-01
          2   -1    0    0  501    0  0.00000000000E+00  0.00000000000E+00  0.12034234535E+04  0.12034234535E+04  0.00000000000E+00 0. -1.
         -2   -1    0    0    0  501 -0.00000000000E+00 -0.00000000000E+00 -0.95390942193E+03  0.95390942193E+03  0.00000000000E+00 0.  1.
         23    2    1    2    0    0  0.78915070245E+03  0.63284990903E+03 -0.22443048332E+03  0.10402468260E+04  0.92122628406E+02 0.  0.
         11    1    3    3    0    0  0.54060202886E+03  0.37768122331E+03 -0.13985349794E+03  0.67413104137E+03  0.00000000000E+00 0. -1.
        -11    1    3    3    0    0  0.24854867359E+03  0.25516868572E+03 -0.84576985386E+02  0.36611578465E+03  0.00000000000E+00 0.  1.
         22    1    1    2    0    0 -0.78915070245E+03 -0.63284990903E+03  0.47394451485E+03  0.11170860494E+04  0.00000000000E+00 0. -1.
<mgrwt>
<rscale>  0 0.21428551E+04</rscale>
<asrwt>0</asrwt>
<pdfrwt beam="1">  1        2 0.18514207E+00 0.21428551E+04</pdfrwt>
<pdfrwt beam="2">  1       -2 0.14675529E+00 0.21428551E+04</pdfrwt>
<totfact> 0.54964450E+00</totfact>
</mgrwt>
</event>
<event>
 6    1  0.9988873E-007  0.9816849E+03  0.7818608E-02  0.9328864E-01
          1   -1    0    0  501    0  0.00000000000E+00  0.00000000000E+00  0.29205219264E+03  0.29205219264E+03  0.00000000000E+00 0. -1.
         -1   -1    0    0    0  501 -0.00000000000E+00 -0.00000000000E+00 -0.82494267326E+03  0.82494267326E+03  0.00000000000E+00 0.  1.
         23    2    1    2    0    0  0.10732945719E+03  0.44575052575E+03 -0.82907207414E+02  0.47457904280E+03  0.90213741952E+02 0.  0.
         11    1    3    3    0    0  0.36908190143E+02  0.79511398898E+02 -0.48153543964E+02  0.10001520310E+03  0.00000000000E+00 0. -1.
        -11    1    3    3    0    0  0.70421267047E+02  0.36623912685E+03 -0.34753663450E+02  0.37456383971E+03  0.00000000000E+00 0.  1.
         22    1    1    2    0    0 -0.10732945719E+03 -0.44575052575E+03 -0.44998327321E+03  0.64241582309E+03  0.00000000000E+00 0.  1.
<mgrwt>
<rscale>  0 0.98168491E+03</rscale>
<asrwt>0</asrwt>
<pdfrwt beam="1">  1        1 0.44931106E-01 0.98168491E+03</pdfrwt>
<pdfrwt beam="2">  1       -1 0.12691426E+00 0.98168491E+03</pdfrwt>
<totfact> 0.49119938E+01</totfact>
</mgrwt>
</event>
<event>
 6    1  0.9988873E-007  0.2251470E+04  0.7818608E-02  0.8497305E-01
          2   -1    0    0  501    0  0.00000000000E+00  0.00000000000E+00  0.35596735255E+04  0.35596735255E+04  0.00000000000E+00 0. -1.
         -2   -1    0    0    0  501 -0.00000000000E+00 -0.00000000000E+00 -0.35600993319E+03  0.35600993319E+03  0.00000000000E+00 0.  1.
         23    2    1    2    0    0 -0.10587764542E+04 -0.25502608394E+03  0.20914508613E+04  0.23590643523E+04  0.70512618099E+02 0.  0.
         11    1    3    3    0    0 -0.99431003753E+03 -0.22382342956E+03  0.19350806685E+04  0.21870726033E+04  0.00000000000E+00 0. -1.
        -11    1    3    3    0    0 -0.64466416689E+02 -0.31202654378E+02  0.15637019284E+03  0.17199174901E+03  0.00000000000E+00 0.  1.
         22    1    1    2    0    0  0.10587764542E+04  0.25502608394E+03  0.11122127310E+04  0.15566191064E+04  0.00000000000E+00 0. -1.
<mgrwt>
<rscale>  0 0.22514699E+04</rscale>
<asrwt>0</asrwt>
<pdfrwt beam="1">  1        2 0.54764206E+00 0.22514699E+04</pdfrwt>
<pdfrwt beam="2">  1       -2 0.54770761E-01 0.22514699E+04</pdfrwt>
<totfact> 0.21132607E+00</totfact>
</mgrwt>
</event>
<event>
 6    1  0.9988873E-007  0.9599546E+03  0.7818608E-02  0.9353590E-01
          1   -1    0    0  501    0  0.00000000000E+00  0.00000000000E+00  0.95335669133E+03  0.95335669133E+03  0.00000000000E+00 0. -1.
         -1   -1    0    0    0  501 -0.00000000000E+00 -0.00000000000E+00 -0.24164956043E+03  0.24164956043E+03  0.00000000000E+00 0.  1.
         23    2    1    2    0    0 -0.25203104530E+03 -0.37686356442E+02 -0.14087386873E+03  0.30515555069E+03  0.91293778366E+02 0.  0.
         13    1    3    3    0    0 -0.99033204017E+02 -0.24527569473E+02 -0.84392034588E+01  0.10237381168E+03  0.00000000000E+00 0. -1.
        -13    1    3    3    0    0 -0.15299784129E+03 -0.13158786968E+02 -0.13243466527E+03  0.20278173901E+03  0.00000000000E+00 0.  1.
         22    1    1    2    0    0  0.25203104530E+03  0.37686356442E+02  0.85258099963E+03  0.88985070106E+03  0.00000000000E+00 0. -1.
<mgrwt>
<rscale>  0 0.95995464E+03</rscale>
<asrwt>0</asrwt>
<pdfrwt beam="1">  1        1 0.14667026E+00 0.95995464E+03</pdfrwt>
<pdfrwt beam="2">  1       -1 0.37176856E-01 0.95995464E+03</pdfrwt>
<totfact> 0.11506455E+02</totfact>
</mgrwt>
</event>
<event>
 6    1  0.9988873E-007  0.3227969E+04  0.7818608E-02  0.8181469E-01
         -1   -1    0    0    0  501 -0.00000000000E+00  0.00000000000E+00  0.11281729255E+04  0.11281729255E+04  0.00000000000E+00 0.  1.
          1   -1    0    0  501    0  0.00000000000E+00 -0.00000000000E+00 -0.23089958863E+04  0.23089958863E+04  0.00000000000E+00 0. -1.
         23    2    1    2    0    0  0.66097345715E+03 -0.13995642394E+04 -0.10862119144E+03  0.15542767263E+04  0.91168016429E+02 0.  0.
         13    1    3    3    0    0  0.23900280266E+03 -0.43086370154E+03 -0.62407624259E+02  0.49664935372E+03  0.00000000000E+00 0.  1.
        -13    1    3    3    0    0  0.42197065449E+03 -0.96870053790E+03 -0.46213567181E+02  0.10576273725E+04  0.00000000000E+00 0. -1.
         22    1    1    2    0    0 -0.66097345715E+03  0.13995642394E+04 -0.10722017693E+04  0.18828920855E+04  0.00000000000E+00 0. -1.
<mgrwt>
<rscale>  0 0.32279694E+04</rscale>
<asrwt>0</asrwt>
<pdfrwt beam="1">  1        1 0.35523013E+00 0.32279694E+04</pdfrwt>
<pdfrwt beam="2">  1       -1 0.17356507E+00 0.32279694E+04</pdfrwt>
<totfact> 0.35481422E-01</totfact>
</mgrwt>
</event>
<event>
 6    1  0.9988873E-007  0.1040586E+04  0.7818608E-02  0.9265118E-01
         -2   -1    0    0    0  501 -0.00000000000E+00  0.00000000000E+00  0.30230961643E+03  0.30230961643E+03  0.00000000000E+00 0.  1.
          2   -1    0    0  501    0  0.00000000000E+00 -0.00000000000E+00 -0.89545562616E+03  0.89545562616E+03  0.00000000000E+00 0. -1.
         23    2    1    2    0    0  0.16382933729E+03  0.10608869766E+03  0.25126278912E+03  0.33109282287E+03  0.91622075028E+02 0.  0.
         11    1    3    3    0    0  0.14167227437E+03  0.12289766606E+03  0.22398211978E+03  0.29213500240E+03  0.00000000000E+00 0. -1.
        -11    1    3    3    0    0  0.22157062919E+02 -0.16808968401E+02  0.27280669340E+02  0.38957820467E+02  0.00000000000E+00 0.  1.
         22    1    1    2    0    0 -0.16382933729E+03 -0.10608869766E+03 -0.84440879885E+03  0.86667241972E+03  0.00000000000E+00 0. -1.
<mgrwt>
<rscale>  0 0.10405861E+04</rscale>
<asrwt>0</asrwt>
<pdfrwt beam="1">  1        2 0.13776240E+00 0.10405861E+04</pdfrwt>
<pdfrwt beam="2">  1       -2 0.46509172E-01 0.10405861E+04</pdfrwt>
<totfact> 0.12890001E+02</totfact>
</mgrwt>
</event>
<event>
 6    1  0.9988873E-007  0.1056072E+04  0.7818608E-02  0.9249098E-01
          1   -1    0    0  501    0  0.00000000000E+00  0.00000000000E+00  0.28910319080E+04  0.28910319080E+04  0.00000000000E+00 0. -1.
         -1   -1    0    0    0  501 -0.00000000000E+00 -0.00000000000E+00 -0.96443684112E+02  0.96443684112E+02  0.00000000000E+00 0.  1.
         23    2    1    2    0    0 -0.34677946011E+03  0.22338123025E+03  0.23220453452E+04  0.23602181170E+04  0.92627243587E+02 0.  0.
         11    1    3    3    0    0  0.39867521702E+01  0.77433436211E+00  0.62471097435E+01  0.74511855914E+01  0.00000000000E+00 0. -1.
        -11    1    3    3    0    0 -0.35076621228E+03  0.22260689589E+03  0.23157982355E+04  0.23527669314E+04  0.00000000000E+00 0.  1.
         22    1    1    2    0    0  0.34677946011E+03 -0.22338123025E+03  0.47254287864E+03  0.62725747515E+03  0.00000000000E+00 0.  1.
<mgrwt>
<rscale>  0 0.10560715E+04</rscale>
<asrwt>0</asrwt>
<pdfrwt beam="1">  1        1 0.44477407E+00 0.10560715E+04</pdfrwt>
<pdfrwt beam="2">  1       -1 0.14837492E-01 0.10560715E+04</pdfrwt>
<totfact> 0.24419562E+01</totfact>
</mgrwt>
</event>
<event>
 6    1  0.9988873E-007  0.1623245E+04  0.7818608E-02  0.8806393E-01
          2   -1    0    0  501    0  0.00000000000E+00  0.00000000000E+00  0.14506222860E+04  0.14506222860E+04  0.00000000000E+00 0. -1.
         -2   -1    0    0    0  501 -0.00000000000E+00 -0.00000000000E+00 -0.45410257420E+03  0.45410257420E+03  0.00000000000E+00 0.  1.
         23    2    1    2    0    0 -0.68884855222E+03 -0.27845201698E+03  0.12381106509E+03  0.75857119001E+03  0.89739717078E+02 0.  0.
         11    1    3    3    0    0 -0.24022431183E+03 -0.14355799632E+03  0.40864128841E+02  0.28281883836E+03  0.00000000000E+00 0. -1.
        -11    1    3    3    0    0 -0.44862424038E+03 -0.13489402066E+03  0.82946936246E+02  0.47575235165E+03  0.00000000000E+00 0.  1.
         22    1    1    2    0    0  0.68884855222E+03  0.27845201698E+03  0.87270864672E+03  0.11461536702E+04  0.00000000000E+00 0. -1.
<mgrwt>
<rscale>  0 0.16232453E+04</rscale>
<asrwt>0</asrwt>
<pdfrwt beam="1">  1        2 0.22317266E+00 0.16232453E+04</pdfrwt>
<pdfrwt beam="2">  1       -2 0.69861935E-01 0.16232453E+04</pdfrwt>
<totfact> 0.24194518E+01</totfact>
</mgrwt>
</event>
<event>
 6    1  0.9988873E-007  0.1920542E+04  0.7818608E-02  0.8644698E-01
         -1   -1    0    0    0  501 -0.00000000000E+00  0.00000000000E+00  0.22751863300E+03  0.22751863300E+03  0.00000000000E+00 0.  1.
          1   -1    0    0  501    0  0.00000000000E+00 -0.00000000000E+00 -0.40529446817E+04  0.40529446817E+04  0.00000000000E+00 0. -1.
         23    2    1    2    0    0  0.22578754501E+03 -0.89798089376E+03 -0.13695282883E+04  0.16558140980E+04  0.93610329238E+02 0.  0.
         11    1    3    3    0    0  0.20227689937E+03 -0.74565126429E+03 -0.11946162048E+04  0.14226804380E+04  0.00000000000E+00 0. -1.
        -11    1    3    3    0    0  0.23510645639E+02 -0.15232962947E+03 -0.17491208345E+03  0.23313365996E+03  0.00000000000E+00 0.  1.
         22    1    1    2    0    0 -0.22578754501E+03  0.89798089376E+03 -0.24558977604E+04  0.26246492167E+04  0.00000000000E+00 0.  1.
<mgrwt>
<rscale>  0 0.19205420E+04</rscale>
<asrwt>0</asrwt>
<pdfrwt beam="1">  1        1 0.62352986E+00 0.19205420E+04</pdfrwt>
<pdfrwt beam="2">  1       -1 0.35002872E-01 0.19205420E+04</pdfrwt>
<totfact> 0.63034569E-01</totfact>
</mgrwt>
</event>
<event>
 6    1  0.9988873E-007  0.3732018E+04  0.7818608E-02  0.8060903E-01
          2   -1    0    0  501    0  0.00000000000E+00  0.00000000000E+00  0.29182875262E+04  0.29182875262E+04  0.00000000000E+00 0. -1.
         -2   -1    0    0    0  501 -0.00000000000E+00 -0.00000000000E+00 -0.11931619615E+04  0.11931619615E+04  0.00000000000E+00 0.  1.
         23    2    1    2    0    0  0.88103293944E+03  0.59016732302E+03 -0.82686371699E+03  0.13479072312E+04  0.92918178571E+02 0.  0.
         13    1    3    3    0    0  0.62918447651E+03  0.42268021835E+03 -0.53651969607E+03  0.92864689562E+03  0.00000000000E+00 0. -1.
        -13    1    3    3    0    0  0.25184846293E+03  0.16748710467E+03 -0.29034402092E+03  0.41926033558E+03  0.00000000000E+00 0.  1.
         22    1    1    2    0    0 -0.88103293944E+03 -0.59016732302E+03  0.25519892817E+04  0.27635422565E+04  0.00000000000E+00 0. -1.
<mgrwt>
<rscale>  0 0.37320180E+04</rscale>
<asrwt>0</asrwt>
<pdfrwt beam="1">  1        2 0.44896731E+00 0.37320180E+04</pdfrwt>
<pdfrwt beam="2">  1       -2 0.18356338E+00 0.37320180E+04</pdfrwt>
<totfact> 0.27034991E-01</totfact>
</mgrwt>
</event>
<event>
 6    1  0.9988873E-007  0.3277738E+04  0.7818608E-02  0.8168583E-01
          2   -1    0    0  501    0  0.00000000000E+00  0.00000000000E+00  0.25081692096E+04  0.25081692096E+04  0.00000000000E+00 0. -1.
         -2   -1    0    0    0  501 -0.00000000000E+00 -0.00000000000E+00 -0.10708573892E+04  0.10708573892E+04  0.00000000000E+00 0.  1.
         23    2    1    2    0    0  0.22899563462E+03 -0.12358939630E+04  0.18654332250E+04  0.22511859361E+04  0.90133865557E+02 0.  0.
         11    1    3    3    0    0  0.10235002447E+03 -0.70283208234E+03  0.11157445075E+04  0.13226240092E+04  0.00000000000E+00 0. -1.
        -11    1    3    3    0    0  0.12664561015E+03 -0.53306188061E+03  0.74968871744E+03  0.92856192695E+03  0.00000000000E+00 0.  1.
         22    1    1    2    0    0 -0.22899563462E+03  0.12358939630E+04 -0.42812140462E+03  0.13278406627E+04  0.00000000000E+00 0.  1.
<mgrwt>
<rscale>  0 0.32777380E+04</rscale>
<asrwt>0</asrwt>
<pdfrwt beam="1">  1        2 0.38587219E+00 0.32777380E+04</pdfrwt>
<pdfrwt beam="2">  1       -2 0.16474729E+00 0.32777380E+04</pdfrwt>
<totfact> 0.66972724E-01</totfact>
</mgrwt>
</event>
<event>
 6    1  0.9988873E-007  0.3666682E+04  0.7818608E-02  0.8075386E-01
          2   -1    0    0  501    0  0.00000000000E+00  0.00000000000E+00  0.20485115010E+04  0.20485115010E+04  0.00000000000E+00 0. -1.
         -2   -1    0    0    0  501 -0.00000000000E+00 -0.00000000000E+00 -0.16407710429E+04  0.16407710429E+04  0.00000000000E+00 0.  1.
         23    2    1    2    0    0 -0.70622868511E+03 -0.16342913263E+04  0.63955554428E+03  0.18938980923E+04  0.90286183415E+02 0.  0.
         13    1    3    3    0    0 -0.43313232475E+03 -0.95280987511E+03  0.33341439251E+03  0.10984604799E+04  0.00000000000E+00 0.  1.
        -13    1    3    3    0    0 -0.27309636036E+03 -0.68148145120E+03  0.30614115177E+03  0.79543761238E+03  0.00000000000E+00 0. -1.
         22    1    1    2    0    0  0.70622868511E+03  0.16342913263E+04 -0.23181508621E+03  0.17953844516E+04  0.00000000000E+00 0.  1.
<mgrwt>
<rscale>  0 0.36666815E+04</rscale>
<asrwt>0</asrwt>
<pdfrwt beam="1">  1        2 0.31515561E+00 0.36666815E+04</pdfrwt>
<pdfrwt beam="2">  1       -2 0.25242632E+00 0.36666815E+04</pdfrwt>
<totfact> 0.31600461E-01</totfact>
</mgrwt>
</event>
<event>
 6    1  0.9988873E-007  0.1977748E+04  0.7818608E-02  0.8617095E-01
         -2   -1    0    0    0  501 -0.00000000000E+00  0.00000000000E+00  0.43571457761E+03  0.43571457761E+03  0.00000000000E+00 0.  1.
          2   -1    0    0  501    0  0.00000000000E+00 -0.00000000000E+00 -0.22442945157E+04  0.22442945157E+04  0.00000000000E+00 0. -1.
         23    2    1    2    0    0 -0.60887857553E+03  0.76992642056E+03 -0.77387740186E+03  0.12537800965E+04  0.97767502030E+02 0.  0.
         13    1    3    3    0    0 -0.36909633485E+03  0.39950798022E+03 -0.39537176209E+03  0.67242662122E+03  0.00000000000E+00 0.  1.
        -13    1    3    3    0    0 -0.23978224068E+03  0.37041844034E+03 -0.37850563977E+03  0.58135347529E+03  0.00000000000E+00 0. -1.
         22    1    1    2    0    0  0.60887857553E+03 -0.76992642056E+03 -0.10347025362E+04  0.14262289968E+04  0.00000000000E+00 0. -1.
<mgrwt>
<rscale>  0 0.19777480E+04</rscale>
<asrwt>0</asrwt>
<pdfrwt beam="1">  1        2 0.34527608E+00 0.19777480E+04</pdfrwt>
<pdfrwt beam="2">  1       -2 0.67033013E-01 0.19777480E+04</pdfrwt>
<totfact> 0.92695902E+00</totfact>
</mgrwt>
</event>
<event>
 6    1  0.9988873E-007  0.1203422E+04  0.7818608E-02  0.9109867E-01
          2   -1    0    0  501    0  0.00000000000E+00  0.00000000000E+00  0.98216259024E+03  0.98216259024E+03  0.00000000000E+00 0. -1.
         -2   -1    0    0    0  501 -0.00000000000E+00 -0.00000000000E+00 -0.36863132615E+03  0.36863132615E+03  0.00000000000E+00 0.  1.
         23    2    1    2    0    0 -0.26412956050E+03  0.16742901981E+03 -0.26368599903E+03  0.41950071438E+03  0.93024952954E+02 0.  0.
         13    1    3    3    0    0 -0.26741072415E+03  0.14877085554E+03 -0.23843723511E+03  0.38793501767E+03  0.00000000000E+00 0. -1.
        -13    1    3    3    0    0  0.32811636496E+01  0.18658164275E+02 -0.25248763923E+02  0.31565696708E+02  0.00000000000E+00 0.  1.
         22    1    1    2    0    0  0.26412956050E+03 -0.16742901981E+03  0.87721726311E+03  0.93129320201E+03  0.00000000000E+00 0. -1.
<mgrwt>
<rscale>  0 0.12034216E+04</rscale>
<asrwt>0</asrwt>
<pdfrwt beam="1">  1        2 0.15110194E+00 0.12034216E+04</pdfrwt>
<pdfrwt beam="2">  1       -2 0.56712512E-01 0.12034216E+04</pdfrwt>
<totfact> 0.74417624E+01</totfact>
</mgrwt>
</event>
<event>
 6    1  0.9988873E-007  0.1298775E+04  0.7818608E-02  0.9030537E-01
          1   -1    0    0  501    0  0.00000000000E+00  0.00000000000E+00  0.37701126276E+03  0.37701126276E+03  0.00000000000E+00 0. -1.
         -1   -1    0    0    0  501 -0.00000000000E+00 -0.00000000000E+00 -0.11185458839E+04  0.11185458839E+04  0.00000000000E+00 0.  1.
         23    2    1    2    0    0 -0.23111413296E+03 -0.81310474458E+02 -0.10612475793E+04  0.10927650027E+04  0.88678017836E+02 0.  0.
         13    1    3    3    0    0 -0.63171883428E+02 -0.12766371903E+02 -0.46767746806E+03  0.47209732179E+03  0.00000000000E+00 0.  1.
        -13    1    3    3    0    0 -0.16794224953E+03 -0.68544102555E+02 -0.59357011119E+03  0.62066768086E+03  0.00000000000E+00 0. -1.
         22    1    1    2    0    0  0.23111413296E+03  0.81310474458E+02  0.31971295810E+03  0.40279214402E+03  0.00000000000E+00 0. -1.
<mgrwt>
<rscale>  0 0.12987754E+04</rscale>
<asrwt>0</asrwt>
<pdfrwt beam="1">  1        1 0.58001732E-01 0.12987754E+04</pdfrwt>
<pdfrwt beam="2">  1       -1 0.17208398E+00 0.12987754E+04</pdfrwt>
<totfact> 0.15150849E+01</totfact>
</mgrwt>
</event>
<event>
 6    1  0.9988873E-007  0.4644136E+04  0.7818608E-02  0.7885878E-01
          1   -1    0    0  501    0  0.00000000000E+00  0.00000000000E+00  0.36035683782E+04  0.36035683782E+04  0.00000000000E+00 0. -1.
         -1   -1    0    0    0  501 -0.00000000000E+00 -0.00000000000E+00 -0.14962945003E+04  0.14962945003E+04  0.00000000000E+00 0.  1.
         23    2    1    2    0    0 -0.51117123542E+03  0.17650559234E+04 -0.50323045123E+03  0.19074576259E+04  0.91843687013E+02 0.  0.
         11    1    3    3    0    0 -0.90388714471E+02  0.44030656215E+03 -0.10552736254E+03  0.46170987928E+03  0.00000000000E+00 0.  1.
        -11    1    3    3    0    0 -0.42078252094E+03  0.13247493613E+04 -0.39770308869E+03  0.14457477466E+04  0.00000000000E+00 0. -1.
         22    1    1    2    0    0  0.51117123542E+03 -0.17650559234E+04  0.26105043291E+04  0.31924052526E+04  0.00000000000E+00 0. -1.
<mgrwt>
<rscale>  0 0.46441359E+04</rscale>
<asrwt>0</asrwt>
<pdfrwt beam="1">  1        1 0.55439513E+00 0.46441359E+04</pdfrwt>
<pdfrwt beam="2">  1       -1 0.23019916E+00 0.46441359E+04</pdfrwt>
<totfact> 0.14419417E-02</totfact>
</mgrwt>
</event>
<event>
 6    1  0.9988873E-007  0.2820531E+04  0.7818608E-02  0.8296923E-01
         -1   -1    0    0    0  501 -0.00000000000E+00  0.00000000000E+00  0.76798319777E+03  0.76798319777E+03  0.00000000000E+00 0.  1.
          1   -1    0    0  501    0  0.00000000000E+00 -0.00000000000E+00 -0.25897034323E+04  0.25897034323E+04  0.00000000000E+00 0. -1.
         23    2    1    2    0    0 -0.53152358104E+03 -0.94598783053E+03 -0.19813349856E+04  0.22609245039E+04  0.93171852908E+02 0.  0.
         13    1    3    3    0    0 -0.27780162252E+03 -0.40789508112E+03 -0.85937875518E+03  0.99100150531E+03  0.00000000000E+00 0. -1.
        -13    1    3    3    0    0 -0.25372195852E+03 -0.53809274941E+03 -0.11219562305E+04  0.12699229986E+04  0.00000000000E+00 0.  1.
         22    1    1    2    0    0  0.53152358104E+03  0.94598783053E+03  0.15961475110E+03  0.10967621262E+04  0.00000000000E+00 0.  1.
<mgrwt>
<rscale>  0 0.28205310E+04</rscale>
<asrwt>0</asrwt>
<pdfrwt beam="1">  1        1 0.39841592E+00 0.28205310E+04</pdfrwt>
<pdfrwt beam="2">  1       -1 0.11815126E+00 0.28205310E+04</pdfrwt>
<totfact> 0.65162693E-01</totfact>
</mgrwt>
</event>
<event>
 6    1  0.9988873E-007  0.3985602E+04  0.7818608E-02  0.8007457E-01
         -2   -1    0    0    0  501 -0.00000000000E+00  0.00000000000E+00  0.11552662662E+04  0.11552662662E+04  0.00000000000E+00 0.  1.
          2   -1    0    0  501    0  0.00000000000E+00 -0.00000000000E+00 -0.34375240334E+04  0.34375240334E+04  0.00000000000E+00 0. -1.
         23    2    1    2    0    0  0.11611411890E+04  0.12531809683E+04 -0.23216779945E+04  0.28839119089E+04  0.89709464808E+02 0.  0.
         11    1    3    3    0    0  0.78548857769E+03  0.90710303245E+03 -0.16412129796E+04  0.20330785183E+04  0.00000000000E+00 0. -1.
        -11    1    3    3    0    0  0.37565261129E+03  0.34607793580E+03 -0.68046501494E+03  0.85083339061E+03  0.00000000000E+00 0.  1.
         22    1    1    2    0    0 -0.11611411890E+04 -0.12531809683E+04  0.39420227382E+02  0.17088783907E+04  0.00000000000E+00 0.  1.
<mgrwt>
<rscale>  0 0.39856019E+04</rscale>
<asrwt>0</asrwt>
<pdfrwt beam="1">  1        2 0.52884985E+00 0.39856019E+04</pdfrwt>
<pdfrwt beam="2">  1       -2 0.17773327E+00 0.39856019E+04</pdfrwt>
<totfact> 0.13320217E-01</totfact>
</mgrwt>
</event>
<event>
 6    1  0.9988873E-007  0.1883119E+04  0.7818608E-02  0.8663305E-01
         -1   -1    0    0    0  501 -0.00000000000E+00  0.00000000000E+00  0.85160508502E+03  0.85160508502E+03  0.00000000000E+00 0.  1.
          1   -1    0    0  501    0  0.00000000000E+00 -0.00000000000E+00 -0.10410162609E+04  0.10410162609E+04  0.00000000000E+00 0. -1.
         23    2    1    2    0    0 -0.14369177451E+02  0.61765180760E+03  0.61615937751E+03  0.87741489147E+03  0.92218678121E+02 0.  0.
         11    1    3    3    0    0 -0.15129541703E+02  0.12496726285E+03  0.79440239324E+02  0.14885050030E+03  0.00000000000E+00 0.  1.
        -11    1    3    3    0    0  0.76036425168E+00  0.49268454475E+03  0.53671913819E+03  0.72856439117E+03  0.00000000000E+00 0. -1.
         22    1    1    2    0    0  0.14369177451E+02 -0.61765180760E+03 -0.80557055342E+03  0.10152064545E+04  0.00000000000E+00 0. -1.
<mgrwt>
<rscale>  0 0.18831195E+04</rscale>
<asrwt>0</asrwt>
<pdfrwt beam="1">  1        1 0.16015635E+00 0.18831195E+04</pdfrwt>
<pdfrwt beam="2">  1       -1 0.13101617E+00 0.18831195E+04</pdfrwt>
<totfact> 0.65518271E+00</totfact>
</mgrwt>
</event>
<event>
 6    1  0.9988873E-007  0.3339572E+04  0.7818608E-02  0.8152899E-01
          1   -1    0    0  501    0  0.00000000000E+00  0.00000000000E+00  0.11818837472E+04  0.11818837472E+04  0.00000000000E+00 0. -1.
         -1   -1    0    0    0  501 -0.00000000000E+00 -0.00000000000E+00 -0.23591028519E+04  0.23591028519E+04  0.00000000000E+00 0.  1.
         23    2    1    2    0    0 -0.67578464180E+03 -0.10897271368E+04 -0.17209803531E+04  0.21481957282E+04  0.93709102577E+02 0.  0.
         13    1    3    3    0    0 -0.16470594248E+03 -0.22157591912E+03 -0.32047230161E+03  0.42299696396E+03  0.00000000000E+00 0. -1.
        -13    1    3    3    0    0 -0.51107869932E+03 -0.86815121772E+03 -0.14005080515E+04  0.17251987643E+04  0.00000000000E+00 0.  1.
         22    1    1    2    0    0  0.67578464180E+03  0.10897271368E+04  0.54376124837E+03  0.13927908709E+04  0.00000000000E+00 0.  1.
<mgrwt>
<rscale>  0 0.33395720E+04</rscale>
<asrwt>0</asrwt>
<pdfrwt beam="1">  1        1 0.18182827E+00 0.33395720E+04</pdfrwt>
<pdfrwt beam="2">  1       -1 0.36293890E+00 0.33395720E+04</pdfrwt>
<totfact> 0.11601723E-01</totfact>
</mgrwt>
</event>
<event>
 6    1  0.9988873E-007  0.4105140E+04  0.7818608E-02  0.7983666E-01
          2   -1    0    0  501    0  0.00000000000E+00  0.00000000000E+00  0.10656185379E+04  0.10656185379E+04  0.00000000000E+00 0. -1.
         -2   -1    0    0    0  501 -0.00000000000E+00 -0.00000000000E+00 -0.39536140723E+04  0.39536140723E+04  0.00000000000E+00 0.  1.
         23    2    1    2    0    0  0.12321355146E+04  0.16321152649E+04 -0.12447096238E+04  0.23958098939E+04  0.92977608703E+02 0.  0.
         11    1    3    3    0    0  0.37105252925E+03  0.45104704485E+03 -0.39576080413E+03  0.70551401844E+03  0.00000000000E+00 0.  1.
        -11    1    3    3    0    0  0.86108298537E+03  0.11810682200E+04 -0.84894881967E+03  0.16902958754E+04  0.00000000000E+00 0. -1.
         22    1    1    2    0    0 -0.12321355146E+04 -0.16321152649E+04 -0.16432859106E+04  0.26234227163E+04  0.00000000000E+00 0. -1.
<mgrwt>
<rscale>  0 0.41051404E+04</rscale>
<asrwt>0</asrwt>
<pdfrwt beam="1">  1        2 0.16394132E+00 0.41051404E+04</pdfrwt>
<pdfrwt beam="2">  1       -2 0.60824831E+00 0.41051404E+04</pdfrwt>
<totfact> 0.84431759E-03</totfact>
</mgrwt>
</event>
<event>
 6    1  0.9988873E-007  0.1537288E+04  0.7818608E-02  0.8860028E-01
          1   -1    0    0  501    0  0.00000000000E+00  0.00000000000E+00  0.11209640562E+04  0.11209640562E+04  0.00000000000E+00 0. -1.
         -1   -1    0    0    0  501 -0.00000000000E+00 -0.00000000000E+00 -0.52705854827E+03  0.52705854827E+03  0.00000000000E+00 0.  1.
         23    2    1    2    0    0  0.59457703419E+03 -0.34504574574E+02 -0.21875607443E+03  0.64048537802E+03  0.87492194515E+02 0.  0.
         13    1    3    3    0    0  0.22571690764E+03  0.51889095223E+01 -0.12399503974E+03  0.25758458234E+03  0.00000000000E+00 0. -1.
        -13    1    3    3    0    0  0.36886012655E+03 -0.39693484096E+02 -0.94761034689E+02  0.38290079568E+03  0.00000000000E+00 0.  1.
         22    1    1    2    0    0 -0.59457703419E+03  0.34504574574E+02  0.81266158241E+03  0.10075372265E+04  0.00000000000E+00 0. -1.
<mgrwt>
<rscale>  0 0.15372881E+04</rscale>
<asrwt>0</asrwt>
<pdfrwt beam="1">  1        1 0.17245601E+00 0.15372881E+04</pdfrwt>
<pdfrwt beam="2">  1       -1 0.81085931E-01 0.15372881E+04</pdfrwt>
<totfact> 0.17874685E+01</totfact>
</mgrwt>
</event>
<event>
 6    1  0.9988873E-007  0.2259398E+04  0.7818608E-02  0.8494104E-01
         -2   -1    0    0    0  501 -0.00000000000E+00  0.00000000000E+00  0.42389740286E+03  0.42389740286E+03  0.00000000000E+00 0.  1.
          2   -1    0    0  501    0  0.00000000000E+00 -0.00000000000E+00 -0.30106805731E+04  0.30106805731E+04  0.00000000000E+00 0. -1.
         23    2    1    2    0    0 -0.59367242640E+03  0.39241505553E+03 -0.26257857127E+04  0.27218664467E+04  0.85847648766E+02 0.  0.
         11    1    3    3    0    0 -0.36445359581E+03  0.23635458536E+03 -0.17569269872E+04  0.18098293709E+04  0.00000000000E+00 0. -1.
        -11    1    3    3    0    0 -0.22921883059E+03  0.15606047017E+03 -0.86885872549E+03  0.91203707573E+03  0.00000000000E+00 0.  1.
         22    1    1    2    0    0  0.59367242640E+03 -0.39241505553E+03  0.39002542461E+02  0.71271152929E+03  0.00000000000E+00 0.  1.
<mgrwt>
<rscale>  0 0.22593979E+04</rscale>
<asrwt>0</asrwt>
<pdfrwt beam="1">  1        2 0.46318163E+00 0.22593979E+04</pdfrwt>
<pdfrwt beam="2">  1       -2 0.65214984E-01 0.22593979E+04</pdfrwt>
<totfact> 0.33839048E+00</totfact>
</mgrwt>
</event>
<event>
 6    1  0.9988873E-007  0.2558926E+04  0.7818608E-02  0.8382288E-01
          2   -1    0    0  501    0  0.00000000000E+00  0.00000000000E+00  0.11455890331E+04  0.11455890331E+04  0.00000000000E+00 0. -1.
         -2   -1    0    0    0  501 -0.00000000000E+00 -0.00000000000E+00 -0.14289814826E+04  0.14289814826E+04  0.00000000000E+00 0.  1.
         23    2    1    2    0    0 -0.25771782554E+03  0.48980610619E+03 -0.13006338851E+04  0.14165080660E+04  0.92293546405E+02 0.  0.
         13    1    3    3    0    0 -0.20202287072E+03  0.29990109058E+03 -0.89076202359E+03  0.96135887529E+03  0.00000000000E+00 0.  1.
        -13    1    3    3    0    0 -0.55694954813E+02  0.18990501561E+03 -0.40987186147E+03  0.45514919067E+03  0.00000000000E+00 0. -1.
         22    1    1    2    0    0  0.25771782554E+03 -0.48980610619E+03  0.10172414356E+04  0.11580624498E+04  0.00000000000E+00 0. -1.
<mgrwt>
<rscale>  0 0.25589260E+04</rscale>
<asrwt>0</asrwt>
<pdfrwt beam="1">  1        2 0.17624447E+00 0.25589260E+04</pdfrwt>
<pdfrwt beam="2">  1       -2 0.21984330E+00 0.25589260E+04</pdfrwt>
<totfact> 0.17959844E+00</totfact>
</mgrwt>
</event>
<event>
 6    1  0.9988873E-007  0.2833199E+04  0.7818608E-02  0.8293035E-01
         -2   -1    0    0    0  501 -0.00000000000E+00  0.00000000000E+00  0.11130099619E+04  0.11130099619E+04  0.00000000000E+00 0.  1.
          2   -1    0    0  501    0  0.00000000000E+00 -0.00000000000E+00 -0.18029969311E+04  0.18029969311E+04  0.00000000000E+00 0. -1.
         23    2    1    2    0    0 -0.42430908031E+03 -0.16895992506E+03  0.10331602702E+04  0.11333622116E+04  0.92217713566E+02 0.  0.
         11    1    3    3    0    0 -0.34027839487E+03 -0.93663829335E+02  0.79560906705E+03  0.87037697954E+03  0.00000000000E+00 0. -1.
        -11    1    3    3    0    0 -0.84030685436E+02 -0.75296095725E+02  0.23755120317E+03  0.26298523201E+03  0.00000000000E+00 0.  1.
         22    1    1    2    0    0  0.42430908031E+03  0.16895992506E+03 -0.17231472394E+04  0.17826446815E+04  0.00000000000E+00 0. -1.
<mgrwt>
<rscale>  0 0.28331986E+04</rscale>
<asrwt>0</asrwt>
<pdfrwt beam="1">  1        2 0.27738414E+00 0.28331986E+04</pdfrwt>
<pdfrwt beam="2">  1       -2 0.17123230E+00 0.28331986E+04</pdfrwt>
<totfact> 0.15583349E+00</totfact>
</mgrwt>
</event>
<event>
 6    1  0.9988873E-007  0.2582472E+04  0.7818608E-02  0.8374180E-01
         -1   -1    0    0    0  501 -0.00000000000E+00  0.00000000000E+00  0.18472715326E+04  0.18472715326E+04  0.00000000000E+00 0.  1.
          1   -1    0    0  501    0  0.00000000000E+00 -0.00000000000E+00 -0.90256888741E+03  0.90256888741E+03  0.00000000000E+00 0. -1.
         23    2    1    2    0    0 -0.72822527174E+03 -0.67925394102E+03 -0.39958123227E+03  0.10768798389E+04  0.91143093224E+02 0.  0.
         11    1    3    3    0    0 -0.26679010867E+03 -0.20002606966E+03 -0.15933885726E+03  0.36956225735E+03  0.00000000000E+00 0. -1.
        -11    1    3    3    0    0 -0.46143516307E+03 -0.47922787136E+03 -0.24024237501E+03  0.70731758155E+03  0.00000000000E+00 0.  1.
         22    1    1    2    0    0  0.72822527174E+03  0.67925394102E+03  0.13442838775E+04  0.16729605811E+04  0.00000000000E+00 0.  1.
<mgrwt>
<rscale>  0 0.25824715E+04</rscale>
<asrwt>0</asrwt>
<pdfrwt beam="1">  1        1 0.13885675E+00 0.25824715E+04</pdfrwt>
<pdfrwt beam="2">  1       -1 0.28419562E+00 0.25824715E+04</pdfrwt>
<totfact> 0.66780906E-01</totfact>
</mgrwt>
</event>
<event>
 6    1  0.9988873E-007  0.3042993E+04  0.7818608E-02  0.8231559E-01
         -2   -1    0    0    0  501 -0.00000000000E+00  0.00000000000E+00  0.22495997979E+04  0.22495997979E+04  0.00000000000E+00 0.  1.
          2   -1    0    0  501    0  0.00000000000E+00 -0.00000000000E+00 -0.10290506930E+04  0.10290506930E+04  0.00000000000E+00 0. -1.
         23    2    1    2    0    0  0.11458307463E+04  0.82549165592E+03  0.12173071984E+04  0.18664270372E+04  0.85723374687E+02 0.  0.
         11    1    3    3    0    0  0.75117560510E+03  0.56071879385E+03  0.85632524844E+03  0.12696311616E+04  0.00000000000E+00 0.  1.
        -11    1    3    3    0    0  0.39465514117E+03  0.26477286207E+03  0.36098194992E+03  0.59679587558E+03  0.00000000000E+00 0. -1.
         22    1    1    2    0    0 -0.11458307463E+04 -0.82549165592E+03  0.32419066032E+01  0.14122234537E+04  0.00000000000E+00 0. -1.
<mgrwt>
<rscale>  0 0.30429934E+04</rscale>
<asrwt>0</asrwt>
<pdfrwt beam="1">  1        2 0.15831549E+00 0.30429934E+04</pdfrwt>
<pdfrwt beam="2">  1       -2 0.34609228E+00 0.30429934E+04</pdfrwt>
<totfact> 0.33886658E-01</totfact>
</mgrwt>
</event>
<event>
 6    1  0.9988873E-007  0.2100651E+04  0.7818608E-02  0.8560957E-01
          1   -1    0    0  501    0  0.00000000000E+00  0.00000000000E+00  0.22177785241E+04  0.22177785241E+04  0.00000000000E+00 0. -1.
         -1   -1    0    0    0  501 -0.00000000000E+00 -0.00000000000E+00 -0.49742713552E+03  0.49742713552E+03  0.00000000000E+00 0.  1.
         23    2    1    2    0    0 -0.23027730554E+03 -0.15177372133E+03  0.21690860411E+04  0.21884935103E+04  0.92231723545E+02 0.  0.
         11    1    3    3    0    0 -0.66309249518E+02 -0.86921163160E+02  0.10386967365E+04  0.10444343520E+04  0.00000000000E+00 0.  1.
        -11    1    3    3    0    0 -0.16396805602E+03 -0.64852558173E+02  0.11303893045E+04  0.11440591582E+04  0.00000000000E+00 0. -1.
         22    1    1    2    0    0  0.23027730554E+03  0.15177372133E+03 -0.44873465251E+03  0.52671214937E+03  0.00000000000E+00 0.  1.
<mgrwt>
<rscale>  0 0.21006506E+04</rscale>
<asrwt>0</asrwt>
<pdfrwt beam="1">  1        1 0.34119669E+00 0.21006506E+04</pdfrwt>
<pdfrwt beam="2">  1       -1 0.76527253E-01 0.21006506E+04</pdfrwt>
<totfact> 0.33386742E+00</totfact>
</mgrwt>
</event>
<event>
 6    1  0.9988873E-007  0.1707865E+04  0.7818608E-02  0.8756891E-01
          2   -1    0    0  501    0  0.00000000000E+00  0.00000000000E+00  0.22973207419E+04  0.22973207419E+04  0.00000000000E+00 0. -1.
         -2   -1    0    0    0  501 -0.00000000000E+00 -0.00000000000E+00 -0.31741343648E+03  0.31741343648E+03  0.00000000000E+00 0.  1.
         23    2    1    2    0    0  0.61757362036E+03  0.54326782932E+03  0.65355250106E+03  0.10540438894E+04  0.85676941510E+02 0.  0.
         11    1    3    3    0    0  0.55129411443E+03  0.49018479440E+03  0.61650709360E+03  0.96139863206E+03  0.00000000000E+00 0. -1.
        -11    1    3    3    0    0  0.66279505936E+02  0.53083034918E+02  0.37045407452E+02  0.92645257388E+02  0.00000000000E+00 0.  1.
         22    1    1    2    0    0 -0.61757362036E+03 -0.54326782932E+03  0.13263548044E+04  0.15606902890E+04  0.00000000000E+00 0. -1.
<mgrwt>
<rscale>  0 0.17078647E+04</rscale>
<asrwt>0</asrwt>
<pdfrwt beam="1">  1        2 0.35343395E+00 0.17078647E+04</pdfrwt>
<pdfrwt beam="2">  1       -2 0.48832838E-01 0.17078647E+04</pdfrwt>
<totfact> 0.17193459E+01</totfact>
</mgrwt>
</event>
<event>
 6    1  0.9988873E-007  0.2193905E+04  0.7818608E-02  0.8520969E-01
         -2   -1    0    0    0  501 -0.00000000000E+00  0.00000000000E+00  0.39919312842E+03  0.39919312842E+03  0.00000000000E+00 0.  1.
          2   -1    0    0  501    0  0.00000000000E+00 -0.00000000000E+00 -0.30143416107E+04  0.30143416107E+04  0.00000000000E+00 0. -1.
         23    2    1    2    0    0 -0.31305483659E+03  0.38209958617E+03  0.21093994874E+03  0.54460127101E+03  0.89952531605E+02 0.  0.
         13    1    3    3    0    0 -0.25399987302E+03  0.25752861415E+03  0.12788465045E+03  0.38365532242E+03  0.00000000000E+00 0. -1.
        -13    1    3    3    0    0 -0.59054963573E+02  0.12457097202E+03  0.83055298289E+02  0.16094594859E+03  0.00000000000E+00 0.  1.
         22    1    1    2    0    0  0.31305483659E+03 -0.38209958617E+03 -0.28260884310E+04  0.28689334681E+04  0.00000000000E+00 0. -1.
<mgrwt>
<rscale>  0 0.21939047E+04</rscale>
<asrwt>0</asrwt>
<pdfrwt beam="1">  1        2 0.46374488E+00 0.21939047E+04</pdfrwt>
<pdfrwt beam="2">  1       -2 0.61414326E-01 0.21939047E+04</pdfrwt>
<totfact> 0.38494432E+00</totfact>
</mgrwt>
</event>
<event>
 6    1  0.9988873E-007  0.1355685E+04  0.7818608E-02  0.8986536E-01
         -2   -1    0    0    0  501 -0.00000000000E+00  0.00000000000E+00  0.25300201976E+03  0.25300201976E+03  0.00000000000E+00 0.  1.
          2   -1    0    0  501    0  0.00000000000E+00 -0.00000000000E+00 -0.18160730303E+04  0.18160730303E+04  0.00000000000E+00 0. -1.
         23    2    1    2    0    0  0.66423987652E+03  0.95344117870E+02 -0.67649950613E+03  0.95717840612E+03  0.90740316112E+02 0.  0.
         13    1    3    3    0    0  0.22113434312E+03  0.17926551142E+02 -0.16809808410E+03  0.27835000417E+03  0.00000000000E+00 0. -1.
        -13    1    3    3    0    0  0.44310553340E+03  0.77417566728E+02 -0.50840142203E+03  0.67882840195E+03  0.00000000000E+00 0.  1.
         22    1    1    2    0    0 -0.66423987652E+03 -0.95344117870E+02 -0.88657150441E+03  0.11118966439E+04  0.00000000000E+00 0. -1.
<mgrwt>
<rscale>  0 0.13556845E+04</rscale>
<asrwt>0</asrwt>
<pdfrwt beam="1">  1        2 0.27939586E+00 0.13556845E+04</pdfrwt>
<pdfrwt beam="2">  1       -2 0.38923386E-01 0.13556845E+04</pdfrwt>
<totfact> 0.51495139E+01</totfact>
</mgrwt>
</event>
<event>
 6    1  0.9988873E-007  0.3979930E+04  0.7818608E-02  0.8008608E-01
          2   -1    0    0  501    0  0.00000000000E+00  0.00000000000E+00  0.28349166894E+04  0.28349166894E+04  0.00000000000E+00 0. -1.
         -2   -1    0    0    0  501 -0.00000000000E+00 -0.00000000000E+00 -0.13968526369E+04  0.13968526369E+04  0.00000000000E+00 0.  1.
         23    2    1    2    0    0 -0.15496798700E+04  0.87787175298E+03  0.16606995883E+04  0.24368506385E+04  0.90285091578E+02 0.  0.
         13    1    3    3    0    0 -0.13926428512E+04  0.76835106626E+03  0.15106670367E+04  0.21936117176E+04  0.00000000000E+00 0. -1.
        -13    1    3    3    0    0 -0.15703701880E+03  0.10952068672E+03  0.15003255159E+03  0.24323892088E+03  0.00000000000E+00 0.  1.
         22    1    1    2    0    0  0.15496798700E+04 -0.87787175298E+03 -0.22263553579E+03  0.17949186878E+04  0.00000000000E+00 0.  1.
<mgrwt>
<rscale>  0 0.39799301E+04</rscale>
<asrwt>0</asrwt>
<pdfrwt beam="1">  1        2 0.43614103E+00 0.39799301E+04</pdfrwt>
<pdfrwt beam="2">  1       -2 0.21490041E+00 0.39799301E+04</pdfrwt>
<totfact> 0.18527030E-01</totfact>
</mgrwt>
</event>
<event>
 6    1  0.9988873E-007  0.2380961E+04  0.7818608E-02  0.8446666E-01
         -2   -1    0    0    0  501 -0.00000000000E+00  0.00000000000E+00  0.10985857022E+04  0.10985857022E+04  0.00000000000E+00 0.  1.
          2   -1    0    0  501    0  0.00000000000E+00 -0.00000000000E+00 -0.12900617238E+04  0.12900617238E+04  0.00000000000E+00 0. -1.
         23    2    1    2    0    0  0.81596619587E+03  0.91894767220E+02  0.76649435319E+03  0.11269213384E+04  0.90513139945E+02 0.  0.
         11    1    3    3    0    0  0.71881360945E+03  0.10589670392E+03  0.65324982339E+03  0.97705805805E+03  0.00000000000E+00 0. -1.
        -11    1    3    3    0    0  0.97152586419E+02 -0.14001936705E+02  0.11324452979E+03  0.14986328038E+03  0.00000000000E+00 0.  1.
         22    1    1    2    0    0 -0.81596619587E+03 -0.91894767220E+02 -0.95797037477E+03  0.12617260875E+04  0.00000000000E+00 0. -1.
<mgrwt>
<rscale>  0 0.23809606E+04</rscale>
<asrwt>0</asrwt>
<pdfrwt beam="1">  1        2 0.19847103E+00 0.23809606E+04</pdfrwt>
<pdfrwt beam="2">  1       -2 0.16901318E+00 0.23809606E+04</pdfrwt>
<totfact> 0.32688498E+00</totfact>
</mgrwt>
</event>
<event>
 6    1  0.9988873E-007  0.1318251E+04  0.7818608E-02  0.9015216E-01
          1   -1    0    0  501    0  0.00000000000E+00  0.00000000000E+00  0.12084466762E+04  0.12084466762E+04  0.00000000000E+00 0. -1.
         -1   -1    0    0    0  501 -0.00000000000E+00 -0.00000000000E+00 -0.35950823714E+03  0.35950823714E+03  0.00000000000E+00 0.  1.
         23    2    1    2    0    0  0.12657617582E+03  0.63361448549E+03  0.29184680863E+03  0.71481956114E+03  0.91124095448E+02 0.  0.
         11    1    3    3    0    0  0.63134550835E+01  0.62186543621E+02  0.59653475327E+02  0.86403489751E+02  0.00000000000E+00 0.  1.
        -11    1    3    3    0    0  0.12026272074E+03  0.57142794187E+03  0.23219333330E+03  0.62841607139E+03  0.00000000000E+00 0. -1.
         22    1    1    2    0    0 -0.12657617582E+03 -0.63361448549E+03  0.55709163045E+03  0.85313535223E+03  0.00000000000E+00 0. -1.
<mgrwt>
<rscale>  0 0.13182512E+04</rscale>
<asrwt>0</asrwt>
<pdfrwt beam="1">  1        1 0.18591487E+00 0.13182512E+04</pdfrwt>
<pdfrwt beam="2">  1       -1 0.55308960E-01 0.13182512E+04</pdfrwt>
<totfact> 0.34156735E+01</totfact>
</mgrwt>
</event>
<event>
 6    1  0.9988873E-007  0.1664625E+04  0.7818608E-02  0.8781801E-01
          2   -1    0    0  501    0  0.00000000000E+00  0.00000000000E+00  0.18919704108E+04  0.18919704108E+04  0.00000000000E+00 0. -1.
         -2   -1    0    0    0  501 -0.00000000000E+00 -0.00000000000E+00 -0.36614946023E+03  0.36614946023E+03  0.00000000000E+00 0.  1.
         23    2    1    2    0    0  0.54329936396E+03  0.13955042697E+03 -0.64185941914E+02  0.57206814030E+03  0.92160737091E+02 0.  0.
         11    1    3    3    0    0  0.15716039869E+03  0.48065608922E+02  0.22507564931E+02  0.16588033083E+03  0.00000000000E+00 0. -1.
        -11    1    3    3    0    0  0.38613896527E+03  0.91484818045E+02 -0.86693506845E+02  0.40618780947E+03  0.00000000000E+00 0.  1.
         22    1    1    2    0    0 -0.54329936396E+03 -0.13955042697E+03  0.15900068925E+04  0.16860517307E+04  0.00000000000E+00 0. -1.
<mgrwt>
<rscale>  0 0.16646248E+04</rscale>
<asrwt>0</asrwt>
<pdfrwt beam="1">  1        2 0.29107236E+00 0.16646248E+04</pdfrwt>
<pdfrwt beam="2">  1       -2 0.56330688E-01 0.16646248E+04</pdfrwt>
<totfact> 0.21651001E+01</totfact>
</mgrwt>
</event>
<event>
 6    1  0.9988873E-007  0.3169075E+04  0.7818608E-02  0.8197032E-01
          2   -1    0    0  501    0  0.00000000000E+00  0.00000000000E+00  0.20235430815E+04  0.20235430815E+04  0.00000000000E+00 0. -1.
         -2   -1    0    0    0  501 -0.00000000000E+00 -0.00000000000E+00 -0.12407738915E+04  0.12407738915E+04  0.00000000000E+00 0.  1.
         23    2    1    2    0    0  0.22793163272E+03  0.12859899809E+04 -0.53010050638E+03  0.14124665742E+04  0.91280974793E+02 0.  0.
         13    1    3    3    0    0  0.11548889003E+03  0.86152942621E+03 -0.37655441325E+03  0.94729291251E+03  0.00000000000E+00 0.  1.
        -13    1    3    3    0    0  0.11244274268E+03  0.42446055466E+03 -0.15354609312E+03  0.46517366172E+03  0.00000000000E+00 0. -1.
         22    1    1    2    0    0 -0.22793163272E+03 -0.12859899809E+04  0.13128696963E+04  0.18518503988E+04  0.00000000000E+00 0. -1.
<mgrwt>
<rscale>  0 0.31690752E+04</rscale>
<asrwt>0</asrwt>
<pdfrwt beam="1">  1        2 0.31131432E+00 0.31690752E+04</pdfrwt>
<pdfrwt beam="2">  1       -2 0.19088829E+00 0.31690752E+04</pdfrwt>
<totfact> 0.83676005E-01</totfact>
</mgrwt>
</event>
<event>
 6    1  0.9988873E-007  0.2107947E+04  0.7818608E-02  0.8557751E-01
          1   -1    0    0  501    0  0.00000000000E+00  0.00000000000E+00  0.18449458583E+04  0.18449458583E+04  0.00000000000E+00 0. -1.
         -1   -1    0    0    0  501 -0.00000000000E+00 -0.00000000000E+00 -0.60210968379E+03  0.60210968379E+03  0.00000000000E+00 0.  1.
         23    2    1    2    0    0 -0.29364299282E+03 -0.48874424972E+03  0.16488676410E+04  0.17470850423E+04  0.91893953252E+02 0.  0.
         11    1    3    3    0    0 -0.22033121929E+03 -0.35234420261E+03  0.13139877517E+04  0.13781350060E+04  0.00000000000E+00 0.  1.
        -11    1    3    3    0    0 -0.73311773530E+02 -0.13640004710E+03  0.33487988930E+03  0.36895003625E+03  0.00000000000E+00 0. -1.
         22    1    1    2    0    0  0.29364299282E+03  0.48874424972E+03 -0.40603146646E+03  0.69997049982E+03  0.00000000000E+00 0.  1.
<mgrwt>
<rscale>  0 0.21079466E+04</rscale>
<asrwt>0</asrwt>
<pdfrwt beam="1">  1        1 0.28383782E+00 0.21079466E+04</pdfrwt>
<pdfrwt beam="2">  1       -1 0.92632260E-01 0.21079466E+04</pdfrwt>
<totfact> 0.39536604E+00</totfact>
</mgrwt>
</event>
<event>
 6    1  0.9988873E-007  0.1190400E+04  0.7818608E-02  0.9121301E-01
         -2   -1    0    0    0  501 -0.00000000000E+00  0.00000000000E+00  0.25131778099E+03  0.25131778099E+03  0.00000000000E+00 0.  1.
          2   -1    0    0  501    0  0.00000000000E+00 -0.00000000000E+00 -0.14096221785E+04  0.14096221785E+04  0.00000000000E+00 0. -1.
         23    2    1    2    0    0 -0.48029515077E+03 -0.34225265470E+03 -0.65245246306E+03  0.88395444414E+03  0.88661892983E+02 0.  0.
         11    1    3    3    0    0 -0.37967739085E+03 -0.23216289915E+03 -0.52051153454E+03  0.68482610235E+03  0.00000000000E+00 0. -1.
        -11    1    3    3    0    0 -0.10061775992E+03 -0.11008975555E+03 -0.13194092851E+03  0.19912834179E+03  0.00000000000E+00 0.  1.
         22    1    1    2    0    0  0.48029515077E+03  0.34225265470E+03 -0.50585193448E+03  0.77698551539E+03  0.00000000000E+00 0. -1.
<mgrwt>
<rscale>  0 0.11904001E+04</rscale>
<asrwt>0</asrwt>
<pdfrwt beam="1">  1        2 0.21686494E+00 0.11904001E+04</pdfrwt>
<pdfrwt beam="2">  1       -2 0.38664276E-01 0.11904001E+04</pdfrwt>
<totfact> 0.89105349E+01</totfact>
</mgrwt>
</event>
<event>
 6    1  0.9988873E-007  0.4043843E+04  0.7818608E-02  0.7995760E-01
         -1   -1    0    0    0  501 -0.00000000000E+00  0.00000000000E+00  0.10972114237E+04  0.10972114237E+04  0.00000000000E+00 0.  1.
          1   -1    0    0  501    0  0.00000000000E+00 -0.00000000000E+00 -0.37259615171E+04  0.37259615171E+04  0.00000000000E+00 0. -1.
         23    2    1    2    0    0  0.15468255677E+04  0.62336048413E+03  0.46179285447E+02  0.16709523248E+04  0.93281913599E+02 0.  0.
         13    1    3    3    0    0  0.17536145735E+03  0.85102035678E+02 -0.21423884278E+02  0.19609431409E+03  0.00000000000E+00 0.  1.
        -13    1    3    3    0    0  0.13714641103E+04  0.53825844845E+03  0.67603169725E+02  0.14748580107E+04  0.00000000000E+00 0. -1.
         22    1    1    2    0    0 -0.15468255677E+04 -0.62336048413E+03 -0.26749293789E+04  0.31522206160E+04  0.00000000000E+00 0. -1.
<mgrwt>
<rscale>  0 0.40438435E+04</rscale>
<asrwt>0</asrwt>
<pdfrwt beam="1">  1        1 0.57322484E+00 0.40438435E+04</pdfrwt>
<pdfrwt beam="2">  1       -1 0.16880176E+00 0.40438435E+04</pdfrwt>
<totfact> 0.32092825E-02</totfact>
</mgrwt>
</event>
<event>
 6    1  0.9988873E-007  0.1022179E+04  0.7818608E-02  0.9284548E-01
         -1   -1    0    0    0  501 -0.00000000000E+00  0.00000000000E+00  0.36505833579E+03  0.36505833579E+03  0.00000000000E+00 0.  1.
          1   -1    0    0  501    0  0.00000000000E+00 -0.00000000000E+00 -0.71553654291E+03  0.71553654291E+03  0.00000000000E+00 0. -1.
         23    2    1    2    0    0  0.34675576980E+03  0.37005997120E+03 -0.18132838953E+03  0.54599633122E+03  0.89710995300E+02 0.  0.
         13    1    3    3    0    0  0.12770001301E+03  0.20150529570E+03 -0.87669060795E+02  0.25416046455E+03  0.00000000000E+00 0. -1.
        -13    1    3    3    0    0  0.21905575679E+03  0.16855467550E+03 -0.93659328738E+02  0.29183586667E+03  0.00000000000E+00 0.  1.
         22    1    1    2    0    0 -0.34675576980E+03 -0.37005997120E+03 -0.16914981759E+03  0.53459854748E+03  0.00000000000E+00 0. -1.
<mgrwt>
<rscale>  0 0.10221792E+04</rscale>
<asrwt>0</asrwt>
<pdfrwt beam="1">  1        1 0.11008254E+00 0.10221792E+04</pdfrwt>
<pdfrwt beam="2">  1       -1 0.56162822E-01 0.10221792E+04</pdfrwt>
<totfact> 0.84613550E+01</totfact>
</mgrwt>
</event>
<event>
 6    1  0.9988873E-007  0.3511609E+04  0.7818608E-02  0.8111044E-01
         -2   -1    0    0    0  501 -0.00000000000E+00  0.00000000000E+00  0.22348962596E+04  0.22348962596E+04  0.00000000000E+00 0.  1.
          2   -1    0    0  501    0  0.00000000000E+00 -0.00000000000E+00 -0.13794152172E+04  0.13794152172E+04  0.00000000000E+00 0. -1.
         23    2    1    2    0    0 -0.13218300731E+04 -0.11217127585E+04  0.14941874437E+03  0.17424145182E+04  0.90598771184E+02 0.  0.
         11    1    3    3    0    0 -0.95850683512E+03 -0.85241578498E+03  0.83938359406E+02  0.12854546556E+04  0.00000000000E+00 0. -1.
        -11    1    3    3    0    0 -0.36332323798E+03 -0.26929697351E+03  0.65480384961E+02  0.45695986258E+03  0.00000000000E+00 0.  1.
         22    1    1    2    0    0  0.13218300731E+04  0.11217127585E+04  0.70606229806E+03  0.18718969586E+04  0.00000000000E+00 0.  1.
<mgrwt>
<rscale>  0 0.35116093E+04</rscale>
<asrwt>0</asrwt>
<pdfrwt beam="1">  1        2 0.21221773E+00 0.35116093E+04</pdfrwt>
<pdfrwt beam="2">  1       -2 0.34383019E+00 0.35116093E+04</pdfrwt>
<totfact> 0.20760504E-01</totfact>
</mgrwt>
</event>
<event>
 6    1  0.9988873E-007  0.1061102E+04  0.7818608E-02  0.9243957E-01
         -2   -1    0    0    0  501 -0.00000000000E+00  0.00000000000E+00  0.22407195881E+03  0.22407195881E+03  0.00000000000E+00 0.  1.
          2   -1    0    0  501    0  0.00000000000E+00 -0.00000000000E+00 -0.12562220106E+04  0.12562220106E+04  0.00000000000E+00 0. -1.
         23    2    1    2    0    0  0.14141816657E+03 -0.40103248735E+03 -0.86592052537E+02  0.44351719319E+03  0.91559616352E+02 0.  0.
         13    1    3    3    0    0  0.10671679480E+03 -0.31284814411E+03 -0.27173822319E+02  0.33166376375E+03  0.00000000000E+00 0.  1.
        -13    1    3    3    0    0  0.34701371766E+02 -0.88184343244E+02 -0.59418230218E+02  0.11185342944E+03  0.00000000000E+00 0. -1.
         22    1    1    2    0    0 -0.14141816657E+03  0.40103248735E+03 -0.94555799924E+03  0.10367767762E+04  0.00000000000E+00 0. -1.
<mgrwt>
<rscale>  0 0.10611016E+04</rscale>
<asrwt>0</asrwt>
<pdfrwt beam="1">  1        2 0.19326492E+00 0.10611016E+04</pdfrwt>
<pdfrwt beam="2">  1       -2 0.34472609E-01 0.10611016E+04</pdfrwt>
<totfact> 0.13748944E+02</totfact>
</mgrwt>
</event>
<event>
 6    1  0.9988873E-007  0.1209579E+04  0.7818608E-02  0.9104514E-01
          2   -1    0    0  501    0  0.00000000000E+00  0.00000000000E+00  0.19943997072E+04  0.19943997072E+04  0.00000000000E+00 0. -1.
         -2   -1    0    0    0  501 -0.00000000000E+00 -0.00000000000E+00 -0.18339858538E+03  0.18339858538E+03  0.00000000000E+00 0.  1.
         23    2    1    2    0    0  0.49168663819E+03  0.27515198589E+03  0.12917709713E+04  0.14115970692E+04  0.80434308693E+02 0.  0.
         11    1    3    3    0    0  0.23929666683E+03  0.14663983488E+03  0.54712903816E+03  0.61491163619E+03  0.00000000000E+00 0.  1.
        -11    1    3    3    0    0  0.25238997136E+03  0.12851215101E+03  0.74464193310E+03  0.79668543298E+03  0.00000000000E+00 0. -1.
         22    1    1    2    0    0 -0.49168663819E+03 -0.27515198589E+03  0.51923015058E+03  0.76620122343E+03  0.00000000000E+00 0.  1.
<mgrwt>
<rscale>  0 0.12095786E+04</rscale>
<asrwt>0</asrwt>
<pdfrwt beam="1">  1        2 0.30683071E+00 0.12095786E+04</pdfrwt>
<pdfrwt beam="2">  1       -2 0.28215168E-01 0.12095786E+04</pdfrwt>
<totfact> 0.76365579E+01</totfact>
</mgrwt>
</event>
<event>
 6    1  0.9988873E-007  0.2940764E+04  0.7818608E-02  0.8260851E-01
          1   -1    0    0  501    0  0.00000000000E+00  0.00000000000E+00  0.17820536237E+04  0.17820536237E+04  0.00000000000E+00 0. -1.
         -1   -1    0    0    0  501 -0.00000000000E+00 -0.00000000000E+00 -0.12132198914E+04  0.12132198914E+04  0.00000000000E+00 0.  1.
         23    2    1    2    0    0  0.14550842752E+04  0.17994888439E+03  0.18955474767E+03  0.14808414772E+04  0.85490522757E+02 0.  0.
         11    1    3    3    0    0  0.49080585437E+03  0.62640509075E+02  0.10479369689E+03  0.50576272991E+03  0.00000000000E+00 0.  1.
        -11    1    3    3    0    0  0.96427842080E+03  0.11730837532E+03  0.84761050772E+02  0.97507874732E+03  0.00000000000E+00 0. -1.
         22    1    1    2    0    0 -0.14550842752E+04 -0.17994888439E+03  0.37927898464E+03  0.15144320378E+04  0.00000000000E+00 0. -1.
<mgrwt>
<rscale>  0 0.29407638E+04</rscale>
<asrwt>0</asrwt>
<pdfrwt beam="1">  1        1 0.27416210E+00 0.29407638E+04</pdfrwt>
<pdfrwt beam="2">  1       -1 0.18664921E+00 0.29407638E+04</pdfrwt>
<totfact> 0.66875964E-01</totfact>
</mgrwt>
</event>
<event>
 6    1  0.9988873E-007  0.1606786E+04  0.7818608E-02  0.8816390E-01
          1   -1    0    0  501    0  0.00000000000E+00  0.00000000000E+00  0.19184599892E+04  0.19184599892E+04  0.00000000000E+00 0. -1.
         -1   -1    0    0    0  501 -0.00000000000E+00 -0.00000000000E+00 -0.33643669916E+03  0.33643669916E+03  0.00000000000E+00 0.  1.
         23    2    1    2    0    0 -0.57806281730E+03 -0.44286530250E+03  0.32693948951E+03  0.80385511650E+03  0.94906910312E+02 0.  0.
         11    1    3    3    0    0 -0.33396060417E+03 -0.24379508458E+03  0.13482246798E+03  0.43490553719E+03  0.00000000000E+00 0. -1.
        -11    1    3    3    0    0 -0.24410221313E+03 -0.19907021792E+03  0.19211702153E+03  0.36894957932E+03  0.00000000000E+00 0.  1.
         22    1    1    2    0    0  0.57806281730E+03  0.44286530250E+03  0.12550838005E+04  0.14510415718E+04  0.00000000000E+00 0. -1.
<mgrwt>
<rscale>  0 0.16067860E+04</rscale>
<asrwt>0</asrwt>
<pdfrwt beam="1">  1        1 0.29514768E+00 0.16067860E+04</pdfrwt>
<pdfrwt beam="2">  1       -1 0.51759493E-01 0.16067860E+04</pdfrwt>
<totfact> 0.12198961E+01</totfact>
</mgrwt>
</event>
<event>
 6    1  0.9988873E-007  0.1256101E+04  0.7818608E-02  0.9065121E-01
         -2   -1    0    0    0  501 -0.00000000000E+00  0.00000000000E+00  0.14349659468E+03  0.14349659468E+03  0.00000000000E+00 0.  1.
          2   -1    0    0  501    0  0.00000000000E+00 -0.00000000000E+00 -0.27488256916E+04  0.27488256916E+04  0.00000000000E+00 0. -1.
         23    2    1    2    0    0  0.76707063270E+02  0.56449130380E+03 -0.18999670082E+04  0.19856414815E+04  0.91449740185E+02 0.  0.
         13    1    3    3    0    0  0.20955882285E+02  0.21900256438E+03 -0.58826743906E+03  0.62806038887E+03  0.00000000000E+00 0. -1.
        -13    1    3    3    0    0  0.55751180985E+02  0.34548873942E+03 -0.13116995692E+04  0.13575810926E+04  0.00000000000E+00 0.  1.
         22    1    1    2    0    0 -0.76707063270E+02 -0.56449130380E+03 -0.70536208866E+03  0.90668080477E+03  0.00000000000E+00 0.  1.
<mgrwt>
<rscale>  0 0.12561005E+04</rscale>
<asrwt>0</asrwt>
<pdfrwt beam="1">  1        2 0.42289631E+00 0.12561005E+04</pdfrwt>
<pdfrwt beam="2">  1       -2 0.22076397E-01 0.12561005E+04</pdfrwt>
<totfact> 0.44177944E+01</totfact>
</mgrwt>
</event>
<event>
 6    1  0.9988873E-007  0.1547685E+04  0.7818608E-02  0.8853348E-01
          1   -1    0    0  501    0  0.00000000000E+00  0.00000000000E+00  0.12029494635E+04  0.12029494635E+04  0.00000000000E+00 0. -1.
         -1   -1    0    0    0  501 -0.00000000000E+00 -0.00000000000E+00 -0.49780300221E+03  0.49780300221E+03  0.00000000000E+00 0.  1.
         23    2    1    2    0    0  0.28596644371E+03 -0.80288718214E+02 -0.43073015970E+03  0.52668313925E+03  0.60362020251E+02 0.  0.
         13    1    3    3    0    0  0.77757342217E+02 -0.30813243558E+02 -0.16927215973E+03  0.18880869765E+03  0.00000000000E+00 0. -1.
        -13    1    3    3    0    0  0.20820910149E+03 -0.49475474656E+02 -0.26145799997E+03  0.33787444160E+03  0.00000000000E+00 0.  1.
         22    1    1    2    0    0 -0.28596644371E+03  0.80288718214E+02  0.11358766210E+04  0.11740693265E+04  0.00000000000E+00 0. -1.
<mgrwt>
<rscale>  0 0.15476845E+04</rscale>
<asrwt>0</asrwt>
<pdfrwt beam="1">  1        1 0.18506915E+00 0.15476845E+04</pdfrwt>
<pdfrwt beam="2">  1       -1 0.76585078E-01 0.15476845E+04</pdfrwt>
<totfact> 0.17532597E+01</totfact>
</mgrwt>
</event>
<event>
 6    1  0.9988873E-007  0.3418173E+04  0.7818608E-02  0.8133460E-01
          2   -1    0    0  501    0  0.00000000000E+00  0.00000000000E+00  0.14507240691E+04  0.14507240691E+04  0.00000000000E+00 0. -1.
         -2   -1    0    0    0  501 -0.00000000000E+00 -0.00000000000E+00 -0.20134616589E+04  0.20134616589E+04  0.00000000000E+00 0.  1.
         23    2    1    2    0    0 -0.60574616353E+03 -0.15111424593E+04 -0.80473289738E+03  0.18182690606E+04  0.89595724017E+02 0.  0.
         11    1    3    3    0    0 -0.49310895848E+03 -0.11362495280E+04 -0.62876557338E+03  0.13890880394E+04  0.00000000000E+00 0.  1.
        -11    1    3    3    0    0 -0.11263720504E+03 -0.37489293128E+03 -0.17596732399E+03  0.42918102125E+03  0.00000000000E+00 0. -1.
         22    1    1    2    0    0  0.60574616353E+03  0.15111424593E+04  0.24199530760E+03  0.16459166673E+04  0.00000000000E+00 0. -1.
<mgrwt>
<rscale>  0 0.34181734E+04</rscale>
<asrwt>0</asrwt>
<pdfrwt beam="1">  1        2 0.22318832E+00 0.34181734E+04</pdfrwt>
<pdfrwt beam="2">  1       -2 0.30976333E+00 0.34181734E+04</pdfrwt>
<totfact> 0.31000472E-01</totfact>
</mgrwt>
</event>
<event>
 6    1  0.9988873E-007  0.4178762E+04  0.7818608E-02  0.7969424E-01
         -1   -1    0    0    0  501 -0.00000000000E+00  0.00000000000E+00  0.11270717003E+04  0.11270717003E+04  0.00000000000E+00 0.  1.
          1   -1    0    0  501    0  0.00000000000E+00 -0.00000000000E+00 -0.38733234485E+04  0.38733234485E+04  0.00000000000E+00 0. -1.
         23    2    1    2    0    0 -0.80781175828E+03  0.12009391867E+04 -0.31753206829E+04  0.34907876111E+04  0.90121805684E+02 0.  0.
         13    1    3    3    0    0 -0.40032503294E+03  0.59339021725E+03 -0.14620170963E+04  0.16278409233E+04  0.00000000000E+00 0. -1.
        -13    1    3    3    0    0 -0.40748672534E+03  0.60754896947E+03 -0.17133035866E+04  0.18629466878E+04  0.00000000000E+00 0.  1.
         22    1    1    2    0    0  0.80781175828E+03 -0.12009391867E+04  0.42906893474E+03  0.15096075377E+04  0.00000000000E+00 0.  1.
<mgrwt>
<rscale>  0 0.41787621E+04</rscale>
<asrwt>0</asrwt>
<pdfrwt beam="1">  1        1 0.59589592E+00 0.41787621E+04</pdfrwt>
<pdfrwt beam="2">  1       -1 0.17339565E+00 0.41787621E+04</pdfrwt>
<totfact> 0.22082044E-02</totfact>
</mgrwt>
</event>
<event>
 6    1  0.9988873E-007  0.1553113E+04  0.7818608E-02  0.8849882E-01
          1   -1    0    0  501    0  0.00000000000E+00  0.00000000000E+00  0.17248998872E+04  0.17248998872E+04  0.00000000000E+00 0. -1.
         -1   -1    0    0    0  501 -0.00000000000E+00 -0.00000000000E+00 -0.34960866330E+03  0.34960866330E+03  0.00000000000E+00 0.  1.
         23    2    1    2    0    0 -0.28325295196E+03 -0.17438873686E+03 -0.24301320216E+03  0.42237269600E+03  0.93271708276E+02 0.  0.
         11    1    3    3    0    0 -0.19337219064E+03 -0.92015349254E+02 -0.20020438186E+03  0.29315767623E+03  0.00000000000E+00 0. -1.
        -11    1    3    3    0    0 -0.89880761318E+02 -0.82373387602E+02 -0.42808820298E+02  0.12921501977E+03  0.00000000000E+00 0.  1.
         22    1    1    2    0    0  0.28325295196E+03  0.17438873686E+03  0.16183044260E+04  0.16521358545E+04  0.00000000000E+00 0. -1.
<mgrwt>
<rscale>  0 0.15531129E+04</rscale>
<asrwt>0</asrwt>
<pdfrwt beam="1">  1        1 0.26536921E+00 0.15531129E+04</pdfrwt>
<pdfrwt beam="2">  1       -1 0.53785949E-01 0.15531129E+04</pdfrwt>
<totfact> 0.15402482E+01</totfact>
</mgrwt>
</event>
<event>
 6    1  0.9988873E-007  0.9795505E+03  0.7818608E-02  0.9331262E-01
          1   -1    0    0  501    0  0.00000000000E+00  0.00000000000E+00  0.13137363014E+03  0.13137363014E+03  0.00000000000E+00 0. -1.
         -1   -1    0    0    0  501 -0.00000000000E+00 -0.00000000000E+00 -0.18259355208E+04  0.18259355208E+04  0.00000000000E+00 0.  1.
         23    2    1    2    0    0 -0.25847712706E+03 -0.28526237982E+03 -0.14461870869E+04  0.14991878856E+04  0.89006604639E+02 0.  0.
         13    1    3    3    0    0 -0.91126456998E+02 -0.96480485094E+02 -0.67047692685E+03  0.68348505807E+03  0.00000000000E+00 0. -1.
        -13    1    3    3    0    0 -0.16735067006E+03 -0.18878189472E+03 -0.77571016002E+03  0.81570282757E+03  0.00000000000E+00 0.  1.
         22    1    1    2    0    0  0.25847712706E+03  0.28526237982E+03 -0.24837480375E+03  0.45812126526E+03  0.00000000000E+00 0. -1.
<mgrwt>
<rscale>  0 0.97955046E+03</rscale>
<asrwt>0</asrwt>
<pdfrwt beam="1">  1        1 0.20211328E-01 0.97955046E+03</pdfrwt>
<pdfrwt beam="2">  1       -1 0.28091315E+00 0.97955046E+03</pdfrwt>
<totfact> 0.11526647E+01</totfact>
</mgrwt>
</event>
<event>
 6    1  0.9988873E-007  0.1609643E+04  0.7818608E-02  0.8814646E-01
          1   -1    0    0  501    0  0.00000000000E+00  0.00000000000E+00  0.68123242667E+03  0.68123242667E+03  0.00000000000E+00 0. -1.
         -1   -1    0    0    0  501 -0.00000000000E+00 -0.00000000000E+00 -0.95083200920E+03  0.95083200920E+03  0.00000000000E+00 0.  1.
         23    2    1    2    0    0  0.64957102682E+03  0.42942324307E+03 -0.33105752708E+03  0.85096014095E+03  0.90483339241E+02 0.  0.
         13    1    3    3    0    0  0.59473946497E+03  0.35993764139E+03 -0.30014277692E+03  0.75720263035E+03  0.00000000000E+00 0.  1.
        -13    1    3    3    0    0  0.54831561853E+02  0.69485601680E+02 -0.30914750166E+02  0.93757510600E+02  0.00000000000E+00 0. -1.
         22    1    1    2    0    0 -0.64957102682E+03 -0.42942324307E+03  0.61457944552E+02  0.78110429491E+03  0.00000000000E+00 0. -1.
<mgrwt>
<rscale>  0 0.16096429E+04</rscale>
<asrwt>0</asrwt>
<pdfrwt beam="1">  1        1 0.10480499E+00 0.16096429E+04</pdfrwt>
<pdfrwt beam="2">  1       -1 0.14628185E+00 0.16096429E+04</pdfrwt>
<totfact> 0.10160086E+01</totfact>
</mgrwt>
</event>
<event>
 6    1  0.9988873E-007  0.5032915E+03  0.7818608E-02  0.1012923E+00
          2   -1    0    0  501    0  0.00000000000E+00  0.00000000000E+00  0.92561156305E+03  0.92561156305E+03  0.00000000000E+00 0. -1.
         -2   -1    0    0    0  501 -0.00000000000E+00 -0.00000000000E+00 -0.68414857822E+02  0.68414857822E+02  0.00000000000E+00 0.  1.
         23    2    1    2    0    0 -0.21876556504E+03 -0.26451675365E+02  0.23946151098E+03  0.33816451941E+03  0.91953049824E+02 0.  0.
         11    1    3    3    0    0 -0.29057735851E+02 -0.23466371235E+02  0.68251086200E+01  0.37968469806E+02  0.00000000000E+00 0. -1.
        -11    1    3    3    0    0 -0.18970782919E+03 -0.29853041293E+01  0.23263640236E+03  0.30019604961E+03  0.00000000000E+00 0.  1.
         22    1    1    2    0    0  0.21876556504E+03  0.26451675365E+02  0.61773519425E+03  0.65586190146E+03  0.00000000000E+00 0. -1.
<mgrwt>
<rscale>  0 0.50329150E+03</rscale>
<asrwt>0</asrwt>
<pdfrwt beam="1">  1        2 0.14240177E+00 0.50329150E+03</pdfrwt>
<pdfrwt beam="2">  1       -2 0.10525363E-01 0.50329150E+03</pdfrwt>
<totfact> 0.17879669E+03</totfact>
</mgrwt>
</event>
<event>
 6    1  0.9988873E-007  0.2413625E+04  0.7818608E-02  0.8434420E-01
          2   -1    0    0  501    0  0.00000000000E+00  0.00000000000E+00  0.19720640441E+04  0.19720640441E+04  0.00000000000E+00 0. -1.
         -2   -1    0    0    0  501 -0.00000000000E+00 -0.00000000000E+00 -0.73851387743E+03  0.73851387743E+03  0.00000000000E+00 0.  1.
         23    2    1    2    0    0 -0.10884929033E+04  0.34352336769E+03  0.10517331512E+04  0.15547740749E+04  0.91404036418E+02 0.  0.
         13    1    3    3    0    0 -0.67028374014E+03  0.22137747949E+03  0.70852260635E+03  0.10001462715E+04  0.00000000000E+00 0.  1.
        -13    1    3    3    0    0 -0.41820916318E+03  0.12214588820E+03  0.34321054485E+03  0.55462780337E+03  0.00000000000E+00 0. -1.
         22    1    1    2    0    0  0.10884929033E+04 -0.34352336769E+03  0.18181701544E+03  0.11558038466E+04  0.00000000000E+00 0.  1.
<mgrwt>
<rscale>  0 0.24136252E+04</rscale>
<asrwt>0</asrwt>
<pdfrwt beam="1">  1        2 0.30339447E+00 0.24136252E+04</pdfrwt>
<pdfrwt beam="2">  1       -2 0.11361752E+00 0.24136252E+04</pdfrwt>
<totfact> 0.37774180E+00</totfact>
</mgrwt>
</event>
<event>
 6    1  0.9988873E-007  0.1030281E+04  0.7818608E-02  0.9275942E-01
         -2   -1    0    0    0  501 -0.00000000000E+00  0.00000000000E+00  0.11119987225E+03  0.11119987225E+03  0.00000000000E+00 0.  1.
          2   -1    0    0  501    0  0.00000000000E+00 -0.00000000000E+00 -0.23864230531E+04  0.23864230531E+04  0.00000000000E+00 0. -1.
         23    2    1    2    0    0 -0.36863332907E+02 -0.42774107944E+03 -0.18191150838E+04  0.18712397100E+04  0.89649470641E+02 0.  0.
         13    1    3    3    0    0  0.14898103310E+02 -0.10449789596E+03 -0.58489268642E+03  0.59434099503E+03  0.00000000000E+00 0. -1.
        -13    1    3    3    0    0 -0.51761436217E+02 -0.32324318349E+03 -0.12342223974E+04  0.12768987150E+04  0.00000000000E+00 0.  1.
         22    1    1    2    0    0  0.36863332907E+02  0.42774107944E+03 -0.45610809703E+03  0.62638321540E+03  0.00000000000E+00 0.  1.
<mgrwt>
<rscale>  0 0.10302814E+04</rscale>
<asrwt>0</asrwt>
<pdfrwt beam="1">  1        2 0.36714198E+00 0.10302814E+04</pdfrwt>
<pdfrwt beam="2">  1       -2 0.17107674E-01 0.10302814E+04</pdfrwt>
<totfact> 0.11419073E+02</totfact>
</mgrwt>
</event>
<event>
 6    1  0.9988873E-007  0.2203297E+04  0.7818608E-02  0.8517057E-01
         -1   -1    0    0    0  501 -0.00000000000E+00  0.00000000000E+00  0.18874206870E+04  0.18874206870E+04  0.00000000000E+00 0.  1.
          1   -1    0    0  501    0  0.00000000000E+00 -0.00000000000E+00 -0.64300933092E+03  0.64300933092E+03  0.00000000000E+00 0. -1.
         23    2    1    2    0    0  0.27942332684E+03 -0.65395282129E+03  0.15869574637E+04  0.17410824874E+04  0.84867828584E+02 0.  0.
         13    1    3    3    0    0  0.93323360899E+02 -0.29156911587E+03  0.75619750843E+03  0.81581644429E+03  0.00000000000E+00 0. -1.
        -13    1    3    3    0    0  0.18609996594E+03 -0.36238370542E+03  0.83075995530E+03  0.92526604315E+03  0.00000000000E+00 0.  1.
         22    1    1    2    0    0 -0.27942332684E+03  0.65395282129E+03 -0.34254610763E+03  0.78934753050E+03  0.00000000000E+00 0. -1.
<mgrwt>
<rscale>  0 0.22032967E+04</rscale>
<asrwt>0</asrwt>
<pdfrwt beam="1">  1        1 0.98924513E-01 0.22032967E+04</pdfrwt>
<pdfrwt beam="2">  1       -1 0.29037241E+00 0.22032967E+04</pdfrwt>
<totfact> 0.10758038E+00</totfact>
</mgrwt>
</event>
<event>
 6    1  0.9988873E-007  0.2553876E+04  0.7818608E-02  0.8384040E-01
          1   -1    0    0  501    0  0.00000000000E+00  0.00000000000E+00  0.21180880628E+04  0.21180880628E+04  0.00000000000E+00 0. -1.
         -1   -1    0    0    0  501 -0.00000000000E+00 -0.00000000000E+00 -0.76983123856E+03  0.76983123856E+03  0.00000000000E+00 0.  1.
         23    2    1    2    0    0  0.30389918292E+03  0.83078573187E+03 -0.36343143876E+03  0.96115093038E+03  0.95755180666E+02 0.  0.
         13    1    3    3    0    0  0.13594017608E+03  0.26464302875E+03 -0.15038725453E+03  0.33336465089E+03  0.00000000000E+00 0.  1.
        -13    1    3    3    0    0  0.16795900684E+03  0.56614270313E+03 -0.21304418424E+03  0.62778627949E+03  0.00000000000E+00 0. -1.
         22    1    1    2    0    0 -0.30389918292E+03 -0.83078573187E+03  0.17116882630E+04  0.19267683709E+04  0.00000000000E+00 0. -1.
<mgrwt>
<rscale>  0 0.25538758E+04</rscale>
<asrwt>0</asrwt>
<pdfrwt beam="1">  1        1 0.32585970E+00 0.25538758E+04</pdfrwt>
<pdfrwt beam="2">  1       -1 0.11843558E+00 0.25538758E+04</pdfrwt>
<totfact> 0.14001007E+00</totfact>
</mgrwt>
</event>
<event>
 6    1  0.9988873E-007  0.1861862E+04  0.7818608E-02  0.8674077E-01
          2   -1    0    0  501    0  0.00000000000E+00  0.00000000000E+00  0.34665566834E+03  0.34665566834E+03  0.00000000000E+00 0. -1.
         -2   -1    0    0    0  501 -0.00000000000E+00 -0.00000000000E+00 -0.24999806511E+04  0.24999806511E+04  0.00000000000E+00 0.  1.
         23    2    1    2    0    0 -0.64988802930E+03  0.40730046874E+03 -0.18799698729E+04  0.20324059229E+04  0.90216351409E+02 0.  0.
         13    1    3    3    0    0 -0.24752862808E+03  0.11973081686E+03 -0.59170811872E+03  0.65247558420E+03  0.00000000000E+00 0. -1.
        -13    1    3    3    0    0 -0.40235940122E+03  0.28756965187E+03 -0.12882617542E+04  0.13799303387E+04  0.00000000000E+00 0.  1.
         22    1    1    2    0    0  0.64988802930E+03 -0.40730046874E+03 -0.27335510979E+03  0.81423039645E+03  0.00000000000E+00 0. -1.
<mgrwt>
<rscale>  0 0.18618619E+04</rscale>
<asrwt>0</asrwt>
<pdfrwt beam="1">  1        2 0.53331642E-01 0.18618619E+04</pdfrwt>
<pdfrwt beam="2">  1       -2 0.38461240E+00 0.18618619E+04</pdfrwt>
<totfact> 0.82355970E-01</totfact>
</mgrwt>
</event>
<event>
 6    1  0.9988873E-007  0.3090385E+04  0.7818608E-02  0.8218382E-01
         -2   -1    0    0    0  501 -0.00000000000E+00  0.00000000000E+00  0.10065410461E+04  0.10065410461E+04  0.00000000000E+00 0.  1.
          2   -1    0    0  501    0  0.00000000000E+00 -0.00000000000E+00 -0.23721038094E+04  0.23721038094E+04  0.00000000000E+00 0. -1.
         23    2    1    2    0    0  0.43742809682E+03 -0.83041235286E+03 -0.20234670026E+04  0.22324485357E+04  0.92085493602E+02 0.  0.
         11    1    3    3    0    0  0.14226741460E+03 -0.36250963516E+03 -0.80263916664E+03  0.89212268476E+03  0.00000000000E+00 0. -1.
        -11    1    3    3    0    0  0.29516068221E+03 -0.46790271770E+03 -0.12208278360E+04  0.13403258509E+04  0.00000000000E+00 0.  1.
         22    1    1    2    0    0 -0.43742809682E+03  0.83041235286E+03  0.65790423922E+03  0.11461963199E+04  0.00000000000E+00 0.  1.
<mgrwt>
<rscale>  0 0.30903850E+04</rscale>
<asrwt>0</asrwt>
<pdfrwt beam="1">  1        2 0.36493904E+00 0.30903850E+04</pdfrwt>
<pdfrwt beam="2">  1       -2 0.15485247E+00 0.30903850E+04</pdfrwt>
<totfact> 0.96441997E-01</totfact>
</mgrwt>
</event>
<event>
 6    1  0.9988873E-007  0.5090011E+04  0.7818608E-02  0.7814770E-01
          2   -1    0    0  501    0  0.00000000000E+00  0.00000000000E+00  0.22727843601E+04  0.22727843601E+04  0.00000000000E+00 0. -1.
         -2   -1    0    0    0  501 -0.00000000000E+00 -0.00000000000E+00 -0.28498312009E+04  0.28498312009E+04  0.00000000000E+00 0.  1.
         23    2    1    2    0    0  0.18703116570E+03 -0.16869028441E+04  0.16188970199E+04  0.23472252637E+04  0.89537786486E+02 0.  0.
         11    1    3    3    0    0  0.11809708419E+03 -0.11743180908E+04  0.10703767879E+04  0.15933224306E+04  0.00000000000E+00 0. -1.
        -11    1    3    3    0    0  0.68934081505E+02 -0.51258475326E+03  0.54852023205E+03  0.75390283315E+03  0.00000000000E+00 0.  1.
         22    1    1    2    0    0 -0.18703116570E+03  0.16869028441E+04 -0.21959438607E+04  0.27753902972E+04  0.00000000000E+00 0.  1.
<mgrwt>
<rscale>  0 0.50900105E+04</rscale>
<asrwt>0</asrwt>
<pdfrwt beam="1">  1        2 0.34965913E+00 0.50900105E+04</pdfrwt>
<pdfrwt beam="2">  1       -2 0.43843557E+00 0.50900105E+04</pdfrwt>
<totfact> 0.14090072E-02</totfact>
</mgrwt>
</event>
<event>
 6    1  0.9988873E-007  0.2384708E+04  0.7818608E-02  0.8445251E-01
         -2   -1    0    0    0  501 -0.00000000000E+00  0.00000000000E+00  0.64530097747E+03  0.64530097747E+03  0.00000000000E+00 0.  1.
          2   -1    0    0  501    0  0.00000000000E+00 -0.00000000000E+00 -0.22031697818E+04  0.22031697818E+04  0.00000000000E+00 0. -1.
         23    2    1    2    0    0 -0.12910429867E+00  0.79457319009E+03  0.27891965606E+03  0.84718656673E+03  0.92640883184E+02 0.  0.
         11    1    3    3    0    0  0.16278443476E+02  0.68277308950E+02  0.47437020115E+02  0.84717468782E+02  0.00000000000E+00 0.  1.
        -11    1    3    3    0    0 -0.16407547775E+02  0.72629588114E+03  0.23148263595E+03  0.76246909795E+03  0.00000000000E+00 0. -1.
         22    1    1    2    0    0  0.12910429867E+00 -0.79457319009E+03 -0.18367884604E+04  0.20012841925E+04  0.00000000000E+00 0. -1.
<mgrwt>
<rscale>  0 0.23847076E+04</rscale>
<asrwt>0</asrwt>
<pdfrwt beam="1">  1        2 0.33894920E+00 0.23847076E+04</pdfrwt>
<pdfrwt beam="2">  1       -2 0.99277073E-01 0.23847076E+04</pdfrwt>
<totfact> 0.38903745E+00</totfact>
</mgrwt>
</event>
<event>
 6    1  0.9988873E-007  0.1771012E+04  0.7818608E-02  0.8721869E-01
          2   -1    0    0  501    0  0.00000000000E+00  0.00000000000E+00  0.16777924113E+04  0.16777924113E+04  0.00000000000E+00 0. -1.
         -2   -1    0    0    0  501 -0.00000000000E+00 -0.00000000000E+00 -0.46735285997E+03  0.46735285997E+03  0.00000000000E+00 0.  1.
         23    2    1    2    0    0 -0.20426572218E+03  0.33986293415E+03 -0.34891590437E+03  0.53616399838E+03  0.92185820900E+02 0.  0.
         11    1    3    3    0    0 -0.85293470334E+02  0.64807571362E+02 -0.10098132147E+03  0.14721489284E+03  0.00000000000E+00 0. -1.
        -11    1    3    3    0    0 -0.11897225184E+03  0.27505536279E+03 -0.24793458290E+03  0.38894910554E+03  0.00000000000E+00 0.  1.
         22    1    1    2    0    0  0.20426572218E+03 -0.33986293415E+03  0.15593554557E+04  0.16089812729E+04  0.00000000000E+00 0. -1.
<mgrwt>
<rscale>  0 0.17710122E+04</rscale>
<asrwt>0</asrwt>
<pdfrwt beam="1">  1        2 0.25812191E+00 0.17710122E+04</pdfrwt>
<pdfrwt beam="2">  1       -2 0.71900441E-01 0.17710122E+04</pdfrwt>
<totfact> 0.16734502E+01</totfact>
</mgrwt>
</event>
<event>
 6    1  0.9988873E-007  0.1520184E+04  0.7818608E-02  0.8871141E-01
         -1   -1    0    0    0  501 -0.00000000000E+00  0.00000000000E+00  0.82852370339E+03  0.82852370339E+03  0.00000000000E+00 0.  1.
          1   -1    0    0  501    0  0.00000000000E+00 -0.00000000000E+00 -0.69731225953E+03  0.69731225953E+03  0.00000000000E+00 0. -1.
         23    2    1    2    0    0 -0.18611672641E+03 -0.53009683350E+03  0.57561739259E+03  0.80949893609E+03  0.91164994049E+02 0.  0.
         13    1    3    3    0    0 -0.12266121512E+03 -0.21977254521E+03  0.23449108180E+03  0.34399391385E+03  0.00000000000E+00 0.  1.
        -13    1    3    3    0    0 -0.63455511293E+02 -0.31032428829E+03  0.34112631079E+03  0.46550502224E+03  0.00000000000E+00 0. -1.
         22    1    1    2    0    0  0.18611672641E+03  0.53009683350E+03 -0.44440594873E+03  0.71633702683E+03  0.00000000000E+00 0. -1.
<mgrwt>
<rscale>  0 0.15201839E+04</rscale>
<asrwt>0</asrwt>
<pdfrwt beam="1">  1        1 0.10727881E+00 0.15201839E+04</pdfrwt>
<pdfrwt beam="2">  1       -1 0.12746519E+00 0.15201839E+04</pdfrwt>
<totfact> 0.14108728E+01</totfact>
</mgrwt>
</event>
<event>
 6    1  0.9988873E-007  0.2642219E+04  0.7818608E-02  0.8354000E-01
         -2   -1    0    0    0  501 -0.00000000000E+00  0.00000000000E+00  0.81648270658E+03  0.81648270658E+03  0.00000000000E+00 0.  1.
          2   -1    0    0  501    0  0.00000000000E+00 -0.00000000000E+00 -0.21376214731E+04  0.21376214731E+04  0.00000000000E+00 0. -1.
         23    2    1    2    0    0 -0.19237079847E+03 -0.57854601029E+03  0.64725072596E+03  0.89345398999E+03  0.87203898081E+02 0.  0.
         13    1    3    3    0    0 -0.33299159151E+02 -0.19843226984E+03  0.25206902221E+03  0.32252595503E+03  0.00000000000E+00 0. -1.
        -13    1    3    3    0    0 -0.15907163931E+03 -0.38011374045E+03  0.39518170376E+03  0.57092803495E+03  0.00000000000E+00 0.  1.
         22    1    1    2    0    0  0.19237079847E+03  0.57854601029E+03 -0.19683894925E+04  0.20606501897E+04  0.00000000000E+00 0. -1.
<mgrwt>
<rscale>  0 0.26422195E+04</rscale>
<asrwt>0</asrwt>
<pdfrwt beam="1">  1        2 0.32886484E+00 0.26422195E+04</pdfrwt>
<pdfrwt beam="2">  1       -2 0.12561273E+00 0.26422195E+04</pdfrwt>
<totfact> 0.23368786E+00</totfact>
</mgrwt>
</event>
<event>
 6    1  0.9988873E-007  0.8867211E+03  0.7818608E-02  0.9442335E-01
         -2   -1    0    0    0  501 -0.00000000000E+00  0.00000000000E+00  0.14935501606E+03  0.14935501606E+03  0.00000000000E+00 0.  1.
          2   -1    0    0  501    0  0.00000000000E+00 -0.00000000000E+00 -0.13161164207E+04  0.13161164207E+04  0.00000000000E+00 0. -1.
         23    2    1    2    0    0 -0.16241548370E+03 -0.40663692040E+03 -0.55337421790E+03  0.71182946923E+03  0.93518949203E+02 0.  0.
         11    1    3    3    0    0 -0.97167665180E+01 -0.94489649327E+02 -0.77543886178E+02  0.12262040477E+03  0.00000000000E+00 0.  1.
        -11    1    3    3    0    0 -0.15269871718E+03 -0.31214727107E+03 -0.47583033172E+03  0.58920906447E+03  0.00000000000E+00 0. -1.
         22    1    1    2    0    0  0.16241548370E+03  0.40663692040E+03 -0.61338718678E+03  0.75364196757E+03  0.00000000000E+00 0. -1.
<mgrwt>
<rscale>  0 0.88672113E+03</rscale>
<asrwt>0</asrwt>
<pdfrwt beam="1">  1        2 0.20247945E+00 0.88672113E+03</pdfrwt>
<pdfrwt beam="2">  1       -2 0.22977695E-01 0.88672113E+03</pdfrwt>
<totfact> 0.27077847E+02</totfact>
</mgrwt>
</event>
<event>
 6    1  0.9988873E-007  0.1597135E+04  0.7818608E-02  0.8822310E-01
          1   -1    0    0  501    0  0.00000000000E+00  0.00000000000E+00  0.34345566988E+03  0.34345566988E+03  0.00000000000E+00 0. -1.
         -1   -1    0    0    0  501 -0.00000000000E+00 -0.00000000000E+00 -0.18567474012E+04  0.18567474012E+04  0.00000000000E+00 0.  1.
         23    2    1    2    0    0  0.18096411158E+03  0.40116327223E+03 -0.16727772348E+04  0.17321052112E+04  0.91240367847E+02 0.  0.
         13    1    3    3    0    0  0.44420101696E+02  0.20890216617E+03 -0.78062996974E+03  0.80931848497E+03  0.00000000000E+00 0.  1.
        -13    1    3    3    0    0  0.13654400988E+03  0.19226110606E+03 -0.89214726506E+03  0.92278672623E+03  0.00000000000E+00 0. -1.
         22    1    1    2    0    0 -0.18096411158E+03 -0.40116327223E+03  0.15948550343E+03  0.46809785993E+03  0.00000000000E+00 0. -1.
<mgrwt>
<rscale>  0 0.15971355E+04</rscale>
<asrwt>0</asrwt>
<pdfrwt beam="1">  1        1 0.52839333E-01 0.15971355E+04</pdfrwt>
<pdfrwt beam="2">  1       -1 0.28565345E+00 0.15971355E+04</pdfrwt>
<totfact> 0.28869811E+00</totfact>
</mgrwt>
</event>
<event>
 6    1  0.9988873E-007  0.1626725E+04  0.7818608E-02  0.8804296E-01
          2   -1    0    0  501    0  0.00000000000E+00  0.00000000000E+00  0.44670571133E+03  0.44670571133E+03  0.00000000000E+00 0. -1.
         -2   -1    0    0    0  501 -0.00000000000E+00 -0.00000000000E+00 -0.14809716594E+04  0.14809716594E+04  0.00000000000E+00 0.  1.
         23    2    1    2    0    0  0.60082440595E+03 -0.15509859959E+03 -0.11371148576E+04  0.12986913291E+04  0.92322405263E+02 0.  0.
         11    1    3    3    0    0  0.38792255783E+03 -0.11569593513E+03 -0.65192100770E+03  0.76737895499E+03  0.00000000000E+00 0. -1.
        -11    1    3    3    0    0  0.21290184813E+03 -0.39402664465E+02 -0.48519384989E+03  0.53131237410E+03  0.00000000000E+00 0.  1.
         22    1    1    2    0    0 -0.60082440595E+03  0.15509859959E+03  0.10284890953E+03  0.62898604164E+03  0.00000000000E+00 0. -1.
<mgrwt>
<rscale>  0 0.16267249E+04</rscale>
<asrwt>0</asrwt>
<pdfrwt beam="1">  1        2 0.68723956E-01 0.16267249E+04</pdfrwt>
<pdfrwt beam="2">  1       -2 0.22784179E+00 0.16267249E+04</pdfrwt>
<totfact> 0.59170503E+00</totfact>
</mgrwt>
</event>
<event>
 6    1  0.9988873E-007  0.2746268E+04  0.7818608E-02  0.8320147E-01
         -1   -1    0    0    0  501 -0.00000000000E+00  0.00000000000E+00  0.12102694631E+04  0.12102694631E+04  0.00000000000E+00 0.  1.
          1   -1    0    0  501    0  0.00000000000E+00 -0.00000000000E+00 -0.15579144643E+04  0.15579144643E+04  0.00000000000E+00 0. -1.
         23    2    1    2    0    0  0.46241551377E+03  0.82863001911E+03  0.82432246616E+03  0.12602172300E+04  0.90466141407E+02 0.  0.
         11    1    3    3    0    0  0.25828818590E+03  0.38622116921E+03  0.36867670747E+03  0.59312906956E+03  0.00000000000E+00 0.  1.
        -11    1    3    3    0    0  0.20412732787E+03  0.44240884990E+03  0.45564575868E+03  0.66708816049E+03  0.00000000000E+00 0. -1.
         22    1    1    2    0    0 -0.46241551377E+03 -0.82863001911E+03 -0.11719674673E+04  0.15079666974E+04  0.00000000000E+00 0. -1.
<mgrwt>
<rscale>  0 0.27462675E+04</rscale>
<asrwt>0</asrwt>
<pdfrwt beam="1">  1        1 0.23967915E+00 0.27462675E+04</pdfrwt>
<pdfrwt beam="2">  1       -1 0.18619530E+00 0.27462675E+04</pdfrwt>
<totfact> 0.97520668E-01</totfact>
</mgrwt>
</event>
<event>
 6    1  0.9988873E-007  0.1058903E+04  0.7818608E-02  0.9246201E-01
         -2   -1    0    0    0  501 -0.00000000000E+00  0.00000000000E+00  0.38472192278E+03  0.38472192278E+03  0.00000000000E+00 0.  1.
          2   -1    0    0  501    0  0.00000000000E+00 -0.00000000000E+00 -0.72862684219E+03  0.72862684219E+03  0.00000000000E+00 0. -1.
         23    2    1    2    0    0  0.42023311273E+03  0.61357040591E+02 -0.49863792139E+03  0.66135002895E+03  0.91561611413E+02 0.  0.
         13    1    3    3    0    0  0.26409974203E+03 -0.53386776945E+01 -0.31906542126E+03  0.41422206395E+03  0.00000000000E+00 0.  1.
        -13    1    3    3    0    0  0.15613337070E+03  0.66695718286E+02 -0.17957250013E+03  0.24712796500E+03  0.00000000000E+00 0. -1.
         22    1    1    2    0    0 -0.42023311273E+03 -0.61357040591E+02  0.15473300199E+03  0.45199873602E+03  0.00000000000E+00 0.  1.
<mgrwt>
<rscale>  0 0.10589027E+04</rscale>
<asrwt>0</asrwt>
<pdfrwt beam="1">  1        2 0.11209644E+00 0.10589027E+04</pdfrwt>
<pdfrwt beam="2">  1       -2 0.59187988E-01 0.10589027E+04</pdfrwt>
<totfact> 0.10331623E+02</totfact>
</mgrwt>
</event>
<event>
 6    1  0.9988873E-007  0.2956938E+04  0.7818608E-02  0.8256136E-01
          2   -1    0    0  501    0  0.00000000000E+00  0.00000000000E+00  0.16486587542E+04  0.16486587542E+04  0.00000000000E+00 0. -1.
         -2   -1    0    0    0  501 -0.00000000000E+00 -0.00000000000E+00 -0.13258475509E+04  0.13258475509E+04  0.00000000000E+00 0.  1.
         23    2    1    2    0    0 -0.82965501247E+03  0.12260272854E+03 -0.10615389300E+04  0.13559315740E+04  0.91250559243E+02 0.  0.
         11    1    3    3    0    0 -0.28327191466E+03  0.74090924696E+02 -0.41778631926E+03  0.51017433424E+03  0.00000000000E+00 0. -1.
        -11    1    3    3    0    0 -0.54638309781E+03  0.48511803845E+02 -0.64375261078E+03  0.84575723974E+03  0.00000000000E+00 0.  1.
         22    1    1    2    0    0  0.82965501247E+03 -0.12260272854E+03  0.13843501333E+04  0.16185747312E+04  0.00000000000E+00 0. -1.
<mgrwt>
<rscale>  0 0.29569377E+04</rscale>
<asrwt>0</asrwt>
<pdfrwt beam="1">  1        2 0.25363981E+00 0.29569377E+04</pdfrwt>
<pdfrwt beam="2">  1       -2 0.20397655E+00 0.29569377E+04</pdfrwt>
<totfact> 0.11273179E+00</totfact>
</mgrwt>
</event>
<event>
 6    1  0.9988873E-007  0.5685528E+03  0.7818608E-02  0.9972886E-01
         -3   -1    0    0    0  501 -0.00000000000E+00  0.00000000000E+00  0.29799422503E+03  0.29799422503E+03  0.00000000000E+00 0.  1.
          3   -1    0    0  501    0  0.00000000000E+00 -0.00000000000E+00 -0.27119010133E+03  0.27119010133E+03  0.00000000000E+00 0. -1.
         23    2    1    2    0    0 -0.12096336998E+03 -0.24275915467E+03  0.69833189829E+02  0.29456523637E+03  0.91257109440E+02 0.  0.
         11    1    3    3    0    0 -0.99518221119E+02 -0.12814303986E+03  0.73006398008E+02  0.17791697263E+03  0.00000000000E+00 0.  1.
        -11    1    3    3    0    0 -0.21445148859E+02 -0.11461611481E+03 -0.31732081789E+01  0.11664826374E+03  0.00000000000E+00 0. -1.
         22    1    1    2    0    0  0.12096336998E+03  0.24275915467E+03 -0.43029066121E+02  0.27461908999E+03  0.00000000000E+00 0.  1.
<mgrwt>
<rscale>  0 0.56855284E+03</rscale>
<asrwt>0</asrwt>
<pdfrwt beam="1">  1        3 0.41721554E-01 0.56855284E+03</pdfrwt>
<pdfrwt beam="2">  1       -3 0.45845265E-01 0.56855284E+03</pdfrwt>
<totfact> 0.70922997E+01</totfact>
</mgrwt>
</event>
<event>
 6    1  0.1035442E-006  0.2437461E+04  0.7818608E-02  0.8425610E-01
         -1   -1    0    0    0  501 -0.00000000000E+00  0.00000000000E+00  0.99121996199E+03  0.99121996199E+03  0.00000000000E+00 0.  1.
          1   -1    0    0  501    0  0.00000000000E+00 -0.00000000000E+00 -0.14984606683E+04  0.14984606683E+04  0.00000000000E+00 0. -1.
         23    2    1    2    0    0 -0.99663921901E+03  0.56946062236E+03  0.15903049829E+03  0.11624683446E+04  0.92015321887E+02 0.  0.
         13    1    3    3    0    0 -0.55151869235E+03  0.26430555900E+03  0.97298187480E+02  0.61927153480E+03  0.00000000000E+00 0.  1.
        -13    1    3    3    0    0 -0.44512052666E+03  0.30515506336E+03  0.61732310810E+02  0.54319680977E+03  0.00000000000E+00 0. -1.
         22    1    1    2    0    0  0.99663921901E+03 -0.56946062236E+03 -0.66627120460E+03  0.13272122857E+04  0.00000000000E+00 0. -1.
<mgrwt>
<rscale>  0 0.24374611E+04</rscale>
<asrwt>0</asrwt>
<pdfrwt beam="1">  1        1 0.23053241E+00 0.24374611E+04</pdfrwt>
<pdfrwt beam="2">  1       -1 0.15249538E+00 0.24374611E+04</pdfrwt>
<totfact> 0.19544210E+00</totfact>
</mgrwt>
</event>
<event>
 6    1  0.9988873E-007  0.3611022E+04  0.7818608E-02  0.8087972E-01
         -1   -1    0    0    0  501 -0.00000000000E+00  0.00000000000E+00  0.25241982115E+04  0.25241982115E+04  0.00000000000E+00 0.  1.
          1   -1    0    0  501    0  0.00000000000E+00 -0.00000000000E+00 -0.12914477259E+04  0.12914477259E+04  0.00000000000E+00 0. -1.
         23    2    1    2    0    0 -0.69170818798E+03  0.16197235132E+04  0.10308064299E+04  0.20428667977E+04  0.93693012503E+02 0.  0.
         11    1    3    3    0    0 -0.63724588451E+03  0.14862231492E+04  0.97493913340E+03  0.18882393600E+04  0.00000000000E+00 0. -1.
        -11    1    3    3    0    0 -0.54462303472E+02  0.13350036399E+03  0.55867296511E+02  0.15462743774E+03  0.00000000000E+00 0.  1.
         22    1    1    2    0    0  0.69170818798E+03 -0.16197235132E+04  0.20194405568E+03  0.17727791397E+04  0.00000000000E+00 0. -1.
<mgrwt>
<rscale>  0 0.36110220E+04</rscale>
<asrwt>0</asrwt>
<pdfrwt beam="1">  1        1 0.19868427E+00 0.36110220E+04</pdfrwt>
<pdfrwt beam="2">  1       -1 0.38833819E+00 0.36110220E+04</pdfrwt>
<totfact> 0.63653343E-02</totfact>
</mgrwt>
</event>
<event>
 6    1  0.9988873E-007  0.2099370E+04  0.7818608E-02  0.8561521E-01
          2   -1    0    0  501    0  0.00000000000E+00  0.00000000000E+00  0.15616159009E+04  0.15616159009E+04  0.00000000000E+00 0. -1.
         -2   -1    0    0    0  501 -0.00000000000E+00 -0.00000000000E+00 -0.70557571640E+03  0.70557571640E+03  0.00000000000E+00 0.  1.
         23    2    1    2    0    0 -0.41668460232E+01  0.12850093858E+03  0.15516967863E+04  0.15597540147E+04  0.92411123812E+02 0.  0.
         11    1    3    3    0    0  0.20090954979E+01  0.57729210811E+02  0.11748764213E+04  0.11762955851E+04  0.00000000000E+00 0.  1.
        -11    1    3    3    0    0 -0.61759415211E+01  0.70771727766E+02  0.37682036502E+03  0.38345842956E+03  0.00000000000E+00 0. -1.
         22    1    1    2    0    0  0.41668460232E+01 -0.12850093858E+03 -0.69565660187E+03  0.70743760258E+03  0.00000000000E+00 0.  1.
<mgrwt>
<rscale>  0 0.20993697E+04</rscale>
<asrwt>0</asrwt>
<pdfrwt beam="1">  1        2 0.24024860E+00 0.20993697E+04</pdfrwt>
<pdfrwt beam="2">  1       -2 0.10855011E+00 0.20993697E+04</pdfrwt>
<totfact> 0.73282097E+00</totfact>
</mgrwt>
</event>
<event>
 6    1  0.9988873E-007  0.1799067E+04  0.7818608E-02  0.8706796E-01
          2   -1    0    0  501    0  0.00000000000E+00  0.00000000000E+00  0.87278449541E+03  0.87278449541E+03  0.00000000000E+00 0. -1.
         -2   -1    0    0    0  501 -0.00000000000E+00 -0.00000000000E+00 -0.92710252230E+03  0.92710252230E+03  0.00000000000E+00 0.  1.
         23    2    1    2    0    0 -0.14744184371E+03  0.39875531791E+03  0.76321348899E+03  0.87841934043E+03  0.91546747745E+02 0.  0.
         13    1    3    3    0    0 -0.27506820236E+02  0.12830941172E+03  0.31646664185E+03  0.34259460839E+03  0.00000000000E+00 0. -1.
        -13    1    3    3    0    0 -0.11993502348E+03  0.27044590619E+03  0.44674684713E+03  0.53582473203E+03  0.00000000000E+00 0.  1.
         22    1    1    2    0    0  0.14744184371E+03 -0.39875531791E+03 -0.81753151587E+03  0.92146767729E+03  0.00000000000E+00 0.  1.
<mgrwt>
<rscale>  0 0.17990672E+04</rscale>
<asrwt>0</asrwt>
<pdfrwt beam="1">  1        2 0.13427454E+00 0.17990672E+04</pdfrwt>
<pdfrwt beam="2">  1       -2 0.14263116E+00 0.17990672E+04</pdfrwt>
<totfact> 0.98836740E+00</totfact>
</mgrwt>
</event>
<event>
 6    1  0.9988873E-007  0.2507825E+04  0.7818608E-02  0.8400203E-01
          2   -1    0    0  501    0  0.00000000000E+00  0.00000000000E+00  0.22423981751E+04  0.22423981751E+04  0.00000000000E+00 0. -1.
         -2   -1    0    0    0  501 -0.00000000000E+00 -0.00000000000E+00 -0.70116719518E+03  0.70116719518E+03  0.00000000000E+00 0.  1.
         23    2    1    2    0    0 -0.31198079553E+03  0.34832265323E+03  0.21351683290E+04  0.21876405975E+04  0.90370919465E+02 0.  0.
         11    1    3    3    0    0 -0.16462016621E+03  0.18825869125E+03  0.13457657544E+04  0.13688048070E+04  0.00000000000E+00 0.  1.
        -11    1    3    3    0    0 -0.14736062933E+03  0.16006396198E+03  0.78940257461E+03  0.81883579050E+03  0.00000000000E+00 0. -1.
         22    1    1    2    0    0  0.31198079553E+03 -0.34832265323E+03 -0.59393734906E+03  0.75592477281E+03  0.00000000000E+00 0.  1.
<mgrwt>
<rscale>  0 0.25078246E+04</rscale>
<asrwt>0</asrwt>
<pdfrwt beam="1">  1        2 0.34498433E+00 0.25078246E+04</pdfrwt>
<pdfrwt beam="2">  1       -2 0.10787188E+00 0.25078246E+04</pdfrwt>
<totfact> 0.30000972E+00</totfact>
</mgrwt>
</event>
<event>
 6    1  0.9988873E-007  0.3320721E+04  0.7818608E-02  0.8157643E-01
          1   -1    0    0  501    0  0.00000000000E+00  0.00000000000E+00  0.25151094102E+04  0.25151094102E+04  0.00000000000E+00 0. -1.
         -1   -1    0    0    0  501 -0.00000000000E+00 -0.00000000000E+00 -0.10960944862E+04  0.10960944862E+04  0.00000000000E+00 0.  1.
         23    2    1    2    0    0 -0.42576107163E+03  0.57879355279E+03 -0.91624566428E+03  0.11679035705E+04  0.90654100112E+02 0.  0.
         11    1    3    3    0    0 -0.22175457808E+03  0.23803277509E+03 -0.37258455493E+03  0.49462505546E+03  0.00000000000E+00 0. -1.
        -11    1    3    3    0    0 -0.20400649355E+03  0.34076077769E+03 -0.54366110935E+03  0.67327851506E+03  0.00000000000E+00 0.  1.
         22    1    1    2    0    0  0.42576107163E+03 -0.57879355279E+03  0.23352605883E+04  0.24433003258E+04  0.00000000000E+00 0. -1.
<mgrwt>
<rscale>  0 0.33207213E+04</rscale>
<asrwt>0</asrwt>
<pdfrwt beam="1">  1        1 0.38693991E+00 0.33207213E+04</pdfrwt>
<pdfrwt beam="2">  1       -1 0.16862992E+00 0.33207213E+04</pdfrwt>
<totfact> 0.27574845E-01</totfact>
</mgrwt>
</event>
<event>
 6    1  0.9988873E-007  0.2495707E+04  0.7818608E-02  0.8404517E-01
          1   -1    0    0  501    0  0.00000000000E+00  0.00000000000E+00  0.16178629765E+04  0.16178629765E+04  0.00000000000E+00 0. -1.
         -1   -1    0    0    0  501 -0.00000000000E+00 -0.00000000000E+00 -0.96246591723E+03  0.96246591723E+03  0.00000000000E+00 0.  1.
         23    2    1    2    0    0  0.11504454590E+04 -0.45700721211E+03  0.19038033158E+03  0.12579745906E+04  0.11779241780E+03 0.  0.
         13    1    3    3    0    0  0.10364501053E+04 -0.38432999837E+03  0.14253013849E+03  0.11145641340E+04  0.00000000000E+00 0.  1.
        -13    1    3    3    0    0  0.11399535374E+03 -0.72677213739E+02  0.47850193093E+02  0.14341045656E+03  0.00000000000E+00 0. -1.
         22    1    1    2    0    0 -0.11504454590E+04  0.45700721211E+03  0.46501672772E+03  0.13223543032E+04  0.00000000000E+00 0.  1.
<mgrwt>
<rscale>  0 0.24957067E+04</rscale>
<asrwt>0</asrwt>
<pdfrwt beam="1">  1        1 0.24890200E+00 0.24957067E+04</pdfrwt>
<pdfrwt beam="2">  1       -1 0.14807168E+00 0.24957067E+04</pdfrwt>
<totfact> 0.17417275E+00</totfact>
</mgrwt>
</event>
<event>
 6    1  0.9988873E-007  0.6157273E+03  0.7818608E-02  0.9873304E-01
          2   -1    0    0  501    0  0.00000000000E+00  0.00000000000E+00  0.56541418740E+03  0.56541418740E+03  0.00000000000E+00 0. -1.
         -2   -1    0    0    0  501 -0.00000000000E+00 -0.00000000000E+00 -0.16762939855E+03  0.16762939855E+03  0.00000000000E+00 0.  1.
         23    2    1    2    0    0 -0.12402754902E+03 -0.20231294821E+03 -0.17413643079E+02  0.25481445697E+03  0.91180099707E+02 0.  0.
         11    1    3    3    0    0 -0.31531686201E+01 -0.79423052487E+02 -0.21677107462E+02  0.82388474477E+02  0.00000000000E+00 0.  1.
        -11    1    3    3    0    0 -0.12087438040E+03 -0.12288989573E+03  0.42634643832E+01  0.17242598249E+03  0.00000000000E+00 0. -1.
         22    1    1    2    0    0  0.12402754902E+03  0.20231294821E+03  0.41519843193E+03  0.47822912898E+03  0.00000000000E+00 0. -1.
<mgrwt>
<rscale>  0 0.61572734E+03</rscale>
<asrwt>0</asrwt>
<pdfrwt beam="1">  1        2 0.86986797E-01 0.61572734E+03</pdfrwt>
<pdfrwt beam="2">  1       -2 0.25789139E-01 0.61572734E+03</pdfrwt>
<totfact> 0.72543304E+02</totfact>
</mgrwt>
</event>
<event>
 6    1  0.9988873E-007  0.2049541E+03  0.7818608E-02  0.1145625E+00
         -1   -1    0    0    0  501 -0.00000000000E+00  0.00000000000E+00  0.15654251466E+02  0.15654251466E+02  0.00000000000E+00 0.  1.
          1   -1    0    0  501    0  0.00000000000E+00 -0.00000000000E+00 -0.67084311529E+03  0.67084311529E+03  0.00000000000E+00 0. -1.
         23    2    1    2    0    0 -0.72086769893E+02 -0.37191854590E+02 -0.34861660393E+03  0.36937548644E+03  0.91241311925E+02 0.  0.
         13    1    3    3    0    0 -0.68806797947E+02 -0.49118323798E+02 -0.34670032644E+03  0.35685865764E+03  0.00000000000E+00 0. -1.
        -13    1    3    3    0    0 -0.32799719466E+01  0.11926469208E+02 -0.19162774892E+01  0.12516828798E+02  0.00000000000E+00 0.  1.
         22    1    1    2    0    0  0.72086769893E+02  0.37191854590E+02 -0.30657225989E+03  0.31712188031E+03  0.00000000000E+00 0. -1.
<mgrwt>
<rscale>  0 0.20495411E+03</rscale>
<asrwt>0</asrwt>
<pdfrwt beam="1">  1        1 0.10320661E+00 0.20495411E+03</pdfrwt>
<pdfrwt beam="2">  1       -1 0.24083470E-02 0.20495411E+03</pdfrwt>
<totfact> 0.15321588E+04</totfact>
</mgrwt>
</event>
<event>
 6    1  0.9988873E-007  0.3420475E+04  0.7818608E-02  0.8132899E-01
         -2   -1    0    0    0  501 -0.00000000000E+00  0.00000000000E+00  0.14489060582E+04  0.14489060582E+04  0.00000000000E+00 0.  1.
          2   -1    0    0  501    0  0.00000000000E+00 -0.00000000000E+00 -0.20187038783E+04  0.20187038783E+04  0.00000000000E+00 0. -1.
         23    2    1    2    0    0 -0.16096041924E+04 -0.25067957968E+03  0.23873257777E+03  0.16489875700E+04  0.92200077657E+02 0.  0.
         13    1    3    3    0    0 -0.13344919680E+04 -0.17281158727E+03  0.19150264046E+03  0.13591931131E+04  0.00000000000E+00 0. -1.
        -13    1    3    3    0    0 -0.27511222442E+03 -0.77867992403E+02  0.47229937312E+02  0.28979445689E+03  0.00000000000E+00 0.  1.
         22    1    1    2    0    0  0.16096041924E+04  0.25067957968E+03 -0.80853039785E+03  0.18186223666E+04  0.00000000000E+00 0. -1.
<mgrwt>
<rscale>  0 0.34204750E+04</rscale>
<asrwt>0</asrwt>
<pdfrwt beam="1">  1        2 0.31056983E+00 0.34204750E+04</pdfrwt>
<pdfrwt beam="2">  1       -2 0.22290862E+00 0.34204750E+04</pdfrwt>
<totfact> 0.51111449E-01</totfact>
</mgrwt>
</event>
<event>
 6    1  0.9988873E-007  0.1771144E+04  0.7818608E-02  0.8721797E-01
         -2   -1    0    0    0  501 -0.00000000000E+00  0.00000000000E+00  0.43544722753E+03  0.43544722753E+03  0.00000000000E+00 0.  1.
          2   -1    0    0  501    0  0.00000000000E+00 -0.00000000000E+00 -0.18009946079E+04  0.18009946079E+04  0.00000000000E+00 0. -1.
         23    2    1    2    0    0  0.61947331028E+03  0.53464048707E+03 -0.26410720352E+03  0.86430550994E+03  0.87657098953E+02 0.  0.
         13    1    3    3    0    0  0.48704720155E+03  0.39793381631E+03 -0.23672772312E+03  0.67201660217E+03  0.00000000000E+00 0. -1.
        -13    1    3    3    0    0  0.13242610873E+03  0.13670667076E+03 -0.27379480402E+02  0.19228890777E+03  0.00000000000E+00 0.  1.
         22    1    1    2    0    0 -0.61947331028E+03 -0.53464048707E+03 -0.11014401769E+04  0.13721363255E+04  0.00000000000E+00 0. -1.
<mgrwt>
<rscale>  0 0.17711444E+04</rscale>
<asrwt>0</asrwt>
<pdfrwt beam="1">  1        2 0.27707610E+00 0.17711444E+04</pdfrwt>
<pdfrwt beam="2">  1       -2 0.66991880E-01 0.17711444E+04</pdfrwt>
<totfact> 0.16677470E+01</totfact>
</mgrwt>
</event>
<event>
 6    1  0.9988873E-007  0.3445712E+04  0.7818608E-02  0.8126777E-01
         -1   -1    0    0    0  501 -0.00000000000E+00  0.00000000000E+00  0.12834121666E+04  0.12834121666E+04  0.00000000000E+00 0.  1.
          1   -1    0    0  501    0  0.00000000000E+00 -0.00000000000E+00 -0.23127663276E+04  0.23127663276E+04  0.00000000000E+00 0. -1.
         23    2    1    2    0    0 -0.14410710529E+04  0.69637719959E+03  0.14701589385E+03  0.16098568965E+04  0.91643715948E+02 0.  0.
         13    1    3    3    0    0 -0.67002467919E+03  0.27931437843E+03  0.88558957362E+02  0.73129493480E+03  0.00000000000E+00 0. -1.
        -13    1    3    3    0    0 -0.77104637366E+03  0.41706282116E+03  0.58456936490E+02  0.87856196170E+03  0.00000000000E+00 0.  1.
         22    1    1    2    0    0  0.14410710529E+04 -0.69637719959E+03 -0.11763700549E+04  0.19863215977E+04  0.00000000000E+00 0.  1.
<mgrwt>
<rscale>  0 0.34457118E+04</rscale>
<asrwt>0</asrwt>
<pdfrwt beam="1">  1        1 0.35581020E+00 0.34457118E+04</pdfrwt>
<pdfrwt beam="2">  1       -1 0.19744803E+00 0.34457118E+04</pdfrwt>
<totfact> 0.23431517E-01</totfact>
</mgrwt>
</event>
<event>
 6    1  0.9988873E-007  0.1699091E+04  0.7818608E-02  0.8761883E-01
          1   -1    0    0  501    0  0.00000000000E+00  0.00000000000E+00  0.11787203425E+04  0.11787203425E+04  0.00000000000E+00 0. -1.
         -1   -1    0    0    0  501 -0.00000000000E+00 -0.00000000000E+00 -0.61229753548E+03  0.61229753548E+03  0.00000000000E+00 0.  1.
         23    2    1    2    0    0  0.18147572195E+03  0.68982806269E+03 -0.19768157490E+03  0.74571806442E+03  0.90671014166E+02 0.  0.
         13    1    3    3    0    0  0.10496023307E+03  0.54167548296E+03 -0.13948110186E+03  0.56910803644E+03  0.00000000000E+00 0. -1.
        -13    1    3    3    0    0  0.76515488881E+02  0.14815257973E+03 -0.58200473044E+02  0.17661002798E+03  0.00000000000E+00 0.  1.
         22    1    1    2    0    0 -0.18147572195E+03 -0.68982806269E+03  0.76410438190E+03  0.10452998135E+04  0.00000000000E+00 0. -1.
<mgrwt>
<rscale>  0 0.16990910E+04</rscale>
<asrwt>0</asrwt>
<pdfrwt beam="1">  1        1 0.18134159E+00 0.16990910E+04</pdfrwt>
<pdfrwt beam="2">  1       -1 0.94199621E-01 0.16990910E+04</pdfrwt>
<totfact> 0.11505884E+01</totfact>
</mgrwt>
</event>
<event>
 6    1  0.9988873E-007  0.2985087E+04  0.7818608E-02  0.8248002E-01
          2   -1    0    0  501    0  0.00000000000E+00  0.00000000000E+00  0.21318979756E+04  0.21318979756E+04  0.00000000000E+00 0. -1.
         -2   -1    0    0    0  501 -0.00000000000E+00 -0.00000000000E+00 -0.10449305917E+04  0.10449305917E+04  0.00000000000E+00 0.  1.
         23    2    1    2    0    0  0.48421788640E+03 -0.40425604765E+03  0.19819331836E+04  0.20819067910E+04  0.91579630590E+02 0.  0.
         11    1    3    3    0    0  0.77550778721E+02 -0.10231156322E+03  0.33110280586E+03  0.35512089110E+03  0.00000000000E+00 0. -1.
        -11    1    3    3    0    0  0.40666710768E+03 -0.30194448444E+03  0.16508303777E+04  0.17267858999E+04  0.00000000000E+00 0.  1.
         22    1    1    2    0    0 -0.48421788640E+03  0.40425604765E+03 -0.89496579972E+03  0.10949217763E+04  0.00000000000E+00 0.  1.
<mgrwt>
<rscale>  0 0.29850865E+04</rscale>
<asrwt>0</asrwt>
<pdfrwt beam="1">  1        2 0.32798430E+00 0.29850865E+04</pdfrwt>
<pdfrwt beam="2">  1       -2 0.16075855E+00 0.29850865E+04</pdfrwt>
<totfact> 0.12018485E+00</totfact>
</mgrwt>
</event>
<event>
 6    1  0.9988873E-007  0.3460058E+04  0.7818608E-02  0.8123321E-01
          1   -1    0    0  501    0  0.00000000000E+00  0.00000000000E+00  0.16822389880E+04  0.16822389880E+04  0.00000000000E+00 0. -1.
         -1   -1    0    0    0  501 -0.00000000000E+00 -0.00000000000E+00 -0.17791767968E+04  0.17791767968E+04  0.00000000000E+00 0.  1.
         23    2    1    2    0    0  0.16043227958E+04  0.12881211489E+03  0.58253966393E+03  0.17143800583E+04  0.96448587373E+02 0.  0.
         11    1    3    3    0    0  0.82199573620E+03  0.85245166939E+02  0.34602480827E+03  0.89592237206E+03  0.00000000000E+00 0. -1.
        -11    1    3    3    0    0  0.78232705961E+03  0.43566947952E+02  0.23651485566E+03  0.81845768619E+03  0.00000000000E+00 0.  1.
         22    1    1    2    0    0 -0.16043227958E+04 -0.12881211489E+03 -0.67947747273E+03  0.17470357266E+04  0.00000000000E+00 0.  1.
<mgrwt>
<rscale>  0 0.34600581E+04</rscale>
<asrwt>0</asrwt>
<pdfrwt beam="1">  1        1 0.25880600E+00 0.34600581E+04</pdfrwt>
<pdfrwt beam="2">  1       -1 0.27371950E+00 0.34600581E+04</pdfrwt>
<totfact> 0.19608487E-01</totfact>
</mgrwt>
</event>
<event>
 6    1  0.9988873E-007  0.2700143E+04  0.7818608E-02  0.8334958E-01
          2   -1    0    0  501    0  0.00000000000E+00  0.00000000000E+00  0.13006201886E+04  0.13006201886E+04  0.00000000000E+00 0. -1.
         -2   -1    0    0    0  501 -0.00000000000E+00 -0.00000000000E+00 -0.14014033579E+04  0.14014033579E+04  0.00000000000E+00 0.  1.
         23    2    1    2    0    0 -0.10876576255E+03 -0.91397932908E+03 -0.10366319870E+04  0.13893921380E+04  0.92824736114E+02 0.  0.
         13    1    3    3    0    0 -0.51823352833E+02 -0.31241650264E+03 -0.42046712006E+03  0.52638610361E+03  0.00000000000E+00 0.  1.
        -13    1    3    3    0    0 -0.56942409717E+02 -0.60156282643E+03 -0.61616486689E+03  0.86300603437E+03  0.00000000000E+00 0. -1.
         22    1    1    2    0    0  0.10876576255E+03  0.91397932908E+03  0.93584881766E+03  0.13126314085E+04  0.00000000000E+00 0. -1.
<mgrwt>
<rscale>  0 0.27001433E+04</rscale>
<asrwt>0</asrwt>
<pdfrwt beam="1">  1        2 0.20009541E+00 0.27001433E+04</pdfrwt>
<pdfrwt beam="2">  1       -2 0.21560052E+00 0.27001433E+04</pdfrwt>
<totfact> 0.15275855E+00</totfact>
</mgrwt>
</event>
<event>
 6    1  0.9988873E-007  0.2652839E+04  0.7818608E-02  0.8350471E-01
         -2   -1    0    0    0  501 -0.00000000000E+00  0.00000000000E+00  0.82038615895E+03  0.82038615895E+03  0.00000000000E+00 0.  1.
          2   -1    0    0  501    0  0.00000000000E+00 -0.00000000000E+00 -0.21445853846E+04  0.21445853846E+04  0.00000000000E+00 0. -1.
         23    2    1    2    0    0 -0.11853324073E+03 -0.23217659980E+03 -0.21146848467E+04  0.21326112732E+04  0.90458491466E+02 0.  0.
         13    1    3    3    0    0 -0.46267742868E+02 -0.52154650655E+02 -0.32199482261E+03  0.32945633611E+03  0.00000000000E+00 0. -1.
        -13    1    3    3    0    0 -0.72265497861E+02 -0.18002194914E+03 -0.17926900241E+04  0.18031549370E+04  0.00000000000E+00 0.  1.
         22    1    1    2    0    0  0.11853324073E+03  0.23217659980E+03  0.79048562107E+03  0.83236027042E+03  0.00000000000E+00 0.  1.
<mgrwt>
<rscale>  0 0.26528386E+04</rscale>
<asrwt>0</asrwt>
<pdfrwt beam="1">  1        2 0.32993621E+00 0.26528386E+04</pdfrwt>
<pdfrwt beam="2">  1       -2 0.12621325E+00 0.26528386E+04</pdfrwt>
<totfact> 0.22863245E+00</totfact>
</mgrwt>
</event>
<event>
 6    1  0.9988873E-007  0.1359416E+04  0.7818608E-02  0.8983730E-01
          1   -1    0    0  501    0  0.00000000000E+00  0.00000000000E+00  0.46974418781E+03  0.46974418781E+03  0.00000000000E+00 0. -1.
         -1   -1    0    0    0  501 -0.00000000000E+00 -0.00000000000E+00 -0.98352102572E+03  0.98352102572E+03  0.00000000000E+00 0.  1.
         23    2    1    2    0    0 -0.11994564624E+03  0.66358052029E+03 -0.31817632113E+03  0.75113586141E+03  0.90790120687E+02 0.  0.
         11    1    3    3    0    0 -0.87608947385E+02  0.24439802096E+03 -0.13344908619E+03  0.29191502002E+03  0.00000000000E+00 0. -1.
        -11    1    3    3    0    0 -0.32336698854E+02  0.41918249933E+03 -0.18472723493E+03  0.45922084138E+03  0.00000000000E+00 0.  1.
         22    1    1    2    0    0  0.11994564624E+03 -0.66358052029E+03 -0.19560051678E+03  0.70212935213E+03  0.00000000000E+00 0.  1.
<mgrwt>
<rscale>  0 0.13594165E+04</rscale>
<asrwt>0</asrwt>
<pdfrwt beam="1">  1        1 0.72268337E-01 0.13594165E+04</pdfrwt>
<pdfrwt beam="2">  1       -1 0.15131093E+00 0.13594165E+04</pdfrwt>
<totfact> 0.16099068E+01</totfact>
</mgrwt>
</event>
<event>
 6    1  0.9988873E-007  0.2669522E+04  0.7818608E-02  0.8344962E-01
          2   -1    0    0  501    0  0.00000000000E+00  0.00000000000E+00  0.97254575486E+03  0.97254575486E+03  0.00000000000E+00 0. -1.
         -2   -1    0    0    0  501 -0.00000000000E+00 -0.00000000000E+00 -0.18318797950E+04  0.18318797950E+04  0.00000000000E+00 0.  1.
         23    2    1    2    0    0 -0.45982115516E+03  0.30531531082E+03 -0.17050124642E+04  0.17945617321E+04  0.93441818783E+02 0.  0.
         13    1    3    3    0    0 -0.41153886135E+02  0.44391358178E+02 -0.28324304284E+03  0.28963918302E+03  0.00000000000E+00 0. -1.
        -13    1    3    3    0    0 -0.41866726903E+03  0.26092395264E+03 -0.14217694213E+04  0.15049225491E+04  0.00000000000E+00 0.  1.
         22    1    1    2    0    0  0.45982115516E+03 -0.30531531082E+03  0.84567842399E+03  0.10098638178E+04  0.00000000000E+00 0. -1.
<mgrwt>
<rscale>  0 0.26695220E+04</rscale>
<asrwt>0</asrwt>
<pdfrwt beam="1">  1        2 0.14962242E+00 0.26695220E+04</pdfrwt>
<pdfrwt beam="2">  1       -2 0.28182766E+00 0.26695220E+04</pdfrwt>
<totfact> 0.94727262E-01</totfact>
</mgrwt>
</event>
<event>
 6    1  0.9988873E-007  0.4136470E+04  0.7818608E-02  0.7977568E-01
         -2   -1    0    0    0  501 -0.00000000000E+00  0.00000000000E+00  0.12376735447E+04  0.12376735447E+04  0.00000000000E+00 0.  1.
          2   -1    0    0  501    0  0.00000000000E+00 -0.00000000000E+00 -0.34561580615E+04  0.34561580615E+04  0.00000000000E+00 0. -1.
         23    2    1    2    0    0  0.10933988062E+04 -0.80788838412E+03 -0.28768587536E+04  0.31833147323E+04  0.94719619089E+02 0.  0.
         11    1    3    3    0    0  0.71960059572E+02 -0.63796758752E+02 -0.26206554754E+03  0.27915341268E+03  0.00000000000E+00 0. -1.
        -11    1    3    3    0    0  0.10214387466E+04 -0.74409162537E+03 -0.26147932060E+04  0.29041613196E+04  0.00000000000E+00 0.  1.
         22    1    1    2    0    0 -0.10933988062E+04  0.80788838412E+03  0.65837423679E+03  0.15105168739E+04  0.00000000000E+00 0.  1.
<mgrwt>
<rscale>  0 0.41364697E+04</rscale>
<asrwt>0</asrwt>
<pdfrwt beam="1">  1        2 0.53171662E+00 0.41364697E+04</pdfrwt>
<pdfrwt beam="2">  1       -2 0.19041132E+00 0.41364697E+04</pdfrwt>
<totfact> 0.10463937E-01</totfact>
</mgrwt>
</event>
<event>
 6    1  0.9988873E-007  0.2964694E+04  0.7818608E-02  0.8253885E-01
         -1   -1    0    0    0  501 -0.00000000000E+00  0.00000000000E+00  0.13013105461E+04  0.13013105461E+04  0.00000000000E+00 0.  1.
          1   -1    0    0  501    0  0.00000000000E+00 -0.00000000000E+00 -0.16885694890E+04  0.16885694890E+04  0.00000000000E+00 0. -1.
         23    2    1    2    0    0 -0.12135947941E+04  0.19046284653E+03 -0.10278051355E+04  0.16044602990E+04  0.93920362095E+02 0.  0.
         11    1    3    3    0    0 -0.47767491557E+03  0.11946441826E+03 -0.39326882466E+03  0.63016302704E+03  0.00000000000E+00 0. -1.
        -11    1    3    3    0    0 -0.73591987854E+03  0.70998428278E+02 -0.63453631085E+03  0.97429727200E+03  0.00000000000E+00 0.  1.
         22    1    1    2    0    0  0.12135947941E+04 -0.19046284653E+03  0.64054619265E+03  0.13854197361E+04  0.00000000000E+00 0.  1.
<mgrwt>
<rscale>  0 0.29646944E+04</rscale>
<asrwt>0</asrwt>
<pdfrwt beam="1">  1        1 0.25977992E+00 0.29646944E+04</pdfrwt>
<pdfrwt beam="2">  1       -1 0.20020162E+00 0.29646944E+04</pdfrwt>
<totfact> 0.62145602E-01</totfact>
</mgrwt>
</event>
<event>
 6    1  0.9988873E-007  0.2128453E+04  0.7818608E-02  0.8548812E-01
          2   -1    0    0  501    0  0.00000000000E+00  0.00000000000E+00  0.13209231909E+04  0.13209231909E+04  0.00000000000E+00 0. -1.
         -2   -1    0    0    0  501 -0.00000000000E+00 -0.00000000000E+00 -0.85741375317E+03  0.85741375317E+03  0.00000000000E+00 0.  1.
         23    2    1    2    0    0  0.60747072209E+03  0.62983107577E+03  0.84875730061E+03  0.12222387389E+04  0.88151672092E+02 0.  0.
         11    1    3    3    0    0  0.23802241949E+03  0.28422233878E+03  0.31079833408E+03  0.48376917483E+03  0.00000000000E+00 0. -1.
        -11    1    3    3    0    0  0.36944830260E+03  0.34560873699E+03  0.53795896652E+03  0.73846956406E+03  0.00000000000E+00 0.  1.
         22    1    1    2    0    0 -0.60747072209E+03 -0.62983107577E+03 -0.38524786284E+03  0.95609820522E+03  0.00000000000E+00 0.  1.
<mgrwt>
<rscale>  0 0.21284527E+04</rscale>
<asrwt>0</asrwt>
<pdfrwt beam="1">  1        2 0.20321895E+00 0.21284527E+04</pdfrwt>
<pdfrwt beam="2">  1       -2 0.13190981E+00 0.21284527E+04</pdfrwt>
<totfact> 0.61860732E+00</totfact>
</mgrwt>
</event>
<event>
 6    1  0.9988873E-007  0.2034651E+04  0.7818608E-02  0.8590589E-01
         -2   -1    0    0    0  501 -0.00000000000E+00  0.00000000000E+00  0.27153239003E+03  0.27153239003E+03  0.00000000000E+00 0.  1.
          2   -1    0    0  501    0  0.00000000000E+00 -0.00000000000E+00 -0.38115212503E+04  0.38115212503E+04  0.00000000000E+00 0. -1.
         23    2    1    2    0    0  0.52819358056E+03  0.86506709677E+03 -0.18904278058E+04  0.21469799814E+04  0.92066340558E+02 0.  0.
         13    1    3    3    0    0  0.20923218192E+03  0.43064904191E+03 -0.89599397890E+03  0.10158946370E+04  0.00000000000E+00 0.  1.
        -13    1    3    3    0    0  0.31896139863E+03  0.43441805486E+03 -0.99443382692E+03  0.11310853444E+04  0.00000000000E+00 0. -1.
         22    1    1    2    0    0 -0.52819358056E+03 -0.86506709677E+03 -0.16495610544E+04  0.19360736589E+04  0.00000000000E+00 0.  1.
<mgrwt>
<rscale>  0 0.20346513E+04</rscale>
<asrwt>0</asrwt>
<pdfrwt beam="1">  1        2 0.58638783E+00 0.20346513E+04</pdfrwt>
<pdfrwt beam="2">  1       -2 0.41774218E-01 0.20346513E+04</pdfrwt>
<totfact> 0.24406052E+00</totfact>
</mgrwt>
</event>
<event>
 6    1  0.9988873E-007  0.2063628E+04  0.7818608E-02  0.8577437E-01
          2   -1    0    0  501    0  0.00000000000E+00  0.00000000000E+00  0.92287783191E+03  0.92287783191E+03  0.00000000000E+00 0. -1.
         -2   -1    0    0    0  501 -0.00000000000E+00 -0.00000000000E+00 -0.11536089107E+04  0.11536089107E+04  0.00000000000E+00 0.  1.
         23    2    1    2    0    0 -0.58857977653E+03  0.35756436568E+03  0.65458266281E+03  0.95485451679E+03  0.94816964985E+02 0.  0.
         13    1    3    3    0    0 -0.45342338392E+03  0.22857940026E+03  0.49538144655E+03  0.70939698681E+03  0.00000000000E+00 0.  1.
        -13    1    3    3    0    0 -0.13515639260E+03  0.12898496542E+03  0.15920121626E+03  0.24545752998E+03  0.00000000000E+00 0. -1.
         22    1    1    2    0    0  0.58857977653E+03 -0.35756436568E+03 -0.88531374162E+03  0.11216322258E+04  0.00000000000E+00 0.  1.
<mgrwt>
<rscale>  0 0.20636280E+04</rscale>
<asrwt>0</asrwt>
<pdfrwt beam="1">  1        2 0.14198121E+00 0.20636280E+04</pdfrwt>
<pdfrwt beam="2">  1       -2 0.17747829E+00 0.20636280E+04</pdfrwt>
<totfact> 0.49365375E+00</totfact>
</mgrwt>
</event>
<event>
 6    1  0.9988873E-007  0.2278065E+04  0.7818608E-02  0.8486620E-01
         -2   -1    0    0    0  501 -0.00000000000E+00  0.00000000000E+00  0.15742195712E+04  0.15742195712E+04  0.00000000000E+00 0.  1.
          2   -1    0    0  501    0  0.00000000000E+00 -0.00000000000E+00 -0.82415100237E+03  0.82415100237E+03  0.00000000000E+00 0. -1.
         23    2    1    2    0    0 -0.48263815843E+03  0.83676447801E+03 -0.25620782410E+03  0.10034847135E+04  0.90690338655E+02 0.  0.
         13    1    3    3    0    0 -0.36549525845E+03  0.60406686129E+03 -0.14795927566E+03  0.72137057337E+03  0.00000000000E+00 0. -1.
        -13    1    3    3    0    0 -0.11714289998E+03  0.23269761671E+03 -0.10824854844E+03  0.28211414016E+03  0.00000000000E+00 0.  1.
         22    1    1    2    0    0  0.48263815843E+03 -0.83676447801E+03  0.10062763930E+04  0.13948858601E+04  0.00000000000E+00 0.  1.
<mgrwt>
<rscale>  0 0.22780647E+04</rscale>
<asrwt>0</asrwt>
<pdfrwt beam="1">  1        2 0.12679246E+00 0.22780647E+04</pdfrwt>
<pdfrwt beam="2">  1       -2 0.24218763E+00 0.22780647E+04</pdfrwt>
<totfact> 0.21579628E+00</totfact>
</mgrwt>
</event>
<event>
 6    1  0.9988873E-007  0.1561251E+04  0.7818608E-02  0.8844713E-01
         -2   -1    0    0    0  501 -0.00000000000E+00  0.00000000000E+00  0.28241662640E+03  0.28241662640E+03  0.00000000000E+00 0.  1.
          2   -1    0    0  501    0  0.00000000000E+00 -0.00000000000E+00 -0.21577211316E+04  0.21577211316E+04  0.00000000000E+00 0. -1.
         23    2    1    2    0    0 -0.32558880004E+03  0.27029335729E+03 -0.19613974751E+04  0.20083061181E+04  0.84539002858E+02 0.  0.
         13    1    3    3    0    0 -0.60871220512E+02  0.34908801716E+02 -0.48253101260E+03  0.48760650944E+03  0.00000000000E+00 0.  1.
        -13    1    3    3    0    0 -0.26471757953E+03  0.23538455558E+03 -0.14788664625E+04  0.15206996087E+04  0.00000000000E+00 0. -1.
         22    1    1    2    0    0  0.32558880004E+03 -0.27029335729E+03  0.86092969931E+02  0.43183163986E+03  0.00000000000E+00 0.  1.
<mgrwt>
<rscale>  0 0.15612512E+04</rscale>
<asrwt>0</asrwt>
<pdfrwt beam="1">  1        2 0.33195710E+00 0.15612512E+04</pdfrwt>
<pdfrwt beam="2">  1       -2 0.43448711E-01 0.15612512E+04</pdfrwt>
<totfact> 0.26367868E+01</totfact>
</mgrwt>
</event>
<event>
 6    1  0.9988873E-007  0.2360221E+04  0.7818608E-02  0.8454548E-01
          2   -1    0    0  501    0  0.00000000000E+00  0.00000000000E+00  0.28435746721E+04  0.28435746721E+04  0.00000000000E+00 0. -1.
         -2   -1    0    0    0  501 -0.00000000000E+00 -0.00000000000E+00 -0.48975726890E+03  0.48975726890E+03  0.00000000000E+00 0.  1.
         23    2    1    2    0    0  0.83242633076E+03 -0.62430992713E+03  0.19581155416E+04  0.22201040018E+04  0.10931067481E+03 0.  0.
         13    1    3    3    0    0  0.53122070921E+03 -0.34159248527E+03  0.11235480694E+04  0.12888914354E+04  0.00000000000E+00 0.  1.
        -13    1    3    3    0    0  0.30120562155E+03 -0.28271744186E+03  0.83456747217E+03  0.93121256649E+03  0.00000000000E+00 0. -1.
         22    1    1    2    0    0 -0.83242633076E+03  0.62430992713E+03  0.39570186167E+03  0.11132279392E+04  0.00000000000E+00 0.  1.
<mgrwt>
<rscale>  0 0.23602215E+04</rscale>
<asrwt>0</asrwt>
<pdfrwt beam="1">  1        2 0.43747302E+00 0.23602215E+04</pdfrwt>
<pdfrwt beam="2">  1       -2 0.75347274E-01 0.23602215E+04</pdfrwt>
<totfact> 0.31030666E+00</totfact>
</mgrwt>
</event>
<event>
 6    1  0.9988873E-007  0.3762643E+04  0.7818608E-02  0.8054219E-01
         -1   -1    0    0    0  501 -0.00000000000E+00  0.00000000000E+00  0.15613533650E+04  0.15613533650E+04  0.00000000000E+00 0.  1.
          1   -1    0    0  501    0  0.00000000000E+00 -0.00000000000E+00 -0.22668611613E+04  0.22668611613E+04  0.00000000000E+00 0. -1.
         23    2    1    2    0    0  0.24931938598E+03  0.17805145623E+04 -0.91263928667E+03  0.20184367175E+04  0.93723275933E+02 0.  0.
         11    1    3    3    0    0  0.21899570883E+03  0.12703675559E+04 -0.66615790948E+03  0.14510545158E+04  0.00000000000E+00 0.  1.
        -11    1    3    3    0    0  0.30323677141E+02  0.51014700638E+03 -0.24648137719E+03  0.56738220171E+03  0.00000000000E+00 0. -1.
         22    1    1    2    0    0 -0.24931938598E+03 -0.17805145623E+04  0.20713149042E+03  0.18097778087E+04  0.00000000000E+00 0.  1.
<mgrwt>
<rscale>  0 0.37626434E+04</rscale>
<asrwt>0</asrwt>
<pdfrwt beam="1">  1        1 0.34874787E+00 0.37626434E+04</pdfrwt>
<pdfrwt beam="2">  1       -1 0.24020821E+00 0.37626434E+04</pdfrwt>
<totfact> 0.12650396E-01</totfact>
</mgrwt>
</event>
<event>
 6    1  0.9988873E-007  0.4132373E+03  0.7818608E-02  0.1039290E+00
         -2   -1    0    0    0  501 -0.00000000000E+00  0.00000000000E+00  0.18843428154E+03  0.18843428154E+03  0.00000000000E+00 0.  1.
          2   -1    0    0  501    0  0.00000000000E+00 -0.00000000000E+00 -0.22655781370E+03  0.22655781370E+03  0.00000000000E+00 0. -1.
         23    2    1    2    0    0  0.18963492992E+03 -0.30670893420E+02 -0.61381746476E+02  0.22149001545E+03  0.91586013097E+02 0.  0.
         11    1    3    3    0    0  0.17270848764E+03 -0.54625790578E+02 -0.40861107889E+02  0.18569283464E+03  0.00000000000E+00 0.  1.
        -11    1    3    3    0    0  0.16926442288E+02  0.23954897158E+02 -0.20520638586E+02  0.35797180816E+02  0.00000000000E+00 0. -1.
         22    1    1    2    0    0 -0.18963492992E+03  0.30670893420E+02  0.23258214316E+02  0.19350207979E+03  0.00000000000E+00 0.  1.
<mgrwt>
<rscale>  0 0.41323726E+03</rscale>
<asrwt>0</asrwt>
<pdfrwt beam="1">  1        2 0.34855048E-01 0.41323726E+03</pdfrwt>
<pdfrwt beam="2">  1       -2 0.28989890E-01 0.41323726E+03</pdfrwt>
<totfact> 0.16292579E+03</totfact>
</mgrwt>
</event>
<event>
 6    1  0.9988873E-007  0.3038617E+04  0.7818608E-02  0.8232789E-01
         -2   -1    0    0    0  501 -0.00000000000E+00  0.00000000000E+00  0.10929459407E+04  0.10929459407E+04  0.00000000000E+00 0.  1.
          2   -1    0    0  501    0  0.00000000000E+00 -0.00000000000E+00 -0.21119966537E+04  0.21119966537E+04  0.00000000000E+00 0. -1.
         23    2    1    2    0    0  0.31753244372E+02  0.66021579297E+03  0.93125678398E+03  0.11456727008E+04  0.91834513587E+02 0.  0.
         13    1    3    3    0    0 -0.94466593297E+01  0.17968921309E+03  0.19325376315E+03  0.26405391428E+03  0.00000000000E+00 0. -1.
        -13    1    3    3    0    0  0.41199903701E+02  0.48052657988E+03  0.73800302082E+03  0.88161878654E+03  0.00000000000E+00 0.  1.
         22    1    1    2    0    0 -0.31753244372E+02 -0.66021579297E+03 -0.19503074969E+04  0.20592698935E+04  0.00000000000E+00 0. -1.
<mgrwt>
<rscale>  0 0.30386169E+04</rscale>
<asrwt>0</asrwt>
<pdfrwt beam="1">  1        2 0.32492256E+00 0.30386169E+04</pdfrwt>
<pdfrwt beam="2">  1       -2 0.16814553E+00 0.30386169E+04</pdfrwt>
<totfact> 0.10848829E+00</totfact>
</mgrwt>
</event>
<event>
 6    1  0.9988873E-007  0.4087563E+04  0.7818608E-02  0.7987112E-01
         -1   -1    0    0    0  501 -0.00000000000E+00  0.00000000000E+00  0.19193617196E+04  0.19193617196E+04  0.00000000000E+00 0.  1.
          1   -1    0    0  501    0  0.00000000000E+00 -0.00000000000E+00 -0.21762660892E+04  0.21762660892E+04  0.00000000000E+00 0. -1.
         23    2    1    2    0    0  0.87209715663E+03 -0.65703759738E+03 -0.18581131397E+04  0.21575562466E+04  0.10105771621E+03 0.  0.
         13    1    3    3    0    0  0.34105685700E+03 -0.25864643674E+03 -0.82715919576E+03  0.93134853524E+03  0.00000000000E+00 0. -1.
        -13    1    3    3    0    0  0.53104029963E+03 -0.39839116063E+03 -0.10309539440E+04  0.12262077113E+04  0.00000000000E+00 0.  1.
         22    1    1    2    0    0 -0.87209715663E+03  0.65703759738E+03  0.16012087701E+04  0.19380715622E+04  0.00000000000E+00 0.  1.
<mgrwt>
<rscale>  0 0.40875625E+04</rscale>
<asrwt>0</asrwt>
<pdfrwt beam="1">  1        1 0.33481017E+00 0.40875625E+04</pdfrwt>
<pdfrwt beam="2">  1       -1 0.29528642E+00 0.40875625E+04</pdfrwt>
<totfact> 0.62262321E-02</totfact>
</mgrwt>
</event>
<event>
 6    1  0.9988873E-007  0.6151116E+03  0.7818608E-02  0.9874541E-01
          2   -1    0    0  501    0  0.00000000000E+00  0.00000000000E+00  0.12761057308E+04  0.12761057308E+04  0.00000000000E+00 0. -1.
         -2   -1    0    0    0  501 -0.00000000000E+00 -0.00000000000E+00 -0.74124407792E+02  0.74124407792E+02  0.00000000000E+00 0.  1.
         23    2    1    2    0    0 -0.21402578113E+02  0.21156953376E+03  0.14619131418E+03  0.27323790059E+03  0.89818216487E+02 0.  0.
         11    1    3    3    0    0  0.16730628672E+01  0.88889691838E+02  0.11354124088E+03  0.14420745416E+03  0.00000000000E+00 0. -1.
        -11    1    3    3    0    0 -0.23075640980E+02  0.12267984192E+03  0.32650073302E+02  0.12903044644E+03  0.00000000000E+00 0.  1.
         22    1    1    2    0    0  0.21402578113E+02 -0.21156953376E+03  0.10557900088E+04  0.10769922380E+04  0.00000000000E+00 0. -1.
<mgrwt>
<rscale>  0 0.61511164E+03</rscale>
<asrwt>0</asrwt>
<pdfrwt beam="1">  1        2 0.19632394E+00 0.61511164E+03</pdfrwt>
<pdfrwt beam="2">  1       -2 0.11403756E-01 0.61511164E+03</pdfrwt>
<totfact> 0.95750085E+02</totfact>
</mgrwt>
</event>
<event>
 6    1  0.9988873E-007  0.1008109E+04  0.7818608E-02  0.9299696E-01
          1   -1    0    0  501    0  0.00000000000E+00  0.00000000000E+00  0.19077547336E+04  0.19077547336E+04  0.00000000000E+00 0. -1.
         -1   -1    0    0    0  501 -0.00000000000E+00 -0.00000000000E+00 -0.13317792649E+03  0.13317792649E+03  0.00000000000E+00 0.  1.
         23    2    1    2    0    0  0.48535584178E+03 -0.30109191033E+02  0.11299116498E+04  0.12334241328E+04  0.90321086028E+02 0.  0.
         11    1    3    3    0    0  0.18253631638E+03 -0.29252707175E+02  0.53193905282E+03  0.56314685792E+03  0.00000000000E+00 0. -1.
        -11    1    3    3    0    0  0.30281952540E+03 -0.85648385767E+00  0.59797259699E+03  0.67027727492E+03  0.00000000000E+00 0.  1.
         22    1    1    2    0    0 -0.48535584178E+03  0.30109191033E+02  0.64466515731E+03  0.80750852725E+03  0.00000000000E+00 0.  1.
<mgrwt>
<rscale>  0 0.10081088E+04</rscale>
<asrwt>0</asrwt>
<pdfrwt beam="1">  1        1 0.29350071E+00 0.10081088E+04</pdfrwt>
<pdfrwt beam="2">  1       -1 0.20488913E-01 0.10081088E+04</pdfrwt>
<totfact> 0.67991814E+01</totfact>
</mgrwt>
</event>
<event>
 6    1  0.9988873E-007  0.4182534E+04  0.7818608E-02  0.7968703E-01
          1   -1    0    0  501    0  0.00000000000E+00  0.00000000000E+00  0.11137205688E+04  0.11137205688E+04  0.00000000000E+00 0. -1.
         -1   -1    0    0    0  501 -0.00000000000E+00 -0.00000000000E+00 -0.39268360326E+04  0.39268360326E+04  0.00000000000E+00 0.  1.
         23    2    1    2    0    0  0.12020437863E+04 -0.11497460024E+04  0.11830082886E+03  0.16700927438E+04  0.91594501285E+02 0.  0.
         13    1    3    3    0    0  0.56544962988E+03 -0.57539869158E+03  0.18889486384E+02  0.80695337591E+03  0.00000000000E+00 0. -1.
        -13    1    3    3    0    0  0.63659415637E+03 -0.57434731084E+03  0.99411342480E+02  0.86313936789E+03  0.00000000000E+00 0.  1.
         22    1    1    2    0    0 -0.12020437863E+04  0.11497460024E+04 -0.29314162927E+04  0.33704638576E+04  0.00000000000E+00 0.  1.
<mgrwt>
<rscale>  0 0.41825342E+04</rscale>
<asrwt>0</asrwt>
<pdfrwt beam="1">  1        1 0.17134163E+00 0.41825342E+04</pdfrwt>
<pdfrwt beam="2">  1       -1 0.60412862E+00 0.41825342E+04</pdfrwt>
<totfact> 0.40623056E-03</totfact>
</mgrwt>
</event>
<event>
 6    1  0.9988873E-007  0.1925006E+04  0.7818608E-02  0.8642508E-01
         -1   -1    0    0    0  501 -0.00000000000E+00  0.00000000000E+00  0.78842195110E+03  0.78842195110E+03  0.00000000000E+00 0.  1.
          1   -1    0    0  501    0  0.00000000000E+00 -0.00000000000E+00 -0.11750208730E+04  0.11750208730E+04  0.00000000000E+00 0. -1.
         23    2    1    2    0    0  0.46557923293E+03 -0.20218036234E+03 -0.10252701697E+04  0.11476353200E+04  0.90812915861E+02 0.  0.
         13    1    3    3    0    0  0.22237579464E+03 -0.12269147645E+03 -0.59662017743E+03  0.64842873822E+03  0.00000000000E+00 0. -1.
        -13    1    3    3    0    0  0.24320343829E+03 -0.79488885883E+02 -0.42864999229E+03  0.49920658176E+03  0.00000000000E+00 0.  1.
         22    1    1    2    0    0 -0.46557923293E+03  0.20218036234E+03  0.63867124780E+03  0.81580750414E+03  0.00000000000E+00 0.  1.
<mgrwt>
<rscale>  0 0.19250062E+04</rscale>
<asrwt>0</asrwt>
<pdfrwt beam="1">  1        1 0.18077244E+00 0.19250062E+04</pdfrwt>
<pdfrwt beam="2">  1       -1 0.12129569E+00 0.19250062E+04</pdfrwt>
<totfact> 0.62755573E+00</totfact>
</mgrwt>
</event>
<event>
 6    1  0.9988873E-007  0.1325302E+04  0.7818608E-02  0.9009737E-01
          2   -1    0    0  501    0  0.00000000000E+00  0.00000000000E+00  0.77949690228E+03  0.77949690228E+03  0.00000000000E+00 0. -1.
         -2   -1    0    0    0  501 -0.00000000000E+00 -0.00000000000E+00 -0.56332042945E+03  0.56332042945E+03  0.00000000000E+00 0.  1.
         23    2    1    2    0    0  0.50439927483E+02 -0.45208054958E+03  0.59218443865E+03  0.75264532294E+03  0.94188975873E+02 0.  0.
         11    1    3    3    0    0  0.17011675070E+02 -0.34650629856E+03  0.38887860035E+03  0.52113585354E+03  0.00000000000E+00 0.  1.
        -11    1    3    3    0    0  0.33428252413E+02 -0.10557425101E+03  0.20330583830E+03  0.23150946940E+03  0.00000000000E+00 0. -1.
         22    1    1    2    0    0 -0.50439927483E+02  0.45208054958E+03 -0.37600796583E+03  0.59017200879E+03  0.00000000000E+00 0.  1.
<mgrwt>
<rscale>  0 0.13253023E+04</rscale>
<asrwt>0</asrwt>
<pdfrwt beam="1">  1        2 0.11992260E+00 0.13253023E+04</pdfrwt>
<pdfrwt beam="2">  1       -2 0.86664682E-01 0.13253023E+04</pdfrwt>
<totfact> 0.40227013E+01</totfact>
</mgrwt>
</event>
<event>
 6    1  0.9988873E-007  0.3326790E+04  0.7818608E-02  0.8156112E-01
          1   -1    0    0  501    0  0.00000000000E+00  0.00000000000E+00  0.12532674063E+04  0.12532674063E+04  0.00000000000E+00 0. -1.
         -1   -1    0    0    0  501 -0.00000000000E+00 -0.00000000000E+00 -0.22077348409E+04  0.22077348409E+04  0.00000000000E+00 0.  1.
         23    2    1    2    0    0  0.75571275123E+03  0.13255181838E+04  0.20833019867E+03  0.15426178869E+04  0.90378400858E+02 0.  0.
         11    1    3    3    0    0  0.16331623644E+03  0.36439608567E+03  0.45138890963E+02  0.40186343429E+03  0.00000000000E+00 0. -1.
        -11    1    3    3    0    0  0.59239651479E+03  0.96112209816E+03  0.16319130771E+03  0.11407544526E+04  0.00000000000E+00 0.  1.
         22    1    1    2    0    0 -0.75571275123E+03 -0.13255181838E+04 -0.11627976332E+04  0.19183843603E+04  0.00000000000E+00 0.  1.
<mgrwt>
<rscale>  0 0.33267895E+04</rscale>
<asrwt>0</asrwt>
<pdfrwt beam="1">  1        1 0.19281037E+00 0.33267895E+04</pdfrwt>
<pdfrwt beam="2">  1       -1 0.33965151E+00 0.33267895E+04</pdfrwt>
<totfact> 0.14710434E-01</totfact>
</mgrwt>
</event>
<event>
 6    1  0.9988873E-007  0.4701845E+04  0.7818608E-02  0.7876222E-01
         -2   -1    0    0    0  501 -0.00000000000E+00  0.00000000000E+00  0.37128168780E+04  0.37128168780E+04  0.00000000000E+00 0.  1.
          2   -1    0    0  501    0  0.00000000000E+00 -0.00000000000E+00 -0.14885833446E+04  0.14885833446E+04  0.00000000000E+00 0. -1.
         23    2    1    2    0    0  0.76559448252E+03 -0.83731053456E+03  0.33892533771E+04  0.35752098651E+04  0.88675150534E+02 0.  0.
         11    1    3    3    0    0  0.46933861237E+03 -0.46353660844E+03  0.18782202401E+04  0.19906923898E+04  0.00000000000E+00 0.  1.
        -11    1    3    3    0    0  0.29625587015E+03 -0.37377392612E+03  0.15110331370E+04  0.15845174753E+04  0.00000000000E+00 0. -1.
         22    1    1    2    0    0 -0.76559448252E+03  0.83731053456E+03 -0.11650198437E+04  0.16261903576E+04  0.00000000000E+00 0. -1.
<mgrwt>
<rscale>  0 0.47018453E+04</rscale>
<asrwt>0</asrwt>
<pdfrwt beam="1">  1        2 0.22901282E+00 0.47018453E+04</pdfrwt>
<pdfrwt beam="2">  1       -2 0.57120260E+00 0.47018453E+04</pdfrwt>
<totfact> 0.65124329E-03</totfact>
</mgrwt>
</event>
<event>
 6    1  0.9988873E-007  0.6379005E+04  0.7818608E-02  0.7645107E-01
         -2   -1    0    0    0  501 -0.00000000000E+00  0.00000000000E+00  0.31219252534E+04  0.31219252534E+04  0.00000000000E+00 0.  1.
          2   -1    0    0  501    0  0.00000000000E+00 -0.00000000000E+00 -0.32585421418E+04  0.32585421418E+04  0.00000000000E+00 0. -1.
         23    2    1    2    0    0 -0.19982801436E+04 -0.22931419433E+04 -0.10261928950E+04  0.32114030261E+04  0.91728042097E+02 0.  0.
         13    1    3    3    0    0 -0.12027330422E+04 -0.14364443141E+04 -0.60544914783E+03  0.19688848897E+04  0.00000000000E+00 0. -1.
        -13    1    3    3    0    0 -0.79554710140E+03 -0.85669762924E+03 -0.42074374713E+03  0.12425181364E+04  0.00000000000E+00 0.  1.
         22    1    1    2    0    0  0.19982801436E+04  0.22931419433E+04  0.88957600660E+03  0.31690643692E+04  0.00000000000E+00 0.  1.
<mgrwt>
<rscale>  0 0.63790046E+04</rscale>
<asrwt>0</asrwt>
<pdfrwt beam="1">  1        2 0.50131418E+00 0.63790046E+04</pdfrwt>
<pdfrwt beam="2">  1       -2 0.48029619E+00 0.63790046E+04</pdfrwt>
<totfact> 0.17203193E-03</totfact>
</mgrwt>
</event>
<event>
 6    1  0.9988873E-007  0.6930871E+03  0.7818608E-02  0.9729128E-01
         -2   -1    0    0    0  501 -0.00000000000E+00  0.00000000000E+00  0.18633947960E+03  0.18633947960E+03  0.00000000000E+00 0.  1.
          2   -1    0    0  501    0  0.00000000000E+00 -0.00000000000E+00 -0.64448195218E+03  0.64448195218E+03  0.00000000000E+00 0. -1.
         23    2    1    2    0    0  0.30549678836E+03  0.49229336086E+02 -0.40385642344E+03  0.51665779550E+03  0.89908017818E+02 0.  0.
         13    1    3    3    0    0  0.90756461078E+02 -0.19771563562E+02 -0.15579874029E+03  0.18138604530E+03  0.00000000000E+00 0. -1.
        -13    1    3    3    0    0  0.21474032728E+03  0.69000899648E+02 -0.24805768314E+03  0.33527175020E+03  0.00000000000E+00 0.  1.
         22    1    1    2    0    0 -0.30549678836E+03 -0.49229336086E+02 -0.54286049146E+02  0.31416363628E+03  0.00000000000E+00 0.  1.
<mgrwt>
<rscale>  0 0.69308710E+03</rscale>
<asrwt>0</asrwt>
<pdfrwt beam="1">  1        2 0.99151071E-01 0.69308710E+03</pdfrwt>
<pdfrwt beam="2">  1       -2 0.28667612E-01 0.69308710E+03</pdfrwt>
<totfact> 0.50998362E+02</totfact>
</mgrwt>
</event>
<event>
 6    1  0.9988873E-007  0.5268222E+04  0.7818608E-02  0.7788413E-01
          1   -1    0    0  501    0  0.00000000000E+00  0.00000000000E+00  0.32830151049E+04  0.32830151049E+04  0.00000000000E+00 0. -1.
         -1   -1    0    0    0  501 -0.00000000000E+00 -0.00000000000E+00 -0.21134657146E+04  0.21134657146E+04  0.00000000000E+00 0.  1.
         23    2    1    2    0    0 -0.14455819213E+04 -0.21871765489E+04  0.83829691513E+03  0.27539107542E+04  0.88512015972E+02 0.  0.
         11    1    3    3    0    0 -0.84441676826E+03 -0.12144138878E+04  0.50078061090E+03  0.15616087825E+04  0.00000000000E+00 0.  1.
        -11    1    3    3    0    0 -0.60116515306E+03 -0.97276266112E+03  0.33751630423E+03  0.11923019717E+04  0.00000000000E+00 0. -1.
         22    1    1    2    0    0  0.14455819213E+04  0.21871765489E+04  0.33125247519E+03  0.26425700652E+04  0.00000000000E+00 0.  1.
<mgrwt>
<rscale>  0 0.52682217E+04</rscale>
<asrwt>0</asrwt>
<pdfrwt beam="1">  1        1 0.50507925E+00 0.52682217E+04</pdfrwt>
<pdfrwt beam="2">  1       -1 0.32514857E+00 0.52682217E+04</pdfrwt>
<totfact> 0.58876896E-03</totfact>
</mgrwt>
</event>
<event>
 6    1  0.9988873E-007  0.4039946E+04  0.7818608E-02  0.7996536E-01
         -2   -1    0    0    0  501 -0.00000000000E+00  0.00000000000E+00  0.11974932237E+04  0.11974932237E+04  0.00000000000E+00 0.  1.
          2   -1    0    0  501    0  0.00000000000E+00 -0.00000000000E+00 -0.34073598545E+04  0.34073598545E+04  0.00000000000E+00 0. -1.
         23    2    1    2    0    0 -0.13873792188E+03 -0.18947972574E+04 -0.18841253258E+04  0.26772607314E+04  0.91059997638E+02 0.  0.
         11    1    3    3    0    0 -0.46235002236E+02 -0.10785610435E+04 -0.11136315078E+04  0.15510018488E+04  0.00000000000E+00 0. -1.
        -11    1    3    3    0    0 -0.92502919640E+02 -0.81623621394E+03 -0.77049381803E+03  0.11262588826E+04  0.00000000000E+00 0.  1.
         22    1    1    2    0    0  0.13873792188E+03  0.18947972574E+04 -0.32574130501E+03  0.19275923468E+04  0.00000000000E+00 0.  1.
<mgrwt>
<rscale>  0 0.40399457E+04</rscale>
<asrwt>0</asrwt>
<pdfrwt beam="1">  1        2 0.52420920E+00 0.40399457E+04</pdfrwt>
<pdfrwt beam="2">  1       -2 0.18422973E+00 0.40399457E+04</pdfrwt>
<totfact> 0.12548242E-01</totfact>
</mgrwt>
</event>
<event>
 6    1  0.9988873E-007  0.2469463E+04  0.7818608E-02  0.8413946E-01
          2   -1    0    0  501    0  0.00000000000E+00  0.00000000000E+00  0.30617741523E+04  0.30617741523E+04  0.00000000000E+00 0. -1.
         -2   -1    0    0    0  501 -0.00000000000E+00 -0.00000000000E+00 -0.49793416948E+03  0.49793416948E+03  0.00000000000E+00 0.  1.
         23    2    1    2    0    0 -0.10258094779E+04  0.68177008673E+03  0.13662099327E+04  0.18417405476E+04  0.91559426450E+02 0.  0.
         11    1    3    3    0    0 -0.29719582831E+03  0.17456435522E+03  0.43764691832E+03  0.55707530873E+03  0.00000000000E+00 0. -1.
        -11    1    3    3    0    0 -0.72861364956E+03  0.50720573151E+03  0.92856301436E+03  0.12846652389E+04  0.00000000000E+00 0.  1.
         22    1    1    2    0    0  0.10258094779E+04 -0.68177008673E+03  0.11976300502E+04  0.17179677742E+04  0.00000000000E+00 0.  1.
<mgrwt>
<rscale>  0 0.24694631E+04</rscale>
<asrwt>0</asrwt>
<pdfrwt beam="1">  1        2 0.47104217E+00 0.24694631E+04</pdfrwt>
<pdfrwt beam="2">  1       -2 0.76605259E-01 0.24694631E+04</pdfrwt>
<totfact> 0.21686851E+00</totfact>
</mgrwt>
</event>
<event>
 6    1  0.9988873E-007  0.1036695E+04  0.7818608E-02  0.9269189E-01
          1   -1    0    0  501    0  0.00000000000E+00  0.00000000000E+00  0.85043212636E+03  0.85043212636E+03  0.00000000000E+00 0. -1.
         -1   -1    0    0    0  501 -0.00000000000E+00 -0.00000000000E+00 -0.31593860709E+03  0.31593860709E+03  0.00000000000E+00 0.  1.
         23    2    1    2    0    0 -0.21186369640E+03 -0.30081045260E+03 -0.13495625883E+03  0.40247534819E+03  0.91651840432E+02 0.  0.
         11    1    3    3    0    0 -0.19061137387E+03 -0.20610693596E+03 -0.85043178980E+02  0.29333446301E+03  0.00000000000E+00 0.  1.
        -11    1    3    3    0    0 -0.21252322532E+02 -0.94703516634E+02 -0.49913079849E+02  0.10914088517E+03  0.00000000000E+00 0. -1.
         22    1    1    2    0    0  0.21186369640E+03  0.30081045260E+03  0.66944977810E+03  0.76389538527E+03  0.00000000000E+00 0. -1.
<mgrwt>
<rscale>  0 0.10366954E+04</rscale>
<asrwt>0</asrwt>
<pdfrwt beam="1">  1        1 0.13083571E+00 0.10366954E+04</pdfrwt>
<pdfrwt beam="2">  1       -1 0.48605940E-01 0.10366954E+04</pdfrwt>
<totfact> 0.84760934E+01</totfact>
</mgrwt>
</event>
<event>
 6    1  0.9988873E-007  0.3623038E+04  0.7818608E-02  0.8085235E-01
         -2   -1    0    0    0  501 -0.00000000000E+00  0.00000000000E+00  0.10391539379E+04  0.10391539379E+04  0.00000000000E+00 0.  1.
          2   -1    0    0  501    0  0.00000000000E+00 -0.00000000000E+00 -0.31579546265E+04  0.31579546265E+04  0.00000000000E+00 0. -1.
         23    2    1    2    0    0  0.96412144701E+03  0.22493112555E+03 -0.28158830546E+04  0.29863038731E+04  0.93216250924E+02 0.  0.
         11    1    3    3    0    0  0.37519115320E+03  0.11900220310E+03 -0.12201367042E+04  0.12820544071E+04  0.00000000000E+00 0. -1.
        -11    1    3    3    0    0  0.58893029381E+03  0.10592892246E+03 -0.15957463503E+04  0.17042494659E+04  0.00000000000E+00 0.  1.
         22    1    1    2    0    0 -0.96412144701E+03 -0.22493112555E+03  0.69708236591E+03  0.12108046914E+04  0.00000000000E+00 0.  1.
<mgrwt>
<rscale>  0 0.36230379E+04</rscale>
<asrwt>0</asrwt>
<pdfrwt beam="1">  1        2 0.48583917E+00 0.36230379E+04</pdfrwt>
<pdfrwt beam="2">  1       -2 0.15986984E+00 0.36230379E+04</pdfrwt>
<totfact> 0.28334418E-01</totfact>
</mgrwt>
</event>
<event>
 6    1  0.1233101E-006  0.3396991E+04  0.7818608E-02  0.8138645E-01
          2   -1    0    0  501    0  0.00000000000E+00  0.00000000000E+00  0.28828447655E+04  0.28828447655E+04  0.00000000000E+00 0. -1.
         -2   -1    0    0    0  501 -0.00000000000E+00 -0.00000000000E+00 -0.10007084037E+04  0.10007084037E+04  0.00000000000E+00 0.  1.
         23    2    1    2    0    0 -0.45887741844E+03 -0.11352319594E+04  0.22854378652E+04  0.25943781659E+04  0.90839117340E+02 0.  0.
         11    1    3    3    0    0 -0.95012473839E+02 -0.33443684219E+03  0.61212059870E+03  0.70396519726E+03  0.00000000000E+00 0. -1.
        -11    1    3    3    0    0 -0.36386494461E+03 -0.80079511717E+03  0.16733172665E+04  0.18904129686E+04  0.00000000000E+00 0.  1.
         22    1    1    2    0    0  0.45887741844E+03  0.11352319594E+04 -0.40330150336E+03  0.12891750034E+04  0.00000000000E+00 0.  1.
<mgrwt>
<rscale>  0 0.33969910E+04</rscale>
<asrwt>0</asrwt>
<pdfrwt beam="1">  1        2 0.44351458E+00 0.33969910E+04</pdfrwt>
<pdfrwt beam="2">  1       -2 0.15395514E+00 0.33969910E+04</pdfrwt>
<totfact> 0.47656076E-01</totfact>
</mgrwt>
</event>
<event>
 6    1  0.9988873E-007  0.2416591E+04  0.7818608E-02  0.8433318E-01
          1   -1    0    0  501    0  0.00000000000E+00  0.00000000000E+00  0.10777737963E+04  0.10777737963E+04  0.00000000000E+00 0. -1.
         -1   -1    0    0    0  501 -0.00000000000E+00 -0.00000000000E+00 -0.13546234305E+04  0.13546234305E+04  0.00000000000E+00 0.  1.
         23    2    1    2    0    0  0.14733259609E+03  0.89944388371E+03 -0.93463143848E+03  0.13083940703E+04  0.87480990286E+02 0.  0.
         13    1    3    3    0    0  0.13346767101E+03  0.59982868118E+03 -0.59640139753E+03  0.85633094826E+03  0.00000000000E+00 0. -1.
        -13    1    3    3    0    0  0.13864925086E+02  0.29961520253E+03 -0.33823004094E+03  0.45206312206E+03  0.00000000000E+00 0.  1.
         22    1    1    2    0    0 -0.14733259609E+03 -0.89944388371E+03  0.65778180421E+03  0.11240031565E+04  0.00000000000E+00 0. -1.
<mgrwt>
<rscale>  0 0.24165907E+04</rscale>
<asrwt>0</asrwt>
<pdfrwt beam="1">  1        1 0.16581135E+00 0.24165907E+04</pdfrwt>
<pdfrwt beam="2">  1       -1 0.20840360E+00 0.24165907E+04</pdfrwt>
<totfact> 0.15545106E+00</totfact>
</mgrwt>
</event>
<event>
 6    1  0.1270914E-006  0.2705668E+04  0.7818608E-02  0.8333168E-01
         -1   -1    0    0    0  501 -0.00000000000E+00  0.00000000000E+00  0.95707189639E+03  0.95707189639E+03  0.00000000000E+00 0.  1.
          1   -1    0    0  501    0  0.00000000000E+00 -0.00000000000E+00 -0.19122490110E+04  0.19122490110E+04  0.00000000000E+00 0. -1.
         23    2    1    2    0    0 -0.10039267908E+04  0.88662447518E+03 -0.28555374360E+03  0.13718672619E+04  0.80665250800E+02 0.  0.
         13    1    3    3    0    0 -0.52176280277E+03  0.50403653411E+03 -0.13015673079E+03  0.73704139954E+03  0.00000000000E+00 0. -1.
        -13    1    3    3    0    0 -0.48216398801E+03  0.38258794107E+03 -0.15539701282E+03  0.63482586241E+03  0.00000000000E+00 0.  1.
         22    1    1    2    0    0  0.10039267908E+04 -0.88662447518E+03 -0.66962337101E+03  0.14974536454E+04  0.00000000000E+00 0.  1.
<mgrwt>
<rscale>  0 0.27056680E+04</rscale>
<asrwt>0</asrwt>
<pdfrwt beam="1">  1        1 0.29419215E+00 0.27056680E+04</pdfrwt>
<pdfrwt beam="2">  1       -1 0.14724183E+00 0.27056680E+04</pdfrwt>
<totfact> 0.10939477E+00</totfact>
</mgrwt>
</event>
<event>
 6    1  0.9988873E-007  0.1583685E+04  0.7818608E-02  0.8830634E-01
         -2   -1    0    0    0  501 -0.00000000000E+00  0.00000000000E+00  0.33445213781E+03  0.33445213781E+03  0.00000000000E+00 0.  1.
          2   -1    0    0  501    0  0.00000000000E+00 -0.00000000000E+00 -0.18747508455E+04  0.18747508455E+04  0.00000000000E+00 0. -1.
         23    2    1    2    0    0 -0.66971865596E+03  0.39550766333E+03 -0.95967559680E+03  0.12385987453E+04  0.90555016026E+02 0.  0.
         11    1    3    3    0    0 -0.97124358066E+02  0.48927412840E+02 -0.18716270898E+03  0.21646457514E+03  0.00000000000E+00 0. -1.
        -11    1    3    3    0    0 -0.57259429789E+03  0.34658025049E+03 -0.77251288782E+03  0.10221341702E+04  0.00000000000E+00 0.  1.
         22    1    1    2    0    0  0.66971865596E+03 -0.39550766333E+03 -0.58062311088E+03  0.97060423798E+03  0.00000000000E+00 0.  1.
<mgrwt>
<rscale>  0 0.15836849E+04</rscale>
<asrwt>0</asrwt>
<pdfrwt beam="1">  1        2 0.28842321E+00 0.15836849E+04</pdfrwt>
<pdfrwt beam="2">  1       -2 0.51454175E-01 0.15836849E+04</pdfrwt>
<totfact> 0.26869956E+01</totfact>
</mgrwt>
</event>
<event>
 6    1  0.9988873E-007  0.2576561E+04  0.7818608E-02  0.8376207E-01
         -2   -1    0    0    0  501 -0.00000000000E+00  0.00000000000E+00  0.48649965619E+03  0.48649965619E+03  0.00000000000E+00 0.  1.
          2   -1    0    0  501    0  0.00000000000E+00 -0.00000000000E+00 -0.34114444870E+04  0.34114444870E+04  0.00000000000E+00 0. -1.
         23    2    1    2    0    0 -0.19374029687E+03  0.12571071686E+04 -0.17582160867E+04  0.21719343812E+04  0.90118881153E+02 0.  0.
         11    1    3    3    0    0 -0.10467255159E+03  0.41713955128E+03 -0.61871733559E+03  0.75350706012E+03  0.00000000000E+00 0. -1.
        -11    1    3    3    0    0 -0.89067745277E+02  0.83996761735E+03 -0.11394987511E+04  0.14184273211E+04  0.00000000000E+00 0.  1.
         22    1    1    2    0    0  0.19374029687E+03 -0.12571071686E+04 -0.11667287441E+04  0.17260097619E+04  0.00000000000E+00 0.  1.
<mgrwt>
<rscale>  0 0.25765609E+04</rscale>
<asrwt>0</asrwt>
<pdfrwt beam="1">  1        2 0.52483760E+00 0.25765609E+04</pdfrwt>
<pdfrwt beam="2">  1       -2 0.74846103E-01 0.25765609E+04</pdfrwt>
<totfact> 0.13320383E+00</totfact>
</mgrwt>
</event>
<event>
 6    1  0.9988873E-007  0.1281888E+04  0.7818608E-02  0.9044053E-01
          2   -1    0    0  501    0  0.00000000000E+00  0.00000000000E+00  0.56103149142E+03  0.56103149142E+03  0.00000000000E+00 0. -1.
         -2   -1    0    0    0  501 -0.00000000000E+00 -0.00000000000E+00 -0.73223915373E+03  0.73223915373E+03  0.00000000000E+00 0.  1.
         23    2    1    2    0    0 -0.44159812834E+03  0.21097863297E+03  0.32639348810E+03  0.59532523510E+03  0.91425029127E+02 0.  0.
         11    1    3    3    0    0 -0.21860877391E+03  0.54681799681E+02  0.15662837725E+03  0.27443094542E+03  0.00000000000E+00 0. -1.
        -11    1    3    3    0    0 -0.22298935443E+03  0.15629683329E+03  0.16976511085E+03  0.32089428968E+03  0.00000000000E+00 0.  1.
         22    1    1    2    0    0  0.44159812834E+03 -0.21097863297E+03 -0.49760115041E+03  0.69794541005E+03  0.00000000000E+00 0.  1.
<mgrwt>
<rscale>  0 0.12818880E+04</rscale>
<asrwt>0</asrwt>
<pdfrwt beam="1">  1        2 0.86312538E-01 0.12818880E+04</pdfrwt>
<pdfrwt beam="2">  1       -2 0.11265218E+00 0.12818880E+04</pdfrwt>
<totfact> 0.32716668E+01</totfact>
</mgrwt>
</event>
<event>
 6    1  0.9988873E-007  0.3058779E+04  0.7818608E-02  0.8227142E-01
          1   -1    0    0  501    0  0.00000000000E+00  0.00000000000E+00  0.13565190299E+04  0.13565190299E+04  0.00000000000E+00 0. -1.
         -1   -1    0    0    0  501 -0.00000000000E+00 -0.00000000000E+00 -0.17242905549E+04  0.17242905549E+04  0.00000000000E+00 0.  1.
         23    2    1    2    0    0  0.76901905863E+03  0.12396582593E+04  0.27405409775E+03  0.14870457873E+04  0.89758635345E+02 0.  0.
         11    1    3    3    0    0  0.18657339770E+03  0.26715552109E+03  0.27901722428E+02  0.32704772020E+03  0.00000000000E+00 0. -1.
        -11    1    3    3    0    0  0.58244566094E+03  0.97250273818E+03  0.24615237533E+03  0.11599980671E+04  0.00000000000E+00 0.  1.
         22    1    1    2    0    0 -0.76901905863E+03 -0.12396582593E+04 -0.64182562276E+03  0.15937637975E+04  0.00000000000E+00 0.  1.
<mgrwt>
<rscale>  0 0.30587795E+04</rscale>
<asrwt>0</asrwt>
<pdfrwt beam="1">  1        1 0.20869524E+00 0.30587795E+04</pdfrwt>
<pdfrwt beam="2">  1       -1 0.26527547E+00 0.30587795E+04</pdfrwt>
<totfact> 0.38713660E-01</totfact>
</mgrwt>
</event>
<event>
 6    1  0.9988873E-007  0.3356871E+04  0.7818608E-02  0.8148573E-01
          1   -1    0    0  501    0  0.00000000000E+00  0.00000000000E+00  0.27969882373E+04  0.27969882373E+04  0.00000000000E+00 0. -1.
         -1   -1    0    0    0  501 -0.00000000000E+00 -0.00000000000E+00 -0.10072070353E+04  0.10072070353E+04  0.00000000000E+00 0.  1.
         23    2    1    2    0    0  0.89713108655E+03 -0.11386954329E+03 -0.70514553270E+03  0.11504300472E+04  0.91916331435E+02 0.  0.
         11    1    3    3    0    0  0.10375787950E+03 -0.16822752210E+02 -0.12194610675E+03  0.16099551392E+03  0.00000000000E+00 0.  1.
        -11    1    3    3    0    0  0.79337320704E+03 -0.97046791076E+02 -0.58319942595E+03  0.98943453333E+03  0.00000000000E+00 0. -1.
         22    1    1    2    0    0 -0.89713108655E+03  0.11386954329E+03  0.24949267347E+04  0.26537652253E+04  0.00000000000E+00 0. -1.
<mgrwt>
<rscale>  0 0.33568713E+04</rscale>
<asrwt>0</asrwt>
<pdfrwt beam="1">  1        1 0.43030588E+00 0.33568713E+04</pdfrwt>
<pdfrwt beam="2">  1       -1 0.15495493E+00 0.33568713E+04</pdfrwt>
<totfact> 0.22073597E-01</totfact>
</mgrwt>
</event>
<event>
 6    1  0.9988873E-007  0.2097415E+04  0.7818608E-02  0.8562383E-01
          2   -1    0    0  501    0  0.00000000000E+00  0.00000000000E+00  0.20870965623E+04  0.20870965623E+04  0.00000000000E+00 0. -1.
         -2   -1    0    0    0  501 -0.00000000000E+00 -0.00000000000E+00 -0.52694629672E+03  0.52694629672E+03  0.00000000000E+00 0.  1.
         23    2    1    2    0    0 -0.50938370401E+03 -0.84713709112E+02  0.19163201876E+04  0.19867429436E+04  0.90643766562E+02 0.  0.
         13    1    3    3    0    0 -0.22395877715E+03 -0.82942395191E+02  0.88175846093E+03  0.91352884913E+03  0.00000000000E+00 0. -1.
        -13    1    3    3    0    0 -0.28542492686E+03 -0.17713139213E+01  0.10345617266E+04  0.10732140945E+04  0.00000000000E+00 0.  1.
         22    1    1    2    0    0  0.50938370401E+03  0.84713709112E+02 -0.35616992203E+03  0.62729991534E+03  0.00000000000E+00 0.  1.
<mgrwt>
<rscale>  0 0.20974154E+04</rscale>
<asrwt>0</asrwt>
<pdfrwt beam="1">  1        2 0.32109177E+00 0.20974154E+04</pdfrwt>
<pdfrwt beam="2">  1       -2 0.81068662E-01 0.20974154E+04</pdfrwt>
<totfact> 0.73869380E+00</totfact>
</mgrwt>
</event>
<event>
 6    1  0.9988873E-007  0.1586114E+04  0.7818608E-02  0.8829124E-01
          1   -1    0    0  501    0  0.00000000000E+00  0.00000000000E+00  0.77716580355E+03  0.77716580355E+03  0.00000000000E+00 0. -1.
         -1   -1    0    0    0  501 -0.00000000000E+00 -0.00000000000E+00 -0.80927330753E+03  0.80927330753E+03  0.00000000000E+00 0.  1.
         23    2    1    2    0    0  0.17128370170E+03  0.76957723611E+03  0.40496304821E+02  0.79469512350E+03  0.91176530978E+02 0.  0.
         13    1    3    3    0    0  0.65377199824E+02  0.28417472838E+03  0.59092967635E+02  0.29752551710E+03  0.00000000000E+00 0. -1.
        -13    1    3    3    0    0  0.10590650188E+03  0.48540250774E+03 -0.18596662813E+02  0.49716960640E+03  0.00000000000E+00 0.  1.
         22    1    1    2    0    0 -0.17128370170E+03 -0.76957723611E+03 -0.72603808796E+02  0.79174398758E+03  0.00000000000E+00 0.  1.
<mgrwt>
<rscale>  0 0.15861142E+04</rscale>
<asrwt>0</asrwt>
<pdfrwt beam="1">  1        1 0.11956397E+00 0.15861142E+04</pdfrwt>
<pdfrwt beam="2">  1       -1 0.12450359E+00 0.15861142E+04</pdfrwt>
<totfact> 0.12576260E+01</totfact>
</mgrwt>
</event>
<event>
 6    1  0.9988873E-007  0.2104733E+04  0.7818608E-02  0.8559161E-01
         -2   -1    0    0    0  501 -0.00000000000E+00  0.00000000000E+00  0.57590536703E+03  0.57590536703E+03  0.00000000000E+00 0.  1.
          2   -1    0    0  501    0  0.00000000000E+00 -0.00000000000E+00 -0.19230167267E+04  0.19230167267E+04  0.00000000000E+00 0. -1.
         23    2    1    2    0    0 -0.61219033821E+03 -0.69766479719E+02 -0.16847687407E+04  0.17963148927E+04  0.93043604258E+02 0.  0.
         13    1    3    3    0    0 -0.10058376019E+03 -0.38937379963E+01 -0.38471275643E+03  0.39766337393E+03  0.00000000000E+00 0.  1.
        -13    1    3    3    0    0 -0.51160657802E+03 -0.65872741723E+02 -0.13000559843E+04  0.13986515188E+04  0.00000000000E+00 0. -1.
         22    1    1    2    0    0  0.61219033821E+03  0.69766479719E+02  0.33765738106E+03  0.70260720098E+03  0.00000000000E+00 0.  1.
<mgrwt>
<rscale>  0 0.21047334E+04</rscale>
<asrwt>0</asrwt>
<pdfrwt beam="1">  1        2 0.29584873E+00 0.21047334E+04</pdfrwt>
<pdfrwt beam="2">  1       -2 0.88600826E-01 0.21047334E+04</pdfrwt>
<totfact> 0.74415183E+00</totfact>
</mgrwt>
</event>
<event>
 6    1  0.9988873E-007  0.2809054E+04  0.7818608E-02  0.8300463E-01
          1   -1    0    0  501    0  0.00000000000E+00  0.00000000000E+00  0.30118337893E+04  0.30118337893E+04  0.00000000000E+00 0. -1.
         -1   -1    0    0    0  501 -0.00000000000E+00 -0.00000000000E+00 -0.65498162649E+03  0.65498162649E+03  0.00000000000E+00 0.  1.
         23    2    1    2    0    0 -0.11487256829E+03  0.13288327611E+04  0.61137197278E+03  0.14700693431E+04  0.91301536323E+02 0.  0.
         11    1    3    3    0    0 -0.68441431218E+02  0.66218599219E+03  0.35378013748E+03  0.75387989987E+03  0.00000000000E+00 0. -1.
        -11    1    3    3    0    0 -0.46431137072E+02  0.66664676893E+03  0.25759183530E+03  0.71618944325E+03  0.00000000000E+00 0.  1.
         22    1    1    2    0    0  0.11487256829E+03 -0.13288327611E+04  0.17454801900E+04  0.21967460727E+04  0.00000000000E+00 0. -1.
<mgrwt>
<rscale>  0 0.28090538E+04</rscale>
<asrwt>0</asrwt>
<pdfrwt beam="1">  1        1 0.46335904E+00 0.28090538E+04</pdfrwt>
<pdfrwt beam="2">  1       -1 0.10076641E+00 0.28090538E+04</pdfrwt>
<totfact> 0.47444037E-01</totfact>
</mgrwt>
</event>
<event>
 6    1  0.9988873E-007  0.3866622E+04  0.7818608E-02  0.8032007E-01
          2   -1    0    0  501    0  0.00000000000E+00  0.00000000000E+00  0.13768360190E+04  0.13768360190E+04  0.00000000000E+00 0. -1.
         -2   -1    0    0    0  501 -0.00000000000E+00 -0.00000000000E+00 -0.27146966116E+04  0.27146966116E+04  0.00000000000E+00 0.  1.
         23    2    1    2    0    0  0.33630289381E+03 -0.60667206589E+03  0.12390646416E+04  0.14228823547E+04  0.90345876118E+02 0.  0.
         13    1    3    3    0    0  0.90306143627E+02 -0.16560746443E+03  0.42356049683E+03  0.46366423879E+03  0.00000000000E+00 0.  1.
        -13    1    3    3    0    0  0.24599675018E+03 -0.44106460146E+03  0.81550414476E+03  0.95921811591E+03  0.00000000000E+00 0. -1.
         22    1    1    2    0    0 -0.33630289381E+03  0.60667206589E+03 -0.25769252342E+04  0.26686502758E+04  0.00000000000E+00 0.  1.
<mgrwt>
<rscale>  0 0.38666223E+04</rscale>
<asrwt>0</asrwt>
<pdfrwt beam="1">  1        2 0.21182093E+00 0.38666223E+04</pdfrwt>
<pdfrwt beam="2">  1       -2 0.41764563E+00 0.38666223E+04</pdfrwt>
<totfact> 0.67575533E-02</totfact>
</mgrwt>
</event>
<event>
 6    1  0.9988873E-007  0.3046679E+04  0.7818608E-02  0.8230526E-01
         -2   -1    0    0    0  501 -0.00000000000E+00  0.00000000000E+00  0.10069784752E+04  0.10069784752E+04  0.00000000000E+00 0.  1.
          2   -1    0    0  501    0  0.00000000000E+00 -0.00000000000E+00 -0.23044815391E+04  0.23044815391E+04  0.00000000000E+00 0. -1.
         23    2    1    2    0    0 -0.15003275313E+04  0.25430001394E+03 -0.67682861851E+03  0.16680221647E+04  0.92464937713E+02 0.  0.
         13    1    3    3    0    0 -0.26523936766E+03  0.33310838964E+02 -0.15602763841E+03  0.30952569860E+03  0.00000000000E+00 0. -1.
        -13    1    3    3    0    0 -0.12350881637E+04  0.22098917498E+03 -0.52080098011E+03  0.13584964661E+04  0.00000000000E+00 0.  1.
         22    1    1    2    0    0  0.15003275313E+04 -0.25430001394E+03 -0.62067444547E+03  0.16434378496E+04  0.00000000000E+00 0. -1.
<mgrwt>
<rscale>  0 0.30466790E+04</rscale>
<asrwt>0</asrwt>
<pdfrwt beam="1">  1        2 0.35453562E+00 0.30466790E+04</pdfrwt>
<pdfrwt beam="2">  1       -2 0.15491977E+00 0.30466790E+04</pdfrwt>
<totfact> 0.10564996E+00</totfact>
</mgrwt>
</event>
<event>
 6    1  0.9988873E-007  0.2795782E+04  0.7818608E-02  0.8304579E-01
          2   -1    0    0  501    0  0.00000000000E+00  0.00000000000E+00  0.20584124550E+04  0.20584124550E+04  0.00000000000E+00 0. -1.
         -2   -1    0    0    0  501 -0.00000000000E+00 -0.00000000000E+00 -0.94932365428E+03  0.94932365428E+03  0.00000000000E+00 0.  1.
         23    2    1    2    0    0 -0.36482685878E+03  0.12485201023E+04  0.87996401492E+01  0.13040526529E+04  0.92600243192E+02 0.  0.
         13    1    3    3    0    0 -0.11568355286E+03  0.43504762736E+03 -0.39619654894E+02  0.45190578612E+03  0.00000000000E+00 0.  1.
        -13    1    3    3    0    0 -0.24914330593E+03  0.81347247494E+03  0.48419295044E+02  0.85214686675E+03  0.00000000000E+00 0. -1.
         22    1    1    2    0    0  0.36482685878E+03 -0.12485201023E+04  0.11002891605E+04  0.17036834564E+04  0.00000000000E+00 0. -1.
<mgrwt>
<rscale>  0 0.27957823E+04</rscale>
<asrwt>0</asrwt>
<pdfrwt beam="1">  1        2 0.31667884E+00 0.27957823E+04</pdfrwt>
<pdfrwt beam="2">  1       -2 0.14604979E+00 0.27957823E+04</pdfrwt>
<totfact> 0.17348911E+00</totfact>
</mgrwt>
</event>
<event>
 6    1  0.9988873E-007  0.8509658E+03  0.7818608E-02  0.9489042E-01
          2   -1    0    0  501    0  0.00000000000E+00  0.00000000000E+00  0.52262612301E+03  0.52262612301E+03  0.00000000000E+00 0. -1.
         -2   -1    0    0    0  501 -0.00000000000E+00 -0.00000000000E+00 -0.34639618296E+03  0.34639618296E+03  0.00000000000E+00 0.  1.
         23    2    1    2    0    0 -0.18223386304E+03 -0.36505456437E+02  0.47515915455E+03  0.51702727125E+03  0.83660910093E+02 0.  0.
         13    1    3    3    0    0 -0.37033508687E+02 -0.43902441512E+02  0.15852811330E+03  0.16861218178E+03  0.00000000000E+00 0. -1.
        -13    1    3    3    0    0 -0.14520035435E+03  0.73969850745E+01  0.31663104124E+03  0.34841508947E+03  0.00000000000E+00 0.  1.
         22    1    1    2    0    0  0.18223386304E+03  0.36505456437E+02 -0.29892921450E+03  0.35199503473E+03  0.00000000000E+00 0.  1.
<mgrwt>
<rscale>  0 0.85096579E+03</rscale>
<asrwt>0</asrwt>
<pdfrwt beam="1">  1        2 0.80404018E-01 0.85096579E+03</pdfrwt>
<pdfrwt beam="2">  1       -2 0.53291721E-01 0.85096579E+03</pdfrwt>
<totfact> 0.19517318E+02</totfact>
</mgrwt>
</event>
<event>
 6    1  0.9988873E-007  0.1727395E+04  0.7818608E-02  0.8745892E-01
          2   -1    0    0  501    0  0.00000000000E+00  0.00000000000E+00  0.19956713778E+04  0.19956713778E+04  0.00000000000E+00 0. -1.
         -2   -1    0    0    0  501 -0.00000000000E+00 -0.00000000000E+00 -0.37379580845E+03  0.37379580845E+03  0.00000000000E+00 0.  1.
         23    2    1    2    0    0  0.43635797423E+03 -0.71592907989E+03  0.54170113293E+03  0.10020829893E+04  0.88133256151E+02 0.  0.
         11    1    3    3    0    0  0.26510707123E+03 -0.49045149606E+03  0.32307262700E+03  0.64436042051E+03  0.00000000000E+00 0.  1.
        -11    1    3    3    0    0  0.17125090299E+03 -0.22547758383E+03  0.21862850593E+03  0.35772256874E+03  0.00000000000E+00 0. -1.
         22    1    1    2    0    0 -0.43635797423E+03  0.71592907989E+03  0.10801744364E+04  0.13673841970E+04  0.00000000000E+00 0. -1.
<mgrwt>
<rscale>  0 0.17273953E+04</rscale>
<asrwt>0</asrwt>
<pdfrwt beam="1">  1        2 0.30702636E+00 0.17273953E+04</pdfrwt>
<pdfrwt beam="2">  1       -2 0.57507048E-01 0.17273953E+04</pdfrwt>
<totfact> 0.18069073E+01</totfact>
</mgrwt>
</event>
<event>
 6    1  0.9988873E-007  0.2325447E+04  0.7818608E-02  0.8467955E-01
         -1   -1    0    0    0  501 -0.00000000000E+00  0.00000000000E+00  0.54927395743E+03  0.54927395743E+03  0.00000000000E+00 0.  1.
          1   -1    0    0  501    0  0.00000000000E+00 -0.00000000000E+00 -0.24612962104E+04  0.24612962104E+04  0.00000000000E+00 0. -1.
         23    2    1    2    0    0 -0.75658465380E+03  0.59657997096E+03 -0.11896822885E+03  0.97504302885E+03  0.90705394130E+02 0.  0.
         11    1    3    3    0    0 -0.35770360722E+03  0.28505872603E+03 -0.10928439286E+02  0.45752571369E+03  0.00000000000E+00 0.  1.
        -11    1    3    3    0    0 -0.39888104658E+03  0.31152124493E+03 -0.10803978956E+03  0.51751731516E+03  0.00000000000E+00 0. -1.
         22    1    1    2    0    0  0.75658465380E+03 -0.59657997096E+03 -0.17930540242E+04  0.20355271390E+04  0.00000000000E+00 0. -1.
<mgrwt>
<rscale>  0 0.23254470E+04</rscale>
<asrwt>0</asrwt>
<pdfrwt beam="1">  1        1 0.37866096E+00 0.23254470E+04</pdfrwt>
<pdfrwt beam="2">  1       -1 0.84503685E-01 0.23254470E+04</pdfrwt>
<totfact> 0.18019059E+00</totfact>
</mgrwt>
</event>
<event>
 6    1  0.9988873E-007  0.1164530E+04  0.7818608E-02  0.9144482E-01
          3   -1    0    0  501    0  0.00000000000E+00  0.00000000000E+00  0.62092359494E+03  0.62092359494E+03  0.00000000000E+00 0. -1.
         -3   -1    0    0    0  501 -0.00000000000E+00 -0.00000000000E+00 -0.54601349178E+03  0.54601349178E+03  0.00000000000E+00 0.  1.
         23    2    1    2    0    0 -0.35946088449E+03 -0.21738299087E+03 -0.35954154957E+03  0.56260627437E+03  0.10386626929E+03 0.  0.
         13    1    3    3    0    0 -0.68070923803E+02 -0.13159822729E+02 -0.23573481033E+02  0.73229369857E+02  0.00000000000E+00 0. -1.
        -13    1    3    3    0    0 -0.29138996069E+03 -0.20422316814E+03 -0.33596806854E+03  0.48937690451E+03  0.00000000000E+00 0.  1.
         22    1    1    2    0    0  0.35946088449E+03  0.21738299087E+03  0.43445165273E+03  0.60433081235E+03  0.00000000000E+00 0.  1.
<mgrwt>
<rscale>  0 0.11645302E+04</rscale>
<asrwt>0</asrwt>
<pdfrwt beam="1">  1        3 0.95526707E-01 0.11645302E+04</pdfrwt>
<pdfrwt beam="2">  1       -3 0.84002076E-01 0.11645302E+04</pdfrwt>
<totfact> 0.32881745E+00</totfact>
</mgrwt>
</event>
<event>
 6    1  0.9988873E-007  0.2244654E+04  0.7818608E-02  0.8500068E-01
         -2   -1    0    0    0  501 -0.00000000000E+00  0.00000000000E+00  0.36546883496E+03  0.36546883496E+03  0.00000000000E+00 0.  1.
          2   -1    0    0  501    0  0.00000000000E+00 -0.00000000000E+00 -0.34465823126E+04  0.34465823126E+04  0.00000000000E+00 0. -1.
         23    2    1    2    0    0 -0.63106961850E+03  0.44633557050E+03 -0.16611558063E+03  0.79631292211E+03  0.95160805454E+02 0.  0.
         11    1    3    3    0    0 -0.16997112363E+03  0.12150897191E+03 -0.88757480695E+02  0.22700771684E+03  0.00000000000E+00 0.  1.
        -11    1    3    3    0    0 -0.46109849487E+03  0.32482659859E+03 -0.77358099938E+02  0.56930520527E+03  0.00000000000E+00 0. -1.
         22    1    1    2    0    0  0.63106961850E+03 -0.44633557050E+03 -0.29149978970E+04  0.30157382255E+04  0.00000000000E+00 0. -1.
<mgrwt>
<rscale>  0 0.22446545E+04</rscale>
<asrwt>0</asrwt>
<pdfrwt beam="1">  1        2 0.53024342E+00 0.22446545E+04</pdfrwt>
<pdfrwt beam="2">  1       -2 0.56225976E-01 0.22446545E+04</pdfrwt>
<totfact> 0.24016629E+00</totfact>
</mgrwt>
</event>
<event>
 6    1  0.9988873E-007  0.1962493E+04  0.7818608E-02  0.8624360E-01
         -2   -1    0    0    0  501 -0.00000000000E+00  0.00000000000E+00  0.10564186409E+04  0.10564186409E+04  0.00000000000E+00 0.  1.
          2   -1    0    0  501    0  0.00000000000E+00 -0.00000000000E+00 -0.91142344480E+03  0.91142344480E+03  0.00000000000E+00 0. -1.
         23    2    1    2    0    0 -0.67675346178E+03 -0.60256361825E+03  0.44515433245E+03  0.10132879128E+04  0.86670943073E+02 0.  0.
         11    1    3    3    0    0 -0.14105486732E+03 -0.88897963070E+02  0.10354612107E+03  0.19626798675E+03  0.00000000000E+00 0.  1.
        -11    1    3    3    0    0 -0.53569859446E+03 -0.51366565518E+03  0.34160821137E+03  0.81701992601E+03  0.00000000000E+00 0. -1.
         22    1    1    2    0    0  0.67675346178E+03  0.60256361825E+03 -0.30015913630E+03  0.95455417299E+03  0.00000000000E+00 0. -1.
<mgrwt>
<rscale>  0 0.19624930E+04</rscale>
<asrwt>0</asrwt>
<pdfrwt beam="1">  1        2 0.14021899E+00 0.19624930E+04</pdfrwt>
<pdfrwt beam="2">  1       -2 0.16252594E+00 0.19624930E+04</pdfrwt>
<totfact> 0.64762668E+00</totfact>
</mgrwt>
</event>
<event>
 6    1  0.9988873E-007  0.2191369E+04  0.7818608E-02  0.8522029E-01
          2   -1    0    0  501    0  0.00000000000E+00  0.00000000000E+00  0.35380553204E+04  0.35380553204E+04  0.00000000000E+00 0. -1.
         -2   -1    0    0    0  501 -0.00000000000E+00 -0.00000000000E+00 -0.33931766806E+03  0.33931766806E+03  0.00000000000E+00 0.  1.
         23    2    1    2    0    0 -0.46554410422E+03 -0.14020425529E+02  0.33532666373E+04  0.33866519959E+04  0.89926165914E+02 0.  0.
         13    1    3    3    0    0 -0.20545091114E+03 -0.50701956440E+02  0.15262064753E+04  0.15408072464E+04  0.00000000000E+00 0.  1.
        -13    1    3    3    0    0 -0.26009319308E+03  0.36681530910E+02  0.18270601620E+04  0.18458447495E+04  0.00000000000E+00 0. -1.
         22    1    1    2    0    0  0.46554410422E+03  0.14020425529E+02 -0.15452898497E+03  0.49072099253E+03  0.00000000000E+00 0.  1.
<mgrwt>
<rscale>  0 0.21913691E+04</rscale>
<asrwt>0</asrwt>
<pdfrwt beam="1">  1        2 0.54431618E+00 0.21913691E+04</pdfrwt>
<pdfrwt beam="2">  1       -2 0.52202721E-01 0.21913691E+04</pdfrwt>
<totfact> 0.24310206E+00</totfact>
</mgrwt>
</event>
<event>
 6    1  0.9988873E-007  0.1150864E+04  0.7818608E-02  0.9156987E-01
         -1   -1    0    0    0  501 -0.00000000000E+00  0.00000000000E+00  0.30730262096E+03  0.30730262096E+03  0.00000000000E+00 0.  1.
          1   -1    0    0  501    0  0.00000000000E+00 -0.00000000000E+00 -0.10775116359E+04  0.10775116359E+04  0.00000000000E+00 0. -1.
         23    2    1    2    0    0  0.35183388803E+03 -0.24652432276E+03 -0.84234795568E+03  0.94919360397E+03  0.82807565520E+02 0.  0.
         11    1    3    3    0    0  0.26301131037E+03 -0.20977484393E+03 -0.70945883597E+03  0.78518295605E+03  0.00000000000E+00 0. -1.
        -11    1    3    3    0    0  0.88822577659E+02 -0.36749478833E+02 -0.13288911970E+03  0.16401064792E+03  0.00000000000E+00 0.  1.
         22    1    1    2    0    0 -0.35183388803E+03  0.24652432276E+03  0.72138940701E+02  0.43562065291E+03  0.00000000000E+00 0.  1.
<mgrwt>
<rscale>  0 0.11508643E+04</rscale>
<asrwt>0</asrwt>
<pdfrwt beam="1">  1        1 0.16577102E+00 0.11508643E+04</pdfrwt>
<pdfrwt beam="2">  1       -1 0.47277326E-01 0.11508643E+04</pdfrwt>
<totfact> 0.58425993E+01</totfact>
</mgrwt>
</event>
<event>
 6    1  0.9988873E-007  0.2286417E+04  0.7818608E-02  0.8483296E-01
         -1   -1    0    0    0  501 -0.00000000000E+00  0.00000000000E+00  0.59511645155E+03  0.59511645155E+03  0.00000000000E+00 0.  1.
          1   -1    0    0  501    0  0.00000000000E+00 -0.00000000000E+00 -0.21960848098E+04  0.21960848098E+04  0.00000000000E+00 0. -1.
         23    2    1    2    0    0  0.58257403081E+03  0.24965980739E+03  0.35702921909E+03  0.73317379952E+03  0.91386192723E+02 0.  0.
         11    1    3    3    0    0  0.40927671562E+03  0.13789243323E+03  0.21230583036E+03  0.48124372068E+03  0.00000000000E+00 0.  1.
        -11    1    3    3    0    0  0.17329731519E+03  0.11176737416E+03  0.14472338873E+03  0.25193007884E+03  0.00000000000E+00 0. -1.
         22    1    1    2    0    0 -0.58257403081E+03 -0.24965980739E+03 -0.19579975773E+04  0.20580274618E+04  0.00000000000E+00 0. -1.
<mgrwt>
<rscale>  0 0.22864175E+04</rscale>
<asrwt>0</asrwt>
<pdfrwt beam="1">  1        1 0.33785921E+00 0.22864175E+04</pdfrwt>
<pdfrwt beam="2">  1       -1 0.91556375E-01 0.22864175E+04</pdfrwt>
<totfact> 0.23062816E+00</totfact>
</mgrwt>
</event>
<event>
 6    1  0.9988873E-007  0.4568381E+04  0.7818608E-02  0.7898774E-01
         -2   -1    0    0    0  501 -0.00000000000E+00  0.00000000000E+00  0.51149609906E+04  0.51149609906E+04  0.00000000000E+00 0.  1.
          2   -1    0    0  501    0  0.00000000000E+00 -0.00000000000E+00 -0.10200517892E+04  0.10200517892E+04  0.00000000000E+00 0. -1.
         23    2    1    2    0    0  0.13939221023E+04 -0.85666295154E+03 -0.90537420078E+02  0.16411443282E+04  0.90925473832E+02 0.  0.
         11    1    3    3    0    0  0.64780669035E+03 -0.35096141102E+03 -0.19918462519E+02  0.73703742458E+03  0.00000000000E+00 0. -1.
        -11    1    3    3    0    0  0.74611541190E+03 -0.50570154052E+03 -0.70618957559E+02  0.90410690360E+03  0.00000000000E+00 0.  1.
         22    1    1    2    0    0 -0.13939221023E+04  0.85666295154E+03  0.41854466214E+04  0.44938684516E+04  0.00000000000E+00 0.  1.
<mgrwt>
<rscale>  0 0.45683805E+04</rscale>
<asrwt>0</asrwt>
<pdfrwt beam="1">  1        2 0.15693105E+00 0.45683805E+04</pdfrwt>
<pdfrwt beam="2">  1       -2 0.78691706E+00 0.45683805E+04</pdfrwt>
<totfact> 0.17243138E-03</totfact>
</mgrwt>
</event>
<event>
 6    1  0.9988873E-007  0.1011731E+04  0.7818608E-02  0.9295771E-01
          2   -1    0    0  501    0  0.00000000000E+00  0.00000000000E+00  0.17222368738E+04  0.17222368738E+04  0.00000000000E+00 0. -1.
         -2   -1    0    0    0  501 -0.00000000000E+00 -0.00000000000E+00 -0.14858571795E+03  0.14858571795E+03  0.00000000000E+00 0.  1.
         23    2    1    2    0    0  0.48146354266E+03  0.13016030901E+03  0.89410316812E+03  0.10278906155E+04  0.91595814498E+02 0.  0.
         11    1    3    3    0    0  0.22054094988E+03  0.38746359983E+02  0.48413518129E+03  0.53341022183E+03  0.00000000000E+00 0. -1.
        -11    1    3    3    0    0  0.26092259278E+03  0.91413949024E+02  0.40996798683E+03  0.49448039367E+03  0.00000000000E+00 0.  1.
         22    1    1    2    0    0 -0.48146354266E+03 -0.13016030901E+03  0.67954798769E+03  0.84293197621E+03  0.00000000000E+00 0. -1.
<mgrwt>
<rscale>  0 0.10117308E+04</rscale>
<asrwt>0</asrwt>
<pdfrwt beam="1">  1        2 0.26495951E+00 0.10117308E+04</pdfrwt>
<pdfrwt beam="2">  1       -2 0.22859342E-01 0.10117308E+04</pdfrwt>
<totfact> 0.16043049E+02</totfact>
</mgrwt>
</event>
<event>
 6    1  0.9988873E-007  0.1506198E+04  0.7818608E-02  0.8880342E-01
          2   -1    0    0  501    0  0.00000000000E+00  0.00000000000E+00  0.14788306072E+04  0.14788306072E+04  0.00000000000E+00 0. -1.
         -2   -1    0    0    0  501 -0.00000000000E+00 -0.00000000000E+00 -0.38351808262E+03  0.38351808262E+03  0.00000000000E+00 0.  1.
         23    2    1    2    0    0  0.52536034830E+03 -0.38104468198E+03  0.84268289993E+02  0.66092911717E+03  0.92345048572E+02 0.  0.
         11    1    3    3    0    0  0.17023737730E+03 -0.15252566587E+03  0.67381981332E+02  0.23829640112E+03  0.00000000000E+00 0. -1.
        -11    1    3    3    0    0  0.35512297100E+03 -0.22851901611E+03  0.16886308661E+02  0.42263271605E+03  0.00000000000E+00 0.  1.
         22    1    1    2    0    0 -0.52536034830E+03  0.38104468198E+03  0.10110442346E+04  0.12014195726E+04  0.00000000000E+00 0. -1.
<mgrwt>
<rscale>  0 0.15061982E+04</rscale>
<asrwt>0</asrwt>
<pdfrwt beam="1">  1        2 0.22751240E+00 0.15061982E+04</pdfrwt>
<pdfrwt beam="2">  1       -2 0.59002783E-01 0.15061982E+04</pdfrwt>
<totfact> 0.33810476E+01</totfact>
</mgrwt>
</event>
<event>
 6    1  0.9988873E-007  0.5073970E+04  0.7818608E-02  0.7817197E-01
         -2   -1    0    0    0  501 -0.00000000000E+00  0.00000000000E+00  0.17657525278E+04  0.17657525278E+04  0.00000000000E+00 0.  1.
          2   -1    0    0  501    0  0.00000000000E+00 -0.00000000000E+00 -0.36450708604E+04  0.36450708604E+04  0.00000000000E+00 0. -1.
         23    2    1    2    0    0  0.21376074203E+04 -0.55666869621E+03 -0.22687938781E+04  0.31678484170E+04  0.92695260419E+02 0.  0.
         11    1    3    3    0    0  0.55180285429E+03 -0.18517636418E+03 -0.60794391675E+03  0.84164866884E+03  0.00000000000E+00 0. -1.
        -11    1    3    3    0    0  0.15858045660E+04 -0.37149233202E+03 -0.16608499613E+04  0.23261997482E+04  0.00000000000E+00 0.  1.
         22    1    1    2    0    0 -0.21376074203E+04  0.55666869621E+03  0.38947554554E+03  0.22429749712E+04  0.00000000000E+00 0.  1.
<mgrwt>
<rscale>  0 0.50739701E+04</rscale>
<asrwt>0</asrwt>
<pdfrwt beam="1">  1        2 0.56078013E+00 0.50739701E+04</pdfrwt>
<pdfrwt beam="2">  1       -2 0.27165424E+00 0.50739701E+04</pdfrwt>
<totfact> 0.21891723E-02</totfact>
</mgrwt>
</event>
<event>
 6    1  0.9988873E-007  0.1646615E+04  0.7818608E-02  0.8792411E-01
         -2   -1    0    0    0  501 -0.00000000000E+00  0.00000000000E+00  0.61545707922E+03  0.61545707922E+03  0.00000000000E+00 0.  1.
          2   -1    0    0  501    0  0.00000000000E+00 -0.00000000000E+00 -0.11013529321E+04  0.11013529321E+04  0.00000000000E+00 0. -1.
         23    2    1    2    0    0 -0.37270389829E+03  0.38557755554E+03  0.40417432489E+03  0.67767423171E+03  0.91144019455E+02 0.  0.
         13    1    3    3    0    0 -0.27976044599E+03  0.29452246198E+03  0.35194037706E+03  0.53746759601E+03  0.00000000000E+00 0. -1.
        -13    1    3    3    0    0 -0.92943452296E+02  0.91055093563E+02  0.52233947828E+02  0.14020663570E+03  0.00000000000E+00 0.  1.
         22    1    1    2    0    0  0.37270389829E+03 -0.38557755554E+03 -0.89007017776E+03  0.10391357796E+04  0.00000000000E+00 0. -1.
<mgrwt>
<rscale>  0 0.16466153E+04</rscale>
<asrwt>0</asrwt>
<pdfrwt beam="1">  1        2 0.16943891E+00 0.16466153E+04</pdfrwt>
<pdfrwt beam="2">  1       -2 0.94685705E-01 0.16466153E+04</pdfrwt>
<totfact> 0.19518464E+01</totfact>
</mgrwt>
</event>
<event>
 6    1  0.9988873E-007  0.1333361E+04  0.7818608E-02  0.9003520E-01
         -1   -1    0    0    0  501 -0.00000000000E+00  0.00000000000E+00  0.49484803803E+03  0.49484803803E+03  0.00000000000E+00 0.  1.
          1   -1    0    0  501    0  0.00000000000E+00 -0.00000000000E+00 -0.89818099916E+03  0.89818099916E+03  0.00000000000E+00 0. -1.
         23    2    1    2    0    0 -0.41770264282E+03 -0.17700495711E+03  0.30311077803E+03  0.55346426349E+03  0.92953184677E+02 0.  0.
         13    1    3    3    0    0 -0.28990692383E+03 -0.16662578064E+03  0.20759591179E+03  0.39358129763E+03  0.00000000000E+00 0. -1.
        -13    1    3    3    0    0 -0.12779571899E+03 -0.10379176467E+02  0.95514866245E+02  0.15988296585E+03  0.00000000000E+00 0.  1.
         22    1    1    2    0    0  0.41770264282E+03  0.17700495711E+03 -0.70644373915E+03  0.83956477371E+03  0.00000000000E+00 0. -1.
<mgrwt>
<rscale>  0 0.13333613E+04</rscale>
<asrwt>0</asrwt>
<pdfrwt beam="1">  1        1 0.13818169E+00 0.13333613E+04</pdfrwt>
<pdfrwt beam="2">  1       -1 0.76130467E-01 0.13333613E+04</pdfrwt>
<totfact> 0.31015232E+01</totfact>
</mgrwt>
</event>
<event>
 6    1  0.9988873E-007  0.3016778E+04  0.7818608E-02  0.8238956E-01
         -2   -1    0    0    0  501 -0.00000000000E+00  0.00000000000E+00  0.89702016991E+03  0.89702016991E+03  0.00000000000E+00 0.  1.
          2   -1    0    0  501    0  0.00000000000E+00 -0.00000000000E+00 -0.25364395581E+04  0.25364395581E+04  0.00000000000E+00 0. -1.
         23    2    1    2    0    0 -0.57514320164E+03  0.13851830116E+04 -0.65319267917E+03  0.16384207871E+04  0.90776215772E+02 0.  0.
         11    1    3    3    0    0 -0.47565034535E+03  0.12013052328E+04 -0.58688866685E+03  0.14190897860E+04  0.00000000000E+00 0. -1.
        -11    1    3    3    0    0 -0.99492856292E+02  0.18387777876E+03 -0.66304012322E+02  0.21933100106E+03  0.00000000000E+00 0.  1.
         22    1    1    2    0    0  0.57514320164E+03 -0.13851830116E+04 -0.98622670906E+03  0.17950389410E+04  0.00000000000E+00 0. -1.
<mgrwt>
<rscale>  0 0.30167780E+04</rscale>
<asrwt>0</asrwt>
<pdfrwt beam="1">  1        2 0.39022146E+00 0.30167780E+04</pdfrwt>
<pdfrwt beam="2">  1       -2 0.13800311E+00 0.30167780E+04</pdfrwt>
<totfact> 0.10563220E+00</totfact>
</mgrwt>
</event>
<event>
 6    1  0.9988873E-007  0.7267591E+03  0.7818608E-02  0.9672534E-01
         -1   -1    0    0    0  501 -0.00000000000E+00  0.00000000000E+00  0.79514453631E+02  0.79514453631E+02  0.00000000000E+00 0.  1.
          1   -1    0    0  501    0  0.00000000000E+00 -0.00000000000E+00 -0.16606376376E+04  0.16606376376E+04  0.00000000000E+00 0. -1.
         23    2    1    2    0    0  0.27582800056E+03 -0.12151383495E+02 -0.25701651601E+03  0.38756671125E+03  0.89004068161E+02 0.  0.
         11    1    3    3    0    0  0.23608316618E+03 -0.26810542156E+02 -0.17444567334E+03  0.29476322611E+03  0.00000000000E+00 0. -1.
        -11    1    3    3    0    0  0.39744834386E+02  0.14659158661E+02 -0.82570842675E+02  0.92803485135E+02  0.00000000000E+00 0.  1.
         22    1    1    2    0    0 -0.27582800056E+03  0.12151383495E+02 -0.13241066679E+04  0.13525853799E+04  0.00000000000E+00 0. -1.
<mgrwt>
<rscale>  0 0.72675909E+03</rscale>
<asrwt>0</asrwt>
<pdfrwt beam="1">  1        1 0.25548272E+00 0.72675909E+03</pdfrwt>
<pdfrwt beam="2">  1       -1 0.12232992E-01 0.72675909E+03</pdfrwt>
<totfact> 0.23738200E+02</totfact>
</mgrwt>
</event>
<event>
 6    1  0.9988873E-007  0.1472358E+04  0.7818608E-02  0.8903045E-01
         -2   -1    0    0    0  501 -0.00000000000E+00  0.00000000000E+00  0.27707901486E+03  0.27707901486E+03  0.00000000000E+00 0.  1.
          2   -1    0    0  501    0  0.00000000000E+00 -0.00000000000E+00 -0.19559759251E+04  0.19559759251E+04  0.00000000000E+00 0. -1.
         23    2    1    2    0    0 -0.16391587703E+03  0.71335789934E+03 -0.91200792977E+03  0.11729291853E+04  0.90865298527E+02 0.  0.
         13    1    3    3    0    0 -0.15753564639E+03  0.55825490531E+03 -0.75547155897E+03  0.95247220201E+03  0.00000000000E+00 0. -1.
        -13    1    3    3    0    0 -0.63802306405E+01  0.15510299402E+03 -0.15653637080E+03  0.22045698329E+03  0.00000000000E+00 0.  1.
         22    1    1    2    0    0  0.16391587703E+03 -0.71335789934E+03 -0.76688898043E+03  0.10601257546E+04  0.00000000000E+00 0.  1.
<mgrwt>
<rscale>  0 0.14723585E+04</rscale>
<asrwt>0</asrwt>
<pdfrwt beam="1">  1        2 0.30091936E+00 0.14723585E+04</pdfrwt>
<pdfrwt beam="2">  1       -2 0.42627542E-01 0.14723585E+04</pdfrwt>
<totfact> 0.35715405E+01</totfact>
</mgrwt>
</event>
<event>
 6    1  0.9988873E-007  0.1027501E+04  0.7818608E-02  0.9278886E-01
          2   -1    0    0  501    0  0.00000000000E+00  0.00000000000E+00  0.21852883368E+03  0.21852883368E+03  0.00000000000E+00 0. -1.
         -2   -1    0    0    0  501 -0.00000000000E+00 -0.00000000000E+00 -0.12078012235E+04  0.12078012235E+04  0.00000000000E+00 0.  1.
         23    2    1    2    0    0 -0.98080130324E+02  0.27501521769E+03 -0.10787922387E+04  0.11209337814E+04  0.86294646724E+02 0.  0.
         13    1    3    3    0    0  0.84123346622E+00  0.94968299945E+02 -0.43134814445E+03  0.44167964339E+03  0.00000000000E+00 0. -1.
        -13    1    3    3    0    0 -0.98921363790E+02  0.18004691774E+03 -0.64744409424E+03  0.67925413799E+03  0.00000000000E+00 0.  1.
         22    1    1    2    0    0  0.98080130324E+02 -0.27501521769E+03  0.89519848877E+02  0.30539627579E+03  0.00000000000E+00 0. -1.
<mgrwt>
<rscale>  0 0.10275006E+04</rscale>
<asrwt>0</asrwt>
<pdfrwt beam="1">  1        2 0.33619820E-01 0.10275006E+04</pdfrwt>
<pdfrwt beam="2">  1       -2 0.18581557E+00 0.10275006E+04</pdfrwt>
<totfact> 0.25813593E+01</totfact>
</mgrwt>
</event>
<event>
 6    1  0.9988873E-007  0.3349750E+04  0.7818608E-02  0.8150351E-01
          2   -1    0    0  501    0  0.00000000000E+00  0.00000000000E+00  0.23271034609E+04  0.23271034609E+04  0.00000000000E+00 0. -1.
         -2   -1    0    0    0  501 -0.00000000000E+00 -0.00000000000E+00 -0.12054499457E+04  0.12054499457E+04  0.00000000000E+00 0.  1.
         23    2    1    2    0    0 -0.89217157029E+03  0.12188353012E+04  0.13212484739E+04  0.20089498657E+04  0.93018442933E+02 0.  0.
         11    1    3    3    0    0 -0.12031059934E+03  0.13827007978E+03  0.12685642645E+03  0.22290313638E+03  0.00000000000E+00 0.  1.
        -11    1    3    3    0    0 -0.77186097096E+03  0.10805652214E+04  0.11943920475E+04  0.17860467293E+04  0.00000000000E+00 0. -1.
         22    1    1    2    0    0  0.89217157029E+03 -0.12188353012E+04 -0.19959495871E+03  0.15236035409E+04  0.00000000000E+00 0.  1.
<mgrwt>
<rscale>  0 0.33497503E+04</rscale>
<asrwt>0</asrwt>
<pdfrwt beam="1">  1        2 0.35801592E+00 0.33497503E+04</pdfrwt>
<pdfrwt beam="2">  1       -2 0.18545384E+00 0.33497503E+04</pdfrwt>
<totfact> 0.60550082E-01</totfact>
</mgrwt>
</event>
<event>
 6    1  0.9988873E-007  0.4468553E+04  0.7818608E-02  0.7916165E-01
          2   -1    0    0  501    0  0.00000000000E+00  0.00000000000E+00  0.20589657017E+04  0.20589657017E+04  0.00000000000E+00 0. -1.
         -2   -1    0    0    0  501 -0.00000000000E+00 -0.00000000000E+00 -0.24245141826E+04  0.24245141826E+04  0.00000000000E+00 0.  1.
         23    2    1    2    0    0  0.39822121228E+03  0.21615390799E+04 -0.58300200870E+03  0.22748338365E+04  0.64391875330E+02 0.  0.
         11    1    3    3    0    0  0.15425925027E+03  0.78560488562E+03 -0.18185852710E+03  0.82100150821E+03  0.00000000000E+00 0.  1.
        -11    1    3    3    0    0  0.24396196201E+03  0.13759341943E+04 -0.40114348160E+03  0.14538323283E+04  0.00000000000E+00 0. -1.
         22    1    1    2    0    0 -0.39822121228E+03 -0.21615390799E+04  0.21745352771E+03  0.22086460478E+04  0.00000000000E+00 0.  1.
<mgrwt>
<rscale>  0 0.44685530E+04</rscale>
<asrwt>0</asrwt>
<pdfrwt beam="1">  1        2 0.31676396E+00 0.44685530E+04</pdfrwt>
<pdfrwt beam="2">  1       -2 0.37300218E+00 0.44685530E+04</pdfrwt>
<totfact> 0.52258882E-02</totfact>
</mgrwt>
</event>
<event>
 6    1  0.9988873E-007  0.1200630E+04  0.7818608E-02  0.9112305E-01
         -2   -1    0    0    0  501 -0.00000000000E+00  0.00000000000E+00  0.68575283537E+03  0.68575283537E+03  0.00000000000E+00 0.  1.
          2   -1    0    0  501    0  0.00000000000E+00 -0.00000000000E+00 -0.52552190221E+03  0.52552190221E+03  0.00000000000E+00 0. -1.
         23    2    1    2    0    0  0.53023132898E+03 -0.25473403906E+03  0.18837038381E+03  0.62235494544E+03  0.76207504428E+02 0.  0.
         11    1    3    3    0    0  0.32170040306E+03 -0.11488365584E+03  0.12092089256E+03  0.36236896386E+03  0.00000000000E+00 0.  1.
        -11    1    3    3    0    0  0.20853092592E+03 -0.13985038322E+03  0.67449491257E+02  0.25998598159E+03  0.00000000000E+00 0. -1.
         22    1    1    2    0    0 -0.53023132898E+03  0.25473403906E+03 -0.28139450657E+02  0.58891979214E+03  0.00000000000E+00 0.  1.
<mgrwt>
<rscale>  0 0.12006301E+04</rscale>
<asrwt>0</asrwt>
<pdfrwt beam="1">  1        2 0.80849523E-01 0.12006301E+04</pdfrwt>
<pdfrwt beam="2">  1       -2 0.10550044E+00 0.12006301E+04</pdfrwt>
<totfact> 0.41661763E+01</totfact>
</mgrwt>
</event>
<event>
 6    1  0.9988873E-007  0.2338882E+04  0.7818608E-02  0.8462746E-01
          2   -1    0    0  501    0  0.00000000000E+00  0.00000000000E+00  0.20767513161E+04  0.20767513161E+04  0.00000000000E+00 0. -1.
         -2   -1    0    0    0  501 -0.00000000000E+00 -0.00000000000E+00 -0.65852493902E+03  0.65852493902E+03  0.00000000000E+00 0.  1.
         23    2    1    2    0    0 -0.28085616085E+03  0.10038687128E+04  0.13257380620E+04  0.16887645906E+04  0.87817184052E+02 0.  0.
         11    1    3    3    0    0 -0.27119644310E+03  0.85617973761E+03  0.11386815154E+04  0.14502368246E+04  0.00000000000E+00 0. -1.
        -11    1    3    3    0    0 -0.96597177489E+01  0.14768897521E+03  0.18705654652E+03  0.23852776598E+03  0.00000000000E+00 0.  1.
         22    1    1    2    0    0  0.28085616085E+03 -0.10038687128E+04  0.92488315177E+02  0.10465116646E+04  0.00000000000E+00 0.  1.
<mgrwt>
<rscale>  0 0.23388822E+04</rscale>
<asrwt>0</asrwt>
<pdfrwt beam="1">  1        2 0.31950020E+00 0.23388822E+04</pdfrwt>
<pdfrwt beam="2">  1       -2 0.10131153E+00 0.23388822E+04</pdfrwt>
<totfact> 0.43811160E+00</totfact>
</mgrwt>
</event>
<event>
 6    1  0.9988873E-007  0.7737112E+03  0.7818608E-02  0.9598868E-01
          2   -1    0    0  501    0  0.00000000000E+00  0.00000000000E+00  0.16773516767E+04  0.16773516767E+04  0.00000000000E+00 0. -1.
         -2   -1    0    0    0  501 -0.00000000000E+00 -0.00000000000E+00 -0.89222353173E+02  0.89222353173E+02  0.00000000000E+00 0.  1.
         23    2    1    2    0    0  0.22312540889E+03 -0.17888505620E+03  0.13816097075E+04  0.14138203435E+04  0.90872265125E+02 0.  0.
         13    1    3    3    0    0  0.11175590506E+03 -0.80153284011E+02  0.87705868436E+03  0.88777579774E+03  0.00000000000E+00 0. -1.
        -13    1    3    3    0    0  0.11136950383E+03 -0.98731772189E+02  0.50455102312E+03  0.52604454579E+03  0.00000000000E+00 0.  1.
         22    1    1    2    0    0 -0.22312540889E+03  0.17888505620E+03  0.20651961609E+03  0.35275368638E+03  0.00000000000E+00 0.  1.
<mgrwt>
<rscale>  0 0.77371122E+03</rscale>
<asrwt>0</asrwt>
<pdfrwt beam="1">  1        2 0.25805408E+00 0.77371122E+03</pdfrwt>
<pdfrwt beam="2">  1       -2 0.13726517E-01 0.77371122E+03</pdfrwt>
<totfact> 0.41671587E+02</totfact>
</mgrwt>
</event>
<event>
 6    1  0.9988873E-007  0.1347550E+04  0.7818608E-02  0.8992685E-01
         -2   -1    0    0    0  501 -0.00000000000E+00  0.00000000000E+00  0.82303819339E+03  0.82303819339E+03  0.00000000000E+00 0.  1.
          2   -1    0    0  501    0  0.00000000000E+00 -0.00000000000E+00 -0.55158147486E+03  0.55158147486E+03  0.00000000000E+00 0. -1.
         23    2    1    2    0    0 -0.54140608964E+02  0.16213672548E+03  0.79794175521E+03  0.82108013296E+03  0.90785553633E+02 0.  0.
         11    1    3    3    0    0  0.50064153720E+01  0.68519244753E+02  0.46885178106E+03  0.47385856930E+03  0.00000000000E+00 0.  1.
        -11    1    3    3    0    0 -0.59147024336E+02  0.93617480722E+02  0.32908997415E+03  0.34722156366E+03  0.00000000000E+00 0. -1.
         22    1    1    2    0    0  0.54140608964E+02 -0.16213672548E+03 -0.52648503667E+03  0.55353953529E+03  0.00000000000E+00 0. -1.
<mgrwt>
<rscale>  0 0.13475498E+04</rscale>
<asrwt>0</asrwt>
<pdfrwt beam="1">  1        2 0.84858688E-01 0.13475498E+04</pdfrwt>
<pdfrwt beam="2">  1       -2 0.12662126E+00 0.13475498E+04</pdfrwt>
<totfact> 0.24870217E+01</totfact>
</mgrwt>
</event>
<event>
 6    1  0.9988873E-007  0.7349266E+03  0.7818608E-02  0.9659299E-01
         -1   -1    0    0    0  501 -0.00000000000E+00  0.00000000000E+00  0.14753442865E+03  0.14753442865E+03  0.00000000000E+00 0.  1.
          1   -1    0    0  501    0  0.00000000000E+00 -0.00000000000E+00 -0.91523904201E+03  0.91523904201E+03  0.00000000000E+00 0. -1.
         23    2    1    2    0    0  0.14536659699E+03 -0.27271900183E+03 -0.11607752009E+03  0.34157656956E+03  0.87712374965E+02 0.  0.
         13    1    3    3    0    0  0.13268887394E+03 -0.18345902930E+03 -0.10859617927E+03  0.25111089752E+03  0.00000000000E+00 0. -1.
        -13    1    3    3    0    0  0.12677723049E+02 -0.89259972523E+02 -0.74813408184E+01  0.90465672036E+02  0.00000000000E+00 0.  1.
         22    1    1    2    0    0 -0.14536659699E+03  0.27271900183E+03 -0.65162709327E+03  0.72119690110E+03  0.00000000000E+00 0. -1.
<mgrwt>
<rscale>  0 0.73492658E+03</rscale>
<asrwt>0</asrwt>
<pdfrwt beam="1">  1        1 0.14080600E+00 0.73492658E+03</pdfrwt>
<pdfrwt beam="2">  1       -1 0.22697605E-01 0.73492658E+03</pdfrwt>
<totfact> 0.29535912E+02</totfact>
</mgrwt>
</event>
<event>
 6    1  0.9988873E-007  0.1841287E+04  0.7818608E-02  0.8684647E-01
         -2   -1    0    0    0  501 -0.00000000000E+00  0.00000000000E+00  0.72127134267E+03  0.72127134267E+03  0.00000000000E+00 0.  1.
          2   -1    0    0  501    0  0.00000000000E+00 -0.00000000000E+00 -0.11751256442E+04  0.11751256442E+04  0.00000000000E+00 0. -1.
         23    2    1    2    0    0  0.74636295192E+03 -0.75729255434E+01  0.32356348805E+03  0.81867094339E+03  0.91726645804E+02 0.  0.
         11    1    3    3    0    0  0.43893684402E+03 -0.29624238012E+02  0.23078030156E+03  0.49679240745E+03  0.00000000000E+00 0. -1.
        -11    1    3    3    0    0  0.30742610791E+03  0.22051312468E+02  0.92783186492E+02  0.32187853594E+03  0.00000000000E+00 0.  1.
         22    1    1    2    0    0 -0.74636295192E+03  0.75729255434E+01 -0.77741778955E+03  0.10777260434E+04  0.00000000000E+00 0. -1.
<mgrwt>
<rscale>  0 0.18412870E+04</rscale>
<asrwt>0</asrwt>
<pdfrwt beam="1">  1        2 0.18078856E+00 0.18412870E+04</pdfrwt>
<pdfrwt beam="2">  1       -2 0.11096482E+00 0.18412870E+04</pdfrwt>
<totfact> 0.11867634E+01</totfact>
</mgrwt>
</event>
<event>
 6    1  0.9988873E-007  0.2643216E+04  0.7818608E-02  0.8353668E-01
         -2   -1    0    0    0  501 -0.00000000000E+00  0.00000000000E+00  0.10879999816E+04  0.10879999816E+04  0.00000000000E+00 0.  1.
          2   -1    0    0  501    0  0.00000000000E+00 -0.00000000000E+00 -0.16053742631E+04  0.16053742631E+04  0.00000000000E+00 0. -1.
         23    2    1    2    0    0 -0.40939040146E+03 -0.11418758484E+04  0.27140920770E+03  0.12464256117E+04  0.91830787323E+02 0.  0.
         13    1    3    3    0    0 -0.28853144760E+03 -0.89693232694E+03  0.18733888816E+03  0.96064241754E+03  0.00000000000E+00 0.  1.
        -13    1    3    3    0    0 -0.12085895386E+03 -0.24494352145E+03  0.84070319537E+02  0.28578319414E+03  0.00000000000E+00 0. -1.
         22    1    1    2    0    0  0.40939040146E+03  0.11418758484E+04 -0.78878348913E+03  0.14469486330E+04  0.00000000000E+00 0.  1.
<mgrwt>
<rscale>  0 0.26432156E+04</rscale>
<asrwt>0</asrwt>
<pdfrwt beam="1">  1        2 0.24698066E+00 0.26432156E+04</pdfrwt>
<pdfrwt beam="2">  1       -2 0.16738461E+00 0.26432156E+04</pdfrwt>
<totfact> 0.21724698E+00</totfact>
</mgrwt>
</event>
<event>
 6    1  0.9988873E-007  0.1478328E+04  0.7818608E-02  0.8898994E-01
          1   -1    0    0  501    0  0.00000000000E+00  0.00000000000E+00  0.33585607687E+04  0.33585607687E+04  0.00000000000E+00 0. -1.
         -1   -1    0    0    0  501 -0.00000000000E+00 -0.00000000000E+00 -0.16267781176E+03  0.16267781176E+03  0.00000000000E+00 0.  1.
         23    2    1    2    0    0  0.21956608945E+02  0.49008008911E+03  0.29793159399E+03  0.58205796532E+03  0.96786641021E+02 0.  0.
         13    1    3    3    0    0  0.53100251849E+02  0.25534941977E+03  0.18470276494E+03  0.31959047905E+03  0.00000000000E+00 0.  1.
        -13    1    3    3    0    0 -0.31143642903E+02  0.23473066934E+03  0.11322882905E+03  0.26246748627E+03  0.00000000000E+00 0. -1.
         22    1    1    2    0    0 -0.21956608945E+02 -0.49008008911E+03  0.28979513630E+04  0.29391806152E+04  0.00000000000E+00 0. -1.
<mgrwt>
<rscale>  0 0.14783279E+04</rscale>
<asrwt>0</asrwt>
<pdfrwt beam="1">  1        1 0.51670161E+00 0.14783279E+04</pdfrwt>
<pdfrwt beam="2">  1       -1 0.25027358E-01 0.14783279E+04</pdfrwt>
<totfact> 0.44093708E+00</totfact>
</mgrwt>
</event>
<event>
 6    1  0.9988873E-007  0.2298379E+04  0.7818608E-02  0.8478560E-01
          2   -1    0    0  501    0  0.00000000000E+00  0.00000000000E+00  0.33121060705E+04  0.33121060705E+04  0.00000000000E+00 0. -1.
         -2   -1    0    0    0  501 -0.00000000000E+00 -0.00000000000E+00 -0.39873015604E+03  0.39873015604E+03  0.00000000000E+00 0.  1.
         23    2    1    2    0    0  0.10308968977E+02  0.11352298175E+04  0.17273483841E+04  0.20690340716E+04  0.91195043623E+02 0.  0.
         11    1    3    3    0    0  0.45019893158E+02  0.35480502018E+03  0.53062160235E+03  0.63990052196E+03  0.00000000000E+00 0.  1.
        -11    1    3    3    0    0 -0.34710924181E+02  0.78042479727E+03  0.11967267818E+04  0.14291335496E+04  0.00000000000E+00 0. -1.
         22    1    1    2    0    0 -0.10308968977E+02 -0.11352298175E+04  0.11860275303E+04  0.16418021549E+04  0.00000000000E+00 0.  1.
<mgrwt>
<rscale>  0 0.22983791E+04</rscale>
<asrwt>0</asrwt>
<pdfrwt beam="1">  1        2 0.50955476E+00 0.22983791E+04</pdfrwt>
<pdfrwt beam="2">  1       -2 0.61343103E-01 0.22983791E+04</pdfrwt>
<totfact> 0.24541954E+00</totfact>
</mgrwt>
</event>
<event>
 6    1  0.9988873E-007  0.1008649E+04  0.7818608E-02  0.9299109E-01
          1   -1    0    0  501    0  0.00000000000E+00  0.00000000000E+00  0.14096926150E+04  0.14096926150E+04  0.00000000000E+00 0. -1.
         -1   -1    0    0    0  501 -0.00000000000E+00 -0.00000000000E+00 -0.18042475560E+03  0.18042475560E+03  0.00000000000E+00 0.  1.
         23    2    1    2    0    0  0.23415325544E+02  0.49228166023E+03  0.48732021117E+03  0.69940090439E+03  0.93761006655E+02 0.  0.
         11    1    3    3    0    0  0.12773898952E+02  0.28251246447E+03  0.34303695649E+03  0.44457937266E+03  0.00000000000E+00 0.  1.
        -11    1    3    3    0    0  0.10641426592E+02  0.20976919576E+03  0.14428325468E+03  0.25482153173E+03  0.00000000000E+00 0. -1.
         22    1    1    2    0    0 -0.23415325544E+02 -0.49228166023E+03  0.74194764827E+03  0.89071646625E+03  0.00000000000E+00 0.  1.
<mgrwt>
<rscale>  0 0.10086495E+04</rscale>
<asrwt>0</asrwt>
<pdfrwt beam="1">  1        1 0.21687578E+00 0.10086495E+04</pdfrwt>
<pdfrwt beam="2">  1       -1 0.27757656E-01 0.10086495E+04</pdfrwt>
<totfact> 0.88551554E+01</totfact>
</mgrwt>
</event>
<event>
 6    1  0.9988873E-007  0.1387608E+04  0.7818608E-02  0.8962838E-01
          2   -1    0    0  501    0  0.00000000000E+00  0.00000000000E+00  0.65399713484E+03  0.65399713484E+03  0.00000000000E+00 0. -1.
         -2   -1    0    0    0  501 -0.00000000000E+00 -0.00000000000E+00 -0.73603354055E+03  0.73603354055E+03  0.00000000000E+00 0.  1.
         23    2    1    2    0    0 -0.29626616595E+01 -0.11862051574E+03 -0.72283443550E+03  0.73833924604E+03  0.92604627254E+02 0.  0.
         11    1    3    3    0    0 -0.81882053986E+01 -0.75996147915E+01 -0.55116798236E+01  0.12457105085E+02  0.00000000000E+00 0. -1.
        -11    1    3    3    0    0  0.52255437391E+01 -0.11102090095E+03 -0.71732275567E+03  0.72588214096E+03  0.00000000000E+00 0.  1.
         22    1    1    2    0    0  0.29626616595E+01  0.11862051574E+03  0.64079802978E+03  0.65169142935E+03  0.00000000000E+00 0. -1.
<mgrwt>
<rscale>  0 0.13876078E+04</rscale>
<asrwt>0</asrwt>
<pdfrwt beam="1">  1        2 0.10061494E+00 0.13876078E+04</pdfrwt>
<pdfrwt beam="2">  1       -2 0.11323593E+00 0.13876078E+04</pdfrwt>
<totfact> 0.26616450E+01</totfact>
</mgrwt>
</event>
<event>
 6    1  0.9988873E-007  0.2618311E+04  0.7818608E-02  0.8362008E-01
         -1   -1    0    0    0  501 -0.00000000000E+00  0.00000000000E+00  0.20133071375E+04  0.20133071375E+04  0.00000000000E+00 0.  1.
          1   -1    0    0  501    0  0.00000000000E+00 -0.00000000000E+00 -0.85128022899E+03  0.85128022899E+03  0.00000000000E+00 0. -1.
         23    2    1    2    0    0  0.55868912791E+03  0.20926731135E+03 -0.69133150085E+03  0.91757330830E+03  0.89862020871E+02 0.  0.
         13    1    3    3    0    0  0.36600731005E+03  0.92573410484E+02 -0.41424982688E+03  0.56047667785E+03  0.00000000000E+00 0.  1.
        -13    1    3    3    0    0  0.19268181786E+03  0.11669390087E+03 -0.27708167396E+03  0.35709663045E+03  0.00000000000E+00 0. -1.
         22    1    1    2    0    0 -0.55868912791E+03 -0.20926731135E+03  0.18533584093E+04  0.19470140582E+04  0.00000000000E+00 0.  1.
<mgrwt>
<rscale>  0 0.26183113E+04</rscale>
<asrwt>0</asrwt>
<pdfrwt beam="1">  1        1 0.13096619E+00 0.26183113E+04</pdfrwt>
<pdfrwt beam="2">  1       -1 0.30973956E+00 0.26183113E+04</pdfrwt>
<totfact> 0.50153336E-01</totfact>
</mgrwt>
</event>
<event>
 6    1  0.9988873E-007  0.1720720E+04  0.7818608E-02  0.8749634E-01
          1   -1    0    0  501    0  0.00000000000E+00  0.00000000000E+00  0.81077384806E+03  0.81077384806E+03  0.00000000000E+00 0. -1.
         -1   -1    0    0    0  501 -0.00000000000E+00 -0.00000000000E+00 -0.91297908929E+03  0.91297908929E+03  0.00000000000E+00 0.  1.
         23    2    1    2    0    0  0.35036913643E+03 -0.69655524551E+03  0.30733882349E+03  0.84302932420E+03  0.91068914696E+02 0.  0.
         11    1    3    3    0    0  0.44841242154E+02 -0.17337722605E+03  0.74905766578E+02  0.19411664889E+03  0.00000000000E+00 0.  1.
        -11    1    3    3    0    0  0.30552789427E+03 -0.52317801946E+03  0.23243305691E+03  0.64891267530E+03  0.00000000000E+00 0. -1.
         22    1    1    2    0    0 -0.35036913643E+03  0.69655524551E+03 -0.40954406473E+03  0.88072361315E+03  0.00000000000E+00 0.  1.
<mgrwt>
<rscale>  0 0.17207203E+04</rscale>
<asrwt>0</asrwt>
<pdfrwt beam="1">  1        1 0.12473444E+00 0.17207203E+04</pdfrwt>
<pdfrwt beam="2">  1       -1 0.14045832E+00 0.17207203E+04</pdfrwt>
<totfact> 0.85433244E+00</totfact>
</mgrwt>
</event>
<event>
 6    1  0.9988873E-007  0.2961727E+04  0.7818608E-02  0.8254745E-01
         -2   -1    0    0    0  501 -0.00000000000E+00  0.00000000000E+00  0.23066043486E+04  0.23066043486E+04  0.00000000000E+00 0.  1.
          2   -1    0    0  501    0  0.00000000000E+00 -0.00000000000E+00 -0.95072915502E+03  0.95072915502E+03  0.00000000000E+00 0. -1.
         23    2    1    2    0    0 -0.86699694004E+03 -0.11942730966E+04  0.56385494017E+03  0.15824400727E+04  0.90621558052E+02 0.  0.
         11    1    3    3    0    0 -0.67595839712E+03 -0.96422029815E+03  0.48219145929E+03  0.12724579134E+04  0.00000000000E+00 0. -1.
        -11    1    3    3    0    0 -0.19103854292E+03 -0.23005279843E+03  0.81663480876E+02  0.30998215925E+03  0.00000000000E+00 0.  1.
         22    1    1    2    0    0  0.86699694004E+03  0.11942730966E+04  0.79202025341E+03  0.16748934310E+04  0.00000000000E+00 0. -1.
<mgrwt>
<rscale>  0 0.29617265E+04</rscale>
<asrwt>0</asrwt>
<pdfrwt beam="1">  1        2 0.14626602E+00 0.29617265E+04</pdfrwt>
<pdfrwt beam="2">  1       -2 0.35486221E+00 0.29617265E+04</pdfrwt>
<totfact> 0.33748939E-01</totfact>
</mgrwt>
</event>
<event>
 6    1  0.9988873E-007  0.2368678E+04  0.7818608E-02  0.8451324E-01
         -2   -1    0    0    0  501 -0.00000000000E+00  0.00000000000E+00  0.17345587092E+04  0.17345587092E+04  0.00000000000E+00 0.  1.
          2   -1    0    0  501    0  0.00000000000E+00 -0.00000000000E+00 -0.80865437947E+03  0.80865437947E+03  0.00000000000E+00 0. -1.
         23    2    1    2    0    0  0.10692464427E+04  0.27699252412E+03  0.99661753202E+01  0.11083069885E+04  0.90731705148E+02 0.  0.
         11    1    3    3    0    0  0.71361079941E+03  0.15601721709E+03  0.39237330789E+02  0.73151986521E+03  0.00000000000E+00 0. -1.
        -11    1    3    3    0    0  0.35563564331E+03  0.12097530703E+03 -0.29271155469E+02  0.37678712325E+03  0.00000000000E+00 0.  1.
         22    1    1    2    0    0 -0.10692464427E+04 -0.27699252412E+03  0.91593815437E+03  0.14349061002E+04  0.00000000000E+00 0.  1.
<mgrwt>
<rscale>  0 0.23686777E+04</rscale>
<asrwt>0</asrwt>
<pdfrwt beam="1">  1        2 0.12440837E+00 0.23686777E+04</pdfrwt>
<pdfrwt beam="2">  1       -2 0.26685519E+00 0.23686777E+04</pdfrwt>
<totfact> 0.15506957E+00</totfact>
</mgrwt>
</event>
<event>
 6    1  0.9988873E-007  0.2532668E+04  0.7818608E-02  0.8391439E-01
          2   -1    0    0  501    0  0.00000000000E+00  0.00000000000E+00  0.10188043884E+04  0.10188043884E+04  0.00000000000E+00 0. -1.
         -2   -1    0    0    0  501 -0.00000000000E+00 -0.00000000000E+00 -0.15740033020E+04  0.15740033020E+04  0.00000000000E+00 0.  1.
         23    2    1    2    0    0 -0.12066253664E+04 -0.34794048846E+03 -0.43127231546E+03  0.13309181706E+04  0.91323645234E+02 0.  0.
         13    1    3    3    0    0 -0.50329997646E+03 -0.19099740716E+03 -0.17391109256E+03  0.56571719433E+03  0.00000000000E+00 0.  1.
        -13    1    3    3    0    0 -0.70332538999E+03 -0.15694308130E+03 -0.25736122290E+03  0.76520097623E+03  0.00000000000E+00 0. -1.
         22    1    1    2    0    0  0.12066253664E+04  0.34794048846E+03 -0.12392659819E+03  0.12618895198E+04  0.00000000000E+00 0. -1.
<mgrwt>
<rscale>  0 0.25326677E+04</rscale>
<asrwt>0</asrwt>
<pdfrwt beam="1">  1        2 0.15673914E+00 0.25326677E+04</pdfrwt>
<pdfrwt beam="2">  1       -2 0.24215435E+00 0.25326677E+04</pdfrwt>
<totfact> 0.15652201E+00</totfact>
</mgrwt>
</event>
<event>
 6    1  0.9988873E-007  0.4592966E+04  0.7818608E-02  0.7894560E-01
         -2   -1    0    0    0  501 -0.00000000000E+00  0.00000000000E+00  0.21120236249E+04  0.21120236249E+04  0.00000000000E+00 0.  1.
          2   -1    0    0  501    0  0.00000000000E+00 -0.00000000000E+00 -0.24970524863E+04  0.24970524863E+04  0.00000000000E+00 0. -1.
         23    2    1    2    0    0 -0.24053692004E+03 -0.11035332634E+04  0.18128219567E+04  0.21380051103E+04  0.95387272183E+02 0.  0.
         13    1    3    3    0    0 -0.10270537346E+03 -0.44620450397E+03  0.82385219148E+03  0.94253874536E+03  0.00000000000E+00 0.  1.
        -13    1    3    3    0    0 -0.13783154657E+03 -0.65732875945E+03  0.98896976519E+03  0.11954663649E+04  0.00000000000E+00 0. -1.
         22    1    1    2    0    0  0.24053692004E+03  0.11035332634E+04 -0.21978508180E+04  0.24710710009E+04  0.00000000000E+00 0. -1.
<mgrwt>
<rscale>  0 0.45929659E+04</rscale>
<asrwt>0</asrwt>
<pdfrwt beam="1">  1        2 0.38416192E+00 0.45929659E+04</pdfrwt>
<pdfrwt beam="2">  1       -2 0.32492671E+00 0.45929659E+04</pdfrwt>
<totfact> 0.58664131E-02</totfact>
</mgrwt>
</event>
<event>
 6    1  0.9988873E-007  0.1718984E+04  0.7818608E-02  0.8750611E-01
         -2   -1    0    0    0  501 -0.00000000000E+00  0.00000000000E+00  0.11472439251E+04  0.11472439251E+04  0.00000000000E+00 0.  1.
          2   -1    0    0  501    0  0.00000000000E+00 -0.00000000000E+00 -0.64391392249E+03  0.64391392249E+03  0.00000000000E+00 0. -1.
         23    2    1    2    0    0 -0.14307340663E+03  0.33719220765E+03 -0.55508396774E+03  0.67115395597E+03  0.90337349909E+02 0.  0.
         11    1    3    3    0    0 -0.61168811714E+02  0.25082505287E+03 -0.38553827308E+03  0.46399848134E+03  0.00000000000E+00 0.  1.
        -11    1    3    3    0    0 -0.81904594913E+02  0.86367154781E+02 -0.16954569466E+03  0.20715547463E+03  0.00000000000E+00 0. -1.
         22    1    1    2    0    0  0.14307340663E+03 -0.33719220765E+03  0.10584139703E+04  0.11200038916E+04  0.00000000000E+00 0.  1.
<mgrwt>
<rscale>  0 0.17189838E+04</rscale>
<asrwt>0</asrwt>
<pdfrwt beam="1">  1        2 0.99063680E-01 0.17189838E+04</pdfrwt>
<pdfrwt beam="2">  1       -2 0.17649907E+00 0.17189838E+04</pdfrwt>
<totfact> 0.82821199E+00</totfact>
</mgrwt>
</event>
<event>
 6    1  0.9988873E-007  0.1614243E+04  0.7818608E-02  0.8811846E-01
         -1   -1    0    0    0  501 -0.00000000000E+00  0.00000000000E+00  0.33181969787E+03  0.33181969787E+03  0.00000000000E+00 0.  1.
          1   -1    0    0  501    0  0.00000000000E+00 -0.00000000000E+00 -0.19632493985E+04  0.19632493985E+04  0.00000000000E+00 0. -1.
         23    2    1    2    0    0 -0.26420799991E+02 -0.17586439256E+03 -0.19338842350E+04  0.19442057488E+04  0.91659238148E+02 0.  0.
         13    1    3    3    0    0 -0.29724801321E+02 -0.23320169890E+02 -0.68403546945E+03  0.68507803761E+03  0.00000000000E+00 0.  1.
        -13    1    3    3    0    0  0.33040013298E+01 -0.15254422267E+03 -0.12498487656E+04  0.12591277112E+04  0.00000000000E+00 0. -1.
         22    1    1    2    0    0  0.26420799991E+02  0.17586439256E+03  0.30245453443E+03  0.35086334753E+03  0.00000000000E+00 0.  1.
<mgrwt>
<rscale>  0 0.16142426E+04</rscale>
<asrwt>0</asrwt>
<pdfrwt beam="1">  1        1 0.30203837E+00 0.16142426E+04</pdfrwt>
<pdfrwt beam="2">  1       -1 0.51049184E-01 0.16142426E+04</pdfrwt>
<totfact> 0.11673237E+01</totfact>
</mgrwt>
</event>
<event>
 6    1  0.9988873E-007  0.1822142E+04  0.7818608E-02  0.8694612E-01
          1   -1    0    0  501    0  0.00000000000E+00  0.00000000000E+00  0.11803487667E+04  0.11803487667E+04  0.00000000000E+00 0. -1.
         -1   -1    0    0    0  501 -0.00000000000E+00 -0.00000000000E+00 -0.70322468265E+03  0.70322468265E+03  0.00000000000E+00 0.  1.
         23    2    1    2    0    0  0.87171054974E+03  0.84595166023E+02 -0.11366341806E+02  0.88074818004E+03  0.92479934512E+02 0.  0.
         13    1    3    3    0    0  0.21932735875E+03 -0.18870435893E+02 -0.25185189642E+01  0.22015205332E+03  0.00000000000E+00 0. -1.
        -13    1    3    3    0    0  0.65238319099E+03  0.10346560192E+03 -0.88478228420E+01  0.66059612672E+03  0.00000000000E+00 0.  1.
         22    1    1    2    0    0 -0.87171054974E+03 -0.84595166023E+02  0.48849042588E+03  0.10028252693E+04  0.00000000000E+00 0.  1.
<mgrwt>
<rscale>  0 0.18221420E+04</rscale>
<asrwt>0</asrwt>
<pdfrwt beam="1">  1        1 0.18159212E+00 0.18221420E+04</pdfrwt>
<pdfrwt beam="2">  1       -1 0.10818841E+00 0.18221420E+04</pdfrwt>
<totfact> 0.82587004E+00</totfact>
</mgrwt>
</event>
<event>
 6    1  0.9988873E-007  0.3207855E+04  0.7818608E-02  0.8186746E-01
         -1   -1    0    0    0  501 -0.00000000000E+00  0.00000000000E+00  0.11727898011E+04  0.11727898011E+04  0.00000000000E+00 0.  1.
          1   -1    0    0  501    0  0.00000000000E+00 -0.00000000000E+00 -0.21935592442E+04  0.21935592442E+04  0.00000000000E+00 0. -1.
         23    2    1    2    0    0 -0.27191235002E+03  0.70428952660E+03  0.97246776029E+03  0.12349282486E+04  0.96923532216E+02 0.  0.
         11    1    3    3    0    0 -0.66747487983E+02  0.12772943424E+03  0.24541086605E+03  0.28459889089E+03  0.00000000000E+00 0. -1.
        -11    1    3    3    0    0 -0.20516486203E+03  0.57656009236E+03  0.72705689425E+03  0.95032935774E+03  0.00000000000E+00 0.  1.
         22    1    1    2    0    0  0.27191235002E+03 -0.70428952660E+03 -0.19932372034E+04  0.21314207967E+04  0.00000000000E+00 0. -1.
<mgrwt>
<rscale>  0 0.32078553E+04</rscale>
<asrwt>0</asrwt>
<pdfrwt beam="1">  1        1 0.33747065E+00 0.32078553E+04</pdfrwt>
<pdfrwt beam="2">  1       -1 0.18042920E+00 0.32078553E+04</pdfrwt>
<totfact> 0.38018622E-01</totfact>
</mgrwt>
</event>
<event>
 6    1  0.9988873E-007  0.4927242E+04  0.7818608E-02  0.7839830E-01
         -2   -1    0    0    0  501 -0.00000000000E+00  0.00000000000E+00  0.19927844712E+04  0.19927844712E+04  0.00000000000E+00 0.  1.
          2   -1    0    0  501    0  0.00000000000E+00 -0.00000000000E+00 -0.30457024941E+04  0.30457024941E+04  0.00000000000E+00 0. -1.
         23    2    1    2    0    0 -0.90668891915E+03  0.18128313720E+04  0.90390843782E+03  0.22211101398E+04  0.88529144913E+02 0.  0.
         11    1    3    3    0    0 -0.84340065823E+03  0.16604870231E+04  0.85312738221E+03  0.20485038820E+04  0.00000000000E+00 0. -1.
        -11    1    3    3    0    0 -0.63288260925E+02  0.15234434893E+03  0.50781055606E+02  0.17260625780E+03  0.00000000000E+00 0.  1.
         22    1    1    2    0    0  0.90668891915E+03 -0.18128313720E+04 -0.19568264607E+04  0.28173768255E+04  0.00000000000E+00 0. -1.
<mgrwt>
<rscale>  0 0.49272421E+04</rscale>
<asrwt>0</asrwt>
<pdfrwt beam="1">  1        2 0.46856961E+00 0.49272421E+04</pdfrwt>
<pdfrwt beam="2">  1       -2 0.30658223E+00 0.49272421E+04</pdfrwt>
<totfact> 0.34536043E-02</totfact>
</mgrwt>
</event>
<event>
 6    1  0.9988873E-007  0.1493047E+04  0.7818608E-02  0.8889090E-01
         -2   -1    0    0    0  501 -0.00000000000E+00  0.00000000000E+00  0.87259775416E+03  0.87259775416E+03  0.00000000000E+00 0.  1.
          2   -1    0    0  501    0  0.00000000000E+00 -0.00000000000E+00 -0.63866489259E+03  0.63866489259E+03  0.00000000000E+00 0. -1.
         23    2    1    2    0    0  0.50308677147E+03 -0.85489528728E+02  0.66503128444E+03  0.84324272986E+03  0.91580200010E+02 0.  0.
         13    1    3    3    0    0  0.43449807929E+03 -0.41011264547E+02  0.56987237558E+03  0.71779177285E+03  0.00000000000E+00 0.  1.
        -13    1    3    3    0    0  0.68588692180E+02 -0.44478264180E+02  0.95158908863E+02  0.12545095701E+03  0.00000000000E+00 0. -1.
         22    1    1    2    0    0 -0.50308677147E+03  0.85489528728E+02 -0.43109842287E+03  0.66801991688E+03  0.00000000000E+00 0. -1.
<mgrwt>
<rscale>  0 0.14930473E+04</rscale>
<asrwt>0</asrwt>
<pdfrwt beam="1">  1        2 0.98256138E-01 0.14930473E+04</pdfrwt>
<pdfrwt beam="2">  1       -2 0.13424581E+00 0.14930473E+04</pdfrwt>
<totfact> 0.17769485E+01</totfact>
</mgrwt>
</event>
<event>
 6    1  0.9988873E-007  0.2024667E+04  0.7818608E-02  0.8595174E-01
          1   -1    0    0  501    0  0.00000000000E+00  0.00000000000E+00  0.77533610632E+03  0.77533610632E+03  0.00000000000E+00 0. -1.
         -1   -1    0    0    0  501 -0.00000000000E+00 -0.00000000000E+00 -0.13217742918E+04  0.13217742918E+04  0.00000000000E+00 0.  1.
         23    2    1    2    0    0  0.14296660259E+03 -0.55596987534E+03  0.58731062261E+03  0.82631210116E+03  0.91191936883E+02 0.  0.
         11    1    3    3    0    0  0.12227200954E+03 -0.40075439186E+03  0.47631580500E+03  0.63437471025E+03  0.00000000000E+00 0. -1.
        -11    1    3    3    0    0  0.20694593053E+02 -0.15521548347E+03  0.11099481760E+03  0.19193739090E+03  0.00000000000E+00 0.  1.
         22    1    1    2    0    0 -0.14296660259E+03  0.55596987534E+03 -0.11337488081E+04  0.12707982970E+04  0.00000000000E+00 0.  1.
<mgrwt>
<rscale>  0 0.20246672E+04</rscale>
<asrwt>0</asrwt>
<pdfrwt beam="1">  1        1 0.11928248E+00 0.20246672E+04</pdfrwt>
<pdfrwt beam="2">  1       -1 0.20334989E+00 0.20246672E+04</pdfrwt>
<totfact> 0.30705073E+00</totfact>
</mgrwt>
</event>
<event>
 6    1  0.9988873E-007  0.7459697E+03  0.7818608E-02  0.9641694E-01
         -2   -1    0    0    0  501 -0.00000000000E+00  0.00000000000E+00  0.47430282883E+03  0.47430282883E+03  0.00000000000E+00 0.  1.
          2   -1    0    0  501    0  0.00000000000E+00 -0.00000000000E+00 -0.29330988959E+03  0.29330988959E+03  0.00000000000E+00 0. -1.
         23    2    1    2    0    0 -0.16010433845E+03 -0.81765752148E+02 -0.23717155079E+03  0.31244178554E+03  0.95134049790E+02 0.  0.
         13    1    3    3    0    0 -0.31602383077E+02 -0.40136294597E+02 -0.13108027831E+03  0.14068287786E+03  0.00000000000E+00 0.  1.
        -13    1    3    3    0    0 -0.12850195537E+03 -0.41629457551E+02 -0.10609127248E+03  0.17175890768E+03  0.00000000000E+00 0. -1.
         22    1    1    2    0    0  0.16010433845E+03  0.81765752148E+02  0.41816449004E+03  0.45517093289E+03  0.00000000000E+00 0.  1.
<mgrwt>
<rscale>  0 0.74596973E+03</rscale>
<asrwt>0</asrwt>
<pdfrwt beam="1">  1        2 0.45124598E-01 0.74596973E+03</pdfrwt>
<pdfrwt beam="2">  1       -2 0.72969666E-01 0.74596973E+03</pdfrwt>
<totfact> 0.19277618E+02</totfact>
</mgrwt>
</event>
<event>
 6    1  0.9988873E-007  0.4184439E+04  0.7818608E-02  0.7968339E-01
         -1   -1    0    0    0  501 -0.00000000000E+00  0.00000000000E+00  0.15690281280E+04  0.15690281280E+04  0.00000000000E+00 0.  1.
          1   -1    0    0  501    0  0.00000000000E+00 -0.00000000000E+00 -0.27898681955E+04  0.27898681955E+04  0.00000000000E+00 0. -1.
         23    2    1    2    0    0 -0.24360330634E+03  0.19228752756E+04  0.20718371235E+03  0.19513989066E+04  0.90778333493E+02 0.  0.
         11    1    3    3    0    0 -0.89253644449E+02  0.54687818377E+03  0.23169031068E+02  0.55459784072E+03  0.00000000000E+00 0.  1.
        -11    1    3    3    0    0 -0.15434966189E+03  0.13759970918E+04  0.18401468128E+03  0.13968010659E+04  0.00000000000E+00 0. -1.
         22    1    1    2    0    0  0.24360330634E+03 -0.19228752756E+04 -0.14280237799E+04  0.24074974168E+04  0.00000000000E+00 0.  1.
<mgrwt>
<rscale>  0 0.41844386E+04</rscale>
<asrwt>0</asrwt>
<pdfrwt beam="1">  1        1 0.42921049E+00 0.41844386E+04</pdfrwt>
<pdfrwt beam="2">  1       -1 0.24138895E+00 0.41844386E+04</pdfrwt>
<totfact> 0.51856003E-02</totfact>
</mgrwt>
</event>
<event>
 6    1  0.9988873E-007  0.5559079E+04  0.7818608E-02  0.7747612E-01
         -1   -1    0    0    0  501 -0.00000000000E+00  0.00000000000E+00  0.21525589474E+04  0.21525589474E+04  0.00000000000E+00 0.  1.
          1   -1    0    0  501    0  0.00000000000E+00 -0.00000000000E+00 -0.35891418398E+04  0.35891418398E+04  0.00000000000E+00 0. -1.
         23    2    1    2    0    0  0.84427554436E+03  0.13051271038E+04  0.16605432948E+04  0.22763943691E+04  0.91702441837E+02 0.  0.
         13    1    3    3    0    0  0.58966091512E+03  0.95128344405E+03  0.12454427337E+04  0.16744455168E+04  0.00000000000E+00 0. -1.
        -13    1    3    3    0    0  0.25461462924E+03  0.35384365978E+03  0.41510056109E+03  0.60194885232E+03  0.00000000000E+00 0.  1.
         22    1    1    2    0    0 -0.84427554436E+03 -0.13051271038E+04 -0.30971261872E+04  0.34653064181E+04  0.00000000000E+00 0. -1.
<mgrwt>
<rscale>  0 0.55590788E+04</rscale>
<asrwt>0</asrwt>
<pdfrwt beam="1">  1        1 0.55217567E+00 0.55590788E+04</pdfrwt>
<pdfrwt beam="2">  1       -1 0.33116292E+00 0.55590788E+04</pdfrwt>
<totfact> 0.30292109E-03</totfact>
</mgrwt>
</event>
<event>
 6    1  0.9988873E-007  0.2751888E+04  0.7818608E-02  0.8318363E-01
          1   -1    0    0  501    0  0.00000000000E+00  0.00000000000E+00  0.13283265479E+04  0.13283265479E+04  0.00000000000E+00 0. -1.
         -1   -1    0    0    0  501 -0.00000000000E+00 -0.00000000000E+00 -0.14252686956E+04  0.14252686956E+04  0.00000000000E+00 0.  1.
         23    2    1    2    0    0 -0.12118162234E+04  0.59266221349E+03 -0.31141090365E+03  0.13876728789E+04  0.94404498376E+02 0.  0.
         11    1    3    3    0    0 -0.42866622833E+03  0.16038667080E+03 -0.11158080495E+03  0.47109329810E+03  0.00000000000E+00 0. -1.
        -11    1    3    3    0    0 -0.78314999509E+03  0.43227554269E+03 -0.19983009870E+03  0.91657958082E+03  0.00000000000E+00 0.  1.
         22    1    1    2    0    0  0.12118162234E+04 -0.59266221349E+03  0.21446875596E+03  0.13659223645E+04  0.00000000000E+00 0. -1.
<mgrwt>
<rscale>  0 0.27518883E+04</rscale>
<asrwt>0</asrwt>
<pdfrwt beam="1">  1        1 0.20435793E+00 0.27518883E+04</pdfrwt>
<pdfrwt beam="2">  1       -1 0.21927211E+00 0.27518883E+04</pdfrwt>
<totfact> 0.83535274E-01</totfact>
</mgrwt>
</event>
<event>
 6    1  0.1442132E-006  0.3870025E+04  0.7818608E-02  0.8031292E-01
          1   -1    0    0  501    0  0.00000000000E+00  0.00000000000E+00  0.18808921727E+04  0.18808921727E+04  0.00000000000E+00 0. -1.
         -1   -1    0    0    0  501 -0.00000000000E+00 -0.00000000000E+00 -0.19906903231E+04  0.19906903231E+04  0.00000000000E+00 0.  1.
         23    2    1    2    0    0  0.80757634109E+03  0.13384379583E+04 -0.11940541163E+04  0.19691612190E+04  0.90746673452E+02 0.  0.
         11    1    3    3    0    0  0.53330859897E+03  0.93569299233E+03 -0.86240786916E+03  0.13797415593E+04  0.00000000000E+00 0. -1.
        -11    1    3    3    0    0  0.27426774212E+03  0.40274496595E+03 -0.33164624712E+03  0.58941965966E+03  0.00000000000E+00 0.  1.
         22    1    1    2    0    0 -0.80757634109E+03 -0.13384379583E+04  0.10842559660E+04  0.19024212768E+04  0.00000000000E+00 0. -1.
<mgrwt>
<rscale>  0 0.38700252E+04</rscale>
<asrwt>0</asrwt>
<pdfrwt beam="1">  1        1 0.28936803E+00 0.38700252E+04</pdfrwt>
<pdfrwt beam="2">  1       -1 0.30626005E+00 0.38700252E+04</pdfrwt>
<totfact> 0.85393756E-02</totfact>
</mgrwt>
</event>
<event>
 6    1  0.9988873E-007  0.3516613E+04  0.7818608E-02  0.8109864E-01
          2   -1    0    0  501    0  0.00000000000E+00  0.00000000000E+00  0.20113181004E+04  0.20113181004E+04  0.00000000000E+00 0. -1.
         -2   -1    0    0    0  501 -0.00000000000E+00 -0.00000000000E+00 -0.15371219360E+04  0.15371219360E+04  0.00000000000E+00 0.  1.
         23    2    1    2    0    0  0.64971678554E+03 -0.34301582259E+03 -0.13732823465E+04  0.15602326517E+04  0.92896545027E+02 0.  0.
         13    1    3    3    0    0  0.38526150159E+03 -0.24335386024E+03 -0.78740923388E+03  0.90975866442E+03  0.00000000000E+00 0.  1.
        -13    1    3    3    0    0  0.26445528396E+03 -0.99661962342E+02 -0.58587311266E+03  0.65047398725E+03  0.00000000000E+00 0. -1.
         22    1    1    2    0    0 -0.64971678554E+03  0.34301582259E+03  0.18474785109E+04  0.19882073846E+04  0.00000000000E+00 0. -1.
<mgrwt>
<rscale>  0 0.35166127E+04</rscale>
<asrwt>0</asrwt>
<pdfrwt beam="1">  1        2 0.30943356E+00 0.35166127E+04</pdfrwt>
<pdfrwt beam="2">  1       -2 0.23648030E+00 0.35166127E+04</pdfrwt>
<totfact> 0.42095410E-01</totfact>
</mgrwt>
</event>
<event>
 6    1  0.9988873E-007  0.6627141E+04  0.7818608E-02  0.7617160E-01
          2   -1    0    0  501    0  0.00000000000E+00  0.00000000000E+00  0.22578659413E+04  0.22578659413E+04  0.00000000000E+00 0. -1.
         -2   -1    0    0    0  501 -0.00000000000E+00 -0.00000000000E+00 -0.48628879006E+04  0.48628879006E+04  0.00000000000E+00 0.  1.
         23    2    1    2    0    0  0.50670991607E+03 -0.58235183974E+03 -0.47644669485E+04  0.48274829757E+04  0.92509313075E+02 0.  0.
         11    1    3    3    0    0  0.34367027321E+03 -0.33003250244E+03 -0.30115608468E+04  0.30490210631E+04  0.00000000000E+00 0. -1.
        -11    1    3    3    0    0  0.16303964286E+03 -0.25231933730E+03 -0.17529061017E+04  0.17784619125E+04  0.00000000000E+00 0.  1.
         22    1    1    2    0    0 -0.50670991607E+03  0.58235183974E+03  0.21594449892E+04  0.22932708662E+04  0.00000000000E+00 0. -1.
<mgrwt>
<rscale>  0 0.66271409E+04</rscale>
<asrwt>0</asrwt>
<pdfrwt beam="1">  1        2 0.34736399E+00 0.66271409E+04</pdfrwt>
<pdfrwt beam="2">  1       -2 0.74813660E+00 0.66271409E+04</pdfrwt>
<totfact> 0.45666680E-04</totfact>
</mgrwt>
</event>
<event>
 6    1  0.9988873E-007  0.9502538E+03  0.7818608E-02  0.9364854E-01
         -2   -1    0    0    0  501 -0.00000000000E+00  0.00000000000E+00  0.35631891114E+03  0.35631891114E+03  0.00000000000E+00 0.  1.
          2   -1    0    0  501    0  0.00000000000E+00 -0.00000000000E+00 -0.63354919268E+03  0.63354919268E+03  0.00000000000E+00 0. -1.
         23    2    1    2    0    0  0.73153391744E+02 -0.33710068377E+03  0.19291125512E+03  0.40675460353E+03  0.96157503210E+02 0.  0.
         13    1    3    3    0    0  0.32061296335E+02 -0.26538760690E+03  0.10814909428E+03  0.28836562766E+03  0.00000000000E+00 0. -1.
        -13    1    3    3    0    0  0.41092095409E+02 -0.71713076862E+02  0.84762160842E+02  0.11838897588E+03  0.00000000000E+00 0.  1.
         22    1    1    2    0    0 -0.73153391744E+02  0.33710068377E+03 -0.47014153666E+03  0.58311350028E+03  0.00000000000E+00 0. -1.
<mgrwt>
<rscale>  0 0.95025377E+03</rscale>
<asrwt>0</asrwt>
<pdfrwt beam="1">  1        2 0.97469105E-01 0.95025377E+03</pdfrwt>
<pdfrwt beam="2">  1       -2 0.54818295E-01 0.95025377E+03</pdfrwt>
<totfact> 0.14546747E+02</totfact>
</mgrwt>
</event>
<event>
 6    1  0.9988873E-007  0.1940099E+04  0.7818608E-02  0.8635150E-01
          1   -1    0    0  501    0  0.00000000000E+00  0.00000000000E+00  0.35364285933E+04  0.35364285933E+04  0.00000000000E+00 0. -1.
         -1   -1    0    0    0  501 -0.00000000000E+00 -0.00000000000E+00 -0.26608645241E+03  0.26608645241E+03  0.00000000000E+00 0.  1.
         23    2    1    2    0    0 -0.49333199738E+03  0.70525564787E+03  0.77084929656E+03  0.11589896595E+04  0.91029689783E+02 0.  0.
         13    1    3    3    0    0 -0.33402232849E+03  0.47930080951E+03  0.57866232057E+03  0.82228356616E+03  0.00000000000E+00 0. -1.
        -13    1    3    3    0    0 -0.15930966889E+03  0.22595483836E+03  0.19218697599E+03  0.33670609338E+03  0.00000000000E+00 0.  1.
         22    1    1    2    0    0  0.49333199738E+03 -0.70525564787E+03  0.24994928444E+04  0.26435253862E+04  0.00000000000E+00 0. -1.
<mgrwt>
<rscale>  0 0.19400987E+04</rscale>
<asrwt>0</asrwt>
<pdfrwt beam="1">  1        1 0.54406590E+00 0.19400987E+04</pdfrwt>
<pdfrwt beam="2">  1       -1 0.40936380E-01 0.19400987E+04</pdfrwt>
<totfact> 0.12794847E+00</totfact>
</mgrwt>
</event>
<event>
 6    1  0.9988873E-007  0.3448550E+04  0.7818608E-02  0.8126092E-01
          2   -1    0    0  501    0  0.00000000000E+00  0.00000000000E+00  0.32524840307E+04  0.32524840307E+04  0.00000000000E+00 0. -1.
         -2   -1    0    0    0  501 -0.00000000000E+00 -0.00000000000E+00 -0.91410881819E+03  0.91410881819E+03  0.00000000000E+00 0.  1.
         23    2    1    2    0    0 -0.16259515355E+03 -0.12884758614E+04  0.25381467167E+04  0.28526233350E+04  0.93080109030E+02 0.  0.
         11    1    3    3    0    0 -0.15503876098E+03 -0.10654195164E+04  0.20369255680E+04  0.23039577976E+04  0.00000000000E+00 0.  1.
        -11    1    3    3    0    0 -0.75563925694E+01 -0.22305634502E+03  0.50122114866E+03  0.54866553745E+03  0.00000000000E+00 0. -1.
         22    1    1    2    0    0  0.16259515355E+03  0.12884758614E+04 -0.19977150418E+03  0.13139695139E+04  0.00000000000E+00 0.  1.
<mgrwt>
<rscale>  0 0.34485500E+04</rscale>
<asrwt>0</asrwt>
<pdfrwt beam="1">  1        2 0.50038215E+00 0.34485500E+04</pdfrwt>
<pdfrwt beam="2">  1       -2 0.14063213E+00 0.34485500E+04</pdfrwt>
<totfact> 0.35045815E-01</totfact>
</mgrwt>
</event>
<event>
 6    1  0.9988873E-007  0.8905494E+03  0.7818608E-02  0.9437473E-01
          1   -1    0    0  501    0  0.00000000000E+00  0.00000000000E+00  0.15561622799E+04  0.15561622799E+04  0.00000000000E+00 0. -1.
         -1   -1    0    0    0  501 -0.00000000000E+00 -0.00000000000E+00 -0.12740930914E+03  0.12740930914E+03  0.00000000000E+00 0.  1.
         23    2    1    2    0    0 -0.91536534236E+02  0.37283366628E+03  0.11308183880E+04  0.11976200530E+04  0.90330973979E+02 0.  0.
         13    1    3    3    0    0 -0.84274482980E+02  0.16137006428E+03  0.55997855645E+03  0.58882804774E+03  0.00000000000E+00 0.  1.
        -13    1    3    3    0    0 -0.72620512560E+01  0.21146360200E+03  0.57083983152E+03  0.60879200522E+03  0.00000000000E+00 0. -1.
         22    1    1    2    0    0  0.91536534236E+02 -0.37283366628E+03  0.29793458280E+03  0.48595153610E+03  0.00000000000E+00 0.  1.
<mgrwt>
<rscale>  0 0.89054941E+03</rscale>
<asrwt>0</asrwt>
<pdfrwt beam="1">  1        1 0.23940957E+00 0.89054941E+03</pdfrwt>
<pdfrwt beam="2">  1       -1 0.19601433E-01 0.89054941E+03</pdfrwt>
<totfact> 0.12781078E+02</totfact>
</mgrwt>
</event>
<event>
 6    1  0.9988873E-007  0.3347432E+04  0.7818608E-02  0.8150930E-01
         -2   -1    0    0    0  501 -0.00000000000E+00  0.00000000000E+00  0.76737023620E+03  0.76737023620E+03  0.00000000000E+00 0.  1.
          2   -1    0    0  501    0  0.00000000000E+00 -0.00000000000E+00 -0.36505530643E+04  0.36505530643E+04  0.00000000000E+00 0. -1.
         23    2    1    2    0    0 -0.89200790540E+03 -0.96172660055E+03 -0.71266193471E+02  0.13151066257E+04  0.61890298665E+02 0.  0.
         11    1    3    3    0    0 -0.46597662682E+03 -0.45840077971E+03 -0.27562655665E+02  0.65423634228E+03  0.00000000000E+00 0.  1.
        -11    1    3    3    0    0 -0.42603127858E+03 -0.50332582085E+03 -0.43703537806E+02  0.66087028340E+03  0.00000000000E+00 0. -1.
         22    1    1    2    0    0  0.89200790540E+03  0.96172660055E+03 -0.28119166347E+04  0.31028166749E+04  0.00000000000E+00 0. -1.
<mgrwt>
<rscale>  0 0.33474323E+04</rscale>
<asrwt>0</asrwt>
<pdfrwt beam="1">  1        2 0.56162355E+00 0.33474323E+04</pdfrwt>
<pdfrwt beam="2">  1       -2 0.11805696E+00 0.33474323E+04</pdfrwt>
<totfact> 0.29144053E-01</totfact>
</mgrwt>
</event>
<event>
 6    1  0.9988873E-007  0.4407815E+04  0.7818608E-02  0.7926977E-01
         -2   -1    0    0    0  501 -0.00000000000E+00  0.00000000000E+00  0.17179814831E+04  0.17179814831E+04  0.00000000000E+00 0.  1.
          2   -1    0    0  501    0  0.00000000000E+00 -0.00000000000E+00 -0.28272767744E+04  0.28272767744E+04  0.00000000000E+00 0. -1.
         23    2    1    2    0    0 -0.22825611748E+03  0.48961379626E+03 -0.27569253978E+04  0.28113299162E+04  0.10543113294E+03 0.  0.
         13    1    3    3    0    0 -0.49876908654E+02  0.11186555603E+03 -0.87962571511E+03  0.88811204661E+03  0.00000000000E+00 0.  1.
        -13    1    3    3    0    0 -0.17837920882E+03  0.37774824023E+03 -0.18772996827E+04  0.19232178696E+04  0.00000000000E+00 0. -1.
         22    1    1    2    0    0  0.22825611748E+03 -0.48961379626E+03  0.16476301066E+04  0.17339283413E+04  0.00000000000E+00 0.  1.
<mgrwt>
<rscale>  0 0.44078154E+04</rscale>
<asrwt>0</asrwt>
<pdfrwt beam="1">  1        2 0.43496566E+00 0.44078154E+04</pdfrwt>
<pdfrwt beam="2">  1       -2 0.26430484E+00 0.44078154E+04</pdfrwt>
<totfact> 0.89203002E-02</totfact>
</mgrwt>
</event>
<event>
 6    1  0.9988873E-007  0.2324952E+04  0.7818608E-02  0.8468147E-01
          2   -1    0    0  501    0  0.00000000000E+00  0.00000000000E+00  0.93073502921E+03  0.93073502921E+03  0.00000000000E+00 0. -1.
         -2   -1    0    0    0  501 -0.00000000000E+00 -0.00000000000E+00 -0.14519172831E+04  0.14519172831E+04  0.00000000000E+00 0.  1.
         23    2    1    2    0    0 -0.88084318420E+03 -0.12646775120E+03 -0.10246304426E+04  0.13602341562E+04  0.92144498862E+02 0.  0.
         13    1    3    3    0    0 -0.45825148929E+03 -0.10037774021E+03 -0.49169077090E+03  0.67958070334E+03  0.00000000000E+00 0. -1.
        -13    1    3    3    0    0 -0.42259169491E+03 -0.26090010992E+02 -0.53293967167E+03  0.68065345288E+03  0.00000000000E+00 0.  1.
         22    1    1    2    0    0  0.88084318420E+03  0.12646775120E+03  0.50344818868E+03  0.10224181561E+04  0.00000000000E+00 0. -1.
<mgrwt>
<rscale>  0 0.23249518E+04</rscale>
<asrwt>0</asrwt>
<pdfrwt beam="1">  1        2 0.14319000E+00 0.23249518E+04</pdfrwt>
<pdfrwt beam="2">  1       -2 0.22337189E+00 0.23249518E+04</pdfrwt>
<totfact> 0.23798700E+00</totfact>
</mgrwt>
</event>
<event>
 6    1  0.9988873E-007  0.2239580E+04  0.7818608E-02  0.8502132E-01
          1   -1    0    0  501    0  0.00000000000E+00  0.00000000000E+00  0.11658108246E+04  0.11658108246E+04  0.00000000000E+00 0. -1.
         -1   -1    0    0    0  501 -0.00000000000E+00 -0.00000000000E+00 -0.10755859338E+04  0.10755859338E+04  0.00000000000E+00 0.  1.
         23    2    1    2    0    0  0.49557509963E+03  0.87718218441E+03 -0.44005217938E+03  0.11028726984E+04  0.87401397930E+02 0.  0.
         11    1    3    3    0    0  0.77542079176E+02  0.12634708344E+03 -0.32494713624E+02  0.15176384928E+03  0.00000000000E+00 0. -1.
        -11    1    3    3    0    0  0.41803302045E+03  0.75083510098E+03 -0.40755746575E+03  0.95110884916E+03  0.00000000000E+00 0.  1.
         22    1    1    2    0    0 -0.49557509963E+03 -0.87718218441E+03  0.53027707017E+03  0.11385240600E+04  0.00000000000E+00 0.  1.
<mgrwt>
<rscale>  0 0.22395801E+04</rscale>
<asrwt>0</asrwt>
<pdfrwt beam="1">  1        1 0.17935551E+00 0.22395801E+04</pdfrwt>
<pdfrwt beam="2">  1       -1 0.16547476E+00 0.22395801E+04</pdfrwt>
<totfact> 0.27347981E+00</totfact>
</mgrwt>
</event>
<event>
 6    1  0.9988873E-007  0.8366105E+03  0.7818608E-02  0.9508486E-01
         -1   -1    0    0    0  501 -0.00000000000E+00  0.00000000000E+00  0.13311396257E+03  0.13311396257E+03  0.00000000000E+00 0.  1.
          1   -1    0    0  501    0  0.00000000000E+00 -0.00000000000E+00 -0.13145072107E+04  0.13145072107E+04  0.00000000000E+00 0. -1.
         23    2    1    2    0    0 -0.39803006911E+03 -0.11150015184E+03 -0.59720628940E+03  0.73198535629E+03  0.91032905835E+02 0.  0.
         11    1    3    3    0    0 -0.35817638000E+01 -0.14731772460E+02 -0.10593779762E+02  0.18495467590E+02  0.00000000000E+00 0. -1.
        -11    1    3    3    0    0 -0.39444830531E+03 -0.96768379376E+02 -0.58661250964E+03  0.71348988870E+03  0.00000000000E+00 0.  1.
         22    1    1    2    0    0  0.39803006911E+03  0.11150015184E+03 -0.58418695869E+03  0.71563581693E+03  0.00000000000E+00 0. -1.
<mgrwt>
<rscale>  0 0.83661046E+03</rscale>
<asrwt>0</asrwt>
<pdfrwt beam="1">  1        1 0.20223188E+00 0.83661046E+03</pdfrwt>
<pdfrwt beam="2">  1       -1 0.20479071E-01 0.83661046E+03</pdfrwt>
<totfact> 0.17543846E+02</totfact>
</mgrwt>
</event>
<event>
 6    1  0.9988873E-007  0.2256972E+04  0.7818608E-02  0.8495082E-01
          2   -1    0    0  501    0  0.00000000000E+00  0.00000000000E+00  0.25918186117E+04  0.25918186117E+04  0.00000000000E+00 0. -1.
         -2   -1    0    0    0  501 -0.00000000000E+00 -0.00000000000E+00 -0.49134643035E+03  0.49134643035E+03  0.00000000000E+00 0.  1.
         23    2    1    2    0    0  0.13291406245E+03  0.51470423401E+03 -0.30490294395E+03  0.61974950871E+03  0.92396167759E+02 0.  0.
         13    1    3    3    0    0  0.65273873298E+02  0.11884510667E+03 -0.52372170853E+02  0.14535364528E+03  0.00000000000E+00 0.  1.
        -13    1    3    3    0    0  0.67640189150E+02  0.39585912733E+03 -0.25253077310E+03  0.47439586343E+03  0.00000000000E+00 0. -1.
         22    1    1    2    0    0 -0.13291406245E+03 -0.51470423401E+03  0.24053751253E+04  0.24634155334E+04  0.00000000000E+00 0. -1.
<mgrwt>
<rscale>  0 0.22569722E+04</rscale>
<asrwt>0</asrwt>
<pdfrwt beam="1">  1        2 0.39874132E+00 0.22569722E+04</pdfrwt>
<pdfrwt beam="2">  1       -2 0.75591760E-01 0.22569722E+04</pdfrwt>
<totfact> 0.43934970E+00</totfact>
</mgrwt>
</event>
<event>
 6    1  0.9988873E-007  0.2220152E+04  0.7818608E-02  0.8510087E-01
          2   -1    0    0  501    0  0.00000000000E+00  0.00000000000E+00  0.19207417838E+04  0.19207417838E+04  0.00000000000E+00 0. -1.
         -2   -1    0    0    0  501 -0.00000000000E+00 -0.00000000000E+00 -0.64155853582E+03  0.64155853582E+03  0.00000000000E+00 0.  1.
         23    2    1    2    0    0  0.59418568213E+03  0.42547273801E+03  0.16021078894E+04  0.17633234741E+04  0.92066874203E+02 0.  0.
         11    1    3    3    0    0  0.69188680077E+02  0.21025056984E+02  0.19453443500E+03  0.20753981033E+03  0.00000000000E+00 0. -1.
        -11    1    3    3    0    0  0.52499700205E+03  0.40444768103E+03  0.14075734544E+04  0.15557836637E+04  0.00000000000E+00 0.  1.
         22    1    1    2    0    0 -0.59418568213E+03 -0.42547273801E+03 -0.32292464144E+03  0.79897684553E+03  0.00000000000E+00 0.  1.
<mgrwt>
<rscale>  0 0.22201516E+04</rscale>
<asrwt>0</asrwt>
<pdfrwt beam="1">  1        2 0.29549873E+00 0.22201516E+04</pdfrwt>
<pdfrwt beam="2">  1       -2 0.98701314E-01 0.22201516E+04</pdfrwt>
<totfact> 0.57485840E+00</totfact>
</mgrwt>
</event>
<event>
 6    1  0.9988873E-007  0.1137862E+04  0.7818608E-02  0.9169055E-01
          1   -1    0    0  501    0  0.00000000000E+00  0.00000000000E+00  0.12806135342E+04  0.12806135342E+04  0.00000000000E+00 0. -1.
         -1   -1    0    0    0  501 -0.00000000000E+00 -0.00000000000E+00 -0.25275566869E+03  0.25275566869E+03  0.00000000000E+00 0.  1.
         23    2    1    2    0    0  0.40497412077E+03  0.36925904187E+03  0.32891880898E+03  0.64518449056E+03  0.87858781348E+02 0.  0.
         11    1    3    3    0    0  0.11017230384E+03  0.97535702508E+02  0.13555240526E+03  0.20006400068E+03  0.00000000000E+00 0. -1.
        -11    1    3    3    0    0  0.29480181693E+03  0.27172333936E+03  0.19336640372E+03  0.44512048987E+03  0.00000000000E+00 0.  1.
         22    1    1    2    0    0 -0.40497412077E+03 -0.36925904187E+03  0.69893905655E+03  0.88818471236E+03  0.00000000000E+00 0. -1.
<mgrwt>
<rscale>  0 0.11378617E+04</rscale>
<asrwt>0</asrwt>
<pdfrwt beam="1">  1        1 0.19701746E+00 0.11378617E+04</pdfrwt>
<pdfrwt beam="2">  1       -1 0.38885488E-01 0.11378617E+04</pdfrwt>
<totfact> 0.59510492E+01</totfact>
</mgrwt>
</event>
<event>
 6    1  0.9988873E-007  0.5569509E+04  0.7818608E-02  0.7746197E-01
         -2   -1    0    0    0  501 -0.00000000000E+00  0.00000000000E+00  0.40463721472E+04  0.40463721472E+04  0.00000000000E+00 0.  1.
          2   -1    0    0  501    0  0.00000000000E+00 -0.00000000000E+00 -0.19164963709E+04  0.19164963709E+04  0.00000000000E+00 0. -1.
         23    2    1    2    0    0 -0.70866163594E+03  0.26919032001E+04  0.10208361465E+04  0.29664518158E+04  0.95842497815E+02 0.  0.
         11    1    3    3    0    0 -0.19884814159E+03  0.80414983118E+03  0.34875598787E+03  0.89879267547E+03  0.00000000000E+00 0. -1.
        -11    1    3    3    0    0 -0.50981349435E+03  0.18877533689E+04  0.67208015860E+03  0.20676591403E+04  0.00000000000E+00 0.  1.
         22    1    1    2    0    0  0.70866163594E+03 -0.26919032001E+04  0.11090396298E+04  0.29964167023E+04  0.00000000000E+00 0. -1.
<mgrwt>
<rscale>  0 0.55695090E+04</rscale>
<asrwt>0</asrwt>
<pdfrwt beam="1">  1        2 0.29484560E+00 0.55695090E+04</pdfrwt>
<pdfrwt beam="2">  1       -2 0.62251879E+00 0.55695090E+04</pdfrwt>
<totfact> 0.21993708E-03</totfact>
</mgrwt>
</event>
<event>
 6    1  0.9988873E-007  0.9366703E+03  0.7818608E-02  0.9380868E-01
          1   -1    0    0  501    0  0.00000000000E+00  0.00000000000E+00  0.15285286575E+04  0.15285286575E+04  0.00000000000E+00 0. -1.
         -1   -1    0    0    0  501 -0.00000000000E+00 -0.00000000000E+00 -0.14349605367E+03  0.14349605367E+03  0.00000000000E+00 0.  1.
         23    2    1    2    0    0 -0.46728825973E+02  0.45680732448E+03  0.82013238189E+03  0.94403516754E+03  0.87913359913E+02 0.  0.
         13    1    3    3    0    0 -0.22164303417E+02  0.24771140666E+03  0.35471766803E+03  0.43321682949E+03  0.00000000000E+00 0.  1.
        -13    1    3    3    0    0 -0.24564522555E+02  0.20909591782E+03  0.46541471385E+03  0.51081833805E+03  0.00000000000E+00 0. -1.
         22    1    1    2    0    0  0.46728825973E+02 -0.45680732448E+03  0.56490022191E+03  0.72798954360E+03  0.00000000000E+00 0. -1.
<mgrwt>
<rscale>  0 0.93667034E+03</rscale>
<asrwt>0</asrwt>
<pdfrwt beam="1">  1        1 0.23515824E+00 0.93667034E+03</pdfrwt>
<pdfrwt beam="2">  1       -1 0.22076317E-01 0.93667034E+03</pdfrwt>
<totfact> 0.10898071E+02</totfact>
</mgrwt>
</event>
<event>
 6    1  0.9988873E-007  0.6412288E+03  0.7818608E-02  0.9823378E-01
         -2   -1    0    0    0  501 -0.00000000000E+00  0.00000000000E+00  0.10079297135E+03  0.10079297135E+03  0.00000000000E+00 0.  1.
          2   -1    0    0  501    0  0.00000000000E+00 -0.00000000000E+00 -0.10198487801E+04  0.10198487801E+04  0.00000000000E+00 0. -1.
         23    2    1    2    0    0 -0.18436142081E+03  0.13334006106E+03 -0.84742597931E+03  0.88210551135E+03  0.90612567423E+02 0.  0.
         13    1    3    3    0    0 -0.99882418708E+02  0.64401678469E+02 -0.27806074618E+03  0.30239353882E+03  0.00000000000E+00 0.  1.
        -13    1    3    3    0    0 -0.84479002101E+02  0.68938382593E+02 -0.56936523313E+03  0.57971197252E+03  0.00000000000E+00 0. -1.
         22    1    1    2    0    0  0.18436142081E+03 -0.13334006106E+03 -0.71629829406E+02  0.23853624007E+03  0.00000000000E+00 0.  1.
<mgrwt>
<rscale>  0 0.64122879E+03</rscale>
<asrwt>0</asrwt>
<pdfrwt beam="1">  1        2 0.15689982E+00 0.64122879E+03</pdfrwt>
<pdfrwt beam="2">  1       -2 0.15506610E-01 0.64122879E+03</pdfrwt>
<totfact> 0.81658014E+02</totfact>
</mgrwt>
</event>
<event>
 6    1  0.9988873E-007  0.1594835E+04  0.7818608E-02  0.8823728E-01
         -1   -1    0    0    0  501 -0.00000000000E+00  0.00000000000E+00  0.36336138029E+03  0.36336138029E+03  0.00000000000E+00 0.  1.
          1   -1    0    0  501    0  0.00000000000E+00 -0.00000000000E+00 -0.17499780702E+04  0.17499780702E+04  0.00000000000E+00 0. -1.
         23    2    1    2    0    0 -0.47576661949E+03  0.37388434694E+02  0.14661413239E+03  0.50755349784E+03  0.91449866495E+02 0.  0.
         13    1    3    3    0    0 -0.27571354847E+03  0.14372342249E+01  0.41818346539E+02  0.27887058031E+03  0.00000000000E+00 0.  1.
        -13    1    3    3    0    0 -0.20005307102E+03  0.35951200470E+02  0.10479578585E+03  0.22868291753E+03  0.00000000000E+00 0. -1.
         22    1    1    2    0    0  0.47576661949E+03 -0.37388434694E+02 -0.15332308223E+04  0.16057859527E+04  0.00000000000E+00 0. -1.
<mgrwt>
<rscale>  0 0.15948347E+04</rscale>
<asrwt>0</asrwt>
<pdfrwt beam="1">  1        1 0.26922739E+00 0.15948347E+04</pdfrwt>
<pdfrwt beam="2">  1       -1 0.55901751E-01 0.15948347E+04</pdfrwt>
<totfact> 0.13692305E+01</totfact>
</mgrwt>
</event>
<event>
 6    1  0.9988873E-007  0.2500157E+04  0.7818608E-02  0.8402930E-01
          2   -1    0    0  501    0  0.00000000000E+00  0.00000000000E+00  0.15621024483E+04  0.15621024483E+04  0.00000000000E+00 0. -1.
         -2   -1    0    0    0  501 -0.00000000000E+00 -0.00000000000E+00 -0.10003801036E+04  0.10003801036E+04  0.00000000000E+00 0.  1.
         23    2    1    2    0    0 -0.68093485216E+03  0.76559707870E+03 -0.45006260244E+03  0.11225103510E+04  0.87532749526E+02 0.  0.
         11    1    3    3    0    0 -0.44325327572E+03  0.49460788122E+03 -0.33681324704E+03  0.74468354754E+03  0.00000000000E+00 0. -1.
        -11    1    3    3    0    0 -0.23768157644E+03  0.27098919747E+03 -0.11324935541E+03  0.37782680348E+03  0.00000000000E+00 0.  1.
         22    1    1    2    0    0  0.68093485216E+03 -0.76559707870E+03  0.10117849472E+04  0.14399722008E+04  0.00000000000E+00 0. -1.
<mgrwt>
<rscale>  0 0.25001570E+04</rscale>
<asrwt>0</asrwt>
<pdfrwt beam="1">  1        2 0.24032345E+00 0.25001570E+04</pdfrwt>
<pdfrwt beam="2">  1       -2 0.15390463E+00 0.25001570E+04</pdfrwt>
<totfact> 0.29228585E+00</totfact>
</mgrwt>
</event>
<event>
 6    1  0.9988873E-007  0.1598908E+04  0.7818608E-02  0.8821219E-01
          1   -1    0    0  501    0  0.00000000000E+00  0.00000000000E+00  0.78311998962E+03  0.78311998962E+03  0.00000000000E+00 0. -1.
         -1   -1    0    0    0  501 -0.00000000000E+00 -0.00000000000E+00 -0.81612830341E+03  0.81612830341E+03  0.00000000000E+00 0.  1.
         23    2    1    2    0    0 -0.32153648816E+03  0.94453291150E+02 -0.73964520847E+03  0.81717231312E+03  0.91588304310E+02 0.  0.
         11    1    3    3    0    0 -0.29546772283E+03  0.80139185921E+02 -0.59104996113E+03  0.66563016827E+03  0.00000000000E+00 0. -1.
        -11    1    3    3    0    0 -0.26068765332E+02  0.14314105229E+02 -0.14859524734E+03  0.15154214485E+03  0.00000000000E+00 0.  1.
         22    1    1    2    0    0  0.32153648816E+03 -0.94453291150E+02  0.70663689468E+03  0.78207597991E+03  0.00000000000E+00 0. -1.
<mgrwt>
<rscale>  0 0.15989076E+04</rscale>
<asrwt>0</asrwt>
<pdfrwt beam="1">  1        1 0.12048000E+00 0.15989076E+04</pdfrwt>
<pdfrwt beam="2">  1       -1 0.12555820E+00 0.15989076E+04</pdfrwt>
<totfact> 0.12153093E+01</totfact>
</mgrwt>
</event>
<event>
 6    1  0.9988873E-007  0.3451418E+04  0.7818608E-02  0.8125401E-01
         -1   -1    0    0    0  501 -0.00000000000E+00  0.00000000000E+00  0.12497489224E+04  0.12497489224E+04  0.00000000000E+00 0.  1.
          1   -1    0    0  501    0  0.00000000000E+00 -0.00000000000E+00 -0.23829364224E+04  0.23829364224E+04  0.00000000000E+00 0. -1.
         23    2    1    2    0    0 -0.62054984870E+03  0.93002374381E+03 -0.19489836410E+04  0.22486515220E+04  0.88713899413E+02 0.  0.
         13    1    3    3    0    0 -0.32399616170E+03  0.47501643070E+03 -0.10902175659E+04  0.12325536350E+04  0.00000000000E+00 0. -1.
        -13    1    3    3    0    0 -0.29655368700E+03  0.45500731311E+03 -0.85876607510E+03  0.10160978870E+04  0.00000000000E+00 0.  1.
         22    1    1    2    0    0  0.62054984870E+03 -0.93002374381E+03  0.81579614107E+03  0.13840338228E+04  0.00000000000E+00 0.  1.
<mgrwt>
<rscale>  0 0.34514184E+04</rscale>
<asrwt>0</asrwt>
<pdfrwt beam="1">  1        1 0.36660560E+00 0.34514184E+04</pdfrwt>
<pdfrwt beam="2">  1       -1 0.19226907E+00 0.34514184E+04</pdfrwt>
<totfact> 0.22774847E-01</totfact>
</mgrwt>
</event>
<event>
 6    1  0.9988873E-007  0.2183794E+04  0.7818608E-02  0.8525204E-01
          2   -1    0    0  501    0  0.00000000000E+00  0.00000000000E+00  0.10704869019E+04  0.10704869019E+04  0.00000000000E+00 0. -1.
         -2   -1    0    0    0  501 -0.00000000000E+00 -0.00000000000E+00 -0.11137348888E+04  0.11137348888E+04  0.00000000000E+00 0.  1.
         23    2    1    2    0    0 -0.10825235197E+04  0.12155336449E+03 -0.20847656771E+02  0.10946649239E+04  0.10594470038E+03 0.  0.
         13    1    3    3    0    0 -0.71411100335E+03  0.32611588030E+02  0.38333626083E+01  0.71486553662E+03  0.00000000000E+00 0. -1.
        -13    1    3    3    0    0 -0.36841251638E+03  0.88941776464E+02 -0.24681019380E+02  0.37979938723E+03  0.00000000000E+00 0.  1.
         22    1    1    2    0    0  0.10825235197E+04 -0.12155336449E+03 -0.22400330124E+02  0.10895568668E+04  0.00000000000E+00 0.  1.
<mgrwt>
<rscale>  0 0.21837936E+04</rscale>
<asrwt>0</asrwt>
<pdfrwt beam="1">  1        2 0.16469029E+00 0.21837936E+04</pdfrwt>
<pdfrwt beam="2">  1       -2 0.17134383E+00 0.21837936E+04</pdfrwt>
<totfact> 0.43363463E+00</totfact>
</mgrwt>
</event>
<event>
 6    1  0.9988873E-007  0.1280221E+04  0.7818608E-02  0.9045399E-01
          2   -1    0    0  501    0  0.00000000000E+00  0.00000000000E+00  0.23072091499E+04  0.23072091499E+04  0.00000000000E+00 0. -1.
         -2   -1    0    0    0  501 -0.00000000000E+00 -0.00000000000E+00 -0.17759177097E+03  0.17759177097E+03  0.00000000000E+00 0.  1.
         23    2    1    2    0    0 -0.59114659850E+03 -0.94490392172E+02  0.64952506576E+03  0.88822458675E+03  0.93152403739E+02 0.  0.
         13    1    3    3    0    0 -0.11522509479E+03 -0.48309821291E+02  0.10191254763E+03  0.16123532078E+03  0.00000000000E+00 0.  1.
        -13    1    3    3    0    0 -0.47592150371E+03 -0.46180570881E+02  0.54761251813E+03  0.72698926596E+03  0.00000000000E+00 0. -1.
         22    1    1    2    0    0  0.59114659850E+03  0.94490392172E+02  0.14800923131E+04  0.15965763341E+04  0.00000000000E+00 0. -1.
<mgrwt>
<rscale>  0 0.12802209E+04</rscale>
<asrwt>0</asrwt>
<pdfrwt beam="1">  1        2 0.35495523E+00 0.12802209E+04</pdfrwt>
<pdfrwt beam="2">  1       -2 0.27321813E-01 0.12802209E+04</pdfrwt>
<totfact> 0.53929696E+01</totfact>
</mgrwt>
</event>
<event>
 6    1  0.9988873E-007  0.2800090E+04  0.7818608E-02  0.8303240E-01
          2   -1    0    0  501    0  0.00000000000E+00  0.00000000000E+00  0.10259796770E+04  0.10259796770E+04  0.00000000000E+00 0. -1.
         -2   -1    0    0    0  501 -0.00000000000E+00 -0.00000000000E+00 -0.19104917580E+04  0.19104917580E+04  0.00000000000E+00 0.  1.
         23    2    1    2    0    0 -0.10769036221E+04  0.62802213237E+03  0.22277133123E+03  0.12690753317E+04  0.82413114892E+02 0.  0.
         13    1    3    3    0    0 -0.30689304576E+03  0.13688613883E+03  0.63467964477E+02  0.34197856520E+03  0.00000000000E+00 0.  1.
        -13    1    3    3    0    0 -0.77001057637E+03  0.49113599354E+03  0.15930336676E+03  0.92709676654E+03  0.00000000000E+00 0. -1.
         22    1    1    2    0    0  0.10769036221E+04 -0.62802213237E+03 -0.11072834122E+04  0.16673961032E+04  0.00000000000E+00 0.  1.
<mgrwt>
<rscale>  0 0.28000898E+04</rscale>
<asrwt>0</asrwt>
<pdfrwt beam="1">  1        2 0.15784303E+00 0.28000898E+04</pdfrwt>
<pdfrwt beam="2">  1       -2 0.29392181E+00 0.28000898E+04</pdfrwt>
<totfact> 0.73038770E-01</totfact>
</mgrwt>
</event>
<event>
 6    1  0.9988873E-007  0.1231698E+04  0.7818608E-02  0.9085555E-01
         -1   -1    0    0    0  501 -0.00000000000E+00  0.00000000000E+00  0.11321243890E+04  0.11321243890E+04  0.00000000000E+00 0.  1.
          1   -1    0    0  501    0  0.00000000000E+00 -0.00000000000E+00 -0.33500717066E+03  0.33500717066E+03  0.00000000000E+00 0. -1.
         23    2    1    2    0    0  0.11004804774E+03 -0.35306545027E+03 -0.17648362082E+03  0.42565934255E+03  0.11521120822E+03 0.  0.
         11    1    3    3    0    0  0.44207113453E+02 -0.25805274940E+03 -0.76332246765E+02  0.27271249009E+03  0.00000000000E+00 0.  1.
        -11    1    3    3    0    0  0.65840934287E+02 -0.95012700866E+02 -0.10015137405E+03  0.15294685246E+03  0.00000000000E+00 0. -1.
         22    1    1    2    0    0 -0.11004804774E+03  0.35306545027E+03  0.97360083914E+03  0.10414722171E+04  0.00000000000E+00 0.  1.
<mgrwt>
<rscale>  0 0.12316977E+04</rscale>
<asrwt>0</asrwt>
<pdfrwt beam="1">  1        1 0.51539565E-01 0.12316977E+04</pdfrwt>
<pdfrwt beam="2">  1       -1 0.17417298E+00 0.12316977E+04</pdfrwt>
<totfact> 0.17181829E+01</totfact>
</mgrwt>
</event>
<event>
 6    1  0.9988873E-007  0.2006655E+04  0.7818608E-02  0.8603516E-01
         -2   -1    0    0    0  501 -0.00000000000E+00  0.00000000000E+00  0.10793633041E+04  0.10793633041E+04  0.00000000000E+00 0.  1.
          2   -1    0    0  501    0  0.00000000000E+00 -0.00000000000E+00 -0.93264766887E+03  0.93264766887E+03  0.00000000000E+00 0. -1.
         23    2    1    2    0    0  0.68361322349E+03 -0.17924424541E+03 -0.63815738971E+03  0.95584753668E+03  0.83331389554E+02 0.  0.
         13    1    3    3    0    0  0.12518096553E+03 -0.22810318359E+02 -0.76212779534E+02  0.14832050607E+03  0.00000000000E+00 0.  1.
        -13    1    3    3    0    0  0.55843225796E+03 -0.15643392705E+03 -0.56194461018E+03  0.80752703061E+03  0.00000000000E+00 0. -1.
         22    1    1    2    0    0 -0.68361322349E+03  0.17924424541E+03  0.78487302491E+03  0.10561634362E+04  0.00000000000E+00 0.  1.
<mgrwt>
<rscale>  0 0.20066546E+04</rscale>
<asrwt>0</asrwt>
<pdfrwt beam="1">  1        2 0.14348426E+00 0.20066546E+04</pdfrwt>
<pdfrwt beam="2">  1       -2 0.16605589E+00 0.20066546E+04</pdfrwt>
<totfact> 0.58870604E+00</totfact>
</mgrwt>
</event>
<event>
 6    1  0.9988873E-007  0.3100558E+04  0.7818608E-02  0.8215585E-01
          2   -1    0    0  501    0  0.00000000000E+00  0.00000000000E+00  0.22860267149E+04  0.22860267149E+04  0.00000000000E+00 0. -1.
         -2   -1    0    0    0  501 -0.00000000000E+00 -0.00000000000E+00 -0.10513283913E+04  0.10513283913E+04  0.00000000000E+00 0.  1.
         23    2    1    2    0    0  0.57697375944E+03  0.15337800996E+03  0.21562842059E+04  0.22392913232E+04  0.91872304302E+02 0.  0.
         13    1    3    3    0    0  0.36184474231E+03  0.59025648701E+02  0.12129148959E+04  0.12671141186E+04  0.00000000000E+00 0.  1.
        -13    1    3    3    0    0  0.21512901713E+03  0.94352361264E+02  0.94336931000E+03  0.97217720459E+03  0.00000000000E+00 0. -1.
         22    1    1    2    0    0 -0.57697375944E+03 -0.15337800996E+03 -0.92158588229E+03  0.10980637830E+04  0.00000000000E+00 0.  1.
<mgrwt>
<rscale>  0 0.31005579E+04</rscale>
<asrwt>0</asrwt>
<pdfrwt beam="1">  1        2 0.35169642E+00 0.31005579E+04</pdfrwt>
<pdfrwt beam="2">  1       -2 0.16174283E+00 0.31005579E+04</pdfrwt>
<totfact> 0.95853507E-01</totfact>
</mgrwt>
</event>
<event>
 6    1  0.9988873E-007  0.3387179E+04  0.7818608E-02  0.8141060E-01
         -2   -1    0    0    0  501 -0.00000000000E+00  0.00000000000E+00  0.24498950736E+04  0.24498950736E+04  0.00000000000E+00 0.  1.
          2   -1    0    0  501    0  0.00000000000E+00 -0.00000000000E+00 -0.11707623888E+04  0.11707623888E+04  0.00000000000E+00 0. -1.
         23    2    1    2    0    0 -0.30508125442E+03  0.90861787557E+03  0.21310424700E+04  0.23383114491E+04  0.87734876328E+02 0.  0.
         13    1    3    3    0    0 -0.76459003267E+02  0.14887750497E+03  0.42674074592E+03  0.45838646892E+03  0.00000000000E+00 0. -1.
        -13    1    3    3    0    0 -0.22862225115E+03  0.75974037060E+03  0.17043017241E+04  0.18799249802E+04  0.00000000000E+00 0.  1.
         22    1    1    2    0    0  0.30508125442E+03 -0.90861787557E+03 -0.85190978516E+03  0.12823460132E+04  0.00000000000E+00 0. -1.
<mgrwt>
<rscale>  0 0.33871788E+04</rscale>
<asrwt>0</asrwt>
<pdfrwt beam="1">  1        2 0.18011729E+00 0.33871788E+04</pdfrwt>
<pdfrwt beam="2">  1       -2 0.37690693E+00 0.33871788E+04</pdfrwt>
<totfact> 0.17134341E-01</totfact>
</mgrwt>
</event>
<event>
 6    1  0.9988873E-007  0.2731849E+04  0.7818608E-02  0.8324744E-01
          2   -1    0    0  501    0  0.00000000000E+00  0.00000000000E+00  0.33787963079E+04  0.33787963079E+04  0.00000000000E+00 0. -1.
         -2   -1    0    0    0  501 -0.00000000000E+00 -0.00000000000E+00 -0.55219377356E+03  0.55219377356E+03  0.00000000000E+00 0.  1.
         23    2    1    2    0    0 -0.31661630946E+03  0.94756591222E+03  0.27518803791E+04  0.29291365762E+04  0.94172269123E+02 0.  0.
         11    1    3    3    0    0 -0.15149656631E+03  0.52505150931E+03  0.13830775656E+04  0.14871226747E+04  0.00000000000E+00 0. -1.
        -11    1    3    3    0    0 -0.16511974316E+03  0.42251440291E+03  0.13688028134E+04  0.14420139015E+04  0.00000000000E+00 0.  1.
         22    1    1    2    0    0  0.31661630946E+03 -0.94756591222E+03  0.74722155282E+02  0.10018535052E+04  0.00000000000E+00 0.  1.
<mgrwt>
<rscale>  0 0.27318494E+04</rscale>
<asrwt>0</asrwt>
<pdfrwt beam="1">  1        2 0.51981481E+00 0.27318494E+04</pdfrwt>
<pdfrwt beam="2">  1       -2 0.84952890E-01 0.27318494E+04</pdfrwt>
<totfact> 0.10404488E+00</totfact>
</mgrwt>
</event>
<event>
 6    1  0.9988873E-007  0.2921720E+04  0.7818608E-02  0.8266444E-01
         -2   -1    0    0    0  501 -0.00000000000E+00  0.00000000000E+00  0.96215917721E+03  0.96215917721E+03  0.00000000000E+00 0.  1.
          2   -1    0    0  501    0  0.00000000000E+00 -0.00000000000E+00 -0.22180438837E+04  0.22180438837E+04  0.00000000000E+00 0. -1.
         23    2    1    2    0    0  0.34097986649E+03  0.12225813793E+04 -0.14130045817E+04  0.19012741521E+04  0.85375377064E+02 0.  0.
         13    1    3    3    0    0  0.19326119317E+03  0.53493622875E+03 -0.63206830097E+03  0.85030406015E+03  0.00000000000E+00 0.  1.
        -13    1    3    3    0    0  0.14771867333E+03  0.68764515059E+03 -0.78093628076E+03  0.10509700920E+04  0.00000000000E+00 0. -1.
         22    1    1    2    0    0 -0.34097986649E+03 -0.12225813793E+04  0.15711987529E+03  0.12789289088E+04  0.00000000000E+00 0.  1.
<mgrwt>
<rscale>  0 0.29217195E+04</rscale>
<asrwt>0</asrwt>
<pdfrwt beam="1">  1        2 0.34123752E+00 0.29217195E+04</pdfrwt>
<pdfrwt beam="2">  1       -2 0.14802449E+00 0.29217195E+04</pdfrwt>
<totfact> 0.13485776E+00</totfact>
</mgrwt>
</event>
<event>
 6    1  0.9988873E-007  0.1124430E+04  0.7818608E-02  0.9181703E-01
          2   -1    0    0  501    0  0.00000000000E+00  0.00000000000E+00  0.10205727562E+04  0.10205727562E+04  0.00000000000E+00 0. -1.
         -2   -1    0    0    0  501 -0.00000000000E+00 -0.00000000000E+00 -0.30971392893E+03  0.30971392893E+03  0.00000000000E+00 0.  1.
         23    2    1    2    0    0 -0.51416768605E+03  0.19760647230E+03  0.46625602036E+03  0.72758670970E+03  0.92579783664E+02 0.  0.
         11    1    3    3    0    0 -0.75676701156E+02  0.54053520408E+02  0.47170965146E+02  0.10427773549E+03  0.00000000000E+00 0. -1.
        -11    1    3    3    0    0 -0.43849098489E+03  0.14355295189E+03  0.41908505522E+03  0.62330897421E+03  0.00000000000E+00 0.  1.
         22    1    1    2    0    0  0.51416768605E+03 -0.19760647230E+03  0.24460280695E+03  0.60269997547E+03  0.00000000000E+00 0. -1.
<mgrwt>
<rscale>  0 0.11244298E+04</rscale>
<asrwt>0</asrwt>
<pdfrwt beam="1">  1        2 0.15701119E+00 0.11244298E+04</pdfrwt>
<pdfrwt beam="2">  1       -2 0.47648297E-01 0.11244298E+04</pdfrwt>
<totfact> 0.10108164E+02</totfact>
</mgrwt>
</event>
<event>
 6    1  0.9988873E-007  0.6304438E+03  0.7818608E-02  0.9844183E-01
          4   -1    0    0  501    0  0.00000000000E+00  0.00000000000E+00  0.67361010135E+02  0.67361010135E+02  0.00000000000E+00 0. -1.
         -4   -1    0    0    0  501 -0.00000000000E+00 -0.00000000000E+00 -0.14751093793E+04  0.14751093793E+04  0.00000000000E+00 0.  1.
         23    2    1    2    0    0 -0.25070634623E+03 -0.68267281147E+02 -0.11249677943E+04  0.11584405114E+04  0.94434032678E+02 0.  0.
         11    1    3    3    0    0 -0.41957793549E+02  0.15885641479E+02 -0.29937124567E+03  0.30271430885E+03  0.00000000000E+00 0. -1.
        -11    1    3    3    0    0 -0.20874855268E+03 -0.84152922626E+02 -0.82559654859E+03  0.85572620251E+03  0.00000000000E+00 0.  1.
         22    1    1    2    0    0  0.25070634623E+03  0.68267281147E+02 -0.28278057494E+03  0.38402987810E+03  0.00000000000E+00 0. -1.
<mgrwt>
<rscale>  0 0.63044384E+03</rscale>
<asrwt>0</asrwt>
<pdfrwt beam="1">  1        4 0.10363233E-01 0.63044384E+03</pdfrwt>
<pdfrwt beam="2">  1       -4 0.22693989E+00 0.63044384E+03</pdfrwt>
<totfact> 0.13276352E+01</totfact>
</mgrwt>
</event>
<event>
 6    1  0.9988873E-007  0.2228453E+04  0.7818608E-02  0.8506678E-01
          1   -1    0    0  501    0  0.00000000000E+00  0.00000000000E+00  0.37023890464E+04  0.37023890464E+04  0.00000000000E+00 0. -1.
         -1   -1    0    0    0  501 -0.00000000000E+00 -0.00000000000E+00 -0.33532414910E+03  0.33532414910E+03  0.00000000000E+00 0.  1.
         23    2    1    2    0    0 -0.89720854279E+03 -0.56061927933E+03  0.23090365073E+04  0.25414841957E+04  0.90637628046E+02 0.  0.
         13    1    3    3    0    0 -0.49065938647E+03 -0.25670850262E+03  0.11660589606E+04  0.12908676882E+04  0.00000000000E+00 0.  1.
        -13    1    3    3    0    0 -0.40654915633E+03 -0.30391077671E+03  0.11429775467E+04  0.12506165075E+04  0.00000000000E+00 0. -1.
         22    1    1    2    0    0  0.89720854279E+03  0.56061927933E+03  0.10580283900E+04  0.14962289997E+04  0.00000000000E+00 0.  1.
<mgrwt>
<rscale>  0 0.22284528E+04</rscale>
<asrwt>0</asrwt>
<pdfrwt beam="1">  1        1 0.56959829E+00 0.22284528E+04</pdfrwt>
<pdfrwt beam="2">  1       -1 0.51588333E-01 0.22284528E+04</pdfrwt>
<totfact> 0.59263228E-01</totfact>
</mgrwt>
</event>
<event>
 6    1  0.9988873E-007  0.3029505E+04  0.7818608E-02  0.8235355E-01
         -2   -1    0    0    0  501 -0.00000000000E+00  0.00000000000E+00  0.10433027805E+04  0.10433027805E+04  0.00000000000E+00 0.  1.
          2   -1    0    0  501    0  0.00000000000E+00 -0.00000000000E+00 -0.21992416049E+04  0.21992416049E+04  0.00000000000E+00 0. -1.
         23    2    1    2    0    0  0.68522066262E+03  0.96959104378E+03  0.42590045821E+03  0.12647047396E+04  0.91938726460E+02 0.  0.
         11    1    3    3    0    0  0.40681502913E+03  0.64783148862E+03  0.28884102235E+03  0.81768774099E+03  0.00000000000E+00 0. -1.
        -11    1    3    3    0    0  0.27840563348E+03  0.32175955516E+03  0.13705943587E+03  0.44701699862E+03  0.00000000000E+00 0.  1.
         22    1    1    2    0    0 -0.68522066262E+03 -0.96959104378E+03 -0.15818392826E+04  0.19778396458E+04  0.00000000000E+00 0. -1.
<mgrwt>
<rscale>  0 0.30295048E+04</rscale>
<asrwt>0</asrwt>
<pdfrwt beam="1">  1        2 0.33834486E+00 0.30295048E+04</pdfrwt>
<pdfrwt beam="2">  1       -2 0.16050812E+00 0.30295048E+04</pdfrwt>
<totfact> 0.11022519E+00</totfact>
</mgrwt>
</event>
<event>
 6    1  0.9988873E-007  0.1042596E+04  0.7818608E-02  0.9263022E-01
          1   -1    0    0  501    0  0.00000000000E+00  0.00000000000E+00  0.11249295102E+04  0.11249295102E+04  0.00000000000E+00 0. -1.
         -1   -1    0    0    0  501 -0.00000000000E+00 -0.00000000000E+00 -0.24157201292E+03  0.24157201292E+03  0.00000000000E+00 0.  1.
         23    2    1    2    0    0  0.99404402772E+01 -0.36598022542E+03 -0.34092129737E+02  0.37869883236E+03  0.90610123996E+02 0.  0.
         11    1    3    3    0    0  0.64382220113E+01 -0.22597997356E+03 -0.65109885489E+02  0.23526091121E+03  0.00000000000E+00 0.  1.
        -11    1    3    3    0    0  0.35022182660E+01 -0.14000025186E+03  0.31017755752E+02  0.14343792116E+03  0.00000000000E+00 0. -1.
         22    1    1    2    0    0 -0.99404402772E+01  0.36598022542E+03  0.91744962697E+03  0.98780269071E+03  0.00000000000E+00 0. -1.
<mgrwt>
<rscale>  0 0.10425958E+04</rscale>
<asrwt>0</asrwt>
<pdfrwt beam="1">  1        1 0.17306608E+00 0.10425958E+04</pdfrwt>
<pdfrwt beam="2">  1       -1 0.37164926E-01 0.10425958E+04</pdfrwt>
<totfact> 0.84494944E+01</totfact>
</mgrwt>
</event>
<event>
 6    1  0.9988873E-007  0.9276437E+03  0.7818608E-02  0.9391670E-01
          1   -1    0    0  501    0  0.00000000000E+00  0.00000000000E+00  0.67391525169E+03  0.67391525169E+03  0.00000000000E+00 0. -1.
         -1   -1    0    0    0  501 -0.00000000000E+00 -0.00000000000E+00 -0.31922514958E+03  0.31922514958E+03  0.00000000000E+00 0.  1.
         23    2    1    2    0    0 -0.13927058606E+03  0.27531384604E+02 -0.28879875799E+03  0.33417743846E+03  0.90086427852E+02 0.  0.
         11    1    3    3    0    0 -0.40509419798E+02  0.41452135956E+02 -0.16688885085E+03  0.17666686504E+03  0.00000000000E+00 0.  1.
        -11    1    3    3    0    0 -0.98761166263E+02 -0.13920751352E+02 -0.12190990714E+03  0.15751057342E+03  0.00000000000E+00 0. -1.
         22    1    1    2    0    0  0.13927058606E+03 -0.27531384604E+02  0.64348886010E+03  0.65896296280E+03  0.00000000000E+00 0. -1.
<mgrwt>
<rscale>  0 0.92764368E+03</rscale>
<asrwt>0</asrwt>
<pdfrwt beam="1">  1        1 0.10367927E+00 0.92764368E+03</pdfrwt>
<pdfrwt beam="2">  1       -1 0.49111562E-01 0.92764368E+03</pdfrwt>
<totfact> 0.12057896E+02</totfact>
</mgrwt>
</event>
<event>
 6    1  0.9988873E-007  0.9875386E+03  0.7818608E-02  0.9322319E-01
         -2   -1    0    0    0  501 -0.00000000000E+00  0.00000000000E+00  0.46427307443E+03  0.46427307443E+03  0.00000000000E+00 0.  1.
          2   -1    0    0  501    0  0.00000000000E+00 -0.00000000000E+00 -0.52513948912E+03  0.52513948912E+03  0.00000000000E+00 0. -1.
         23    2    1    2    0    0  0.25114349679E+03 -0.15284799602E+03 -0.42345582609E+03  0.52260784300E+03  0.85840287990E+02 0.  0.
         13    1    3    3    0    0  0.50419200516E+02 -0.45480309763E+02 -0.46657096533E+02  0.82385915142E+02  0.00000000000E+00 0. -1.
        -13    1    3    3    0    0  0.20072429628E+03 -0.10736768626E+03 -0.37679872956E+03  0.44022192786E+03  0.00000000000E+00 0.  1.
         22    1    1    2    0    0 -0.25114349679E+03  0.15284799602E+03  0.36258941140E+03  0.46680472055E+03  0.00000000000E+00 0.  1.
<mgrwt>
<rscale>  0 0.98753861E+03</rscale>
<asrwt>0</asrwt>
<pdfrwt beam="1">  1        2 0.80790691E-01 0.98753861E+03</pdfrwt>
<pdfrwt beam="2">  1       -2 0.71426627E-01 0.98753861E+03</pdfrwt>
<totfact> 0.10339278E+02</totfact>
</mgrwt>
</event>
<event>
 6    1  0.1083291E-006  0.3314500E+04  0.7818608E-02  0.8159216E-01
         -3   -1    0    0    0  501 -0.00000000000E+00  0.00000000000E+00  0.17831741134E+04  0.17831741134E+04  0.00000000000E+00 0.  1.
          3   -1    0    0  501    0  0.00000000000E+00 -0.00000000000E+00 -0.15402186759E+04  0.15402186759E+04  0.00000000000E+00 0. -1.
         23    2    1    2    0    0  0.15362645844E+03  0.26683184844E+03 -0.15099752523E+04  0.15436269825E+04  0.89211402195E+02 0.  0.
         13    1    3    3    0    0  0.38878527831E+02  0.12879005593E+03 -0.49783299844E+03  0.51568993860E+03  0.00000000000E+00 0.  1.
        -13    1    3    3    0    0  0.11474793061E+03  0.13804179252E+03 -0.10121422539E+04  0.10279370439E+04  0.00000000000E+00 0. -1.
         22    1    1    2    0    0 -0.15362645844E+03 -0.26683184844E+03  0.17529306898E+04  0.17797658069E+04  0.00000000000E+00 0.  1.
<mgrwt>
<rscale>  0 0.33145003E+04</rscale>
<asrwt>0</asrwt>
<pdfrwt beam="1">  1        3 0.23695672E+00 0.33145003E+04</pdfrwt>
<pdfrwt beam="2">  1       -3 0.27433448E+00 0.33145003E+04</pdfrwt>
<totfact> 0.10061749E-02</totfact>
</mgrwt>
</event>
<event>
 6    1  0.9988873E-007  0.1414690E+04  0.7818608E-02  0.8943253E-01
         -2   -1    0    0    0  501 -0.00000000000E+00  0.00000000000E+00  0.35542033760E+03  0.35542033760E+03  0.00000000000E+00 0.  1.
          2   -1    0    0  501    0  0.00000000000E+00 -0.00000000000E+00 -0.14077336891E+04  0.14077336891E+04  0.00000000000E+00 0. -1.
         23    2    1    2    0    0 -0.62046835721E+03  0.22861950083E+03 -0.22513363733E+03  0.70415726655E+03  0.88906933978E+02 0.  0.
         11    1    3    3    0    0 -0.12812857809E+03  0.84582526429E+02 -0.38482259713E+02  0.15827830114E+03  0.00000000000E+00 0. -1.
        -11    1    3    3    0    0 -0.49233977913E+03  0.14403697440E+03 -0.18665137761E+03  0.54587896540E+03  0.00000000000E+00 0.  1.
         22    1    1    2    0    0  0.62046835721E+03 -0.22861950083E+03 -0.82717971413E+03  0.10589967601E+04  0.00000000000E+00 0. -1.
<mgrwt>
<rscale>  0 0.14146903E+04</rscale>
<asrwt>0</asrwt>
<pdfrwt beam="1">  1        2 0.21657441E+00 0.14146903E+04</pdfrwt>
<pdfrwt beam="2">  1       -2 0.54680052E-01 0.14146903E+04</pdfrwt>
<totfact> 0.43819048E+01</totfact>
</mgrwt>
</event>
<event>
 6    1  0.9988873E-007  0.6827326E+04  0.7818608E-02  0.7595510E-01
          2   -1    0    0  501    0  0.00000000000E+00  0.00000000000E+00  0.23518243424E+04  0.23518243424E+04  0.00000000000E+00 0. -1.
         -2   -1    0    0    0  501 -0.00000000000E+00 -0.00000000000E+00 -0.49549175656E+04  0.49549175656E+04  0.00000000000E+00 0.  1.
         23    2    1    2    0    0  0.20201660236E+04  0.18403213792E+04  0.88676983493E+03  0.28742485120E+04  0.84203483902E+02 0.  0.
         11    1    3    3    0    0  0.26036394440E+03  0.27331936313E+03  0.13446173512E+03  0.40071538031E+03  0.00000000000E+00 0.  1.
        -11    1    3    3    0    0  0.17598020792E+04  0.15670020161E+04  0.75230809982E+03  0.24735331317E+04  0.00000000000E+00 0. -1.
         22    1    1    2    0    0 -0.20201660236E+04 -0.18403213792E+04 -0.34898630582E+04  0.44324933961E+04  0.00000000000E+00 0.  1.
<mgrwt>
<rscale>  0 0.68273262E+04</rscale>
<asrwt>0</asrwt>
<pdfrwt beam="1">  1        2 0.36181913E+00 0.68273262E+04</pdfrwt>
<pdfrwt beam="2">  1       -2 0.76229501E+00 0.68273262E+04</pdfrwt>
<totfact> 0.34131455E-04</totfact>
</mgrwt>
</event>
<event>
 6    1  0.9988873E-007  0.2653110E+04  0.7818608E-02  0.8350381E-01
         -2   -1    0    0    0  501 -0.00000000000E+00  0.00000000000E+00  0.12355001884E+04  0.12355001884E+04  0.00000000000E+00 0.  1.
          2   -1    0    0  501    0  0.00000000000E+00 -0.00000000000E+00 -0.14243209498E+04  0.14243209498E+04  0.00000000000E+00 0. -1.
         23    2    1    2    0    0  0.85668528366E+03  0.10107495838E+04 -0.74082082045E+02  0.13299003282E+04  0.87305966926E+02 0.  0.
         11    1    3    3    0    0  0.49173223284E+03  0.55873502838E+03 -0.47929497248E+00  0.74430212312E+03  0.00000000000E+00 0.  1.
        -11    1    3    3    0    0  0.36495305082E+03  0.45201455538E+03 -0.73602787073E+02  0.58559820512E+03  0.00000000000E+00 0. -1.
         22    1    1    2    0    0 -0.85668528366E+03 -0.10107495838E+04 -0.11473867937E+03  0.13299208100E+04  0.00000000000E+00 0. -1.
<mgrwt>
<rscale>  0 0.26531105E+04</rscale>
<asrwt>0</asrwt>
<pdfrwt beam="1">  1        2 0.21912630E+00 0.26531105E+04</pdfrwt>
<pdfrwt beam="2">  1       -2 0.19007695E+00 0.26531105E+04</pdfrwt>
<totfact> 0.19110105E+00</totfact>
</mgrwt>
</event>
<event>
 6    1  0.9988873E-007  0.1465658E+04  0.7818608E-02  0.8907617E-01
         -2   -1    0    0    0  501 -0.00000000000E+00  0.00000000000E+00  0.50713185323E+03  0.50713185323E+03  0.00000000000E+00 0.  1.
          2   -1    0    0  501    0  0.00000000000E+00 -0.00000000000E+00 -0.10589721378E+04  0.10589721378E+04  0.00000000000E+00 0. -1.
         23    2    1    2    0    0  0.70890198143E+03  0.53487229687E+02 -0.99843163424E+02  0.72366449732E+03  0.91207150938E+02 0.  0.
         11    1    3    3    0    0  0.10603040357E+03 -0.24547368405E+02 -0.16390729142E+02  0.11006214508E+03  0.00000000000E+00 0. -1.
        -11    1    3    3    0    0  0.60287157786E+03  0.78034598093E+02 -0.83452434282E+02  0.61360235224E+03  0.00000000000E+00 0.  1.
         22    1    1    2    0    0 -0.70890198143E+03 -0.53487229687E+02 -0.45199712111E+03  0.84243949367E+03  0.00000000000E+00 0.  1.
<mgrwt>
<rscale>  0 0.14656582E+04</rscale>
<asrwt>0</asrwt>
<pdfrwt beam="1">  1        2 0.16291879E+00 0.14656582E+04</pdfrwt>
<pdfrwt beam="2">  1       -2 0.78020286E-01 0.14656582E+04</pdfrwt>
<totfact> 0.32736078E+01</totfact>
</mgrwt>
</event>
<event>
 6    1  0.9988873E-007  0.2830862E+04  0.7818608E-02  0.8293751E-01
         -1   -1    0    0    0  501 -0.00000000000E+00  0.00000000000E+00  0.18238216203E+04  0.18238216203E+04  0.00000000000E+00 0.  1.
          1   -1    0    0  501    0  0.00000000000E+00 -0.00000000000E+00 -0.10984871260E+04  0.10984871260E+04  0.00000000000E+00 0. -1.
         23    2    1    2    0    0 -0.20964634481E+03  0.38844038992E+03 -0.10236976204E+04  0.11184376687E+04  0.90047066762E+02 0.  0.
         11    1    3    3    0    0 -0.68738592984E+02  0.20023475729E+03 -0.55672164171E+03  0.59561559628E+03  0.00000000000E+00 0. -1.
        -11    1    3    3    0    0 -0.14090775182E+03  0.18820563263E+03 -0.46697597871E+03  0.52282207238E+03  0.00000000000E+00 0.  1.
         22    1    1    2    0    0  0.20964634481E+03 -0.38844038992E+03  0.17490321147E+04  0.18038710776E+04  0.00000000000E+00 0.  1.
<mgrwt>
<rscale>  0 0.28308618E+04</rscale>
<asrwt>0</asrwt>
<pdfrwt beam="1">  1        1 0.16899802E+00 0.28308618E+04</pdfrwt>
<pdfrwt beam="2">  1       -1 0.28058794E+00 0.28308618E+04</pdfrwt>
<totfact> 0.48421991E-01</totfact>
</mgrwt>
</event>
<event>
 6    1  0.9988873E-007  0.3289983E+04  0.7818608E-02  0.8165449E-01
          2   -1    0    0  501    0  0.00000000000E+00  0.00000000000E+00  0.18796627064E+04  0.18796627064E+04  0.00000000000E+00 0. -1.
         -2   -1    0    0    0  501 -0.00000000000E+00 -0.00000000000E+00 -0.14396184997E+04  0.14396184997E+04  0.00000000000E+00 0.  1.
         23    2    1    2    0    0 -0.23586099809E+03  0.90469513202E+03  0.15841371612E+04  0.18417655950E+04  0.92229437744E+02 0.  0.
         13    1    3    3    0    0 -0.40322511681E+02  0.22250669202E+03  0.45584920201E+03  0.50885521312E+03  0.00000000000E+00 0.  1.
        -13    1    3    3    0    0 -0.19553848641E+03  0.68218844000E+03  0.11282879592E+04  0.13329103819E+04  0.00000000000E+00 0. -1.
         22    1    1    2    0    0  0.23586099809E+03 -0.90469513202E+03 -0.11440929545E+04  0.14775156110E+04  0.00000000000E+00 0.  1.
<mgrwt>
<rscale>  0 0.32899831E+04</rscale>
<asrwt>0</asrwt>
<pdfrwt beam="1">  1        2 0.28917888E+00 0.32899831E+04</pdfrwt>
<pdfrwt beam="2">  1       -2 0.22147977E+00 0.32899831E+04</pdfrwt>
<totfact> 0.63016503E-01</totfact>
</mgrwt>
</event>
<event>
 6    1  0.9988873E-007  0.1960127E+04  0.7818608E-02  0.8625493E-01
         -2   -1    0    0    0  501 -0.00000000000E+00  0.00000000000E+00  0.27891362318E+03  0.27891362318E+03  0.00000000000E+00 0.  1.
          2   -1    0    0  501    0  0.00000000000E+00 -0.00000000000E+00 -0.34438061182E+04  0.34438061182E+04  0.00000000000E+00 0. -1.
         23    2    1    2    0    0 -0.35029508138E+03  0.26579235689E+03 -0.32446701548E+04  0.32758230016E+04  0.98892381480E+02 0.  0.
         13    1    3    3    0    0 -0.27577771113E+03  0.15470740558E+03 -0.21928094598E+04  0.22154911542E+04  0.00000000000E+00 0.  1.
        -13    1    3    3    0    0 -0.74517370253E+02  0.11108495131E+03 -0.10518606950E+04  0.10603318474E+04  0.00000000000E+00 0. -1.
         22    1    1    2    0    0  0.35029508138E+03 -0.26579235689E+03  0.79777659817E+02  0.44689673978E+03  0.00000000000E+00 0.  1.
<mgrwt>
<rscale>  0 0.19601270E+04</rscale>
<asrwt>0</asrwt>
<pdfrwt beam="1">  1        2 0.52981634E+00 0.19601270E+04</pdfrwt>
<pdfrwt beam="2">  1       -2 0.42909787E-01 0.19601270E+04</pdfrwt>
<totfact> 0.42933605E+00</totfact>
</mgrwt>
</event>
<event>
 6    1  0.9988873E-007  0.2257596E+04  0.7818608E-02  0.8494831E-01
         -2   -1    0    0    0  501 -0.00000000000E+00  0.00000000000E+00  0.96320627669E+03  0.96320627669E+03  0.00000000000E+00 0.  1.
          2   -1    0    0  501    0  0.00000000000E+00 -0.00000000000E+00 -0.13228578084E+04  0.13228578084E+04  0.00000000000E+00 0. -1.
         23    2    1    2    0    0  0.83592917393E+03  0.75114624013E+03 -0.92327225817E+02  0.11308755540E+04  0.85772630561E+02 0.  0.
         13    1    3    3    0    0  0.34819429524E+03  0.31303312761E+03 -0.80941510600E+02  0.47516369217E+03  0.00000000000E+00 0.  1.
        -13    1    3    3    0    0  0.48773487869E+03  0.43811311252E+03 -0.11385715217E+02  0.65571186184E+03  0.00000000000E+00 0. -1.
         22    1    1    2    0    0 -0.83592917393E+03 -0.75114624013E+03 -0.26732430593E+03  0.11551885311E+04  0.00000000000E+00 0. -1.
<mgrwt>
<rscale>  0 0.22575960E+04</rscale>
<asrwt>0</asrwt>
<pdfrwt beam="1">  1        2 0.20351658E+00 0.22575960E+04</pdfrwt>
<pdfrwt beam="2">  1       -2 0.14818558E+00 0.22575960E+04</pdfrwt>
<totfact> 0.45138821E+00</totfact>
</mgrwt>
</event>
<event>
 6    1  0.9988873E-007  0.3803141E+04  0.7818608E-02  0.8045481E-01
         -1   -1    0    0    0  501 -0.00000000000E+00  0.00000000000E+00  0.12885231476E+04  0.12885231476E+04  0.00000000000E+00 0.  1.
          1   -1    0    0  501    0  0.00000000000E+00 -0.00000000000E+00 -0.28062901942E+04  0.28062901942E+04  0.00000000000E+00 0. -1.
         23    2    1    2    0    0  0.11457634104E+04  0.99496412351E+03 -0.19912582041E+04  0.25051840530E+04  0.90058338527E+02 0.  0.
         11    1    3    3    0    0  0.35163430679E+03  0.32948741196E+03 -0.57092698478E+03  0.74710525517E+03  0.00000000000E+00 0. -1.
        -11    1    3    3    0    0  0.79412910361E+03  0.66547671155E+03 -0.14203312193E+04  0.17580787978E+04  0.00000000000E+00 0.  1.
         22    1    1    2    0    0 -0.11457634104E+04 -0.99496412351E+03  0.47349115744E+03  0.15896292888E+04  0.00000000000E+00 0.  1.
<mgrwt>
<rscale>  0 0.38031407E+04</rscale>
<asrwt>0</asrwt>
<pdfrwt beam="1">  1        1 0.43173695E+00 0.38031407E+04</pdfrwt>
<pdfrwt beam="2">  1       -1 0.19823433E+00 0.38031407E+04</pdfrwt>
<totfact> 0.10152931E-01</totfact>
</mgrwt>
</event>
<event>
 6    1  0.9988873E-007  0.6969708E+03  0.7818608E-02  0.9722427E-01
          4   -1    0    0  501    0  0.00000000000E+00  0.00000000000E+00  0.73423131404E+02  0.73423131404E+02  0.00000000000E+00 0. -1.
         -4   -1    0    0    0  501 -0.00000000000E+00 -0.00000000000E+00 -0.16540029908E+04  0.16540029908E+04  0.00000000000E+00 0.  1.
         23    2    1    2    0    0 -0.17491023809E+03 -0.29093983053E+03 -0.92115608592E+03  0.98575281852E+03  0.89109529276E+02 0.  0.
         13    1    3    3    0    0 -0.73699748055E+02 -0.18271056547E+03 -0.61179483889E+03  0.64273457079E+03  0.00000000000E+00 0. -1.
        -13    1    3    3    0    0 -0.10121049003E+03 -0.10822926506E+03 -0.30936124703E+03  0.34301824773E+03  0.00000000000E+00 0.  1.
         22    1    1    2    0    0  0.17491023809E+03  0.29093983053E+03 -0.65942377347E+03  0.74167330368E+03  0.00000000000E+00 0.  1.
<mgrwt>
<rscale>  0 0.69697081E+03</rscale>
<asrwt>0</asrwt>
<pdfrwt beam="1">  1        4 0.11295867E-01 0.69697081E+03</pdfrwt>
<pdfrwt beam="2">  1       -4 0.25446199E+00 0.69697081E+03</pdfrwt>
<totfact> 0.77455349E+00</totfact>
</mgrwt>
</event>
<event>
 6    1  0.9988873E-007  0.2695190E+04  0.7818608E-02  0.8336567E-01
         -2   -1    0    0    0  501 -0.00000000000E+00  0.00000000000E+00  0.68413812111E+03  0.68413812111E+03  0.00000000000E+00 0.  1.
          2   -1    0    0  501    0  0.00000000000E+00 -0.00000000000E+00 -0.26544533263E+04  0.26544533263E+04  0.00000000000E+00 0. -1.
         23    2    1    2    0    0  0.37205877121E+02 -0.82583374674E+03  0.33027278172E+03  0.89398703359E+03  0.82140436666E+02 0.  0.
         11    1    3    3    0    0  0.27987561842E+02 -0.39561334966E+03  0.20125214956E+03  0.44474223293E+03  0.00000000000E+00 0.  1.
        -11    1    3    3    0    0  0.92183152786E+01 -0.43022039707E+03  0.12902063216E+03  0.44924480066E+03  0.00000000000E+00 0. -1.
         22    1    1    2    0    0 -0.37205877121E+02  0.82583374674E+03 -0.23005879869E+04  0.24446044139E+04  0.00000000000E+00 0.  1.
<mgrwt>
<rscale>  0 0.26951903E+04</rscale>
<asrwt>0</asrwt>
<pdfrwt beam="1">  1        2 0.40837743E+00 0.26951903E+04</pdfrwt>
<pdfrwt beam="2">  1       -2 0.10525202E+00 0.26951903E+04</pdfrwt>
<totfact> 0.18123204E+00</totfact>
</mgrwt>
</event>
<event>
 6    1  0.9988873E-007  0.5978411E+03  0.7818608E-02  0.9909895E-01
         -1   -1    0    0    0  501 -0.00000000000E+00  0.00000000000E+00  0.95374792921E+02  0.95374792921E+02  0.00000000000E+00 0.  1.
          1   -1    0    0  501    0  0.00000000000E+00 -0.00000000000E+00 -0.93686710461E+03  0.93686710461E+03  0.00000000000E+00 0. -1.
         23    2    1    2    0    0  0.15952802979E+03 -0.99709577668E+02 -0.45072957303E+02  0.21390518186E+03  0.91283422265E+02 0.  0.
         13    1    3    3    0    0  0.66441143086E+02 -0.74614670410E+02  0.13926581467E+02  0.10087479470E+03  0.00000000000E+00 0. -1.
        -13    1    3    3    0    0  0.93086886707E+02 -0.25094907258E+02 -0.58999538770E+02  0.11303038716E+03  0.00000000000E+00 0.  1.
         22    1    1    2    0    0 -0.15952802979E+03  0.99709577668E+02 -0.79641935439E+03  0.81833671567E+03  0.00000000000E+00 0. -1.
<mgrwt>
<rscale>  0 0.59784114E+03</rscale>
<asrwt>0</asrwt>
<pdfrwt beam="1">  1        1 0.14413340E+00 0.59784114E+03</pdfrwt>
<pdfrwt beam="2">  1       -1 0.14673045E-01 0.59784114E+03</pdfrwt>
<totfact> 0.58680935E+02</totfact>
</mgrwt>
</event>
<event>
 6    1  0.9988873E-007  0.4771961E+04  0.7818608E-02  0.7864681E-01
         -2   -1    0    0    0  501 -0.00000000000E+00  0.00000000000E+00  0.11381293425E+04  0.11381293425E+04  0.00000000000E+00 0.  1.
          2   -1    0    0  501    0  0.00000000000E+00 -0.00000000000E+00 -0.50019821559E+04  0.50019821559E+04  0.00000000000E+00 0. -1.
         23    2    1    2    0    0 -0.43443439675E+03  0.92124517129E+03  0.84230797774E+03  0.13249920499E+04  0.93248550411E+02 0.  0.
         11    1    3    3    0    0 -0.33934611703E+03  0.70811465215E+03  0.69790870420E+03  0.10505516204E+04  0.00000000000E+00 0.  1.
        -11    1    3    3    0    0 -0.95088279718E+02  0.21313051914E+03  0.14439927355E+03  0.27444042947E+03  0.00000000000E+00 0. -1.
         22    1    1    2    0    0  0.43443439675E+03 -0.92124517129E+03 -0.47061607911E+04  0.48151194484E+04  0.00000000000E+00 0. -1.
<mgrwt>
<rscale>  0 0.47719609E+04</rscale>
<asrwt>0</asrwt>
<pdfrwt beam="1">  1        2 0.76953572E+00 0.47719609E+04</pdfrwt>
<pdfrwt beam="2">  1       -2 0.17509682E+00 0.47719609E+04</pdfrwt>
<totfact> 0.48830537E-03</totfact>
</mgrwt>
</event>
<event>
 6    1  0.9988873E-007  0.5112686E+04  0.7818608E-02  0.7811356E-01
          2   -1    0    0  501    0  0.00000000000E+00  0.00000000000E+00  0.21246880474E+04  0.21246880474E+04  0.00000000000E+00 0. -1.
         -2   -1    0    0    0  501 -0.00000000000E+00 -0.00000000000E+00 -0.30756933891E+04  0.30756933891E+04  0.00000000000E+00 0.  1.
         23    2    1    2    0    0  0.20727096306E+04  0.12060523244E+04 -0.13740951537E+04  0.27652854608E+04  0.89323938569E+02 0.  0.
         11    1    3    3    0    0  0.26498824381E+03  0.18473776436E+03 -0.20271245034E+03  0.38136484953E+03  0.00000000000E+00 0.  1.
        -11    1    3    3    0    0  0.18077213868E+04  0.10213145600E+04 -0.11713827034E+04  0.23839206112E+04  0.00000000000E+00 0. -1.
         22    1    1    2    0    0 -0.20727096306E+04 -0.12060523244E+04  0.42308981196E+03  0.24350959757E+04  0.00000000000E+00 0. -1.
<mgrwt>
<rscale>  0 0.51126858E+04</rscale>
<asrwt>0</asrwt>
<pdfrwt beam="1">  1        2 0.32687508E+00 0.51126858E+04</pdfrwt>
<pdfrwt beam="2">  1       -2 0.47318360E+00 0.51126858E+04</pdfrwt>
<totfact> 0.10088061E-02</totfact>
</mgrwt>
</event>
<event>
 6    1  0.9988873E-007  0.1413056E+04  0.7818608E-02  0.8944422E-01
          2   -1    0    0  501    0  0.00000000000E+00  0.00000000000E+00  0.53168789166E+03  0.53168789166E+03  0.00000000000E+00 0. -1.
         -2   -1    0    0    0  501 -0.00000000000E+00 -0.00000000000E+00 -0.93886261224E+03  0.93886261224E+03  0.00000000000E+00 0.  1.
         23    2    1    2    0    0 -0.37912278293E+03  0.15150528155E+03 -0.80051794274E+03  0.90362297300E+03  0.94960864666E+02 0.  0.
         11    1    3    3    0    0 -0.20894051559E+03  0.13248089754E+03 -0.45057703038E+03  0.51403014267E+03  0.00000000000E+00 0. -1.
        -11    1    3    3    0    0 -0.17018226734E+03  0.19024384009E+02 -0.34994091236E+03  0.38959283033E+03  0.00000000000E+00 0.  1.
         22    1    1    2    0    0  0.37912278293E+03 -0.15150528155E+03  0.39334322216E+03  0.56692753090E+03  0.00000000000E+00 0. -1.
<mgrwt>
<rscale>  0 0.14130561E+04</rscale>
<asrwt>0</asrwt>
<pdfrwt beam="1">  1        2 0.81798139E-01 0.14130561E+04</pdfrwt>
<pdfrwt beam="2">  1       -2 0.14444040E+00 0.14130561E+04</pdfrwt>
<totfact> 0.18430370E+01</totfact>
</mgrwt>
</event>
<event>
 6    1  0.9988873E-007  0.2884745E+04  0.7818608E-02  0.8277431E-01
         -3   -1    0    0    0  501 -0.00000000000E+00  0.00000000000E+00  0.21464860996E+04  0.21464860996E+04  0.00000000000E+00 0.  1.
          3   -1    0    0  501    0  0.00000000000E+00 -0.00000000000E+00 -0.96922994535E+03  0.96922994535E+03  0.00000000000E+00 0. -1.
         23    2    1    2    0    0  0.34697320134E+03 -0.99550684327E+03  0.16500724262E+04  0.19603029135E+04  0.92866695939E+02 0.  0.
         11    1    3    3    0    0  0.33924326970E+03 -0.90534298058E+03  0.14834895129E+04  0.17707266992E+04  0.00000000000E+00 0. -1.
        -11    1    3    3    0    0  0.77299316414E+01 -0.90163862686E+02  0.16658291335E+03  0.18957621422E+03  0.00000000000E+00 0.  1.
         22    1    1    2    0    0 -0.34697320134E+03  0.99550684327E+03 -0.47281627198E+03  0.11554131315E+04  0.00000000000E+00 0.  1.
<mgrwt>
<rscale>  0 0.28847451E+04</rscale>
<asrwt>0</asrwt>
<pdfrwt beam="1">  1        3 0.14911230E+00 0.28847451E+04</pdfrwt>
<pdfrwt beam="2">  1       -3 0.33022863E+00 0.28847451E+04</pdfrwt>
<totfact> 0.18996633E-02</totfact>
</mgrwt>
</event>
<event>
 6    1  0.9988873E-007  0.1468888E+04  0.7818608E-02  0.8905410E-01
          1   -1    0    0  501    0  0.00000000000E+00  0.00000000000E+00  0.43126871451E+03  0.43126871451E+03  0.00000000000E+00 0. -1.
         -1   -1    0    0    0  501 -0.00000000000E+00 -0.00000000000E+00 -0.12507460999E+04  0.12507460999E+04  0.00000000000E+00 0.  1.
         23    2    1    2    0    0 -0.34364009877E+02  0.43596564592E+03  0.26031615283E+03  0.51702510855E+03  0.91123728259E+02 0.  0.
         11    1    3    3    0    0 -0.29893782341E+02  0.36641750163E+02  0.24723872445E+02  0.53362214594E+02  0.00000000000E+00 0. -1.
        -11    1    3    3    0    0 -0.44702275354E+01  0.39932389575E+03  0.23559228039E+03  0.46366289396E+03  0.00000000000E+00 0.  1.
         22    1    1    2    0    0  0.34364009877E+02 -0.43596564592E+03 -0.10797935383E+04  0.11649897059E+04  0.00000000000E+00 0.  1.
<mgrwt>
<rscale>  0 0.14688876E+04</rscale>
<asrwt>0</asrwt>
<pdfrwt beam="1">  1        1 0.66349033E-01 0.14688876E+04</pdfrwt>
<pdfrwt beam="2">  1       -1 0.19242248E+00 0.14688876E+04</pdfrwt>
<totfact> 0.89356758E+00</totfact>
</mgrwt>
</event>
<event>
 6    1  0.9988873E-007  0.1878136E+04  0.7818608E-02  0.8665817E-01
          1   -1    0    0  501    0  0.00000000000E+00  0.00000000000E+00  0.86689467978E+03  0.86689467978E+03  0.00000000000E+00 0. -1.
         -1   -1    0    0    0  501 -0.00000000000E+00 -0.00000000000E+00 -0.10172498209E+04  0.10172498209E+04  0.00000000000E+00 0.  1.
         23    2    1    2    0    0 -0.84597519365E+03  0.23127157303E+03  0.25502503093E+03  0.91796974799E+03  0.92033271493E+02 0.  0.
         13    1    3    3    0    0 -0.24626059643E+03  0.76395453602E+02  0.11823379960E+03  0.28365432846E+03  0.00000000000E+00 0.  1.
        -13    1    3    3    0    0 -0.59971459722E+03  0.15487611943E+03  0.13679123133E+03  0.63431541953E+03  0.00000000000E+00 0. -1.
         22    1    1    2    0    0  0.84597519365E+03 -0.23127157303E+03 -0.40538017200E+03  0.96617475263E+03  0.00000000000E+00 0.  1.
<mgrwt>
<rscale>  0 0.18781357E+04</rscale>
<asrwt>0</asrwt>
<pdfrwt beam="1">  1        1 0.13336841E+00 0.18781357E+04</pdfrwt>
<pdfrwt beam="2">  1       -1 0.15649997E+00 0.18781357E+04</pdfrwt>
<totfact> 0.56466220E+00</totfact>
</mgrwt>
</event>
<event>
 6    1  0.9988873E-007  0.9989574E+03  0.7818608E-02  0.9309689E-01
          2   -1    0    0  501    0  0.00000000000E+00  0.00000000000E+00  0.41601009392E+03  0.41601009392E+03  0.00000000000E+00 0. -1.
         -2   -1    0    0    0  501 -0.00000000000E+00 -0.00000000000E+00 -0.59969457195E+03  0.59969457195E+03  0.00000000000E+00 0.  1.
         23    2    1    2    0    0  0.74358639145E+01 -0.49363839414E+03 -0.12731191436E+03  0.51880223866E+03  0.95985848218E+02 0.  0.
         11    1    3    3    0    0  0.32725005418E+02 -0.35966095074E+03 -0.57736053481E+02  0.36573265828E+03  0.00000000000E+00 0. -1.
        -11    1    3    3    0    0 -0.25289141504E+02 -0.13397744340E+03 -0.69575860878E+02  0.15306958037E+03  0.00000000000E+00 0.  1.
         22    1    1    2    0    0 -0.74358639145E+01  0.49363839414E+03 -0.56372563670E+02  0.49690242722E+03  0.00000000000E+00 0. -1.
<mgrwt>
<rscale>  0 0.99895745E+03</rscale>
<asrwt>0</asrwt>
<pdfrwt beam="1">  1        2 0.64001553E-01 0.99895745E+03</pdfrwt>
<pdfrwt beam="2">  1       -2 0.92260703E-01 0.99895745E+03</pdfrwt>
<totfact> 0.75813257E+01</totfact>
</mgrwt>
</event>
<event>
 6    1  0.9988873E-007  0.4224817E+04  0.7818608E-02  0.7960668E-01
          2   -1    0    0  501    0  0.00000000000E+00  0.00000000000E+00  0.28666374294E+04  0.28666374294E+04  0.00000000000E+00 0. -1.
         -2   -1    0    0    0  501 -0.00000000000E+00 -0.00000000000E+00 -0.15566212756E+04  0.15566212756E+04  0.00000000000E+00 0.  1.
         23    2    1    2    0    0 -0.13330164172E+04 -0.15723626550E+04  0.17635450839E+03  0.20707184155E+04  0.86699228924E+02 0.  0.
         11    1    3    3    0    0 -0.81375486454E+03 -0.99517298941E+03  0.74532374659E+02  0.12876806022E+04  0.00000000000E+00 0. -1.
        -11    1    3    3    0    0 -0.51926155271E+03 -0.57718966558E+03  0.10182213373E+03  0.78303781332E+03  0.00000000000E+00 0.  1.
         22    1    1    2    0    0  0.13330164172E+04  0.15723626550E+04  0.11336616454E+04  0.23525402895E+04  0.00000000000E+00 0.  1.
<mgrwt>
<rscale>  0 0.42248166E+04</rscale>
<asrwt>0</asrwt>
<pdfrwt beam="1">  1        2 0.44102114E+00 0.42248166E+04</pdfrwt>
<pdfrwt beam="2">  1       -2 0.23948020E+00 0.42248166E+04</pdfrwt>
<totfact> 0.12172339E-01</totfact>
</mgrwt>
</event>
<event>
 6    1  0.9988873E-007  0.2166515E+04  0.7818608E-02  0.8532496E-01
         -2   -1    0    0    0  501 -0.00000000000E+00  0.00000000000E+00  0.33044411401E+03  0.33044411401E+03  0.00000000000E+00 0.  1.
          2   -1    0    0  501    0  0.00000000000E+00 -0.00000000000E+00 -0.35511216987E+04  0.35511216987E+04  0.00000000000E+00 0. -1.
         23    2    1    2    0    0 -0.79837889373E+03  0.69230648751E+03 -0.12024062731E+04  0.16033831559E+04  0.91430675762E+02 0.  0.
         11    1    3    3    0    0 -0.26708285105E+03  0.28877391663E+03 -0.45985095971E+03  0.60513348065E+03  0.00000000000E+00 0.  1.
        -11    1    3    3    0    0 -0.53129604268E+03  0.40353257088E+03 -0.74255531342E+03  0.99824967529E+03  0.00000000000E+00 0. -1.
         22    1    1    2    0    0  0.79837889373E+03 -0.69230648751E+03 -0.20182713116E+04  0.22781826568E+04  0.00000000000E+00 0. -1.
<mgrwt>
<rscale>  0 0.21665154E+04</rscale>
<asrwt>0</asrwt>
<pdfrwt beam="1">  1        2 0.54632643E+00 0.21665154E+04</pdfrwt>
<pdfrwt beam="2">  1       -2 0.50837555E-01 0.21665154E+04</pdfrwt>
<totfact> 0.25189041E+00</totfact>
</mgrwt>
</event>
<event>
 6    1  0.9988873E-007  0.1344274E+04  0.7818608E-02  0.8995174E-01
          1   -1    0    0  501    0  0.00000000000E+00  0.00000000000E+00  0.80901926714E+03  0.80901926714E+03  0.00000000000E+00 0. -1.
         -1   -1    0    0    0  501 -0.00000000000E+00 -0.00000000000E+00 -0.55841450372E+03  0.55841450372E+03  0.00000000000E+00 0.  1.
         23    2    1    2    0    0  0.47079923409E+03  0.41026213320E+03  0.37016803829E+03  0.73161751324E+03  0.90955331675E+02 0.  0.
         13    1    3    3    0    0  0.18815066172E+03  0.14271470882E+03  0.92948631235E+02  0.25378653957E+03  0.00000000000E+00 0. -1.
        -13    1    3    3    0    0  0.28264857237E+03  0.26754742438E+03  0.27721940705E+03  0.47783097367E+03  0.00000000000E+00 0.  1.
         22    1    1    2    0    0 -0.47079923409E+03 -0.41026213320E+03 -0.11956327487E+03  0.63581625762E+03  0.00000000000E+00 0.  1.
<mgrwt>
<rscale>  0 0.13442739E+04</rscale>
<asrwt>0</asrwt>
<pdfrwt beam="1">  1        1 0.12446450E+00 0.13442739E+04</pdfrwt>
<pdfrwt beam="2">  1       -1 0.85909923E-01 0.13442739E+04</pdfrwt>
<totfact> 0.28455998E+01</totfact>
</mgrwt>
</event>
<event>
 6    1  0.9988873E-007  0.9314182E+03  0.7818608E-02  0.9387137E-01
          2   -1    0    0  501    0  0.00000000000E+00  0.00000000000E+00  0.13570469385E+04  0.13570469385E+04  0.00000000000E+00 0. -1.
         -2   -1    0    0    0  501 -0.00000000000E+00 -0.00000000000E+00 -0.15982126769E+03  0.15982126769E+03  0.00000000000E+00 0.  1.
         23    2    1    2    0    0  0.94363281566E+02  0.33240697850E+03  0.11018110588E+04  0.11583953670E+04  0.92159582967E+02 0.  0.
         11    1    3    3    0    0 -0.35962505497E+01  0.15437129904E+03  0.47695310557E+03  0.50132593779E+03  0.00000000000E+00 0. -1.
        -11    1    3    3    0    0  0.97959532116E+02  0.17803567946E+03  0.62485795323E+03  0.65706942922E+03  0.00000000000E+00 0.  1.
         22    1    1    2    0    0 -0.94363281566E+02 -0.33240697850E+03  0.95414612024E+02  0.35847283921E+03  0.00000000000E+00 0.  1.
<mgrwt>
<rscale>  0 0.93141819E+03</rscale>
<asrwt>0</asrwt>
<pdfrwt beam="1">  1        2 0.20877644E+00 0.93141819E+03</pdfrwt>
<pdfrwt beam="2">  1       -2 0.24587888E-01 0.93141819E+03</pdfrwt>
<totfact> 0.22653190E+02</totfact>
</mgrwt>
</event>
<event>
 6    1  0.9988873E-007  0.2640955E+04  0.7818608E-02  0.8354421E-01
         -2   -1    0    0    0  501 -0.00000000000E+00  0.00000000000E+00  0.84737173183E+03  0.84737173183E+03  0.00000000000E+00 0.  1.
          2   -1    0    0  501    0  0.00000000000E+00 -0.00000000000E+00 -0.20577279595E+04  0.20577279595E+04  0.00000000000E+00 0. -1.
         23    2    1    2    0    0  0.29215098551E+03  0.12013559143E+04 -0.10068228765E+03  0.12437795884E+04  0.90788272271E+02 0.  0.
         13    1    3    3    0    0  0.16954201682E+03  0.66956638166E+03 -0.10096709046E+03  0.69803867247E+03  0.00000000000E+00 0.  1.
        -13    1    3    3    0    0  0.12260896869E+03  0.53178953264E+03  0.28480281553E+00  0.54574091595E+03  0.00000000000E+00 0. -1.
         22    1    1    2    0    0 -0.29215098551E+03 -0.12013559143E+04 -0.11096739401E+04  0.16613201029E+04  0.00000000000E+00 0. -1.
<mgrwt>
<rscale>  0 0.26409548E+04</rscale>
<asrwt>0</asrwt>
<pdfrwt beam="1">  1        2 0.31657353E+00 0.26409548E+04</pdfrwt>
<pdfrwt beam="2">  1       -2 0.13036488E+00 0.26409548E+04</pdfrwt>
<totfact> 0.23585812E+00</totfact>
</mgrwt>
</event>
<event>
 6    1  0.9988873E-007  0.2014376E+04  0.7818608E-02  0.8599929E-01
          2   -1    0    0  501    0  0.00000000000E+00  0.00000000000E+00  0.66342488023E+03  0.66342488023E+03  0.00000000000E+00 0. -1.
         -2   -1    0    0    0  501 -0.00000000000E+00 -0.00000000000E+00 -0.15290773492E+04  0.15290773492E+04  0.00000000000E+00 0.  1.
         23    2    1    2    0    0 -0.36654471496E+03 -0.32769183773E+03 -0.13879551761E+04  0.14751898243E+04  0.89601776640E+02 0.  0.
         11    1    3    3    0    0 -0.25383894599E+03 -0.25825958548E+03 -0.91478860396E+03  0.98385487443E+03  0.00000000000E+00 0. -1.
        -11    1    3    3    0    0 -0.11270576897E+03 -0.69432252245E+02 -0.47316657215E+03  0.49133494992E+03  0.00000000000E+00 0.  1.
         22    1    1    2    0    0  0.36654471496E+03  0.32769183773E+03  0.52230270715E+03  0.71731240508E+03  0.00000000000E+00 0. -1.
<mgrwt>
<rscale>  0 0.20143763E+04</rscale>
<asrwt>0</asrwt>
<pdfrwt beam="1">  1        2 0.10206537E+00 0.20143763E+04</pdfrwt>
<pdfrwt beam="2">  1       -2 0.23524267E+00 0.20143763E+04</pdfrwt>
<totfact> 0.32240239E+00</totfact>
</mgrwt>
</event>
<event>
 6    1  0.9988873E-007  0.1131836E+04  0.7818608E-02  0.9174706E-01
          2   -1    0    0  501    0  0.00000000000E+00  0.00000000000E+00  0.40361374402E+03  0.40361374402E+03  0.00000000000E+00 0. -1.
         -2   -1    0    0    0  501 -0.00000000000E+00 -0.00000000000E+00 -0.79348917707E+03  0.79348917707E+03  0.00000000000E+00 0.  1.
         23    2    1    2    0    0  0.22563341444E+03 -0.50186652432E+03 -0.73836070553E+02  0.56254691520E+03  0.90701822169E+02 0.  0.
         13    1    3    3    0    0  0.16745681738E+03 -0.43426038057E+03 -0.83408294433E+02  0.47284332226E+03  0.00000000000E+00 0.  1.
        -13    1    3    3    0    0  0.58176597055E+02 -0.67606143751E+02  0.95722238801E+01  0.89703592948E+02  0.00000000000E+00 0. -1.
         22    1    1    2    0    0 -0.22563341444E+03  0.50186652432E+03 -0.31603936250E+03  0.63455600588E+03  0.00000000000E+00 0. -1.
<mgrwt>
<rscale>  0 0.11318359E+04</rscale>
<asrwt>0</asrwt>
<pdfrwt beam="1">  1        2 0.62094422E-01 0.11318359E+04</pdfrwt>
<pdfrwt beam="2">  1       -2 0.12207526E+00 0.11318359E+04</pdfrwt>
<totfact> 0.39669374E+01</totfact>
</mgrwt>
</event>
<event>
 6    1  0.9988873E-007  0.7746531E+03  0.7818608E-02  0.9597448E-01
         -2   -1    0    0    0  501 -0.00000000000E+00  0.00000000000E+00  0.99205967075E+03  0.99205967075E+03  0.00000000000E+00 0.  1.
          2   -1    0    0  501    0  0.00000000000E+00 -0.00000000000E+00 -0.15122261967E+03  0.15122261967E+03  0.00000000000E+00 0. -1.
         23    2    1    2    0    0 -0.20820890672E+03  0.16872606283E+03  0.24345926503E+02  0.28393533509E+03  0.90593141338E+02 0.  0.
         13    1    3    3    0    0 -0.76629077630E+01  0.42179819056E+02  0.18600419561E+02  0.46731497931E+02  0.00000000000E+00 0.  1.
        -13    1    3    3    0    0 -0.20054599896E+03  0.12654624377E+03  0.57455069413E+01  0.23720383716E+03  0.00000000000E+00 0. -1.
         22    1    1    2    0    0  0.20820890672E+03 -0.16872606283E+03  0.81649112458E+03  0.85934695533E+03  0.00000000000E+00 0.  1.
<mgrwt>
<rscale>  0 0.77465312E+03</rscale>
<asrwt>0</asrwt>
<pdfrwt beam="1">  1        2 0.23265019E-01 0.77465312E+03</pdfrwt>
<pdfrwt beam="2">  1       -2 0.15262456E+00 0.77465312E+03</pdfrwt>
<totfact> 0.68805213E+01</totfact>
</mgrwt>
</event>
<event>
 6    1  0.9988873E-007  0.1520774E+04  0.7818608E-02  0.8870755E-01
          1   -1    0    0  501    0  0.00000000000E+00  0.00000000000E+00  0.24419334800E+04  0.24419334800E+04  0.00000000000E+00 0. -1.
         -1   -1    0    0    0  501 -0.00000000000E+00 -0.00000000000E+00 -0.23677478495E+03  0.23677478495E+03  0.00000000000E+00 0.  1.
         23    2    1    2    0    0  0.12176425605E+02 -0.28368099340E+03  0.23437392529E+04  0.23627529795E+04  0.94152986990E+02 0.  0.
         13    1    3    3    0    0 -0.35436254093E+02 -0.11857760822E+03  0.80657529541E+03  0.81601475749E+03  0.00000000000E+00 0. -1.
        -13    1    3    3    0    0  0.47612679698E+02 -0.16510338517E+03  0.15371639575E+04  0.15467382220E+04  0.00000000000E+00 0.  1.
         22    1    1    2    0    0 -0.12176425605E+02  0.28368099340E+03 -0.13858055793E+03  0.31595528543E+03  0.00000000000E+00 0.  1.
<mgrwt>
<rscale>  0 0.15207738E+04</rscale>
<asrwt>0</asrwt>
<pdfrwt beam="1">  1        1 0.37568206E+00 0.15207738E+04</pdfrwt>
<pdfrwt beam="2">  1       -1 0.36426892E-01 0.15207738E+04</pdfrwt>
<totfact> 0.10387150E+01</totfact>
</mgrwt>
</event>
<event>
 6    1  0.9988873E-007  0.1061756E+04  0.7818608E-02  0.9243290E-01
          1   -1    0    0  501    0  0.00000000000E+00  0.00000000000E+00  0.72413698289E+03  0.72413698289E+03  0.00000000000E+00 0. -1.
         -1   -1    0    0    0  501 -0.00000000000E+00 -0.00000000000E+00 -0.38919630104E+03  0.38919630104E+03  0.00000000000E+00 0.  1.
         23    2    1    2    0    0 -0.37443692409E+03 -0.36982898614E+03  0.18938996188E+03  0.56729161775E+03  0.94735066353E+02 0.  0.
         13    1    3    3    0    0 -0.36893629538E+03 -0.33527387932E+03  0.16698903862E+03  0.52574509339E+03  0.00000000000E+00 0. -1.
        -13    1    3    3    0    0 -0.55006287093E+01 -0.34555106826E+02  0.22400923255E+02  0.41546524362E+02  0.00000000000E+00 0.  1.
         22    1    1    2    0    0  0.37443692409E+03  0.36982898614E+03  0.14555071997E+03  0.54604166618E+03  0.00000000000E+00 0.  1.
<mgrwt>
<rscale>  0 0.10617560E+04</rscale>
<asrwt>0</asrwt>
<pdfrwt beam="1">  1        1 0.11140569E+00 0.10617560E+04</pdfrwt>
<pdfrwt beam="2">  1       -1 0.59876354E-01 0.10617560E+04</pdfrwt>
<totfact> 0.73074633E+01</totfact>
</mgrwt>
</event>
<event>
 6    1  0.9988873E-007  0.8405191E+03  0.7818608E-02  0.9503151E-01
         -1   -1    0    0    0  501 -0.00000000000E+00  0.00000000000E+00  0.47993288333E+03  0.47993288333E+03  0.00000000000E+00 0.  1.
          1   -1    0    0  501    0  0.00000000000E+00 -0.00000000000E+00 -0.36800583728E+03  0.36800583728E+03  0.00000000000E+00 0. -1.
         23    2    1    2    0    0  0.20902010038E+03 -0.34235485734E+03 -0.52978485568E+02  0.41424518242E+03  0.88860005208E+02 0.  0.
         13    1    3    3    0    0  0.20340910716E+02 -0.90381145646E+02 -0.34703946111E+02  0.98928600580E+02  0.00000000000E+00 0. -1.
        -13    1    3    3    0    0  0.18867918966E+03 -0.25197371169E+03 -0.18274539457E+02  0.31531658184E+03  0.00000000000E+00 0.  1.
         22    1    1    2    0    0 -0.20902010038E+03  0.34235485734E+03  0.16490553162E+03  0.43369353818E+03  0.00000000000E+00 0.  1.
<mgrwt>
<rscale>  0 0.84051913E+03</rscale>
<asrwt>0</asrwt>
<pdfrwt beam="1">  1        1 0.56616283E-01 0.84051913E+03</pdfrwt>
<pdfrwt beam="2">  1       -1 0.73835828E-01 0.84051913E+03</pdfrwt>
<totfact> 0.12518523E+02</totfact>
</mgrwt>
</event>
<event>
 6    1  0.1773123E-006  0.2640166E+04  0.7818608E-02  0.8354684E-01
         -1   -1    0    0    0  501 -0.00000000000E+00  0.00000000000E+00  0.10661524625E+04  0.10661524625E+04  0.00000000000E+00 0.  1.
          1   -1    0    0  501    0  0.00000000000E+00 -0.00000000000E+00 -0.16344931824E+04  0.16344931824E+04  0.00000000000E+00 0. -1.
         23    2    1    2    0    0 -0.55048708272E+03 -0.43879869379E+03  0.85588848591E+03  0.11119325958E+04  0.90932256609E+02 0.  0.
         11    1    3    3    0    0 -0.29171627950E+03 -0.19569594065E+03  0.48078597718E+03  0.59544138651E+03  0.00000000000E+00 0.  1.
        -11    1    3    3    0    0 -0.25877080322E+03 -0.24310275313E+03  0.37510250873E+03  0.51649120925E+03  0.00000000000E+00 0. -1.
         22    1    1    2    0    0  0.55048708272E+03  0.43879869379E+03 -0.14242292058E+04  0.15887130492E+04  0.00000000000E+00 0. -1.
<mgrwt>
<rscale>  0 0.26401659E+04</rscale>
<asrwt>0</asrwt>
<pdfrwt beam="1">  1        1 0.25146049E+00 0.26401659E+04</pdfrwt>
<pdfrwt beam="2">  1       -1 0.16402346E+00 0.26401659E+04</pdfrwt>
<totfact> 0.12639554E+00</totfact>
</mgrwt>
</event>
<event>
 6    1  0.9988873E-007  0.2116486E+04  0.7818608E-02  0.8554016E-01
         -1   -1    0    0    0  501 -0.00000000000E+00  0.00000000000E+00  0.20661030808E+04  0.20661030808E+04  0.00000000000E+00 0.  1.
          1   -1    0    0  501    0  0.00000000000E+00 -0.00000000000E+00 -0.54202462460E+03  0.54202462460E+03  0.00000000000E+00 0. -1.
         23    2    1    2    0    0  0.76952448360E+03 -0.55294053402E+03  0.18821068137E+03  0.97030785057E+03  0.90348764613E+02 0.  0.
         11    1    3    3    0    0  0.87336655692E+02 -0.35315661922E+02  0.34247792316E+02  0.10023870851E+03  0.00000000000E+00 0. -1.
        -11    1    3    3    0    0  0.68218782791E+03 -0.51762487209E+03  0.15396288905E+03  0.87006914206E+03  0.00000000000E+00 0.  1.
         22    1    1    2    0    0 -0.76952448360E+03  0.55294053402E+03  0.13358677748E+04  0.16378198548E+04  0.00000000000E+00 0.  1.
<mgrwt>
<rscale>  0 0.21164865E+04</rscale>
<asrwt>0</asrwt>
<pdfrwt beam="1">  1        1 0.83388405E-01 0.21164865E+04</pdfrwt>
<pdfrwt beam="2">  1       -1 0.31786201E+00 0.21164865E+04</pdfrwt>
<totfact> 0.91982958E-01</totfact>
</mgrwt>
</event>
<event>
 6    1  0.9988873E-007  0.1881159E+04  0.7818608E-02  0.8664292E-01
          2   -1    0    0  501    0  0.00000000000E+00  0.00000000000E+00  0.14734194771E+04  0.14734194771E+04  0.00000000000E+00 0. -1.
         -2   -1    0    0    0  501 -0.00000000000E+00 -0.00000000000E+00 -0.60043316103E+03  0.60043316103E+03  0.00000000000E+00 0.  1.
         23    2    1    2    0    0 -0.80315872856E+03 -0.16983045660E+02 -0.96638827756E+02  0.81467620623E+03  0.94899372232E+02 0.  0.
         11    1    3    3    0    0 -0.49601421870E+03 -0.38038362658E+02 -0.96851140125E+02  0.50681077882E+03  0.00000000000E+00 0. -1.
        -11    1    3    3    0    0 -0.30714450987E+03  0.21055316998E+02  0.21231236859E+00  0.30786542741E+03  0.00000000000E+00 0.  1.
         22    1    1    2    0    0  0.80315872856E+03  0.16983045660E+02  0.96962514380E+03  0.12591764319E+04  0.00000000000E+00 0. -1.
<mgrwt>
<rscale>  0 0.18811591E+04</rscale>
<asrwt>0</asrwt>
<pdfrwt beam="1">  1        2 0.22667992E+00 0.18811591E+04</pdfrwt>
<pdfrwt beam="2">  1       -2 0.92374333E-01 0.18811591E+04</pdfrwt>
<totfact> 0.12264876E+01</totfact>
</mgrwt>
</event>
<event>
 6    1  0.9988873E-007  0.2710691E+04  0.7818608E-02  0.8331544E-01
         -2   -1    0    0    0  501 -0.00000000000E+00  0.00000000000E+00  0.13517245656E+04  0.13517245656E+04  0.00000000000E+00 0.  1.
          2   -1    0    0  501    0  0.00000000000E+00 -0.00000000000E+00 -0.13589763642E+04  0.13589763642E+04  0.00000000000E+00 0. -1.
         23    2    1    2    0    0  0.51538527015E+03  0.10536970173E+04 -0.67943193664E+03  0.13587669377E+04  0.93383368744E+02 0.  0.
         13    1    3    3    0    0  0.23361607014E+03  0.57444988741E+03 -0.33621811727E+03  0.70541602176E+03  0.00000000000E+00 0. -1.
        -13    1    3    3    0    0  0.28176920001E+03  0.47924712992E+03 -0.34321381937E+03  0.65335091598E+03  0.00000000000E+00 0.  1.
         22    1    1    2    0    0 -0.51538527015E+03 -0.10536970173E+04  0.67218013806E+03  0.13519339921E+04  0.00000000000E+00 0.  1.
<mgrwt>
<rscale>  0 0.27106912E+04</rscale>
<asrwt>0</asrwt>
<pdfrwt beam="1">  1        2 0.20907329E+00 0.27106912E+04</pdfrwt>
<pdfrwt beam="2">  1       -2 0.20795763E+00 0.27106912E+04</pdfrwt>
<totfact> 0.15808140E+00</totfact>
</mgrwt>
</event>
<event>
 6    1  0.9988873E-007  0.3429604E+04  0.7818608E-02  0.8130679E-01
          2   -1    0    0  501    0  0.00000000000E+00  0.00000000000E+00  0.26017448944E+04  0.26017448944E+04  0.00000000000E+00 0. -1.
         -2   -1    0    0    0  501 -0.00000000000E+00 -0.00000000000E+00 -0.11302203846E+04  0.11302203846E+04  0.00000000000E+00 0.  1.
         23    2    1    2    0    0  0.10811383705E+04  0.98539604133E+03 -0.23502548996E+03  0.14842601301E+04  0.89025942473E+02 0.  0.
         11    1    3    3    0    0  0.62888468382E+03  0.60277769831E+03 -0.10151116363E+03  0.87700707834E+03  0.00000000000E+00 0. -1.
        -11    1    3    3    0    0  0.45225368668E+03  0.38261834303E+03 -0.13351432633E+03  0.60725305176E+03  0.00000000000E+00 0.  1.
         22    1    1    2    0    0 -0.10811383705E+04 -0.98539604133E+03  0.17065499998E+04  0.22477051489E+04  0.00000000000E+00 0. -1.
<mgrwt>
<rscale>  0 0.34296035E+04</rscale>
<asrwt>0</asrwt>
<pdfrwt beam="1">  1        2 0.40026844E+00 0.34296035E+04</pdfrwt>
<pdfrwt beam="2">  1       -2 0.17388006E+00 0.34296035E+04</pdfrwt>
<totfact> 0.50190786E-01</totfact>
</mgrwt>
</event>
<event>
 6    1  0.9988873E-007  0.4492601E+04  0.7818608E-02  0.7911933E-01
         -1   -1    0    0    0  501 -0.00000000000E+00  0.00000000000E+00  0.16354243385E+04  0.16354243385E+04  0.00000000000E+00 0.  1.
          1   -1    0    0  501    0  0.00000000000E+00 -0.00000000000E+00 -0.30853556129E+04  0.30853556129E+04  0.00000000000E+00 0. -1.
         23    2    1    2    0    0 -0.48338734931E+03  0.34292220067E+03  0.15504265955E+04  0.16624460401E+04  0.92979800203E+02 0.  0.
         11    1    3    3    0    0 -0.38001714721E+03  0.28853370437E+03  0.11426605005E+04  0.12382801582E+04  0.00000000000E+00 0. -1.
        -11    1    3    3    0    0 -0.10337020210E+03  0.54388496295E+02  0.40776609501E+03  0.42416588200E+03  0.00000000000E+00 0.  1.
         22    1    1    2    0    0  0.48338734931E+03 -0.34292220067E+03 -0.30003578699E+04  0.30583339113E+04  0.00000000000E+00 0. -1.
<mgrwt>
<rscale>  0 0.44926009E+04</rscale>
<asrwt>0</asrwt>
<pdfrwt beam="1">  1        1 0.47467009E+00 0.44926009E+04</pdfrwt>
<pdfrwt beam="2">  1       -1 0.25160375E+00 0.44926009E+04</pdfrwt>
<totfact> 0.26465329E-02</totfact>
</mgrwt>
</event>
<event>
 6    1  0.9988873E-007  0.2478286E+04  0.7818608E-02  0.8410762E-01
          2   -1    0    0  501    0  0.00000000000E+00  0.00000000000E+00  0.21343215057E+04  0.21343215057E+04  0.00000000000E+00 0. -1.
         -2   -1    0    0    0  501 -0.00000000000E+00 -0.00000000000E+00 -0.71942062494E+03  0.71942062494E+03  0.00000000000E+00 0.  1.
         23    2    1    2    0    0  0.63443641752E+03  0.14657339585E+03 -0.50331739224E+03  0.82801888420E+03  0.91068913617E+02 0.  0.
         13    1    3    3    0    0  0.35491663245E+03  0.11468847360E+03 -0.32675442185E+03  0.49587066274E+03  0.00000000000E+00 0.  1.
        -13    1    3    3    0    0  0.27951978507E+03  0.31884922254E+02 -0.17656297039E+03  0.33214822146E+03  0.00000000000E+00 0. -1.
         22    1    1    2    0    0 -0.63443641752E+03 -0.14657339585E+03  0.19182182730E+04  0.20257232464E+04  0.00000000000E+00 0. -1.
<mgrwt>
<rscale>  0 0.24782856E+04</rscale>
<asrwt>0</asrwt>
<pdfrwt beam="1">  1        2 0.32835715E+00 0.24782856E+04</pdfrwt>
<pdfrwt beam="2">  1       -2 0.11068010E+00 0.24782856E+04</pdfrwt>
<totfact> 0.32507767E+00</totfact>
</mgrwt>
</event>
<event>
 6    1  0.9988873E-007  0.2047598E+04  0.7818608E-02  0.8584685E-01
          2   -1    0    0  501    0  0.00000000000E+00  0.00000000000E+00  0.19678622250E+04  0.19678622250E+04  0.00000000000E+00 0. -1.
         -2   -1    0    0    0  501 -0.00000000000E+00 -0.00000000000E+00 -0.53264124796E+03  0.53264124796E+03  0.00000000000E+00 0.  1.
         23    2    1    2    0    0  0.61146707784E+03  0.76997144370E+03  0.10581787953E+04  0.14474560770E+04  0.92944717633E+02 0.  0.
         13    1    3    3    0    0  0.33177897996E+03  0.39392653197E+03  0.61830240042E+03  0.80470694200E+03  0.00000000000E+00 0.  1.
        -13    1    3    3    0    0  0.27968809788E+03  0.37604491173E+03  0.43987639488E+03  0.64274913497E+03  0.00000000000E+00 0. -1.
         22    1    1    2    0    0 -0.61146707784E+03 -0.76997144370E+03  0.37704218173E+03  0.10530473960E+04  0.00000000000E+00 0.  1.
<mgrwt>
<rscale>  0 0.20475982E+04</rscale>
<asrwt>0</asrwt>
<pdfrwt beam="1">  1        2 0.30274803E+00 0.20475982E+04</pdfrwt>
<pdfrwt beam="2">  1       -2 0.81944808E-01 0.20475982E+04</pdfrwt>
<totfact> 0.84357344E+00</totfact>
</mgrwt>
</event>
<event>
 6    1  0.9988873E-007  0.1108714E+04  0.7818608E-02  0.9196740E-01
          2   -1    0    0  501    0  0.00000000000E+00  0.00000000000E+00  0.22741620824E+04  0.22741620824E+04  0.00000000000E+00 0. -1.
         -2   -1    0    0    0  501 -0.00000000000E+00 -0.00000000000E+00 -0.13513194882E+03  0.13513194882E+03  0.00000000000E+00 0.  1.
         23    2    1    2    0    0  0.28979161271E+03 -0.44127031929E+03  0.73414710684E+03  0.90849591279E+03  0.87716449974E+02 0.  0.
         13    1    3    3    0    0  0.20486413135E+03 -0.23769117074E+03  0.40677890425E+03  0.51374651522E+03  0.00000000000E+00 0. -1.
        -13    1    3    3    0    0  0.84927481361E+02 -0.20357914854E+03  0.32736820260E+03  0.39474939757E+03  0.00000000000E+00 0.  1.
         22    1    1    2    0    0 -0.28979161271E+03  0.44127031929E+03  0.14048830267E+04  0.15007981184E+04  0.00000000000E+00 0. -1.
<mgrwt>
<rscale>  0 0.11087145E+04</rscale>
<asrwt>0</asrwt>
<pdfrwt beam="1">  1        2 0.34987106E+00 0.11087145E+04</pdfrwt>
<pdfrwt beam="2">  1       -2 0.20789532E-01 0.11087145E+04</pdfrwt>
<totfact> 0.93382449E+01</totfact>
</mgrwt>
</event>
<event>
 6    1  0.9988873E-007  0.2017770E+04  0.7818608E-02  0.8598357E-01
         -1   -1    0    0    0  501 -0.00000000000E+00  0.00000000000E+00  0.78512452698E+03  0.78512452698E+03  0.00000000000E+00 0.  1.
          1   -1    0    0  501    0  0.00000000000E+00 -0.00000000000E+00 -0.12964175116E+04  0.12964175116E+04  0.00000000000E+00 0. -1.
         23    2    1    2    0    0  0.71522994674E+03  0.49494820381E+03 -0.77980687079E+03  0.11712523548E+04  0.84886523016E+02 0.  0.
         13    1    3    3    0    0  0.45931685123E+03  0.31042739062E+03 -0.44188745785E+03  0.70894404580E+03  0.00000000000E+00 0. -1.
        -13    1    3    3    0    0  0.25591309551E+03  0.18452081319E+03 -0.33791941294E+03  0.46230830903E+03  0.00000000000E+00 0.  1.
         22    1    1    2    0    0 -0.71522994674E+03 -0.49494820381E+03  0.26851388621E+03  0.91028968371E+03  0.00000000000E+00 0.  1.
<mgrwt>
<rscale>  0 0.20177702E+04</rscale>
<asrwt>0</asrwt>
<pdfrwt beam="1">  1        1 0.19944885E+00 0.20177702E+04</pdfrwt>
<pdfrwt beam="2">  1       -1 0.12078839E+00 0.20177702E+04</pdfrwt>
<totfact> 0.51346599E+00</totfact>
</mgrwt>
</event>
<event>
 6    1  0.9988873E-007  0.2351462E+04  0.7818608E-02  0.8457902E-01
          2   -1    0    0  501    0  0.00000000000E+00  0.00000000000E+00  0.20924379467E+04  0.20924379467E+04  0.00000000000E+00 0. -1.
         -2   -1    0    0    0  501 -0.00000000000E+00 -0.00000000000E+00 -0.66063762328E+03  0.66063762328E+03  0.00000000000E+00 0.  1.
         23    2    1    2    0    0  0.25923817882E+03 -0.23215918772E+03 -0.59563556826E+03  0.69599058955E+03  0.92297609793E+02 0.  0.
         13    1    3    3    0    0  0.15020356579E+03 -0.97924672049E+02 -0.37494274218E+03  0.41561089072E+03  0.00000000000E+00 0. -1.
        -13    1    3    3    0    0  0.10903461303E+03 -0.13423451567E+03 -0.22069282607E+03  0.28037969883E+03  0.00000000000E+00 0.  1.
         22    1    1    2    0    0 -0.25923817882E+03  0.23215918772E+03  0.20274358917E+04  0.20570849805E+04  0.00000000000E+00 0. -1.
<mgrwt>
<rscale>  0 0.23514619E+04</rscale>
<asrwt>0</asrwt>
<pdfrwt beam="1">  1        2 0.32191353E+00 0.23514619E+04</pdfrwt>
<pdfrwt beam="2">  1       -2 0.10163656E+00 0.23514619E+04</pdfrwt>
<totfact> 0.42564995E+00</totfact>
</mgrwt>
</event>
<event>
 6    1  0.9988873E-007  0.1432960E+04  0.7818608E-02  0.8930300E-01
          1   -1    0    0  501    0  0.00000000000E+00  0.00000000000E+00  0.40541634457E+03  0.40541634457E+03  0.00000000000E+00 0. -1.
         -1   -1    0    0    0  501 -0.00000000000E+00 -0.00000000000E+00 -0.12662125042E+04  0.12662125042E+04  0.00000000000E+00 0.  1.
         23    2    1    2    0    0  0.61147148765E+02 -0.58249311538E+03  0.44440074093E+02  0.59344062674E+03  0.84614738759E+02 0.  0.
         11    1    3    3    0    0  0.62033429291E+01 -0.42363284910E+03  0.32613138531E+02  0.42493162874E+03  0.00000000000E+00 0. -1.
        -11    1    3    3    0    0  0.54943805836E+02 -0.15886026628E+03  0.11826935562E+02  0.16850899800E+03  0.00000000000E+00 0.  1.
         22    1    1    2    0    0 -0.61147148765E+02  0.58249311538E+03 -0.90523623372E+03  0.10781882220E+04  0.00000000000E+00 0.  1.
<mgrwt>
<rscale>  0 0.14329595E+04</rscale>
<asrwt>0</asrwt>
<pdfrwt beam="1">  1        1 0.62371745E-01 0.14329595E+04</pdfrwt>
<pdfrwt beam="2">  1       -1 0.19480193E+00 0.14329595E+04</pdfrwt>
<totfact> 0.93710938E+00</totfact>
</mgrwt>
</event>
<event>
 6    1  0.9988873E-007  0.1722013E+04  0.7818608E-02  0.8748908E-01
          2   -1    0    0  501    0  0.00000000000E+00  0.00000000000E+00  0.11687987485E+04  0.11687987485E+04  0.00000000000E+00 0. -1.
         -2   -1    0    0    0  501 -0.00000000000E+00 -0.00000000000E+00 -0.63426882873E+03  0.63426882873E+03  0.00000000000E+00 0.  1.
         23    2    1    2    0    0  0.36195519198E+03 -0.74127656720E+03  0.51905848848E+03  0.97799674676E+03  0.80953147743E+02 0.  0.
         11    1    3    3    0    0  0.12557492019E+03 -0.19850155844E+03  0.11743846201E+03  0.26260944698E+03  0.00000000000E+00 0.  1.
        -11    1    3    3    0    0  0.23638027179E+03 -0.54277500876E+03  0.40162002646E+03  0.71538729978E+03  0.00000000000E+00 0. -1.
         22    1    1    2    0    0 -0.36195519198E+03  0.74127656720E+03  0.15471431279E+02  0.82507083045E+03  0.00000000000E+00 0. -1.
<mgrwt>
<rscale>  0 0.17220135E+04</rscale>
<asrwt>0</asrwt>
<pdfrwt beam="1">  1        2 0.17981519E+00 0.17220135E+04</pdfrwt>
<pdfrwt beam="2">  1       -2 0.97579820E-01 0.17220135E+04</pdfrwt>
<totfact> 0.16444910E+01</totfact>
</mgrwt>
</event>
<event>
 6    1  0.9988873E-007  0.2914316E+04  0.7818608E-02  0.8268631E-01
         -2   -1    0    0    0  501 -0.00000000000E+00  0.00000000000E+00  0.49834300320E+03  0.49834300320E+03  0.00000000000E+00 0.  1.
          2   -1    0    0  501    0  0.00000000000E+00 -0.00000000000E+00 -0.42607382927E+04  0.42607382927E+04  0.00000000000E+00 0. -1.
         23    2    1    2    0    0  0.35801623855E+03  0.44040219807E+03 -0.40721960019E+04  0.41124699717E+04  0.86598312301E+02 0.  0.
         13    1    3    3    0    0  0.32259106521E+03  0.35138463853E+03 -0.34890134702E+04  0.35214700275E+04  0.00000000000E+00 0. -1.
        -13    1    3    3    0    0  0.35425173331E+02  0.89017559547E+02 -0.58318253168E+03  0.59099994422E+03  0.00000000000E+00 0.  1.
         22    1    1    2    0    0 -0.35801623855E+03 -0.44040219807E+03  0.30980071238E+03  0.64661132415E+03  0.00000000000E+00 0.  1.
<mgrwt>
<rscale>  0 0.29143158E+04</rscale>
<asrwt>0</asrwt>
<pdfrwt beam="1">  1        2 0.65549820E+00 0.29143158E+04</pdfrwt>
<pdfrwt beam="2">  1       -2 0.76668155E-01 0.29143158E+04</pdfrwt>
<totfact> 0.26959957E-01</totfact>
</mgrwt>
</event>
<event>
 6    1  0.9988873E-007  0.4568427E+04  0.7818608E-02  0.7898766E-01
          2   -1    0    0  501    0  0.00000000000E+00  0.00000000000E+00  0.19607849628E+04  0.19607849628E+04  0.00000000000E+00 0. -1.
         -2   -1    0    0    0  501 -0.00000000000E+00 -0.00000000000E+00 -0.26609911004E+04  0.26609911004E+04  0.00000000000E+00 0.  1.
         23    2    1    2    0    0 -0.20985835205E+04  0.90851131265E+02  0.55540495757E+03  0.21745601056E+04  0.89052039066E+02 0.  0.
         11    1    3    3    0    0 -0.13822847538E+03  0.25399422248E+02  0.26043863358E+02  0.14293538706E+03  0.00000000000E+00 0. -1.
        -11    1    3    3    0    0 -0.19603550451E+04  0.65451709018E+02  0.52936109421E+03  0.20316247186E+04  0.00000000000E+00 0.  1.
         22    1    1    2    0    0  0.20985835205E+04 -0.90851131265E+02 -0.12556110952E+04  0.24472159576E+04  0.00000000000E+00 0.  1.
<mgrwt>
<rscale>  0 0.45684270E+04</rscale>
<asrwt>0</asrwt>
<pdfrwt beam="1">  1        2 0.30165923E+00 0.45684270E+04</pdfrwt>
<pdfrwt beam="2">  1       -2 0.40938324E+00 0.45684270E+04</pdfrwt>
<totfact> 0.34113123E-02</totfact>
</mgrwt>
</event>
<event>
 6    1  0.9988873E-007  0.5071853E+04  0.7818608E-02  0.7817518E-01
          1   -1    0    0  501    0  0.00000000000E+00  0.00000000000E+00  0.31155157241E+04  0.31155157241E+04  0.00000000000E+00 0. -1.
         -1   -1    0    0    0  501 -0.00000000000E+00 -0.00000000000E+00 -0.20641599783E+04  0.20641599783E+04  0.00000000000E+00 0.  1.
         23    2    1    2    0    0 -0.77995379425E+02 -0.20931656738E+04 -0.93267450896E+03  0.22945757268E+04  0.88148790438E+02 0.  0.
         13    1    3    3    0    0 -0.78173624936E+02 -0.17704271607E+04 -0.82069177228E+03  0.19529614518E+04  0.00000000000E+00 0.  1.
        -13    1    3    3    0    0  0.17824551103E+00 -0.32273851304E+03 -0.11198273668E+03  0.34161427500E+03  0.00000000000E+00 0. -1.
         22    1    1    2    0    0  0.77995379425E+02  0.20931656738E+04  0.19840302548E+04  0.28850999756E+04  0.00000000000E+00 0. -1.
<mgrwt>
<rscale>  0 0.50718529E+04</rscale>
<asrwt>0</asrwt>
<pdfrwt beam="1">  1        1 0.47931011E+00 0.50718529E+04</pdfrwt>
<pdfrwt beam="2">  1       -1 0.31756307E+00 0.50718529E+04</pdfrwt>
<totfact> 0.89552740E-03</totfact>
</mgrwt>
</event>
<event>
 6    1  0.9988873E-007  0.1480719E+04  0.7818608E-02  0.8897377E-01
          2   -1    0    0  501    0  0.00000000000E+00  0.00000000000E+00  0.83653399538E+03  0.83653399538E+03  0.00000000000E+00 0. -1.
         -2   -1    0    0    0  501 -0.00000000000E+00 -0.00000000000E+00 -0.65524210134E+03  0.65524210134E+03  0.00000000000E+00 0.  1.
         23    2    1    2    0    0  0.48670855085E+03  0.23706667905E+03  0.59538528095E+03  0.81019033038E+03  0.94015503498E+02 0.  0.
         11    1    3    3    0    0  0.33648978876E+03  0.11628109839E+03  0.36642834677E+03  0.51089764640E+03  0.00000000000E+00 0. -1.
        -11    1    3    3    0    0  0.15021876209E+03  0.12078558066E+03  0.22895693418E+03  0.29929268399E+03  0.00000000000E+00 0.  1.
         22    1    1    2    0    0 -0.48670855085E+03 -0.23706667905E+03 -0.41409338691E+03  0.68158576633E+03  0.00000000000E+00 0.  1.
<mgrwt>
<rscale>  0 0.14807191E+04</rscale>
<asrwt>0</asrwt>
<pdfrwt beam="1">  1        2 0.12869754E+00 0.14807191E+04</pdfrwt>
<pdfrwt beam="2">  1       -2 0.10080648E+00 0.14807191E+04</pdfrwt>
<totfact> 0.25439516E+01</totfact>
</mgrwt>
</event>
<event>
 6    1  0.9988873E-007  0.2138050E+04  0.7818608E-02  0.8544665E-01
          2   -1    0    0  501    0  0.00000000000E+00  0.00000000000E+00  0.21345306425E+04  0.21345306425E+04  0.00000000000E+00 0. -1.
         -2   -1    0    0    0  501 -0.00000000000E+00 -0.00000000000E+00 -0.53539362339E+03  0.53539362339E+03  0.00000000000E+00 0.  1.
         23    2    1    2    0    0  0.36087975969E+03  0.15352985734E+03  0.20403346938E+04  0.20796184078E+04  0.89674082911E+02 0.  0.
         13    1    3    3    0    0  0.57378640690E+02 -0.51002348342E+01  0.22446539697E+03  0.23173915345E+03  0.00000000000E+00 0. -1.
        -13    1    3    3    0    0  0.30350111900E+03  0.15863009218E+03  0.18158692968E+04  0.18478792543E+04  0.00000000000E+00 0.  1.
         22    1    1    2    0    0 -0.36087975969E+03 -0.15352985734E+03 -0.44119767465E+03  0.59030585815E+03  0.00000000000E+00 0.  1.
<mgrwt>
<rscale>  0 0.21380497E+04</rscale>
<asrwt>0</asrwt>
<pdfrwt beam="1">  1        2 0.32838933E+00 0.21380497E+04</pdfrwt>
<pdfrwt beam="2">  1       -2 0.82368251E-01 0.21380497E+04</pdfrwt>
<totfact> 0.66812353E+00</totfact>
</mgrwt>
</event>
<event>
 6    1  0.9988873E-007  0.4257486E+03  0.7818608E-02  0.1035211E+00
         -1   -1    0    0    0  501 -0.00000000000E+00  0.00000000000E+00  0.75522366663E+02  0.75522366663E+02  0.00000000000E+00 0.  1.
          1   -1    0    0  501    0  0.00000000000E+00 -0.00000000000E+00 -0.60002714883E+03  0.60002714883E+03  0.00000000000E+00 0. -1.
         23    2    1    2    0    0  0.19109205702E+03 -0.81039219907E+01 -0.38448174233E+03  0.43850880276E+03  0.88780133490E+02 0.  0.
         13    1    3    3    0    0  0.13661974065E+03 -0.41733567361E+02 -0.30214982331E+03  0.33421723460E+03  0.00000000000E+00 0.  1.
        -13    1    3    3    0    0  0.54472316369E+02  0.33629645370E+02 -0.82331919022E+02  0.10429156815E+03  0.00000000000E+00 0. -1.
         22    1    1    2    0    0 -0.19109205702E+03  0.81039219907E+01 -0.14002303984E+03  0.23704071274E+03  0.00000000000E+00 0.  1.
<mgrwt>
<rscale>  0 0.42574861E+03</rscale>
<asrwt>0</asrwt>
<pdfrwt beam="1">  1        1 0.92311870E-01 0.42574861E+03</pdfrwt>
<pdfrwt beam="2">  1       -1 0.11618825E-01 0.42574861E+03</pdfrwt>
<totfact> 0.17005744E+03</totfact>
</mgrwt>
</event>
<event>
 6    1  0.9988873E-007  0.1585587E+04  0.7818608E-02  0.8829452E-01
          2   -1    0    0  501    0  0.00000000000E+00  0.00000000000E+00  0.57255787650E+03  0.57255787650E+03  0.00000000000E+00 0. -1.
         -2   -1    0    0    0  501 -0.00000000000E+00 -0.00000000000E+00 -0.10977426285E+04  0.10977426285E+04  0.00000000000E+00 0.  1.
         23    2    1    2    0    0  0.36276688172E+03 -0.46408586046E+03  0.29127474756E+03  0.66353260187E+03  0.91973033136E+02 0.  0.
         13    1    3    3    0    0  0.16851189514E+03 -0.26262251957E+03  0.19308911774E+03  0.36694720871E+03  0.00000000000E+00 0. -1.
        -13    1    3    3    0    0  0.19425498657E+03 -0.20146334089E+03  0.98185629824E+02  0.29658539316E+03  0.00000000000E+00 0.  1.
         22    1    1    2    0    0 -0.36276688172E+03  0.46408586046E+03 -0.81645949952E+03  0.10067679031E+04  0.00000000000E+00 0.  1.
<mgrwt>
<rscale>  0 0.15855866E+04</rscale>
<asrwt>0</asrwt>
<pdfrwt beam="1">  1        2 0.88085829E-01 0.15855866E+04</pdfrwt>
<pdfrwt beam="2">  1       -2 0.16888348E+00 0.15855866E+04</pdfrwt>
<totfact> 0.10925114E+01</totfact>
</mgrwt>
</event>
<event>
 6    1  0.9988873E-007  0.2844728E+04  0.7818608E-02  0.8289515E-01
         -1   -1    0    0    0  501 -0.00000000000E+00  0.00000000000E+00  0.81006111366E+03  0.81006111366E+03  0.00000000000E+00 0.  1.
          1   -1    0    0  501    0  0.00000000000E+00 -0.00000000000E+00 -0.24974894798E+04  0.24974894798E+04  0.00000000000E+00 0. -1.
         23    2    1    2    0    0  0.13673417060E+04  0.42415675008E+02 -0.12910297442E+04  0.18832773409E+04  0.92484118564E+02 0.  0.
         11    1    3    3    0    0  0.79017915529E+03 -0.15114237311E+02 -0.71317177001E+03  0.10645306530E+04  0.00000000000E+00 0. -1.
        -11    1    3    3    0    0  0.57716255068E+03  0.57529912319E+02 -0.57785797416E+03  0.81874668795E+03  0.00000000000E+00 0.  1.
         22    1    1    2    0    0 -0.13673417060E+04 -0.42415675008E+02 -0.39639862198E+03  0.14242732525E+04  0.00000000000E+00 0. -1.
<mgrwt>
<rscale>  0 0.28447278E+04</rscale>
<asrwt>0</asrwt>
<pdfrwt beam="1">  1        1 0.38422914E+00 0.28447278E+04</pdfrwt>
<pdfrwt beam="2">  1       -1 0.12462479E+00 0.28447278E+04</pdfrwt>
<totfact> 0.66112763E-01</totfact>
</mgrwt>
</event>
<event>
 6    1  0.9988873E-007  0.2433971E+04  0.7818608E-02  0.8426894E-01
         -2   -1    0    0    0  501 -0.00000000000E+00  0.00000000000E+00  0.87646890478E+03  0.87646890478E+03  0.00000000000E+00 0.  1.
          2   -1    0    0  501    0  0.00000000000E+00 -0.00000000000E+00 -0.16897955169E+04  0.16897955169E+04  0.00000000000E+00 0. -1.
         23    2    1    2    0    0  0.66349311151E+03 -0.90347516874E+03 -0.90080301526E+03  0.14419234544E+04  0.10586163912E+03 0.  0.
         13    1    3    3    0    0  0.90343259016E+02 -0.14741380833E+03 -0.95734470825E+02  0.19763052456E+03  0.00000000000E+00 0. -1.
        -13    1    3    3    0    0  0.57314985250E+03 -0.75606136041E+03 -0.80506854444E+03  0.12442929299E+04  0.00000000000E+00 0.  1.
         22    1    1    2    0    0 -0.66349311151E+03  0.90347516874E+03  0.87476403116E+02  0.11243409673E+04  0.00000000000E+00 0.  1.
<mgrwt>
<rscale>  0 0.24339706E+04</rscale>
<asrwt>0</asrwt>
<pdfrwt beam="1">  1        2 0.25996854E+00 0.24339706E+04</pdfrwt>
<pdfrwt beam="2">  1       -2 0.13484137E+00 0.24339706E+04</pdfrwt>
<totfact> 0.35262100E+00</totfact>
</mgrwt>
</event>
<event>
 6    1  0.9988873E-007  0.3045229E+04  0.7818608E-02  0.8230932E-01
          2   -1    0    0  501    0  0.00000000000E+00  0.00000000000E+00  0.35218469335E+04  0.35218469335E+04  0.00000000000E+00 0. -1.
         -2   -1    0    0    0  501 -0.00000000000E+00 -0.00000000000E+00 -0.65827815151E+03  0.65827815151E+03  0.00000000000E+00 0.  1.
         23    2    1    2    0    0 -0.13933042291E+04 -0.60977248958E+03  0.13928830057E+04  0.20644606937E+04  0.93572030013E+02 0.  0.
         13    1    3    3    0    0 -0.72463685238E+03 -0.29641800918E+03  0.65882553873E+03  0.10232366757E+04  0.00000000000E+00 0. -1.
        -13    1    3    3    0    0 -0.66866737668E+03 -0.31335448041E+03  0.73405746692E+03  0.10412240181E+04  0.00000000000E+00 0.  1.
         22    1    1    2    0    0  0.13933042291E+04  0.60977248958E+03  0.14706857763E+04  0.21156643913E+04  0.00000000000E+00 0.  1.
<mgrwt>
<rscale>  0 0.30452290E+04</rscale>
<asrwt>0</asrwt>
<pdfrwt beam="1">  1        2 0.54182260E+00 0.30452290E+04</pdfrwt>
<pdfrwt beam="2">  1       -2 0.10127356E+00 0.30452290E+04</pdfrwt>
<totfact> 0.53592153E-01</totfact>
</mgrwt>
</event>
<event>
 6    1  0.9988873E-007  0.2827543E+04  0.7818608E-02  0.8294768E-01
         -2   -1    0    0    0  501 -0.00000000000E+00  0.00000000000E+00  0.89388465172E+03  0.89388465172E+03  0.00000000000E+00 0.  1.
          2   -1    0    0  501    0  0.00000000000E+00 -0.00000000000E+00 -0.22360268222E+04  0.22360268222E+04  0.00000000000E+00 0. -1.
         23    2    1    2    0    0  0.17474327527E+03  0.84617654020E+03  0.56486746902E+03  0.10362936209E+04  0.90990448121E+02 0.  0.
         13    1    3    3    0    0  0.59584633616E+02  0.43621168707E+03  0.24618551406E+03  0.50441874651E+03  0.00000000000E+00 0. -1.
        -13    1    3    3    0    0  0.11515864165E+03  0.40996485313E+03  0.31868195496E+03  0.53187487435E+03  0.00000000000E+00 0.  1.
         22    1    1    2    0    0 -0.17474327527E+03 -0.84617654020E+03 -0.19070096395E+04  0.20936178530E+04  0.00000000000E+00 0. -1.
<mgrwt>
<rscale>  0 0.28275431E+04</rscale>
<asrwt>0</asrwt>
<pdfrwt beam="1">  1        2 0.34400413E+00 0.28275431E+04</pdfrwt>
<pdfrwt beam="2">  1       -2 0.13752072E+00 0.28275431E+04</pdfrwt>
<totfact> 0.16094299E+00</totfact>
</mgrwt>
</event>
<event>
 6    1  0.9988873E-007  0.3787881E+04  0.7818608E-02  0.8048761E-01
         -2   -1    0    0    0  501 -0.00000000000E+00  0.00000000000E+00  0.16390826383E+04  0.16390826383E+04  0.00000000000E+00 0.  1.
          2   -1    0    0  501    0  0.00000000000E+00 -0.00000000000E+00 -0.21884252688E+04  0.21884252688E+04  0.00000000000E+00 0. -1.
         23    2    1    2    0    0 -0.36087598500E+03 -0.12015710558E+02 -0.21523459718E+04  0.21843415838E+04  0.91537527200E+02 0.  0.
         11    1    3    3    0    0 -0.27396155120E+03 -0.11375648733E+02 -0.13690880085E+04  0.13962758724E+04  0.00000000000E+00 0. -1.
        -11    1    3    3    0    0 -0.86914433794E+02 -0.64006182420E+00 -0.78325796330E+03  0.78806571144E+03  0.00000000000E+00 0.  1.
         22    1    1    2    0    0  0.36087598500E+03  0.12015710558E+02  0.16030033413E+04  0.16431663233E+04  0.00000000000E+00 0.  1.
<mgrwt>
<rscale>  0 0.37878806E+04</rscale>
<asrwt>0</asrwt>
<pdfrwt beam="1">  1        2 0.33668081E+00 0.37878806E+04</pdfrwt>
<pdfrwt beam="2">  1       -2 0.25216656E+00 0.37878806E+04</pdfrwt>
<totfact> 0.26220611E-01</totfact>
</mgrwt>
</event>
<event>
 6    1  0.9988873E-007  0.5471987E+04  0.7818608E-02  0.7759556E-01
         -2   -1    0    0    0  501 -0.00000000000E+00  0.00000000000E+00  0.29440376141E+04  0.29440376141E+04  0.00000000000E+00 0.  1.
          2   -1    0    0  501    0  0.00000000000E+00 -0.00000000000E+00 -0.25426508931E+04  0.25426508931E+04  0.00000000000E+00 0. -1.
         23    2    1    2    0    0 -0.93387856405E+03  0.19795279513E+04  0.18454106402E+04  0.28645014122E+04  0.95748768247E+02 0.  0.
         11    1    3    3    0    0 -0.45165385211E+03  0.93854426571E+03  0.93986918625E+03  0.14029293026E+04  0.00000000000E+00 0.  1.
        -11    1    3    3    0    0 -0.48222471194E+03  0.10409836856E+04  0.90554145397E+03  0.14615721096E+04  0.00000000000E+00 0. -1.
         22    1    1    2    0    0  0.93387856405E+03 -0.19795279513E+04 -0.14440239192E+04  0.26221870951E+04  0.00000000000E+00 0. -1.
<mgrwt>
<rscale>  0 0.54719868E+04</rscale>
<asrwt>0</asrwt>
<pdfrwt beam="1">  1        2 0.39117706E+00 0.54719868E+04</pdfrwt>
<pdfrwt beam="2">  1       -2 0.45292886E+00 0.54719868E+04</pdfrwt>
<totfact> 0.76861813E-03</totfact>
</mgrwt>
</event>
<event>
 6    1  0.9988873E-007  0.4335634E+04  0.7818608E-02  0.7940062E-01
          2   -1    0    0  501    0  0.00000000000E+00  0.00000000000E+00  0.38980102861E+04  0.38980102861E+04  0.00000000000E+00 0. -1.
         -2   -1    0    0    0  501 -0.00000000000E+00 -0.00000000000E+00 -0.12055971987E+04  0.12055971987E+04  0.00000000000E+00 0.  1.
         23    2    1    2    0    0  0.51013266846E+03  0.20033255345E+04  0.21111293965E+04  0.29561812892E+04  0.92692768343E+02 0.  0.
         11    1    3    3    0    0  0.34978571092E+03  0.15262191309E+04  0.16157030123E+04  0.22499313552E+04  0.00000000000E+00 0.  1.
        -11    1    3    3    0    0  0.16034695754E+03  0.47710640357E+03  0.49542638414E+03  0.70624993396E+03  0.00000000000E+00 0. -1.
         22    1    1    2    0    0 -0.51013266846E+03 -0.20033255345E+04  0.58128369085E+03  0.21474261956E+04  0.00000000000E+00 0.  1.
<mgrwt>
<rscale>  0 0.43356339E+04</rscale>
<asrwt>0</asrwt>
<pdfrwt beam="1">  1        2 0.59969388E+00 0.43356339E+04</pdfrwt>
<pdfrwt beam="2">  1       -2 0.18547649E+00 0.43356339E+04</pdfrwt>
<totfact> 0.52494842E-02</totfact>
</mgrwt>
</event>
<event>
 6    1  0.9988873E-007  0.1925375E+04  0.7818608E-02  0.8642327E-01
         -1   -1    0    0    0  501 -0.00000000000E+00  0.00000000000E+00  0.85181341696E+03  0.85181341696E+03  0.00000000000E+00 0.  1.
          1   -1    0    0  501    0  0.00000000000E+00 -0.00000000000E+00 -0.10879937549E+04  0.10879937549E+04  0.00000000000E+00 0. -1.
         23    2    1    2    0    0 -0.16301370240E+02  0.61895308065E+03  0.62141319481E+03  0.88205705103E+03  0.92204294219E+02 0.  0.
         11    1    3    3    0    0 -0.45381936641E+02  0.17943977688E+03  0.19898482858E+03  0.27175929737E+03  0.00000000000E+00 0.  1.
        -11    1    3    3    0    0  0.29080566401E+02  0.43951330377E+03  0.42242836623E+03  0.61029775366E+03  0.00000000000E+00 0. -1.
         22    1    1    2    0    0  0.16301370240E+02 -0.61895308065E+03 -0.85759353279E+03  0.10577501209E+04  0.00000000000E+00 0. -1.
<mgrwt>
<rscale>  0 0.19253755E+04</rscale>
<asrwt>0</asrwt>
<pdfrwt beam="1">  1        1 0.16738365E+00 0.19253755E+04</pdfrwt>
<pdfrwt beam="2">  1       -1 0.13104822E+00 0.19253755E+04</pdfrwt>
<totfact> 0.60069536E+00</totfact>
</mgrwt>
</event>
<event>
 6    1  0.1314668E-006  0.3047900E+04  0.7818608E-02  0.8230184E-01
          2   -1    0    0  501    0  0.00000000000E+00  0.00000000000E+00  0.13216069335E+04  0.13216069335E+04  0.00000000000E+00 0. -1.
         -2   -1    0    0    0  501 -0.00000000000E+00 -0.00000000000E+00 -0.17572724738E+04  0.17572724738E+04  0.00000000000E+00 0.  1.
         23    2    1    2    0    0 -0.23508194990E+03  0.63531383291E+03  0.11594423221E+04  0.13458888469E+04  0.90681312309E+02 0.  0.
         11    1    3    3    0    0 -0.12440999358E+03  0.36441897865E+03  0.74381207003E+03  0.83757712124E+03  0.00000000000E+00 0. -1.
        -11    1    3    3    0    0 -0.11067195632E+03  0.27089485426E+03  0.41563025210E+03  0.50831172566E+03  0.00000000000E+00 0.  1.
         22    1    1    2    0    0  0.23508194990E+03 -0.63531383291E+03 -0.15951078625E+04  0.17329905604E+04  0.00000000000E+00 0.  1.
<mgrwt>
<rscale>  0 0.30478999E+04</rscale>
<asrwt>0</asrwt>
<pdfrwt beam="1">  1        2 0.20332414E+00 0.30478999E+04</pdfrwt>
<pdfrwt beam="2">  1       -2 0.27034961E+00 0.30478999E+04</pdfrwt>
<totfact> 0.66038623E-01</totfact>
</mgrwt>
</event>
<event>
 6    1  0.9988873E-007  0.2784340E+04  0.7818608E-02  0.8308147E-01
          2   -1    0    0  501    0  0.00000000000E+00  0.00000000000E+00  0.97459984141E+03  0.97459984141E+03  0.00000000000E+00 0. -1.
         -2   -1    0    0    0  501 -0.00000000000E+00 -0.00000000000E+00 -0.19886486767E+04  0.19886486767E+04  0.00000000000E+00 0.  1.
         23    2    1    2    0    0 -0.10488640496E+04 -0.61683271902E+03 -0.12242689838E+04  0.17284242761E+04  0.89540694576E+02 0.  0.
         11    1    3    3    0    0 -0.49719830693E+03 -0.25295530895E+03 -0.60141789582E+03  0.82030240165E+03  0.00000000000E+00 0. -1.
        -11    1    3    3    0    0 -0.55166574267E+03 -0.36387741006E+03 -0.62285108794E+03  0.90812187449E+03  0.00000000000E+00 0.  1.
         22    1    1    2    0    0  0.10488640496E+04  0.61683271902E+03  0.21022014845E+03  0.12348242420E+04  0.00000000000E+00 0. -1.
<mgrwt>
<rscale>  0 0.27843396E+04</rscale>
<asrwt>0</asrwt>
<pdfrwt beam="1">  1        2 0.14993844E+00 0.27843396E+04</pdfrwt>
<pdfrwt beam="2">  1       -2 0.30594595E+00 0.27843396E+04</pdfrwt>
<totfact> 0.66610741E-01</totfact>
</mgrwt>
</event>
<event>
 6    1  0.9988873E-007  0.1123925E+04  0.7818608E-02  0.9182182E-01
          2   -1    0    0  501    0  0.00000000000E+00  0.00000000000E+00  0.56864967200E+03  0.56864967200E+03  0.00000000000E+00 0. -1.
         -2   -1    0    0    0  501 -0.00000000000E+00 -0.00000000000E+00 -0.55535376111E+03  0.55535376111E+03  0.00000000000E+00 0.  1.
         23    2    1    2    0    0  0.43247288190E+03 -0.39290895068E+02 -0.34408845803E+03  0.56159774754E+03  0.91752902325E+02 0.  0.
         11    1    3    3    0    0  0.12868044823E+03 -0.18753555608E+02 -0.53220687294E+02  0.14050905722E+03  0.00000000000E+00 0.  1.
        -11    1    3    3    0    0  0.30379243366E+03 -0.20537339460E+02 -0.29086777074E+03  0.42108869032E+03  0.00000000000E+00 0. -1.
         22    1    1    2    0    0 -0.43247288190E+03  0.39290895068E+02  0.35738436892E+03  0.56240568557E+03  0.00000000000E+00 0. -1.
<mgrwt>
<rscale>  0 0.11239248E+04</rscale>
<asrwt>0</asrwt>
<pdfrwt beam="1">  1        2 0.87484565E-01 0.11239248E+04</pdfrwt>
<pdfrwt beam="2">  1       -2 0.85439040E-01 0.11239248E+04</pdfrwt>
<totfact> 0.62498593E+01</totfact>
</mgrwt>
</event>
<event>
 6    1  0.9988873E-007  0.3078508E+04  0.7818608E-02  0.8221661E-01
          2   -1    0    0  501    0  0.00000000000E+00  0.00000000000E+00  0.33214382222E+04  0.33214382222E+04  0.00000000000E+00 0. -1.
         -2   -1    0    0    0  501 -0.00000000000E+00 -0.00000000000E+00 -0.71333638119E+03  0.71333638119E+03  0.00000000000E+00 0.  1.
         23    2    1    2    0    0  0.57112547862E+03  0.17860801871E+03  0.31619414846E+04  0.32194075158E+04  0.92874454856E+02 0.  0.
         11    1    3    3    0    0  0.21342633334E+03  0.10944107224E+03  0.13634683782E+04  0.13844039029E+04  0.00000000000E+00 0. -1.
        -11    1    3    3    0    0  0.35769914528E+03  0.69166946468E+02  0.17984731064E+04  0.18350036129E+04  0.00000000000E+00 0.  1.
         22    1    1    2    0    0 -0.57112547862E+03 -0.17860801871E+03 -0.55383964358E+03  0.81536708756E+03  0.00000000000E+00 0.  1.
<mgrwt>
<rscale>  0 0.30785079E+04</rscale>
<asrwt>0</asrwt>
<pdfrwt beam="1">  1        2 0.51099049E+00 0.30785079E+04</pdfrwt>
<pdfrwt beam="2">  1       -2 0.10974406E+00 0.30785079E+04</pdfrwt>
<totfact> 0.60505523E-01</totfact>
</mgrwt>
</event>
<event>
 6    1  0.9988873E-007  0.2322240E+04  0.7818608E-02  0.8469203E-01
         -2   -1    0    0    0  501 -0.00000000000E+00  0.00000000000E+00  0.10041068269E+04  0.10041068269E+04  0.00000000000E+00 0.  1.
          2   -1    0    0  501    0  0.00000000000E+00 -0.00000000000E+00 -0.13426855180E+04  0.13426855180E+04  0.00000000000E+00 0. -1.
         23    2    1    2    0    0 -0.47355117764E+03  0.48653174697E+03  0.78020598205E+03  0.10381124744E+04  0.89399532868E+02 0.  0.
         13    1    3    3    0    0 -0.68262728738E+02  0.79350767485E+02  0.17296942528E+03  0.20217508876E+03  0.00000000000E+00 0. -1.
        -13    1    3    3    0    0 -0.40528844890E+03  0.40718097949E+03  0.60723655677E+03  0.83593738566E+03  0.00000000000E+00 0.  1.
         22    1    1    2    0    0  0.47355117764E+03 -0.48653174697E+03 -0.11187846731E+04  0.13086798705E+04  0.00000000000E+00 0. -1.
<mgrwt>
<rscale>  0 0.23222400E+04</rscale>
<asrwt>0</asrwt>
<pdfrwt beam="1">  1        2 0.20656700E+00 0.23222400E+04</pdfrwt>
<pdfrwt beam="2">  1       -2 0.15447797E+00 0.23222400E+04</pdfrwt>
<totfact> 0.39146743E+00</totfact>
</mgrwt>
</event>
<event>
 6    1  0.9988873E-007  0.1842787E+04  0.7818608E-02  0.8683871E-01
         -2   -1    0    0    0  501 -0.00000000000E+00  0.00000000000E+00  0.94938223651E+03  0.94938223651E+03  0.00000000000E+00 0.  1.
          2   -1    0    0  501    0  0.00000000000E+00 -0.00000000000E+00 -0.89422992333E+03  0.89422992333E+03  0.00000000000E+00 0. -1.
         23    2    1    2    0    0 -0.26952992289E+03  0.30226175679E+03 -0.79781922180E+03  0.89938285059E+03  0.91462846647E+02 0.  0.
         11    1    3    3    0    0 -0.17255748909E+03  0.12754445067E+03 -0.38557338094E+03  0.44126013419E+03  0.00000000000E+00 0. -1.
        -11    1    3    3    0    0 -0.96972433793E+02  0.17471730613E+03 -0.41224584086E+03  0.45812271640E+03  0.00000000000E+00 0.  1.
         22    1    1    2    0    0  0.26952992289E+03 -0.30226175679E+03  0.85297153498E+03  0.94422930924E+03  0.00000000000E+00 0.  1.
<mgrwt>
<rscale>  0 0.18427870E+04</rscale>
<asrwt>0</asrwt>
<pdfrwt beam="1">  1        2 0.13757383E+00 0.18427870E+04</pdfrwt>
<pdfrwt beam="2">  1       -2 0.14605881E+00 0.18427870E+04</pdfrwt>
<totfact> 0.89467240E+00</totfact>
</mgrwt>
</event>
<event>
 6    1  0.9988873E-007  0.1122753E+04  0.7818608E-02  0.9183295E-01
          1   -1    0    0  501    0  0.00000000000E+00  0.00000000000E+00  0.22074811925E+04  0.22074811925E+04  0.00000000000E+00 0. -1.
         -1   -1    0    0    0  501 -0.00000000000E+00 -0.00000000000E+00 -0.14276162202E+03  0.14276162202E+03  0.00000000000E+00 0.  1.
         23    2    1    2    0    0 -0.80358324525E+02  0.51866528931E+03  0.64668788663E+03  0.83819618857E+03  0.94321180943E+02 0.  0.
         11    1    3    3    0    0 -0.11822387243E+02  0.34630553882E+03  0.39321097349E+03  0.52410129243E+03  0.00000000000E+00 0.  1.
        -11    1    3    3    0    0 -0.68535937282E+02  0.17235975049E+03  0.25347691314E+03  0.31409489614E+03  0.00000000000E+00 0. -1.
         22    1    1    2    0    0  0.80358324525E+02 -0.51866528931E+03  0.14180316839E+04  0.15120466260E+04  0.00000000000E+00 0. -1.
<mgrwt>
<rscale>  0 0.11227530E+04</rscale>
<asrwt>0</asrwt>
<pdfrwt beam="1">  1        1 0.33961247E+00 0.11227530E+04</pdfrwt>
<pdfrwt beam="2">  1       -1 0.21963328E-01 0.11227530E+04</pdfrwt>
<totfact> 0.37598679E+01</totfact>
</mgrwt>
</event>
<event>
 6    1  0.9988873E-007  0.2190724E+04  0.7818608E-02  0.8522299E-01
         -1   -1    0    0    0  501 -0.00000000000E+00  0.00000000000E+00  0.58467227373E+03  0.58467227373E+03  0.00000000000E+00 0.  1.
          1   -1    0    0  501    0  0.00000000000E+00 -0.00000000000E+00 -0.20521201002E+04  0.20521201002E+04  0.00000000000E+00 0. -1.
         23    2    1    2    0    0  0.80544428577E+03  0.19936636487E+03 -0.15920889182E+04  0.17977316809E+04  0.92761133522E+02 0.  0.
         13    1    3    3    0    0  0.53875744659E+03  0.11881897513E+03 -0.96566281813E+03  0.11121520640E+04  0.00000000000E+00 0. -1.
        -13    1    3    3    0    0  0.26668683918E+03  0.80547389740E+02 -0.62642610011E+03  0.68557961689E+03  0.00000000000E+00 0.  1.
         22    1    1    2    0    0 -0.80544428577E+03 -0.19936636487E+03  0.12464109175E+03  0.83906069308E+03  0.00000000000E+00 0. -1.
<mgrwt>
<rscale>  0 0.21907238E+04</rscale>
<asrwt>0</asrwt>
<pdfrwt beam="1">  1        1 0.31571079E+00 0.21907238E+04</pdfrwt>
<pdfrwt beam="2">  1       -1 0.89949579E-01 0.21907238E+04</pdfrwt>
<totfact> 0.30307161E+00</totfact>
</mgrwt>
</event>
<event>
 6    1  0.9988873E-007  0.4477190E+04  0.7818608E-02  0.7914642E-01
          2   -1    0    0  501    0  0.00000000000E+00  0.00000000000E+00  0.31924263198E+04  0.31924263198E+04  0.00000000000E+00 0. -1.
         -2   -1    0    0    0  501 -0.00000000000E+00 -0.00000000000E+00 -0.15697487057E+04  0.15697487057E+04  0.00000000000E+00 0.  1.
         23    2    1    2    0    0 -0.76688216444E+03  0.14730402466E+04  0.24069244331E+04  0.29256024308E+04  0.88929939615E+02 0.  0.
         11    1    3    3    0    0 -0.68667261360E+03  0.13550800126E+04  0.21661659090E+04  0.26457580888E+04  0.00000000000E+00 0.  1.
        -11    1    3    3    0    0 -0.80209550834E+02  0.11796023399E+03  0.24075852409E+03  0.27984434204E+03  0.00000000000E+00 0. -1.
         22    1    1    2    0    0  0.76688216444E+03 -0.14730402466E+04 -0.78424681901E+03  0.18365725947E+04  0.00000000000E+00 0.  1.
<mgrwt>
<rscale>  0 0.44771898E+04</rscale>
<asrwt>0</asrwt>
<pdfrwt beam="1">  1        2 0.49114251E+00 0.44771898E+04</pdfrwt>
<pdfrwt beam="2">  1       -2 0.24149980E+00 0.44771898E+04</pdfrwt>
<totfact> 0.72123267E-02</totfact>
</mgrwt>
</event>
<event>
 6    1  0.9988873E-007  0.1277116E+04  0.7818608E-02  0.9047912E-01
          2   -1    0    0  501    0  0.00000000000E+00  0.00000000000E+00  0.58169569340E+03  0.58169569340E+03  0.00000000000E+00 0. -1.
         -2   -1    0    0    0  501 -0.00000000000E+00 -0.00000000000E+00 -0.70097875016E+03  0.70097875016E+03  0.00000000000E+00 0.  1.
         23    2    1    2    0    0 -0.39651700262E+03  0.49516890155E+03 -0.24735417014E+02  0.64130307640E+03  0.90773457081E+02 0.  0.
         11    1    3    3    0    0 -0.46819649364E+02  0.11273444171E+03  0.56449983510E+01  0.12220065434E+03  0.00000000000E+00 0. -1.
        -11    1    3    3    0    0 -0.34969735326E+03  0.38243445984E+03 -0.30380415365E+02  0.51910242206E+03  0.00000000000E+00 0.  1.
         22    1    1    2    0    0  0.39651700262E+03 -0.49516890155E+03 -0.94547639741E+02  0.64137136716E+03  0.00000000000E+00 0.  1.
<mgrwt>
<rscale>  0 0.12771160E+04</rscale>
<asrwt>0</asrwt>
<pdfrwt beam="1">  1        2 0.89491645E-01 0.12771160E+04</pdfrwt>
<pdfrwt beam="2">  1       -2 0.10784289E+00 0.12771160E+04</pdfrwt>
<totfact> 0.34841519E+01</totfact>
</mgrwt>
</event>
<event>
 6    1  0.9988873E-007  0.3124986E+04  0.7818608E-02  0.8208914E-01
         -1   -1    0    0    0  501 -0.00000000000E+00  0.00000000000E+00  0.15927389367E+04  0.15927389367E+04  0.00000000000E+00 0.  1.
          1   -1    0    0  501    0  0.00000000000E+00 -0.00000000000E+00 -0.15328217550E+04  0.15328217550E+04  0.00000000000E+00 0. -1.
         23    2    1    2    0    0 -0.11044161564E+04  0.52382913019E+03 -0.94124619277E+03  0.15455416708E+04  0.92858260877E+02 0.  0.
         11    1    3    3    0    0 -0.51156480128E+03  0.21775479085E+03 -0.37707949561E+03  0.67179211133E+03  0.00000000000E+00 0.  1.
        -11    1    3    3    0    0 -0.59285135512E+03  0.30607433935E+03 -0.56416669716E+03  0.87374955946E+03  0.00000000000E+00 0. -1.
         22    1    1    2    0    0  0.11044161564E+04 -0.52382913019E+03  0.10011633745E+04  0.15800190209E+04  0.00000000000E+00 0.  1.
<mgrwt>
<rscale>  0 0.31249863E+04</rscale>
<asrwt>0</asrwt>
<pdfrwt beam="1">  1        1 0.23581873E+00 0.31249863E+04</pdfrwt>
<pdfrwt beam="2">  1       -1 0.24503676E+00 0.31249863E+04</pdfrwt>
<totfact> 0.39274714E-01</totfact>
</mgrwt>
</event>
<event>
 6    1  0.9988873E-007  0.2658872E+04  0.7818608E-02  0.8348474E-01
         -2   -1    0    0    0  501 -0.00000000000E+00  0.00000000000E+00  0.46529145554E+03  0.46529145554E+03  0.00000000000E+00 0.  1.
          2   -1    0    0  501    0  0.00000000000E+00 -0.00000000000E+00 -0.37984781306E+04  0.37984781306E+04  0.00000000000E+00 0. -1.
         23    2    1    2    0    0 -0.44613829398E+03  0.10200435348E+04 -0.28292611964E+04  0.30416938610E+04  0.87489633180E+02 0.  0.
         11    1    3    3    0    0 -0.22649971239E+03  0.42870256880E+03 -0.11629821333E+04  0.12600061327E+04  0.00000000000E+00 0.  1.
        -11    1    3    3    0    0 -0.21963858160E+03  0.59134096595E+03 -0.16662790632E+04  0.17816877282E+04  0.00000000000E+00 0. -1.
         22    1    1    2    0    0  0.44613829398E+03 -0.10200435348E+04 -0.50392547866E+03  0.12220757252E+04  0.00000000000E+00 0.  1.
<mgrwt>
<rscale>  0 0.26588715E+04</rscale>
<asrwt>0</asrwt>
<pdfrwt beam="1">  1        2 0.58438125E+00 0.26588715E+04</pdfrwt>
<pdfrwt beam="2">  1       -2 0.71583301E-01 0.26588715E+04</pdfrwt>
<totfact> 0.76812819E-01</totfact>
</mgrwt>
</event>
<event>
 6    1  0.9988873E-007  0.3680007E+04  0.7818608E-02  0.8072407E-01
         -2   -1    0    0    0  501 -0.00000000000E+00  0.00000000000E+00  0.11495986839E+04  0.11495986839E+04  0.00000000000E+00 0.  1.
          2   -1    0    0  501    0  0.00000000000E+00 -0.00000000000E+00 -0.29450389740E+04  0.29450389740E+04  0.00000000000E+00 0. -1.
         23    2    1    2    0    0  0.49665088981E+03 -0.78727289377E+02 -0.28663738010E+04  0.29115236831E+04  0.89505854006E+02 0.  0.
         13    1    3    3    0    0  0.41370949693E+03 -0.38328272784E+02 -0.22124553390E+04  0.22511293235E+04  0.00000000000E+00 0.  1.
        -13    1    3    3    0    0  0.82941392872E+02 -0.40399016593E+02 -0.65391846201E+03  0.66039435957E+03  0.00000000000E+00 0. -1.
         22    1    1    2    0    0 -0.49665088981E+03  0.78727289377E+02  0.10709335110E+04  0.11831139748E+04  0.00000000000E+00 0.  1.
<mgrwt>
<rscale>  0 0.36800070E+04</rscale>
<asrwt>0</asrwt>
<pdfrwt beam="1">  1        2 0.45308291E+00 0.36800070E+04</pdfrwt>
<pdfrwt beam="2">  1       -2 0.17686134E+00 0.36800070E+04</pdfrwt>
<totfact> 0.29073574E-01</totfact>
</mgrwt>
</event>
<event>
 6    1  0.9988873E-007  0.3864793E+04  0.7818608E-02  0.8032392E-01
         -2   -1    0    0    0  501 -0.00000000000E+00  0.00000000000E+00  0.20973567968E+04  0.20973567968E+04  0.00000000000E+00 0.  1.
          2   -1    0    0  501    0  0.00000000000E+00 -0.00000000000E+00 -0.17804103854E+04  0.17804103854E+04  0.00000000000E+00 0. -1.
         23    2    1    2    0    0  0.12902836300E+04  0.14364288548E+04  0.20358627559E+03  0.19435980528E+04  0.89254234970E+02 0.  0.
         13    1    3    3    0    0  0.61668560995E+03  0.71659455987E+03  0.13972582804E+03  0.95568415901E+03  0.00000000000E+00 0. -1.
        -13    1    3    3    0    0  0.67359802005E+03  0.71983429493E+03  0.63860447550E+02  0.98791389378E+03  0.00000000000E+00 0.  1.
         22    1    1    2    0    0 -0.12902836300E+04 -0.14364288548E+04  0.11336013581E+03  0.19341691294E+04  0.00000000000E+00 0.  1.
<mgrwt>
<rscale>  0 0.38647928E+04</rscale>
<asrwt>0</asrwt>
<pdfrwt beam="1">  1        2 0.27390929E+00 0.38647928E+04</pdfrwt>
<pdfrwt beam="2">  1       -2 0.32267028E+00 0.38647928E+04</pdfrwt>
<totfact> 0.16263869E-01</totfact>
</mgrwt>
</event>
<event>
 6    1  0.9988873E-007  0.8610496E+03  0.7818608E-02  0.9475625E-01
          1   -1    0    0  501    0  0.00000000000E+00  0.00000000000E+00  0.48846783286E+03  0.48846783286E+03  0.00000000000E+00 0. -1.
         -1   -1    0    0    0  501 -0.00000000000E+00 -0.00000000000E+00 -0.37945510740E+03  0.37945510740E+03  0.00000000000E+00 0.  1.
         23    2    1    2    0    0 -0.13793198779E+03  0.44122094262E+02 -0.34830878523E+03  0.38821995235E+03  0.91780875315E+02 0.  0.
         13    1    3    3    0    0 -0.92003496813E+02  0.76088007773E+01 -0.29441975988E+03  0.30855393740E+03  0.00000000000E+00 0. -1.
        -13    1    3    3    0    0 -0.45928490981E+02  0.36513293485E+02 -0.53889025348E+02  0.79666014949E+02  0.00000000000E+00 0.  1.
         22    1    1    2    0    0  0.13793198779E+03 -0.44122094262E+02  0.45732151070E+03  0.47970298791E+03  0.00000000000E+00 0. -1.
<mgrwt>
<rscale>  0 0.86104962E+03</rscale>
<asrwt>0</asrwt>
<pdfrwt beam="1">  1        1 0.75148897E-01 0.86104962E+03</pdfrwt>
<pdfrwt beam="2">  1       -1 0.58377709E-01 0.86104962E+03</pdfrwt>
<totfact> 0.13742627E+02</totfact>
</mgrwt>
</event>
<event>
 6    1  0.9988873E-007  0.1143810E+04  0.7818608E-02  0.9163513E-01
          2   -1    0    0  501    0  0.00000000000E+00  0.00000000000E+00  0.15088114913E+04  0.15088114913E+04  0.00000000000E+00 0. -1.
         -2   -1    0    0    0  501 -0.00000000000E+00 -0.00000000000E+00 -0.21677681213E+03  0.21677681213E+03  0.00000000000E+00 0.  1.
         23    2    1    2    0    0 -0.22616107224E+03 -0.34283715759E+03  0.12430021092E+04  0.13119576226E+04  0.86558724134E+02 0.  0.
         11    1    3    3    0    0 -0.17070764790E+03 -0.30275461487E+03  0.96580997316E+03  0.10264454989E+04  0.00000000000E+00 0.  1.
        -11    1    3    3    0    0 -0.55453424343E+02 -0.40082542719E+02  0.27719213609E+03  0.28551212375E+03  0.00000000000E+00 0. -1.
         22    1    1    2    0    0  0.22616107224E+03  0.34283715759E+03  0.49032569942E+02  0.41363068084E+03  0.00000000000E+00 0.  1.
<mgrwt>
<rscale>  0 0.11438100E+04</rscale>
<asrwt>0</asrwt>
<pdfrwt beam="1">  1        2 0.23212484E+00 0.11438100E+04</pdfrwt>
<pdfrwt beam="2">  1       -2 0.33350280E-01 0.11438100E+04</pdfrwt>
<totfact> 0.10431614E+02</totfact>
</mgrwt>
</event>
<event>
 6    1  0.9988873E-007  0.2486656E+04  0.7818608E-02  0.8407755E-01
          2   -1    0    0  501    0  0.00000000000E+00  0.00000000000E+00  0.10150125486E+04  0.10150125486E+04  0.00000000000E+00 0. -1.
         -2   -1    0    0    0  501 -0.00000000000E+00 -0.00000000000E+00 -0.15229999635E+04  0.15229999635E+04  0.00000000000E+00 0.  1.
         23    2    1    2    0    0 -0.90109480868E+03 -0.24356558088E+03  0.58131649926E+03  0.11034815561E+04  0.91905526915E+02 0.  0.
         13    1    3    3    0    0 -0.59554324086E+03 -0.17700869140E+03  0.33818946944E+03  0.70737256507E+03  0.00000000000E+00 0. -1.
        -13    1    3    3    0    0 -0.30555156781E+03 -0.66556889478E+02  0.24312702982E+03  0.39610899101E+03  0.00000000000E+00 0.  1.
         22    1    1    2    0    0  0.90109480868E+03  0.24356558088E+03 -0.10893039142E+04  0.14345309561E+04  0.00000000000E+00 0.  1.
<mgrwt>
<rscale>  0 0.24866556E+04</rscale>
<asrwt>0</asrwt>
<pdfrwt beam="1">  1        2 0.15615578E+00 0.24866556E+04</pdfrwt>
<pdfrwt beam="2">  1       -2 0.23430769E+00 0.24866556E+04</pdfrwt>
<totfact> 0.17674033E+00</totfact>
</mgrwt>
</event>
<event>
 6    1  0.9988873E-007  0.1053208E+04  0.7818608E-02  0.9252038E-01
          1   -1    0    0  501    0  0.00000000000E+00  0.00000000000E+00  0.95955785782E+03  0.95955785782E+03  0.00000000000E+00 0. -1.
         -1   -1    0    0    0  501 -0.00000000000E+00 -0.00000000000E+00 -0.28899977414E+03  0.28899977414E+03  0.00000000000E+00 0.  1.
         23    2    1    2    0    0  0.36147145425E+03 -0.36054919101E+03  0.20437389789E+03  0.55719302016E+03  0.89655118135E+02 0.  0.
         11    1    3    3    0    0  0.23691405472E+03 -0.27047874358E+03  0.17808494259E+03  0.40124963157E+03  0.00000000000E+00 0. -1.
        -11    1    3    3    0    0  0.12455739952E+03 -0.90070447421E+02  0.26288955295E+02  0.15594338859E+03  0.00000000000E+00 0.  1.
         22    1    1    2    0    0 -0.36147145425E+03  0.36054919101E+03  0.46618418579E+03  0.69136461180E+03  0.00000000000E+00 0. -1.
<mgrwt>
<rscale>  0 0.10532084E+04</rscale>
<asrwt>0</asrwt>
<pdfrwt beam="1">  1        1 0.14762428E+00 0.10532084E+04</pdfrwt>
<pdfrwt beam="2">  1       -1 0.44461504E-01 0.10532084E+04</pdfrwt>
<totfact> 0.81474787E+01</totfact>
</mgrwt>
</event>
<event>
 6    1  0.9988873E-007  0.9120762E+03  0.7818608E-02  0.9410610E-01
          2   -1    0    0  501    0  0.00000000000E+00  0.00000000000E+00  0.90575094811E+03  0.90575094811E+03  0.00000000000E+00 0. -1.
         -2   -1    0    0    0  501 -0.00000000000E+00 -0.00000000000E+00 -0.22961141901E+03  0.22961141901E+03  0.00000000000E+00 0.  1.
         23    2    1    2    0    0 -0.35916360874E+03  0.59838592077E+02  0.67328234974E+03  0.77123695134E+03  0.94435997894E+02 0.  0.
         13    1    3    3    0    0 -0.48412270450E+02  0.43119310684E+02  0.10857747456E+03  0.12645983894E+03  0.00000000000E+00 0. -1.
        -13    1    3    3    0    0 -0.31075133829E+03  0.16719281393E+02  0.56470487518E+03  0.64477711240E+03  0.00000000000E+00 0.  1.
         22    1    1    2    0    0  0.35916360874E+03 -0.59838592077E+02  0.28571793520E+01  0.36412541578E+03  0.00000000000E+00 0.  1.
<mgrwt>
<rscale>  0 0.91207623E+03</rscale>
<asrwt>0</asrwt>
<pdfrwt beam="1">  1        2 0.13934630E+00 0.91207623E+03</pdfrwt>
<pdfrwt beam="2">  1       -2 0.35324834E-01 0.91207623E+03</pdfrwt>
<totfact> 0.21897050E+02</totfact>
</mgrwt>
</event>
<event>
 6    1  0.9988873E-007  0.3356514E+04  0.7818608E-02  0.8148662E-01
          2   -1    0    0  501    0  0.00000000000E+00  0.00000000000E+00  0.20024175257E+04  0.20024175257E+04  0.00000000000E+00 0. -1.
         -2   -1    0    0    0  501 -0.00000000000E+00 -0.00000000000E+00 -0.14065730864E+04  0.14065730864E+04  0.00000000000E+00 0.  1.
         23    2    1    2    0    0  0.97844169255E+03 -0.12164567595E+04 -0.32405287332E+03  0.15969955075E+04  0.90935101838E+02 0.  0.
         13    1    3    3    0    0  0.12242915893E+03 -0.20199926089E+03 -0.58337266217E+02  0.24330194612E+03  0.00000000000E+00 0. -1.
        -13    1    3    3    0    0  0.85601253363E+03 -0.10144574986E+04 -0.26571560711E+03  0.13536935613E+04  0.00000000000E+00 0.  1.
         22    1    1    2    0    0 -0.97844169255E+03  0.12164567595E+04  0.91989731260E+03  0.18119951046E+04  0.00000000000E+00 0. -1.
<mgrwt>
<rscale>  0 0.33565140E+04</rscale>
<asrwt>0</asrwt>
<pdfrwt beam="1">  1        2 0.30806423E+00 0.33565140E+04</pdfrwt>
<pdfrwt beam="2">  1       -2 0.21639586E+00 0.33565140E+04</pdfrwt>
<totfact> 0.57698689E-01</totfact>
</mgrwt>
</event>
<event>
 6    1  0.9988873E-007  0.1817498E+04  0.7818608E-02  0.8697049E-01
         -2   -1    0    0    0  501 -0.00000000000E+00  0.00000000000E+00  0.68309747115E+03  0.68309747115E+03  0.00000000000E+00 0.  1.
          2   -1    0    0  501    0  0.00000000000E+00 -0.00000000000E+00 -0.12089416685E+04  0.12089416685E+04  0.00000000000E+00 0. -1.
         23    2    1    2    0    0 -0.29216014771E+03 -0.15912133612E+03 -0.11413393493E+04  0.11923882028E+04  0.91961755527E+02 0.  0.
         11    1    3    3    0    0 -0.13503436099E+03 -0.11366211690E+03 -0.69362996366E+03  0.71573450522E+03  0.00000000000E+00 0.  1.
        -11    1    3    3    0    0 -0.15712578672E+03 -0.45459219218E+02 -0.44770938559E+03  0.47665369757E+03  0.00000000000E+00 0. -1.
         22    1    1    2    0    0  0.29216014771E+03  0.15912133612E+03  0.61549515187E+03  0.69965093689E+03  0.00000000000E+00 0.  1.
<mgrwt>
<rscale>  0 0.18174983E+04</rscale>
<asrwt>0</asrwt>
<pdfrwt beam="1">  1        2 0.18599102E+00 0.18174983E+04</pdfrwt>
<pdfrwt beam="2">  1       -2 0.10509192E+00 0.18174983E+04</pdfrwt>
<totfact> 0.12940514E+01</totfact>
</mgrwt>
</event>
<event>
 6    1  0.9988873E-007  0.2640453E+04  0.7818608E-02  0.8354589E-01
         -1   -1    0    0    0  501 -0.00000000000E+00  0.00000000000E+00  0.10426842098E+04  0.10426842098E+04  0.00000000000E+00 0.  1.
          1   -1    0    0  501    0  0.00000000000E+00 -0.00000000000E+00 -0.16716454719E+04  0.16716454719E+04  0.00000000000E+00 0. -1.
         23    2    1    2    0    0  0.21245983190E+03 -0.10664453010E+04 -0.10817691680E+04  0.15364163742E+04  0.88915588394E+02 0.  0.
         13    1    3    3    0    0  0.13725362848E+03 -0.58177931335E+03 -0.64881738547E+03  0.88219596896E+03  0.00000000000E+00 0. -1.
        -13    1    3    3    0    0  0.75206203420E+02 -0.48466598770E+03 -0.43295178254E+03  0.65422040527E+03  0.00000000000E+00 0.  1.
         22    1    1    2    0    0 -0.21245983190E+03  0.10664453010E+04  0.45280790589E+03  0.11779133075E+04  0.00000000000E+00 0.  1.
<mgrwt>
<rscale>  0 0.26404532E+04</rscale>
<asrwt>0</asrwt>
<pdfrwt beam="1">  1        1 0.25717623E+00 0.26404532E+04</pdfrwt>
<pdfrwt beam="2">  1       -1 0.16041296E+00 0.26404532E+04</pdfrwt>
<totfact> 0.12690304E+00</totfact>
</mgrwt>
</event>
<event>
 6    1  0.9988873E-007  0.3875977E+04  0.7818608E-02  0.8030044E-01
         -2   -1    0    0    0  501 -0.00000000000E+00  0.00000000000E+00  0.14763780644E+04  0.14763780644E+04  0.00000000000E+00 0.  1.
          2   -1    0    0  501    0  0.00000000000E+00 -0.00000000000E+00 -0.25439277718E+04  0.25439277718E+04  0.00000000000E+00 0. -1.
         23    2    1    2    0    0 -0.51611080331E+03 -0.72203190039E+03  0.12516270573E+04  0.15371060270E+04  0.91783556280E+02 0.  0.
         11    1    3    3    0    0 -0.35788584984E+03 -0.52775634286E+03  0.96193920578E+03  0.11540953490E+04  0.00000000000E+00 0.  1.
        -11    1    3    3    0    0 -0.15822495347E+03 -0.19427555753E+03  0.28968785157E+03  0.38301067805E+03  0.00000000000E+00 0. -1.
         22    1    1    2    0    0  0.51611080331E+03  0.72203190039E+03 -0.23191767647E+04  0.24831998092E+04  0.00000000000E+00 0. -1.
<mgrwt>
<rscale>  0 0.38759769E+04</rscale>
<asrwt>0</asrwt>
<pdfrwt beam="1">  1        2 0.39137350E+00 0.38759769E+04</pdfrwt>
<pdfrwt beam="2">  1       -2 0.22713509E+00 0.38759769E+04</pdfrwt>
<totfact> 0.23304290E-01</totfact>
</mgrwt>
</event>
<event>
 6    1  0.9988873E-007  0.1300627E+04  0.7818608E-02  0.9029068E-01
          1   -1    0    0  501    0  0.00000000000E+00  0.00000000000E+00  0.36276032379E+04  0.36276032379E+04  0.00000000000E+00 0. -1.
         -1   -1    0    0    0  501 -0.00000000000E+00 -0.00000000000E+00 -0.11658048406E+03  0.11658048406E+03  0.00000000000E+00 0.  1.
         23    2    1    2    0    0 -0.60846238623E+02  0.24872420866E+03  0.34749979439E+04  0.34856033986E+04  0.90853428893E+02 0.  0.
         13    1    3    3    0    0  0.12885486727E+01 -0.62299726307E+01  0.20288004163E+03  0.20297976305E+03  0.00000000000E+00 0.  1.
        -13    1    3    3    0    0 -0.62134787296E+02  0.25495418129E+03  0.32721179022E+04  0.32826236355E+04  0.00000000000E+00 0. -1.
         22    1    1    2    0    0  0.60846238623E+02 -0.24872420866E+03  0.36024810023E+02  0.25858032343E+03  0.00000000000E+00 0.  1.
<mgrwt>
<rscale>  0 0.13006271E+04</rscale>
<asrwt>0</asrwt>
<pdfrwt beam="1">  1        1 0.55809272E+00 0.13006271E+04</pdfrwt>
<pdfrwt beam="2">  1       -1 0.17935462E-01 0.13006271E+04</pdfrwt>
<totfact> 0.48601018E+00</totfact>
</mgrwt>
</event>
<event>
 6    1  0.1222834E-006  0.3102007E+04  0.7818608E-02  0.8215187E-01
         -2   -1    0    0    0  501 -0.00000000000E+00  0.00000000000E+00  0.18828785946E+04  0.18828785946E+04  0.00000000000E+00 0.  1.
          2   -1    0    0  501    0  0.00000000000E+00 -0.00000000000E+00 -0.12776243754E+04  0.12776243754E+04  0.00000000000E+00 0. -1.
         23    2    1    2    0    0 -0.13371125172E+04  0.78138369442E+03  0.36215406536E+03  0.15928524840E+04  0.87138436675E+02 0.  0.
         13    1    3    3    0    0 -0.69512415077E+03  0.41267314828E+03  0.23333936456E+03  0.84139406425E+03  0.00000000000E+00 0.  1.
        -13    1    3    3    0    0 -0.64198836643E+03  0.36871054614E+03  0.12881470080E+03  0.75145841975E+03  0.00000000000E+00 0. -1.
         22    1    1    2    0    0  0.13371125172E+04 -0.78138369442E+03  0.24310015377E+03  0.15676504860E+04  0.00000000000E+00 0. -1.
<mgrwt>
<rscale>  0 0.31020068E+04</rscale>
<asrwt>0</asrwt>
<pdfrwt beam="1">  1        2 0.19655760E+00 0.31020068E+04</pdfrwt>
<pdfrwt beam="2">  1       -2 0.28967363E+00 0.31020068E+04</pdfrwt>
<totfact> 0.53159219E-01</totfact>
</mgrwt>
</event>
<event>
 6    1  0.9988873E-007  0.3215724E+04  0.7818608E-02  0.8184677E-01
          2   -1    0    0  501    0  0.00000000000E+00  0.00000000000E+00  0.27309702491E+04  0.27309702491E+04  0.00000000000E+00 0. -1.
         -2   -1    0    0    0  501 -0.00000000000E+00 -0.00000000000E+00 -0.94663095379E+03  0.94663095379E+03  0.00000000000E+00 0.  1.
         23    2    1    2    0    0 -0.53440675933E+03  0.10189156121E+04 -0.38956406482E+03  0.12180005385E+04  0.89361860406E+02 0.  0.
         13    1    3    3    0    0 -0.92241601915E+02  0.19020426589E+03 -0.36367731897E+02  0.21449659160E+03  0.00000000000E+00 0. -1.
        -13    1    3    3    0    0 -0.44216515742E+03  0.82871134625E+03 -0.35319633292E+03  0.10035039469E+04  0.00000000000E+00 0.  1.
         22    1    1    2    0    0  0.53440675933E+03 -0.10189156121E+04  0.21739033601E+04  0.24596006644E+04  0.00000000000E+00 0. -1.
<mgrwt>
<rscale>  0 0.32157245E+04</rscale>
<asrwt>0</asrwt>
<pdfrwt beam="1">  1        2 0.42014927E+00 0.32157245E+04</pdfrwt>
<pdfrwt beam="2">  1       -2 0.14563553E+00 0.32157245E+04</pdfrwt>
<totfact> 0.69293947E-01</totfact>
</mgrwt>
</event>
<event>
 6    1  0.9988873E-007  0.3804166E+04  0.7818608E-02  0.8045261E-01
          1   -1    0    0  501    0  0.00000000000E+00  0.00000000000E+00  0.37799474908E+04  0.37799474908E+04  0.00000000000E+00 0. -1.
         -1   -1    0    0    0  501 -0.00000000000E+00 -0.00000000000E+00 -0.95713506393E+03  0.95713506393E+03  0.00000000000E+00 0.  1.
         23    2    1    2    0    0  0.27794208115E+02  0.18696333102E+04  0.98509682541E+03  0.21153465145E+04  0.89296629826E+02 0.  0.
         13    1    3    3    0    0  0.56507420929E+02  0.83249051867E+03  0.43370693702E+03  0.94039101417E+03  0.00000000000E+00 0. -1.
        -13    1    3    3    0    0 -0.28713212814E+02  0.10371427916E+04  0.55138988839E+03  0.11749555003E+04  0.00000000000E+00 0.  1.
         22    1    1    2    0    0 -0.27794208115E+02 -0.18696333102E+04  0.18377156014E+04  0.26217360402E+04  0.00000000000E+00 0.  1.
<mgrwt>
<rscale>  0 0.38041663E+04</rscale>
<asrwt>0</asrwt>
<pdfrwt beam="1">  1        1 0.58153038E+00 0.38041663E+04</pdfrwt>
<pdfrwt beam="2">  1       -1 0.14725155E+00 0.38041663E+04</pdfrwt>
<totfact> 0.43105281E-02</totfact>
</mgrwt>
</event>
<event>
 6    1  0.9988873E-007  0.4328909E+04  0.7818608E-02  0.7941294E-01
         -1   -1    0    0    0  501 -0.00000000000E+00  0.00000000000E+00  0.29762104649E+04  0.29762104649E+04  0.00000000000E+00 0.  1.
          1   -1    0    0  501    0  0.00000000000E+00 -0.00000000000E+00 -0.15741036363E+04  0.15741036363E+04  0.00000000000E+00 0. -1.
         23    2    1    2    0    0  0.96663077290E+03  0.14899391243E+04  0.19999864148E+04  0.26763467470E+04  0.92696309141E+02 0.  0.
         11    1    3    3    0    0  0.60737371637E+02  0.64041418800E+02  0.11829465687E+03  0.14759389377E+03  0.00000000000E+00 0.  1.
        -11    1    3    3    0    0  0.90589340126E+03  0.14258977055E+04  0.18816917579E+04  0.25287528532E+04  0.00000000000E+00 0. -1.
         22    1    1    2    0    0 -0.96663077290E+03 -0.14899391243E+04 -0.59787958621E+03  0.18739673542E+04  0.00000000000E+00 0. -1.
<mgrwt>
<rscale>  0 0.43289092E+04</rscale>
<asrwt>0</asrwt>
<pdfrwt beam="1">  1        1 0.24216979E+00 0.43289092E+04</pdfrwt>
<pdfrwt beam="2">  1       -1 0.45787853E+00 0.43289092E+04</pdfrwt>
<totfact> 0.12661942E-02</totfact>
</mgrwt>
</event>
<event>
 6    1  0.9988873E-007  0.1738646E+04  0.7818608E-02  0.8739625E-01
          1   -1    0    0  501    0  0.00000000000E+00  0.00000000000E+00  0.10916375223E+04  0.10916375223E+04  0.00000000000E+00 0. -1.
         -1   -1    0    0    0  501 -0.00000000000E+00 -0.00000000000E+00 -0.69228296232E+03  0.69228296232E+03  0.00000000000E+00 0.  1.
         23    2    1    2    0    0 -0.44734867409E+03 -0.60820374233E+03 -0.23579434612E+03  0.79728642819E+03  0.10017008800E+03 0.  0.
         11    1    3    3    0    0 -0.21964662903E+03 -0.26655270332E+03 -0.59580204406E+02  0.35049220540E+03  0.00000000000E+00 0. -1.
        -11    1    3    3    0    0 -0.22770204506E+03 -0.34165103901E+03 -0.17621414171E+03  0.44679422279E+03  0.00000000000E+00 0.  1.
         22    1    1    2    0    0  0.44734867409E+03  0.60820374233E+03  0.63514890613E+03  0.98663405645E+03  0.00000000000E+00 0. -1.
<mgrwt>
<rscale>  0 0.17386455E+04</rscale>
<asrwt>0</asrwt>
<pdfrwt beam="1">  1        1 0.16794423E+00 0.17386455E+04</pdfrwt>
<pdfrwt beam="2">  1       -1 0.10650507E+00 0.17386455E+04</pdfrwt>
<totfact> 0.10050181E+01</totfact>
</mgrwt>
</event>
<event>
 6    1  0.9988873E-007  0.3264886E+04  0.7818608E-02  0.8171888E-01
         -2   -1    0    0    0  501 -0.00000000000E+00  0.00000000000E+00  0.15477235120E+04  0.15477235120E+04  0.00000000000E+00 0.  1.
          2   -1    0    0  501    0  0.00000000000E+00 -0.00000000000E+00 -0.17218002531E+04  0.17218002531E+04  0.00000000000E+00 0. -1.
         23    2    1    2    0    0  0.11544086346E+04 -0.11179393635E+04  0.19296271541E+03  0.16211410186E+04  0.91738085590E+02 0.  0.
         13    1    3    3    0    0  0.86854381437E+03 -0.89415607732E+03  0.14544956870E+03  0.12550055877E+04  0.00000000000E+00 0. -1.
        -13    1    3    3    0    0  0.28586482022E+03 -0.22378328623E+03  0.47513146713E+02  0.36613543088E+03  0.00000000000E+00 0.  1.
         22    1    1    2    0    0 -0.11544086346E+04  0.11179393635E+04 -0.36703945652E+03  0.16483827465E+04  0.00000000000E+00 0. -1.
<mgrwt>
<rscale>  0 0.32648864E+04</rscale>
<asrwt>0</asrwt>
<pdfrwt beam="1">  1        2 0.26489235E+00 0.32648864E+04</pdfrwt>
<pdfrwt beam="2">  1       -2 0.23811131E+00 0.32648864E+04</pdfrwt>
<totfact> 0.60792444E-01</totfact>
</mgrwt>
</event>
<event>
 6    1  0.9988873E-007  0.1911496E+04  0.7818608E-02  0.8649155E-01
          2   -1    0    0  501    0  0.00000000000E+00  0.00000000000E+00  0.17999680566E+04  0.17999680566E+04  0.00000000000E+00 0. -1.
         -2   -1    0    0    0  501 -0.00000000000E+00 -0.00000000000E+00 -0.50748369547E+03  0.50748369547E+03  0.00000000000E+00 0.  1.
         23    2    1    2    0    0  0.44859771633E+03  0.24352187316E+02 -0.36786172196E+03  0.58739882969E+03  0.88781746555E+02 0.  0.
         13    1    3    3    0    0  0.33635198980E+03 -0.98948692398E+01 -0.23674988373E+03  0.41143781660E+03  0.00000000000E+00 0. -1.
        -13    1    3    3    0    0  0.11224572653E+03  0.34247056556E+02 -0.13111183823E+03  0.17596101310E+03  0.00000000000E+00 0.  1.
         22    1    1    2    0    0 -0.44859771633E+03 -0.24352187316E+02  0.16603460831E+04  0.17200529224E+04  0.00000000000E+00 0. -1.
<mgrwt>
<rscale>  0 0.19114962E+04</rscale>
<asrwt>0</asrwt>
<pdfrwt beam="1">  1        2 0.27691816E+00 0.19114962E+04</pdfrwt>
<pdfrwt beam="2">  1       -2 0.78074416E-01 0.19114962E+04</pdfrwt>
<totfact> 0.11787605E+01</totfact>
</mgrwt>
</event>
<event>
 6    1  0.9988873E-007  0.3371393E+04  0.7818608E-02  0.8144963E-01
          1   -1    0    0  501    0  0.00000000000E+00  0.00000000000E+00  0.18279092058E+04  0.18279092058E+04  0.00000000000E+00 0. -1.
         -1   -1    0    0    0  501 -0.00000000000E+00 -0.00000000000E+00 -0.15545484869E+04  0.15545484869E+04  0.00000000000E+00 0.  1.
         23    2    1    2    0    0 -0.60786577813E+03  0.13661523337E+04  0.91481821567E+03  0.17553926285E+04  0.92940353791E+02 0.  0.
         11    1    3    3    0    0 -0.12444935764E+03  0.30955930847E+03  0.16188223000E+03  0.37083751761E+03  0.00000000000E+00 0. -1.
        -11    1    3    3    0    0 -0.48341642048E+03  0.10565930252E+04  0.75293598567E+03  0.13845551109E+04  0.00000000000E+00 0.  1.
         22    1    1    2    0    0  0.60786577813E+03 -0.13661523337E+04 -0.64145749681E+03  0.16270650642E+04  0.00000000000E+00 0.  1.
<mgrwt>
<rscale>  0 0.33713935E+04</rscale>
<asrwt>0</asrwt>
<pdfrwt beam="1">  1        1 0.28121680E+00 0.33713935E+04</pdfrwt>
<pdfrwt beam="2">  1       -1 0.23916131E+00 0.33713935E+04</pdfrwt>
<totfact> 0.26409209E-01</totfact>
</mgrwt>
</event>
<event>
 6    1  0.9988873E-007  0.1609291E+04  0.7818608E-02  0.8814861E-01
          2   -1    0    0  501    0  0.00000000000E+00  0.00000000000E+00  0.14364740524E+04  0.14364740524E+04  0.00000000000E+00 0. -1.
         -2   -1    0    0    0  501 -0.00000000000E+00 -0.00000000000E+00 -0.45072449866E+03  0.45072449866E+03  0.00000000000E+00 0.  1.
         23    2    1    2    0    0 -0.54507794873E+03 -0.58431755821E+03  0.41318139839E+03  0.90415670479E+03  0.90793721184E+02 0.  0.
         11    1    3    3    0    0 -0.39543080994E+03 -0.47944616404E+03  0.31708125533E+03  0.69769239078E+03  0.00000000000E+00 0. -1.
        -11    1    3    3    0    0 -0.14964713879E+03 -0.10487139417E+03  0.96100143057E+02  0.20646431401E+03  0.00000000000E+00 0.  1.
         22    1    1    2    0    0  0.54507794873E+03  0.58431755821E+03  0.57256815537E+03  0.98304184630E+03  0.00000000000E+00 0. -1.
<mgrwt>
<rscale>  0 0.16092906E+04</rscale>
<asrwt>0</asrwt>
<pdfrwt beam="1">  1        2 0.22099601E+00 0.16092906E+04</pdfrwt>
<pdfrwt beam="2">  1       -2 0.69342231E-01 0.16092906E+04</pdfrwt>
<totfact> 0.25079560E+01</totfact>
</mgrwt>
</event>
<event>
 6    1  0.9988873E-007  0.3838482E+04  0.7818608E-02  0.8037947E-01
          1   -1    0    0  501    0  0.00000000000E+00  0.00000000000E+00  0.28883594341E+04  0.28883594341E+04  0.00000000000E+00 0. -1.
         -1   -1    0    0    0  501 -0.00000000000E+00 -0.00000000000E+00 -0.12752864157E+04  0.12752864157E+04  0.00000000000E+00 0.  1.
         23    2    1    2    0    0 -0.53966424361E+03 -0.16619364309E+04  0.16650931036E+04  0.24155107619E+04  0.94270892054E+02 0.  0.
         13    1    3    3    0    0 -0.21134167837E+03 -0.54286873546E+03  0.59555669765E+03  0.83310236410E+03  0.00000000000E+00 0.  1.
        -13    1    3    3    0    0 -0.32832256524E+03 -0.11190676954E+04  0.10695364060E+04  0.15824083978E+04  0.00000000000E+00 0. -1.
         22    1    1    2    0    0  0.53966424361E+03  0.16619364309E+04 -0.52020085202E+02  0.17481350878E+04  0.00000000000E+00 0.  1.
<mgrwt>
<rscale>  0 0.38384818E+04</rscale>
<asrwt>0</asrwt>
<pdfrwt beam="1">  1        1 0.44436299E+00 0.38384818E+04</pdfrwt>
<pdfrwt beam="2">  1       -1 0.19619791E+00 0.38384818E+04</pdfrwt>
<totfact> 0.91315265E-02</totfact>
</mgrwt>
</event>
<event>
 6    1  0.9988873E-007  0.4751139E+04  0.7818608E-02  0.7868087E-01
         -2   -1    0    0    0  501 -0.00000000000E+00  0.00000000000E+00  0.16472235207E+04  0.16472235207E+04  0.00000000000E+00 0.  1.
          2   -1    0    0  501    0  0.00000000000E+00 -0.00000000000E+00 -0.34259652071E+04  0.34259652071E+04  0.00000000000E+00 0. -1.
         23    2    1    2    0    0 -0.21379234024E+04 -0.60930984896E+02  0.21202506166E+03  0.21512747481E+04  0.92732709581E+02 0.  0.
         13    1    3    3    0    0 -0.86115322355E+03 -0.65843964067E+02  0.66353042359E+02  0.86621188416E+03  0.00000000000E+00 0. -1.
        -13    1    3    3    0    0 -0.12767701789E+04  0.49129791702E+01  0.14567201930E+03  0.12850628639E+04  0.00000000000E+00 0.  1.
         22    1    1    2    0    0  0.21379234024E+04  0.60930984896E+02 -0.19907667480E+04  0.29219139797E+04  0.00000000000E+00 0. -1.
<mgrwt>
<rscale>  0 0.47511390E+04</rscale>
<asrwt>0</asrwt>
<pdfrwt beam="1">  1        2 0.52707156E+00 0.47511390E+04</pdfrwt>
<pdfrwt beam="2">  1       -2 0.25341901E+00 0.47511390E+04</pdfrwt>
<totfact> 0.41532832E-02</totfact>
</mgrwt>
</event>
<event>
 6    1  0.9988873E-007  0.2335752E+04  0.7818608E-02  0.8463957E-01
          2   -1    0    0  501    0  0.00000000000E+00  0.00000000000E+00  0.23387688955E+04  0.23387688955E+04  0.00000000000E+00 0. -1.
         -2   -1    0    0    0  501 -0.00000000000E+00 -0.00000000000E+00 -0.58318473502E+03  0.58318473502E+03  0.00000000000E+00 0.  1.
         23    2    1    2    0    0  0.11599313955E+04  0.28103852437E+01  0.10287772875E+04  0.15531231183E+04  0.91432886862E+02 0.  0.
         13    1    3    3    0    0  0.42108117593E+03 -0.13772392813E+02  0.31902555366E+03  0.52846602484E+03  0.00000000000E+00 0. -1.
        -13    1    3    3    0    0  0.73885021958E+03  0.16582778057E+02  0.70975173385E+03  0.10246570935E+04  0.00000000000E+00 0.  1.
         22    1    1    2    0    0 -0.11599313955E+04 -0.28103852437E+01  0.72680687296E+03  0.13688305122E+04  0.00000000000E+00 0. -1.
<mgrwt>
<rscale>  0 0.23357520E+04</rscale>
<asrwt>0</asrwt>
<pdfrwt beam="1">  1        2 0.35981060E+00 0.23357520E+04</pdfrwt>
<pdfrwt beam="2">  1       -2 0.89720729E-01 0.23357520E+04</pdfrwt>
<totfact> 0.41457558E+00</totfact>
</mgrwt>
</event>
<event>
 6    1  0.9988873E-007  0.3106613E+04  0.7818608E-02  0.8213925E-01
          2   -1    0    0  501    0  0.00000000000E+00  0.00000000000E+00  0.14911083085E+04  0.14911083085E+04  0.00000000000E+00 0. -1.
         -2   -1    0    0    0  501 -0.00000000000E+00 -0.00000000000E+00 -0.16180989779E+04  0.16180989779E+04  0.00000000000E+00 0.  1.
         23    2    1    2    0    0  0.12191143317E+04  0.74035826239E+03 -0.67580593355E+03  0.15809506638E+04  0.91220782481E+02 0.  0.
         11    1    3    3    0    0  0.63271049017E+03  0.33096841134E+03 -0.34057771081E+03  0.79111050478E+03  0.00000000000E+00 0. -1.
        -11    1    3    3    0    0  0.58640384155E+03  0.40938985105E+03 -0.33522822275E+03  0.78984015905E+03  0.00000000000E+00 0.  1.
         22    1    1    2    0    0 -0.12191143317E+04 -0.74035826239E+03  0.54881526414E+03  0.15282566226E+04  0.00000000000E+00 0.  1.
<mgrwt>
<rscale>  0 0.31066128E+04</rscale>
<asrwt>0</asrwt>
<pdfrwt beam="1">  1        2 0.22940128E+00 0.31066128E+04</pdfrwt>
<pdfrwt beam="2">  1       -2 0.24893830E+00 0.31066128E+04</pdfrwt>
<totfact> 0.71089059E-01</totfact>
</mgrwt>
</event>
<event>
 6    1  0.9988873E-007  0.1470217E+04  0.7818608E-02  0.8904504E-01
          1   -1    0    0  501    0  0.00000000000E+00  0.00000000000E+00  0.31848233483E+03  0.31848233483E+03  0.00000000000E+00 0. -1.
         -1   -1    0    0    0  501 -0.00000000000E+00 -0.00000000000E+00 -0.16967481979E+04  0.16967481979E+04  0.00000000000E+00 0.  1.
         23    2    1    2    0    0  0.68353769541E+02 -0.15759668975E+03 -0.16678193388E+04  0.16785553632E+04  0.80111208487E+02 0.  0.
         13    1    3    3    0    0  0.31275458739E+02 -0.14666067708E+03 -0.12540556763E+04  0.12629897655E+04  0.00000000000E+00 0.  1.
        -13    1    3    3    0    0  0.37078310802E+02 -0.10936012668E+02 -0.41376366257E+03  0.41556559767E+03  0.00000000000E+00 0. -1.
         22    1    1    2    0    0 -0.68353769541E+02  0.15759668975E+03  0.28955347581E+03  0.33667516954E+03  0.00000000000E+00 0. -1.
<mgrwt>
<rscale>  0 0.14702168E+04</rscale>
<asrwt>0</asrwt>
<pdfrwt beam="1">  1        1 0.48997283E-01 0.14702168E+04</pdfrwt>
<pdfrwt beam="2">  1       -1 0.26103818E+00 0.14702168E+04</pdfrwt>
<totfact> 0.46495511E+00</totfact>
</mgrwt>
</event>
<event>
 6    1  0.9988873E-007  0.2248991E+04  0.7818608E-02  0.8498309E-01
          1   -1    0    0  501    0  0.00000000000E+00  0.00000000000E+00  0.10705230450E+04  0.10705230450E+04  0.00000000000E+00 0. -1.
         -1   -1    0    0    0  501 -0.00000000000E+00 -0.00000000000E+00 -0.11811895627E+04  0.11811895627E+04  0.00000000000E+00 0.  1.
         23    2    1    2    0    0  0.44475342596E+03 -0.77163918682E+03  0.62885361198E+03  0.10940759347E+04  0.91173685878E+02 0.  0.
         11    1    3    3    0    0  0.21538471286E+03 -0.31585260548E+03  0.22727244231E+03  0.44475409605E+03  0.00000000000E+00 0.  1.
        -11    1    3    3    0    0  0.22936871310E+03 -0.45578658134E+03  0.40158116967E+03  0.64932183862E+03  0.00000000000E+00 0. -1.
         22    1    1    2    0    0 -0.44475342596E+03  0.77163918682E+03 -0.73952012963E+03  0.11576366730E+04  0.00000000000E+00 0.  1.
<mgrwt>
<rscale>  0 0.22489915E+04</rscale>
<asrwt>0</asrwt>
<pdfrwt beam="1">  1        1 0.16469585E+00 0.22489915E+04</pdfrwt>
<pdfrwt beam="2">  1       -1 0.18172147E+00 0.22489915E+04</pdfrwt>
<totfact> 0.24512776E+00</totfact>
</mgrwt>
</event>
<event>
 6    1  0.9988873E-007  0.1087356E+04  0.7818608E-02  0.9217604E-01
          2   -1    0    0  501    0  0.00000000000E+00  0.00000000000E+00  0.10204936010E+04  0.10204936010E+04  0.00000000000E+00 0. -1.
         -2   -1    0    0    0  501 -0.00000000000E+00 -0.00000000000E+00 -0.28964955307E+03  0.28964955307E+03  0.00000000000E+00 0.  1.
         23    2    1    2    0    0 -0.53886975840E+03  0.19935505684E+02  0.33969675590E+03  0.64397932665E+03  0.92398302408E+02 0.  0.
         11    1    3    3    0    0 -0.45096993194E+03 -0.10859692003E+02  0.30525746279E+03  0.54467782313E+03  0.00000000000E+00 0. -1.
        -11    1    3    3    0    0 -0.87899826456E+02  0.30795197688E+02  0.34439293113E+02  0.99301503522E+02  0.00000000000E+00 0.  1.
         22    1    1    2    0    0  0.53886975840E+03 -0.19935505684E+02  0.39114729202E+03  0.66616382741E+03  0.00000000000E+00 0. -1.
<mgrwt>
<rscale>  0 0.10873555E+04</rscale>
<asrwt>0</asrwt>
<pdfrwt beam="1">  1        2 0.15699901E+00 0.10873555E+04</pdfrwt>
<pdfrwt beam="2">  1       -2 0.44561470E-01 0.10873555E+04</pdfrwt>
<totfact> 0.11590884E+02</totfact>
</mgrwt>
</event>
<event>
 6    1  0.9988873E-007  0.8238269E+03  0.7818608E-02  0.9526155E-01
          2   -1    0    0  501    0  0.00000000000E+00  0.00000000000E+00  0.11127449024E+04  0.11127449024E+04  0.00000000000E+00 0. -1.
         -2   -1    0    0    0  501 -0.00000000000E+00 -0.00000000000E+00 -0.15248122116E+03  0.15248122116E+03  0.00000000000E+00 0.  1.
         23    2    1    2    0    0 -0.23247671521E+03 -0.24650437385E+02 -0.12954545699E+02  0.26432313904E+03  0.12266146258E+03 0.  0.
         13    1    3    3    0    0 -0.17385480382E+03  0.37218809177E+02  0.19168673777E+01  0.17780440643E+03  0.00000000000E+00 0. -1.
        -13    1    3    3    0    0 -0.58621911390E+02 -0.61869246562E+02 -0.14871413077E+02  0.86518732608E+02  0.00000000000E+00 0.  1.
         22    1    1    2    0    0  0.23247671521E+03  0.24650437385E+02  0.97321822689E+03  0.10009029845E+04  0.00000000000E+00 0. -1.
<mgrwt>
<rscale>  0 0.82382693E+03</rscale>
<asrwt>0</asrwt>
<pdfrwt beam="1">  1        2 0.17119152E+00 0.82382693E+03</pdfrwt>
<pdfrwt beam="2">  1       -2 0.23458650E-01 0.82382693E+03</pdfrwt>
<totfact> 0.34550928E+02</totfact>
</mgrwt>
</event>
<event>
 6    1  0.9988873E-007  0.1028577E+04  0.7818608E-02  0.9277745E-01
         -1   -1    0    0    0  501 -0.00000000000E+00  0.00000000000E+00  0.12653857319E+03  0.12653857319E+03  0.00000000000E+00 0.  1.
          1   -1    0    0  501    0  0.00000000000E+00 -0.00000000000E+00 -0.20902151807E+04  0.20902151807E+04  0.00000000000E+00 0. -1.
         23    2    1    2    0    0  0.31342933451E+03  0.74270272873E+02 -0.13704002665E+03  0.36193429645E+03  0.91991547881E+02 0.  0.
         11    1    3    3    0    0  0.71823525802E+02  0.47441515720E+02 -0.72951536368E+01  0.86385968415E+02  0.00000000000E+00 0. -1.
        -11    1    3    3    0    0  0.24160580870E+03  0.26828757153E+02 -0.12974487301E+03  0.27554832803E+03  0.00000000000E+00 0.  1.
         22    1    1    2    0    0 -0.31342933451E+03 -0.74270272873E+02 -0.18266365808E+04  0.18548194574E+04  0.00000000000E+00 0. -1.
<mgrwt>
<rscale>  0 0.10285774E+04</rscale>
<asrwt>0</asrwt>
<pdfrwt beam="1">  1        1 0.32157156E+00 0.10285774E+04</pdfrwt>
<pdfrwt beam="2">  1       -1 0.19467473E-01 0.10285774E+04</pdfrwt>
<totfact> 0.55722131E+01</totfact>
</mgrwt>
</event>
<event>
 6    1  0.9988873E-007  0.2902386E+04  0.7818608E-02  0.8272168E-01
          1   -1    0    0  501    0  0.00000000000E+00  0.00000000000E+00  0.91653729722E+03  0.91653729722E+03  0.00000000000E+00 0. -1.
         -1   -1    0    0    0  501 -0.00000000000E+00 -0.00000000000E+00 -0.22977356442E+04  0.22977356442E+04  0.00000000000E+00 0.  1.
         23    2    1    2    0    0 -0.46626791075E+03  0.12681782707E+04 -0.10816671576E+03  0.13578539626E+04  0.79909038670E+02 0.  0.
         13    1    3    3    0    0 -0.85528994344E+02  0.18988559868E+03  0.81364852692E+01  0.20841773402E+03  0.00000000000E+00 0.  1.
        -13    1    3    3    0    0 -0.38073891641E+03  0.10782926720E+04 -0.11630320103E+03  0.11494362286E+04  0.00000000000E+00 0. -1.
         22    1    1    2    0    0  0.46626791075E+03 -0.12681782707E+04 -0.12730316312E+04  0.18564189789E+04  0.00000000000E+00 0.  1.
<mgrwt>
<rscale>  0 0.29023855E+04</rscale>
<asrwt>0</asrwt>
<pdfrwt beam="1">  1        1 0.14100574E+00 0.29023855E+04</pdfrwt>
<pdfrwt beam="2">  1       -1 0.35349779E+00 0.29023855E+04</pdfrwt>
<totfact> 0.22290122E-01</totfact>
</mgrwt>
</event>
<event>
 6    1  0.9988873E-007  0.7504966E+03  0.7818608E-02  0.9634572E-01
         -1   -1    0    0    0  501 -0.00000000000E+00  0.00000000000E+00  0.50898683847E+03  0.50898683847E+03  0.00000000000E+00 0.  1.
          1   -1    0    0  501    0  0.00000000000E+00 -0.00000000000E+00 -0.27665018945E+03  0.27665018945E+03  0.00000000000E+00 0. -1.
         23    2    1    2    0    0 -0.29510497771E+03 -0.14295151184E+03  0.29652720095E+03  0.45150754768E+03  0.91698430192E+02 0.  0.
         13    1    3    3    0    0 -0.74694928440E+02 -0.11354680560E+01  0.95225108613E+02  0.12103075201E+03  0.00000000000E+00 0.  1.
        -13    1    3    3    0    0 -0.22041004927E+03 -0.14181604378E+03  0.20130209234E+03  0.33047679567E+03  0.00000000000E+00 0. -1.
         22    1    1    2    0    0  0.29510497771E+03  0.14295151184E+03 -0.64190551942E+02  0.33412948024E+03  0.00000000000E+00 0. -1.
<mgrwt>
<rscale>  0 0.75049665E+03</rscale>
<asrwt>0</asrwt>
<pdfrwt beam="1">  1        1 0.42561568E-01 0.75049665E+03</pdfrwt>
<pdfrwt beam="2">  1       -1 0.78305667E-01 0.75049665E+03</pdfrwt>
<totfact> 0.16131754E+02</totfact>
</mgrwt>
</event>
<event>
 6    1  0.9988873E-007  0.4075991E+04  0.7818608E-02  0.7989390E-01
         -2   -1    0    0    0  501 -0.00000000000E+00  0.00000000000E+00  0.19007729355E+04  0.19007729355E+04  0.00000000000E+00 0.  1.
          2   -1    0    0  501    0  0.00000000000E+00 -0.00000000000E+00 -0.21851243151E+04  0.21851243151E+04  0.00000000000E+00 0. -1.
         23    2    1    2    0    0 -0.10162295598E+04  0.15158544225E+04  0.76489223258E+03  0.19807964677E+04  0.89204092990E+02 0.  0.
         11    1    3    3    0    0 -0.35659468098E+03  0.55504038807E+03  0.23238866928E+03  0.69945270927E+03  0.00000000000E+00 0.  1.
        -11    1    3    3    0    0 -0.65963487883E+03  0.96081403447E+03  0.53250356330E+03  0.12813437584E+04  0.00000000000E+00 0. -1.
         22    1    1    2    0    0  0.10162295598E+04 -0.15158544225E+04 -0.10492436122E+04  0.21051007830E+04  0.00000000000E+00 0.  1.
<mgrwt>
<rscale>  0 0.40759908E+04</rscale>
<asrwt>0</asrwt>
<pdfrwt beam="1">  1        2 0.33617297E+00 0.40759908E+04</pdfrwt>
<pdfrwt beam="2">  1       -2 0.29242661E+00 0.40759908E+04</pdfrwt>
<totfact> 0.14596331E-01</totfact>
</mgrwt>
</event>
<event>
 6    1  0.9988873E-007  0.4023053E+03  0.7818608E-02  0.1042984E+00
         -4   -1    0    0    0  501 -0.00000000000E+00  0.00000000000E+00  0.73217012638E+02  0.73217012638E+02  0.00000000000E+00 0.  1.
          4   -1    0    0  501    0  0.00000000000E+00 -0.00000000000E+00 -0.55263644443E+03  0.55263644443E+03  0.00000000000E+00 0. -1.
         23    2    1    2    0    0 -0.10779848586E+03 -0.14430551138E+03 -0.14823264444E+03  0.24885308268E+03  0.86662250802E+02 0.  0.
         11    1    3    3    0    0 -0.11823170198E+03 -0.10253379344E+03 -0.11019519176E+03  0.19140244104E+03  0.00000000000E+00 0.  1.
        -11    1    3    3    0    0  0.10433216120E+02 -0.41771717940E+02 -0.38037452677E+02  0.57450641636E+02  0.00000000000E+00 0. -1.
         22    1    1    2    0    0  0.10779848586E+03  0.14430551138E+03 -0.33118678736E+03  0.37700037439E+03  0.00000000000E+00 0. -1.
<mgrwt>
<rscale>  0 0.40230530E+03</rscale>
<asrwt>0</asrwt>
<pdfrwt beam="1">  1        4 0.85020993E-01 0.40230530E+03</pdfrwt>
<pdfrwt beam="2">  1       -4 0.11264156E-01 0.40230530E+03</pdfrwt>
<totfact> 0.14868627E+02</totfact>
</mgrwt>
</event>
<event>
 6    1  0.9988873E-007  0.2348928E+04  0.7818608E-02  0.8458875E-01
         -2   -1    0    0    0  501 -0.00000000000E+00  0.00000000000E+00  0.10213214725E+04  0.10213214725E+04  0.00000000000E+00 0.  1.
          2   -1    0    0  501    0  0.00000000000E+00 -0.00000000000E+00 -0.13505695933E+04  0.13505695933E+04  0.00000000000E+00 0. -1.
         23    2    1    2    0    0  0.76332539191E+03  0.29095250872E+03  0.68497842659E+03  0.10695952062E+04  0.86714727494E+02 0.  0.
         11    1    3    3    0    0  0.22036728848E+03  0.98654582133E+02  0.15532223137E+03  0.28708790285E+03  0.00000000000E+00 0. -1.
        -11    1    3    3    0    0  0.54295810343E+03  0.19229792658E+03  0.52965619523E+03  0.78250730335E+03  0.00000000000E+00 0.  1.
         22    1    1    2    0    0 -0.76332539191E+03 -0.29095250872E+03 -0.10142265475E+04  0.13022958596E+04  0.00000000000E+00 0. -1.
<mgrwt>
<rscale>  0 0.23489280E+04</rscale>
<asrwt>0</asrwt>
<pdfrwt beam="1">  1        2 0.20777994E+00 0.23489280E+04</pdfrwt>
<pdfrwt beam="2">  1       -2 0.15712638E+00 0.23489280E+04</pdfrwt>
<totfact> 0.36921346E+00</totfact>
</mgrwt>
</event>
<event>
 6    1  0.9988873E-007  0.1585523E+04  0.7818608E-02  0.8829491E-01
          2   -1    0    0  501    0  0.00000000000E+00  0.00000000000E+00  0.89843883109E+03  0.89843883109E+03  0.00000000000E+00 0. -1.
         -2   -1    0    0    0  501 -0.00000000000E+00 -0.00000000000E+00 -0.69951457112E+03  0.69951457112E+03  0.00000000000E+00 0.  1.
         23    2    1    2    0    0  0.15441385254E+03  0.68268182188E+02 -0.67814470722E+03  0.70478255866E+03  0.91290900412E+02 0.  0.
         13    1    3    3    0    0  0.57820726290E+02  0.75353846982E+02 -0.32445674669E+03  0.33807339310E+03  0.00000000000E+00 0. -1.
        -13    1    3    3    0    0  0.96593126247E+02 -0.70856647945E+01 -0.35368796053E+03  0.36670916556E+03  0.00000000000E+00 0.  1.
         22    1    1    2    0    0 -0.15441385254E+03 -0.68268182188E+02  0.87706896719E+03  0.89317084355E+03  0.00000000000E+00 0. -1.
<mgrwt>
<rscale>  0 0.15855233E+04</rscale>
<asrwt>0</asrwt>
<pdfrwt beam="1">  1        2 0.13822136E+00 0.15855233E+04</pdfrwt>
<pdfrwt beam="2">  1       -2 0.10761763E+00 0.15855233E+04</pdfrwt>
<totfact> 0.19550255E+01</totfact>
</mgrwt>
</event>
<event>
 6    1  0.9988873E-007  0.3947939E+04  0.7818608E-02  0.8015132E-01
          2   -1    0    0  501    0  0.00000000000E+00  0.00000000000E+00  0.42951669472E+04  0.42951669472E+04  0.00000000000E+00 0. -1.
         -2   -1    0    0    0  501 -0.00000000000E+00 -0.00000000000E+00 -0.90719551127E+03  0.90719551127E+03  0.00000000000E+00 0.  1.
         23    2    1    2    0    0  0.46918675792E+03  0.12041596690E+04  0.36593200998E+04  0.38818448252E+04  0.89212845940E+02 0.  0.
         13    1    3    3    0    0  0.14283034553E+03  0.27448722728E+03  0.92987781742E+03  0.98000841877E+03  0.00000000000E+00 0. -1.
        -13    1    3    3    0    0  0.32635641239E+03  0.92967244170E+03  0.27294422824E+04  0.29018364064E+04  0.00000000000E+00 0.  1.
         22    1    1    2    0    0 -0.46918675792E+03 -0.12041596690E+04 -0.27134866393E+03  0.13205176332E+04  0.00000000000E+00 0.  1.
<mgrwt>
<rscale>  0 0.39479393E+04</rscale>
<asrwt>0</asrwt>
<pdfrwt beam="1">  1        2 0.66079490E+00 0.39479393E+04</pdfrwt>
<pdfrwt beam="2">  1       -2 0.13956854E+00 0.39479393E+04</pdfrwt>
<totfact> 0.54656921E-02</totfact>
</mgrwt>
</event>
<event>
 6    1  0.9988873E-007  0.1592123E+04  0.7818608E-02  0.8825402E-01
          2   -1    0    0  501    0  0.00000000000E+00  0.00000000000E+00  0.32874653359E+04  0.32874653359E+04  0.00000000000E+00 0. -1.
         -2   -1    0    0    0  501 -0.00000000000E+00 -0.00000000000E+00 -0.19276671278E+03  0.19276671278E+03  0.00000000000E+00 0.  1.
         23    2    1    2    0    0  0.44450318707E+03  0.51340513084E+03  0.65499209661E+03  0.94777556394E+03  0.89977559888E+02 0.  0.
         11    1    3    3    0    0  0.24697291705E+03  0.25825619561E+03  0.28679337597E+03  0.45819463640E+03  0.00000000000E+00 0.  1.
        -11    1    3    3    0    0  0.19753027002E+03  0.25514893523E+03  0.36819872065E+03  0.48958092754E+03  0.00000000000E+00 0. -1.
         22    1    1    2    0    0 -0.44450318707E+03 -0.51340513084E+03  0.24397065265E+04  0.25324564848E+04  0.00000000000E+00 0. -1.
<mgrwt>
<rscale>  0 0.15921230E+04</rscale>
<asrwt>0</asrwt>
<pdfrwt beam="1">  1        2 0.50576386E+00 0.15921230E+04</pdfrwt>
<pdfrwt beam="2">  1       -2 0.29656420E-01 0.15921230E+04</pdfrwt>
<totfact> 0.11521127E+01</totfact>
</mgrwt>
</event>
<event>
 6    1  0.9988873E-007  0.4954121E+04  0.7818608E-02  0.7835624E-01
         -2   -1    0    0    0  501 -0.00000000000E+00  0.00000000000E+00  0.29990334933E+04  0.29990334933E+04  0.00000000000E+00 0.  1.
          2   -1    0    0  501    0  0.00000000000E+00 -0.00000000000E+00 -0.20459353885E+04  0.20459353885E+04  0.00000000000E+00 0. -1.
         23    2    1    2    0    0  0.24551245514E+04  0.29422941207E+03  0.34146940256E+03  0.24977552709E+04  0.89289027819E+02 0.  0.
         11    1    3    3    0    0  0.19627024883E+04  0.22033592389E+03  0.30553792834E+03  0.19985250568E+04  0.00000000000E+00 0. -1.
        -11    1    3    3    0    0  0.49242206311E+03  0.73893488187E+02  0.35931474220E+02  0.49923021411E+03  0.00000000000E+00 0.  1.
         22    1    1    2    0    0 -0.24551245514E+04 -0.29422941207E+03  0.61162870219E+03  0.25472136109E+04  0.00000000000E+00 0.  1.
<mgrwt>
<rscale>  0 0.49541210E+04</rscale>
<asrwt>0</asrwt>
<pdfrwt beam="1">  1        2 0.31475929E+00 0.49541210E+04</pdfrwt>
<pdfrwt beam="2">  1       -2 0.46138977E+00 0.49541210E+04</pdfrwt>
<totfact> 0.13482326E-02</totfact>
</mgrwt>
</event>
<event>
 6    1  0.9988873E-007  0.9527420E+03  0.7818608E-02  0.9361951E-01
          2   -1    0    0  501    0  0.00000000000E+00  0.00000000000E+00  0.16301124650E+04  0.16301124650E+04  0.00000000000E+00 0. -1.
         -2   -1    0    0    0  501 -0.00000000000E+00 -0.00000000000E+00 -0.13921083610E+03  0.13921083610E+03  0.00000000000E+00 0.  1.
         23    2    1    2    0    0 -0.36727164925E+03 -0.36685685276E+02  0.12984886236E+04  0.13530817025E+04  0.92320550046E+02 0.  0.
         11    1    3    3    0    0 -0.28249283358E+03 -0.63671101467E+02  0.10475292469E+04  0.10868181694E+04  0.00000000000E+00 0.  1.
        -11    1    3    3    0    0 -0.84778815674E+02  0.26985416191E+02  0.25095937674E+03  0.26626353308E+03  0.00000000000E+00 0. -1.
         22    1    1    2    0    0  0.36727164925E+03  0.36685685276E+02  0.19241300526E+03  0.41624159865E+03  0.00000000000E+00 0.  1.
<mgrwt>
<rscale>  0 0.95274198E+03</rscale>
<asrwt>0</asrwt>
<pdfrwt beam="1">  1        2 0.25078652E+00 0.95274198E+03</pdfrwt>
<pdfrwt beam="2">  1       -2 0.21417053E-01 0.95274198E+03</pdfrwt>
<totfact> 0.20336925E+02</totfact>
</mgrwt>
</event>
<event>
 6    1  0.9988873E-007  0.7532763E+04  0.7818608E-02  0.7524855E-01
          2   -1    0    0  501    0  0.00000000000E+00  0.00000000000E+00  0.43582726119E+04  0.43582726119E+04  0.00000000000E+00 0. -1.
         -2   -1    0    0    0  501 -0.00000000000E+00 -0.00000000000E+00 -0.32548745023E+04  0.32548745023E+04  0.00000000000E+00 0.  1.
         23    2    1    2    0    0 -0.73951534837E+03 -0.19163614206E+04 -0.26381861873E+04  0.33448011705E+04  0.91348053484E+02 0.  0.
         13    1    3    3    0    0 -0.23528107734E+03 -0.70063839734E+03 -0.99647047930E+03  0.12406469140E+04  0.00000000000E+00 0. -1.
        -13    1    3    3    0    0 -0.50423427103E+03 -0.12157230232E+04 -0.16417157080E+04  0.21041542565E+04  0.00000000000E+00 0.  1.
         22    1    1    2    0    0  0.73951534837E+03  0.19163614206E+04  0.37415842968E+04  0.42683459437E+04  0.00000000000E+00 0. -1.
<mgrwt>
<rscale>  0 0.75327632E+04</rscale>
<asrwt>0</asrwt>
<pdfrwt beam="1">  1        2 0.67050348E+00 0.75327632E+04</pdfrwt>
<pdfrwt beam="2">  1       -2 0.50074992E+00 0.75327632E+04</pdfrwt>
<totfact> 0.16508235E-04</totfact>
</mgrwt>
</event>
<event>
 6    1  0.9988873E-007  0.2482136E+04  0.7818608E-02  0.8409377E-01
          1   -1    0    0  501    0  0.00000000000E+00  0.00000000000E+00  0.22701971487E+04  0.22701971487E+04  0.00000000000E+00 0. -1.
         -1   -1    0    0    0  501 -0.00000000000E+00 -0.00000000000E+00 -0.67846541913E+03  0.67846541913E+03  0.00000000000E+00 0.  1.
         23    2    1    2    0    0  0.51229669311E+03  0.12603570707E+03  0.21292250283E+04  0.21955145430E+04  0.91389201121E+02 0.  0.
         13    1    3    3    0    0  0.42799706177E+03  0.73739726323E+02  0.18010150011E+04  0.18526397562E+04  0.00000000000E+00 0. -1.
        -13    1    3    3    0    0  0.84299631346E+02  0.52295980746E+02  0.32821002720E+03  0.34287478677E+03  0.00000000000E+00 0.  1.
         22    1    1    2    0    0 -0.51229669311E+03 -0.12603570707E+03 -0.53749329870E+03  0.75314802488E+03  0.00000000000E+00 0.  1.
<mgrwt>
<rscale>  0 0.24821364E+04</rscale>
<asrwt>0</asrwt>
<pdfrwt beam="1">  1        1 0.34926110E+00 0.24821364E+04</pdfrwt>
<pdfrwt beam="2">  1       -1 0.10437930E+00 0.24821364E+04</pdfrwt>
<totfact> 0.14978493E+00</totfact>
</mgrwt>
</event>
<event>
 6    1  0.9988873E-007  0.1840566E+04  0.7818608E-02  0.8685020E-01
         -2   -1    0    0    0  501 -0.00000000000E+00  0.00000000000E+00  0.36918773860E+03  0.36918773860E+03  0.00000000000E+00 0.  1.
          2   -1    0    0  501    0  0.00000000000E+00 -0.00000000000E+00 -0.22940110324E+04  0.22940110324E+04  0.00000000000E+00 0. -1.
         23    2    1    2    0    0 -0.70290555559E+03 -0.11284702893E+02 -0.18190499263E+04  0.19522897966E+04  0.91045323117E+02 0.  0.
         11    1    3    3    0    0 -0.43975284401E+03  0.54742012663E+01 -0.10173255044E+04  0.11083157098E+04  0.00000000000E+00 0. -1.
        -11    1    3    3    0    0 -0.26315271159E+03 -0.16758904159E+02 -0.80172442193E+03  0.84397408681E+03  0.00000000000E+00 0.  1.
         22    1    1    2    0    0  0.70290555559E+03  0.11284702893E+02 -0.10577336747E+03  0.71090897439E+03  0.00000000000E+00 0.  1.
<mgrwt>
<rscale>  0 0.18405659E+04</rscale>
<asrwt>0</asrwt>
<pdfrwt beam="1">  1        2 0.35292477E+00 0.18405659E+04</pdfrwt>
<pdfrwt beam="2">  1       -2 0.56798114E-01 0.18405659E+04</pdfrwt>
<totfact> 0.12504209E+01</totfact>
</mgrwt>
</event>
<event>
 6    1  0.9988873E-007  0.5317142E+03  0.7818608E-02  0.1005817E+00
         -2   -1    0    0    0  501 -0.00000000000E+00  0.00000000000E+00  0.44655420000E+02  0.44655420000E+02  0.00000000000E+00 0.  1.
          2   -1    0    0  501    0  0.00000000000E+00 -0.00000000000E+00 -0.15827864813E+04  0.15827864813E+04  0.00000000000E+00 0. -1.
         23    2    1    2    0    0 -0.22813575566E+03  0.11707163805E+03 -0.87839397510E+03  0.91962503632E+03  0.91556214864E+02 0.  0.
         11    1    3    3    0    0 -0.10229449601E+03  0.10359830252E+03 -0.45601452878E+03  0.47869199143E+03  0.00000000000E+00 0.  1.
        -11    1    3    3    0    0 -0.12584125965E+03  0.13473335533E+02 -0.42237944633E+03  0.44093304489E+03  0.00000000000E+00 0. -1.
         22    1    1    2    0    0  0.22813575566E+03 -0.11707163805E+03 -0.65973708619E+03  0.70781686497E+03  0.00000000000E+00 0. -1.
<mgrwt>
<rscale>  0 0.53171419E+03</rscale>
<asrwt>0</asrwt>
<pdfrwt beam="1">  1        2 0.24350561E+00 0.53171419E+03</pdfrwt>
<pdfrwt beam="2">  1       -2 0.68700646E-02 0.53171419E+03</pdfrwt>
<totfact> 0.14613678E+03</totfact>
</mgrwt>
</event>
<event>
 6    1  0.9988873E-007  0.1858240E+04  0.7818608E-02  0.8675927E-01
         -1   -1    0    0    0  501 -0.00000000000E+00  0.00000000000E+00  0.11633937102E+04  0.11633937102E+04  0.00000000000E+00 0.  1.
          1   -1    0    0  501    0  0.00000000000E+00 -0.00000000000E+00 -0.74202185192E+03  0.74202185192E+03  0.00000000000E+00 0. -1.
         23    2    1    2    0    0  0.14757423109E+03  0.82918491568E+03  0.60783912755E+03  0.10428056732E+04  0.93002628756E+02 0.  0.
         11    1    3    3    0    0  0.14355630763E+02  0.33722968681E+03  0.25097457309E+03  0.42061643113E+03  0.00000000000E+00 0. -1.
        -11    1    3    3    0    0  0.13321860033E+03  0.49195522886E+03  0.35686455446E+03  0.62218924204E+03  0.00000000000E+00 0.  1.
         22    1    1    2    0    0 -0.14757423109E+03 -0.82918491568E+03 -0.18646726924E+03  0.86260988898E+03  0.00000000000E+00 0. -1.
<mgrwt>
<rscale>  0 0.18582395E+04</rscale>
<asrwt>0</asrwt>
<pdfrwt beam="1">  1        1 0.11415721E+00 0.18582395E+04</pdfrwt>
<pdfrwt beam="2">  1       -1 0.17898365E+00 0.18582395E+04</pdfrwt>
<totfact> 0.49487647E+00</totfact>
</mgrwt>
</event>
<event>
 6    1  0.9988873E-007  0.2126175E+04  0.7818608E-02  0.8549800E-01
          2   -1    0    0  501    0  0.00000000000E+00  0.00000000000E+00  0.89212410891E+03  0.89212410891E+03  0.00000000000E+00 0. -1.
         -2   -1    0    0    0  501 -0.00000000000E+00 -0.00000000000E+00 -0.12668134562E+04  0.12668134562E+04  0.00000000000E+00 0.  1.
         23    2    1    2    0    0 -0.31593689873E+03 -0.73888371730E+03 -0.89139910116E+03  0.12035558396E+04  0.90493258205E+02 0.  0.
         13    1    3    3    0    0 -0.10950307299E+03 -0.36979180692E+03 -0.41522332328E+03  0.56669860743E+03  0.00000000000E+00 0. -1.
        -13    1    3    3    0    0 -0.20643382574E+03 -0.36909191038E+03 -0.47617577788E+03  0.63685723216E+03  0.00000000000E+00 0.  1.
         22    1    1    2    0    0  0.31593689873E+03  0.73888371730E+03  0.51670975389E+03  0.95538172551E+03  0.00000000000E+00 0. -1.
<mgrwt>
<rscale>  0 0.21261748E+04</rscale>
<asrwt>0</asrwt>
<pdfrwt beam="1">  1        2 0.13724986E+00 0.21261748E+04</pdfrwt>
<pdfrwt beam="2">  1       -2 0.19489438E+00 0.21261748E+04</pdfrwt>
<totfact> 0.39226155E+00</totfact>
</mgrwt>
</event>
<event>
 6    1  0.9988873E-007  0.4386164E+04  0.7818608E-02  0.7930875E-01
          2   -1    0    0  501    0  0.00000000000E+00  0.00000000000E+00  0.29479344748E+04  0.29479344748E+04  0.00000000000E+00 0. -1.
         -2   -1    0    0    0  501 -0.00000000000E+00 -0.00000000000E+00 -0.16315180722E+04  0.16315180722E+04  0.00000000000E+00 0.  1.
         23    2    1    2    0    0  0.21720554055E+04  0.69109054303E+02  0.95881505738E+03  0.23770721375E+04  0.92438555721E+02 0.  0.
         13    1    3    3    0    0  0.16976107190E+04  0.76192125707E+02  0.71521835419E+03  0.18436986433E+04  0.00000000000E+00 0.  1.
        -13    1    3    3    0    0  0.47444468654E+03 -0.70830714031E+01  0.24359670319E+03  0.53337349417E+03  0.00000000000E+00 0. -1.
         22    1    1    2    0    0 -0.21720554055E+04 -0.69109054303E+02  0.35760134523E+03  0.22023804095E+04  0.00000000000E+00 0.  1.
<mgrwt>
<rscale>  0 0.43861639E+04</rscale>
<asrwt>0</asrwt>
<pdfrwt beam="1">  1        2 0.45352838E+00 0.43861639E+04</pdfrwt>
<pdfrwt beam="2">  1       -2 0.25100278E+00 0.43861639E+04</pdfrwt>
<totfact> 0.90869106E-02</totfact>
</mgrwt>
</event>
<event>
 6    1  0.9988873E-007  0.3498661E+04  0.7818608E-02  0.8114107E-01
          2   -1    0    0  501    0  0.00000000000E+00  0.00000000000E+00  0.22899439661E+04  0.22899439661E+04  0.00000000000E+00 0. -1.
         -2   -1    0    0    0  501 -0.00000000000E+00 -0.00000000000E+00 -0.13363458795E+04  0.13363458795E+04  0.00000000000E+00 0.  1.
         23    2    1    2    0    0  0.16055150413E+02  0.17413331735E+04  0.63612171273E+03  0.18561796127E+04  0.90845650388E+02 0.  0.
         11    1    3    3    0    0  0.25691450201E+02  0.14632601101E+04  0.50099726590E+03  0.15468640731E+04  0.00000000000E+00 0.  1.
        -11    1    3    3    0    0 -0.96362997879E+01  0.27807306341E+03  0.13512444682E+03  0.30931553954E+03  0.00000000000E+00 0. -1.
         22    1    1    2    0    0 -0.16055150413E+02 -0.17413331735E+04  0.31747637390E+03  0.17701102330E+04  0.00000000000E+00 0. -1.
<mgrwt>
<rscale>  0 0.34986610E+04</rscale>
<asrwt>0</asrwt>
<pdfrwt beam="1">  1        2 0.35229907E+00 0.34986610E+04</pdfrwt>
<pdfrwt beam="2">  1       -2 0.20559167E+00 0.34986610E+04</pdfrwt>
<totfact> 0.46158179E-01</totfact>
</mgrwt>
</event>
<event>
 6    1  0.9988873E-007  0.3002760E+04  0.7818608E-02  0.8242943E-01
          2   -1    0    0  501    0  0.00000000000E+00  0.00000000000E+00  0.25124792063E+04  0.25124792063E+04  0.00000000000E+00 0. -1.
         -2   -1    0    0    0  501 -0.00000000000E+00 -0.00000000000E+00 -0.89717855677E+03  0.89717855677E+03  0.00000000000E+00 0.  1.
         23    2    1    2    0    0  0.27516168309E+03  0.66546396542E+03 -0.68525061904E+03  0.99903701720E+03  0.99751239193E+02 0.  0.
         13    1    3    3    0    0  0.14018597770E+03  0.31403111887E+03 -0.39462004194E+03  0.52344305274E+03  0.00000000000E+00 0.  1.
        -13    1    3    3    0    0  0.13497570539E+03  0.35143284655E+03 -0.29063057710E+03  0.47559396446E+03  0.00000000000E+00 0. -1.
         22    1    1    2    0    0 -0.27516168309E+03 -0.66546396542E+03  0.23005512686E+04  0.24106207459E+04  0.00000000000E+00 0. -1.
<mgrwt>
<rscale>  0 0.30027604E+04</rscale>
<asrwt>0</asrwt>
<pdfrwt beam="1">  1        2 0.38653526E+00 0.30027604E+04</pdfrwt>
<pdfrwt beam="2">  1       -2 0.13802747E+00 0.30027604E+04</pdfrwt>
<totfact> 0.10915593E+00</totfact>
</mgrwt>
</event>
<event>
 6    1  0.9988873E-007  0.5464794E+03  0.7818608E-02  0.1002312E+00
          1   -1    0    0  501    0  0.00000000000E+00  0.00000000000E+00  0.59028155973E+03  0.59028155973E+03  0.00000000000E+00 0. -1.
         -1   -1    0    0    0  501 -0.00000000000E+00 -0.00000000000E+00 -0.12648190108E+03  0.12648190108E+03  0.00000000000E+00 0.  1.
         23    2    1    2    0    0  0.12167958829E+03  0.50412144132E+02 -0.64351298814E+02  0.17243751035E+03  0.90809134087E+02 0.  0.
         13    1    3    3    0    0  0.44591155570E+02 -0.21993111151E+02 -0.40241301898E+02  0.63964290597E+02  0.00000000000E+00 0. -1.
        -13    1    3    3    0    0  0.77088432722E+02  0.72405255284E+02 -0.24109996916E+02  0.10847321975E+03  0.00000000000E+00 0.  1.
         22    1    1    2    0    0 -0.12167958829E+03 -0.50412144132E+02  0.52815095746E+03  0.54432595046E+03  0.00000000000E+00 0. -1.
<mgrwt>
<rscale>  0 0.54647940E+03</rscale>
<asrwt>0</asrwt>
<pdfrwt beam="1">  1        1 0.90812546E-01 0.54647940E+03</pdfrwt>
<pdfrwt beam="2">  1       -1 0.19458754E-01 0.54647940E+03</pdfrwt>
<totfact> 0.75656046E+02</totfact>
</mgrwt>
</event>
<event>
 6    1  0.9988873E-007  0.2395198E+04  0.7818608E-02  0.8441304E-01
          1   -1    0    0  501    0  0.00000000000E+00  0.00000000000E+00  0.28959697898E+04  0.28959697898E+04  0.00000000000E+00 0. -1.
         -1   -1    0    0    0  501 -0.00000000000E+00 -0.00000000000E+00 -0.49525477696E+03  0.49525477696E+03  0.00000000000E+00 0.  1.
         23    2    1    2    0    0  0.56401303038E+03  0.72188495174E+03  0.11391993404E+03  0.92775946361E+03  0.92364976834E+02 0.  0.
         11    1    3    3    0    0  0.42464577602E+03  0.49223140626E+03  0.10843093123E+03  0.65906984398E+03  0.00000000000E+00 0. -1.
        -11    1    3    3    0    0  0.13936725436E+03  0.22965354548E+03  0.54890028069E+01  0.26868961963E+03  0.00000000000E+00 0.  1.
         22    1    1    2    0    0 -0.56401303038E+03 -0.72188495174E+03  0.22867950788E+04  0.24634651031E+04  0.00000000000E+00 0. -1.
<mgrwt>
<rscale>  0 0.23951976E+04</rscale>
<asrwt>0</asrwt>
<pdfrwt beam="1">  1        1 0.44553380E+00 0.23951976E+04</pdfrwt>
<pdfrwt beam="2">  1       -1 0.76193045E-01 0.23951976E+04</pdfrwt>
<totfact> 0.11029567E+00</totfact>
</mgrwt>
</event>
<event>
 6    1  0.9988873E-007  0.1845631E+04  0.7818608E-02  0.8682403E-01
          1   -1    0    0  501    0  0.00000000000E+00  0.00000000000E+00  0.44331855190E+03  0.44331855190E+03  0.00000000000E+00 0. -1.
         -1   -1    0    0    0  501 -0.00000000000E+00 -0.00000000000E+00 -0.19209412399E+04  0.19209412399E+04  0.00000000000E+00 0.  1.
         23    2    1    2    0    0 -0.61648068619E+03  0.47035701020E+03 -0.13761403278E+04  0.15822221822E+04  0.91546044966E+02 0.  0.
         13    1    3    3    0    0 -0.10755572849E+03  0.12118529550E+03 -0.32875565047E+03  0.36651655937E+03  0.00000000000E+00 0. -1.
        -13    1    3    3    0    0 -0.50892495770E+03  0.34917171470E+03 -0.10473846774E+04  0.12157056228E+04  0.00000000000E+00 0.  1.
         22    1    1    2    0    0  0.61648068619E+03 -0.47035701020E+03 -0.10148236018E+03  0.78203760966E+03  0.00000000000E+00 0. -1.
<mgrwt>
<rscale>  0 0.18456315E+04</rscale>
<asrwt>0</asrwt>
<pdfrwt beam="1">  1        1 0.68202853E-01 0.18456315E+04</pdfrwt>
<pdfrwt beam="2">  1       -1 0.29552943E+00 0.18456315E+04</pdfrwt>
<totfact> 0.17355194E+00</totfact>
</mgrwt>
</event>
<event>
 6    1  0.9988873E-007  0.1150051E+04  0.7818608E-02  0.9157737E-01
          1   -1    0    0  501    0  0.00000000000E+00  0.00000000000E+00  0.83998501021E+03  0.83998501021E+03  0.00000000000E+00 0. -1.
         -1   -1    0    0    0  501 -0.00000000000E+00 -0.00000000000E+00 -0.39364310129E+03  0.39364310129E+03  0.00000000000E+00 0.  1.
         23    2    1    2    0    0  0.45624330320E+03  0.94958177470E+02  0.57950132474E+03  0.74895663801E+03  0.89102486303E+02 0.  0.
         11    1    3    3    0    0  0.36753988735E+03  0.75898140451E+02  0.40417717452E+03  0.55154808033E+03  0.00000000000E+00 0.  1.
        -11    1    3    3    0    0  0.88703415851E+02  0.19060037018E+02  0.17532415022E+03  0.19740855768E+03  0.00000000000E+00 0. -1.
         22    1    1    2    0    0 -0.45624330320E+03 -0.94958177470E+02 -0.13315941582E+03  0.48467147348E+03  0.00000000000E+00 0.  1.
<mgrwt>
<rscale>  0 0.11500510E+04</rscale>
<asrwt>0</asrwt>
<pdfrwt beam="1">  1        1 0.12922846E+00 0.11500510E+04</pdfrwt>
<pdfrwt beam="2">  1       -1 0.60560477E-01 0.11500510E+04</pdfrwt>
<totfact> 0.56089125E+01</totfact>
</mgrwt>
</event>
<event>
 6    1  0.9988873E-007  0.2317881E+04  0.7818608E-02  0.8470904E-01
         -2   -1    0    0    0  501 -0.00000000000E+00  0.00000000000E+00  0.51951818865E+03  0.51951818865E+03  0.00000000000E+00 0.  1.
          2   -1    0    0  501    0  0.00000000000E+00 -0.00000000000E+00 -0.25853635752E+04  0.25853635752E+04  0.00000000000E+00 0. -1.
         23    2    1    2    0    0 -0.62519443480E+03 -0.97338822505E+03 -0.10704217571E+04  0.15787032291E+04  0.90268651489E+02 0.  0.
         13    1    3    3    0    0 -0.35610105256E+03 -0.58293360646E+03 -0.68795178952E+03  0.96948296214E+03  0.00000000000E+00 0. -1.
        -13    1    3    3    0    0 -0.26909338223E+03 -0.39045461858E+03 -0.38246996759E+03  0.60922026693E+03  0.00000000000E+00 0.  1.
         22    1    1    2    0    0  0.62519443480E+03  0.97338822505E+03 -0.99542362945E+03  0.15261785348E+04  0.00000000000E+00 0.  1.
<mgrwt>
<rscale>  0 0.23178813E+04</rscale>
<asrwt>0</asrwt>
<pdfrwt beam="1">  1        2 0.39774826E+00 0.23178813E+04</pdfrwt>
<pdfrwt beam="2">  1       -2 0.79925873E-01 0.23178813E+04</pdfrwt>
<totfact> 0.38925821E+00</totfact>
</mgrwt>
</event>
<event>
 6    1  0.9988873E-007  0.1177757E+04  0.7818608E-02  0.9132552E-01
          4   -1    0    0  501    0  0.00000000000E+00  0.00000000000E+00  0.46039958336E+03  0.46039958336E+03  0.00000000000E+00 0. -1.
         -4   -1    0    0    0  501 -0.00000000000E+00 -0.00000000000E+00 -0.75321059930E+03  0.75321059930E+03  0.00000000000E+00 0.  1.
         23    2    1    2    0    0  0.98651764821E+02  0.50023679520E+03 -0.44337655348E+03  0.68197214502E+03  0.92380822841E+02 0.  0.
         11    1    3    3    0    0  0.17997886698E+02  0.11253339172E+03 -0.15363983617E+03  0.19129267481E+03  0.00000000000E+00 0.  1.
        -11    1    3    3    0    0  0.80653878123E+02  0.38770340348E+03 -0.28973671732E+03  0.49067947021E+03  0.00000000000E+00 0. -1.
         22    1    1    2    0    0 -0.98651764821E+02 -0.50023679520E+03  0.15056553754E+03  0.53163803765E+03  0.00000000000E+00 0. -1.
<mgrwt>
<rscale>  0 0.11777569E+04</rscale>
<asrwt>0</asrwt>
<pdfrwt beam="1">  1        4 0.70830705E-01 0.11777569E+04</pdfrwt>
<pdfrwt beam="2">  1       -4 0.11587855E+00 0.11777569E+04</pdfrwt>
<totfact> 0.20741977E+00</totfact>
</mgrwt>
</event>
<event>
 6    1  0.9988873E-007  0.2130306E+04  0.7818608E-02  0.8548010E-01
         -1   -1    0    0    0  501 -0.00000000000E+00  0.00000000000E+00  0.68697076802E+03  0.68697076802E+03  0.00000000000E+00 0.  1.
          1   -1    0    0  501    0  0.00000000000E+00 -0.00000000000E+00 -0.16515268384E+04  0.16515268384E+04  0.00000000000E+00 0. -1.
         23    2    1    2    0    0 -0.13516108825E+03 -0.71382772676E+03  0.36883932890E+03  0.82002408539E+03  0.92620228906E+02 0.  0.
         11    1    3    3    0    0 -0.70784272908E+02 -0.25409746707E+03  0.91073132858E+02  0.27905241728E+03  0.00000000000E+00 0.  1.
        -11    1    3    3    0    0 -0.64376815343E+02 -0.45973025969E+03  0.27776619604E+03  0.54097166810E+03  0.00000000000E+00 0. -1.
         22    1    1    2    0    0  0.13516108825E+03  0.71382772676E+03 -0.13333953993E+04  0.15184735210E+04  0.00000000000E+00 0. -1.
<mgrwt>
<rscale>  0 0.21303058E+04</rscale>
<asrwt>0</asrwt>
<pdfrwt beam="1">  1        1 0.25408105E+00 0.21303058E+04</pdfrwt>
<pdfrwt beam="2">  1       -1 0.10568781E+00 0.21303058E+04</pdfrwt>
<totfact> 0.39559170E+00</totfact>
</mgrwt>
</event>
<event>
 6    1  0.9988873E-007  0.3419772E+04  0.7818608E-02  0.8133071E-01
          1   -1    0    0  501    0  0.00000000000E+00  0.00000000000E+00  0.29998632217E+04  0.29998632217E+04  0.00000000000E+00 0. -1.
         -1   -1    0    0    0  501 -0.00000000000E+00 -0.00000000000E+00 -0.97461463255E+03  0.97461463255E+03  0.00000000000E+00 0.  1.
         23    2    1    2    0    0 -0.65695026419E+03  0.14765274918E+04  0.16581374661E+04  0.23172248077E+04  0.91618063332E+02 0.  0.
         11    1    3    3    0    0 -0.54082586759E+03  0.11241029129E+04  0.12922146958E+04  0.17960842959E+04  0.00000000000E+00 0. -1.
        -11    1    3    3    0    0 -0.11612439660E+03  0.35242457888E+03  0.36592277025E+03  0.52114051184E+03  0.00000000000E+00 0.  1.
         22    1    1    2    0    0  0.65695026419E+03 -0.14765274918E+04  0.36711112307E+03  0.16572530465E+04  0.00000000000E+00 0.  1.
<mgrwt>
<rscale>  0 0.34197723E+04</rscale>
<asrwt>0</asrwt>
<pdfrwt beam="1">  1        1 0.46151741E+00 0.34197723E+04</pdfrwt>
<pdfrwt beam="2">  1       -1 0.14994071E+00 0.34197723E+04</pdfrwt>
<totfact> 0.17137850E-01</totfact>
</mgrwt>
</event>
<event>
 6    1  0.9988873E-007  0.2156058E+04  0.7818608E-02  0.8536944E-01
          2   -1    0    0  501    0  0.00000000000E+00  0.00000000000E+00  0.23972168617E+04  0.23972168617E+04  0.00000000000E+00 0. -1.
         -2   -1    0    0    0  501 -0.00000000000E+00 -0.00000000000E+00 -0.48478994100E+03  0.48478994100E+03  0.00000000000E+00 0.  1.
         23    2    1    2    0    0  0.62268438835E+03 -0.55363801340E+03  0.47670650564E+02  0.83956540957E+03  0.91360213722E+02 0.  0.
         13    1    3    3    0    0  0.19734257604E+03 -0.23427037483E+03  0.15971112504E+02  0.30672752937E+03  0.00000000000E+00 0.  1.
        -13    1    3    3    0    0  0.42534181230E+03 -0.31936763858E+03  0.31699538060E+02  0.53283788020E+03  0.00000000000E+00 0. -1.
         22    1    1    2    0    0 -0.62268438835E+03  0.55363801340E+03  0.18647562701E+04  0.20424413931E+04  0.00000000000E+00 0. -1.
<mgrwt>
<rscale>  0 0.21560581E+04</rscale>
<asrwt>0</asrwt>
<pdfrwt beam="1">  1        2 0.36880258E+00 0.21560581E+04</pdfrwt>
<pdfrwt beam="2">  1       -2 0.74583070E-01 0.21560581E+04</pdfrwt>
<totfact> 0.59178181E+00</totfact>
</mgrwt>
</event>
<event>
 6    1  0.9988873E-007  0.3213465E+04  0.7818608E-02  0.8185270E-01
         -2   -1    0    0    0  501 -0.00000000000E+00  0.00000000000E+00  0.14853445340E+04  0.14853445340E+04  0.00000000000E+00 0.  1.
          2   -1    0    0  501    0  0.00000000000E+00 -0.00000000000E+00 -0.17380409092E+04  0.17380409092E+04  0.00000000000E+00 0. -1.
         23    2    1    2    0    0 -0.11884677825E+04 -0.11786380311E+03  0.94973468864E+03  0.15286323611E+04  0.91506122248E+02 0.  0.
         13    1    3    3    0    0 -0.17720798797E+03 -0.47031727493E+02  0.16492332323E+03  0.24660567093E+03  0.00000000000E+00 0.  1.
        -13    1    3    3    0    0 -0.10112597945E+04 -0.70832075617E+02  0.78481136541E+03  0.12820266901E+04  0.00000000000E+00 0. -1.
         22    1    1    2    0    0  0.11884677825E+04  0.11786380311E+03 -0.12024310639E+04  0.16947530822E+04  0.00000000000E+00 0. -1.
<mgrwt>
<rscale>  0 0.32134651E+04</rscale>
<asrwt>0</asrwt>
<pdfrwt beam="1">  1        2 0.26739091E+00 0.32134651E+04</pdfrwt>
<pdfrwt beam="2">  1       -2 0.22851454E+00 0.32134651E+04</pdfrwt>
<totfact> 0.68633567E-01</totfact>
</mgrwt>
</event>
<event>
 6    1  0.9988873E-007  0.1206041E+04  0.7818608E-02  0.9107585E-01
          1   -1    0    0  501    0  0.00000000000E+00  0.00000000000E+00  0.14281536155E+04  0.14281536155E+04  0.00000000000E+00 0. -1.
         -1   -1    0    0    0  501 -0.00000000000E+00 -0.00000000000E+00 -0.25461828522E+03  0.25461828522E+03  0.00000000000E+00 0.  1.
         23    2    1    2    0    0  0.53453984998E+03 -0.26348084257E+03  0.68267740348E+03  0.91069903504E+03  0.90384122428E+02 0.  0.
         13    1    3    3    0    0  0.46638378130E+03 -0.22003334564E+03  0.63034503345E+03  0.81440982672E+03  0.00000000000E+00 0. -1.
        -13    1    3    3    0    0  0.68156068676E+02 -0.43447496933E+02  0.52332370026E+02  0.96289208324E+02  0.00000000000E+00 0.  1.
         22    1    1    2    0    0 -0.53453984998E+03  0.26348084257E+03  0.49085792682E+03  0.77207286569E+03  0.00000000000E+00 0. -1.
<mgrwt>
<rscale>  0 0.12060415E+04</rscale>
<asrwt>0</asrwt>
<pdfrwt beam="1">  1        1 0.21971594E+00 0.12060415E+04</pdfrwt>
<pdfrwt beam="2">  1       -1 0.39172045E-01 0.12060415E+04</pdfrwt>
<totfact> 0.45947034E+01</totfact>
</mgrwt>
</event>
<event>
 6    1  0.9988873E-007  0.1926582E+04  0.7818608E-02  0.8641737E-01
          1   -1    0    0  501    0  0.00000000000E+00  0.00000000000E+00  0.65958183304E+03  0.65958183304E+03  0.00000000000E+00 0. -1.
         -1   -1    0    0    0  501 -0.00000000000E+00 -0.00000000000E+00 -0.14068448642E+04  0.14068448642E+04  0.00000000000E+00 0.  1.
         23    2    1    2    0    0  0.34008838280E+03 -0.86608176918E+03 -0.63304153205E+03  0.11289810776E+04  0.89994184512E+02 0.  0.
         11    1    3    3    0    0  0.12975011139E+03 -0.24195981415E+03 -0.21715153360E+03  0.35004918456E+03  0.00000000000E+00 0. -1.
        -11    1    3    3    0    0  0.21033827141E+03 -0.62412195503E+03 -0.41588999845E+03  0.77893189303E+03  0.00000000000E+00 0.  1.
         22    1    1    2    0    0 -0.34008838280E+03  0.86608176918E+03 -0.11422149916E+03  0.93744561970E+03  0.00000000000E+00 0.  1.
<mgrwt>
<rscale>  0 0.19265818E+04</rscale>
<asrwt>0</asrwt>
<pdfrwt beam="1">  1        1 0.10147413E+00 0.19265818E+04</pdfrwt>
<pdfrwt beam="2">  1       -1 0.21643767E+00 0.19265818E+04</pdfrwt>
<totfact> 0.32344375E+00</totfact>
</mgrwt>
</event>
<event>
 6    1  0.9988873E-007  0.3112679E+04  0.7818608E-02  0.8212267E-01
          1   -1    0    0  501    0  0.00000000000E+00  0.00000000000E+00  0.79701387283E+03  0.79701387283E+03  0.00000000000E+00 0. -1.
         -1   -1    0    0    0  501 -0.00000000000E+00 -0.00000000000E+00 -0.30390855348E+04  0.30390855348E+04  0.00000000000E+00 0.  1.
         23    2    1    2    0    0 -0.26174430918E+03  0.12763743582E+04 -0.75857635660E+02  0.13082297920E+04  0.89828848754E+02 0.  0.
         13    1    3    3    0    0 -0.23802276491E+03  0.97153843399E+03 -0.58466243141E+02  0.10019780771E+04  0.00000000000E+00 0. -1.
        -13    1    3    3    0    0 -0.23721544275E+02  0.30483592425E+03 -0.17391392519E+02  0.30625171495E+03  0.00000000000E+00 0.  1.
         22    1    1    2    0    0  0.26174430918E+03 -0.12763743582E+04 -0.21662140263E+04  0.25278696156E+04  0.00000000000E+00 0. -1.
<mgrwt>
<rscale>  0 0.31126794E+04</rscale>
<asrwt>0</asrwt>
<pdfrwt beam="1">  1        1 0.12261752E+00 0.31126794E+04</pdfrwt>
<pdfrwt beam="2">  1       -1 0.46755163E+00 0.31126794E+04</pdfrwt>
<totfact> 0.45911592E-02</totfact>
</mgrwt>
</event>
<event>
 6    1  0.9988873E-007  0.2512865E+04  0.7818608E-02  0.8398417E-01
          2   -1    0    0  501    0  0.00000000000E+00  0.00000000000E+00  0.13410411483E+04  0.13410411483E+04  0.00000000000E+00 0. -1.
         -2   -1    0    0    0  501 -0.00000000000E+00 -0.00000000000E+00 -0.11771616881E+04  0.11771616881E+04  0.00000000000E+00 0.  1.
         23    2    1    2    0    0  0.11480644805E+04  0.43767020822E+03  0.33605952163E+03  0.12775363880E+04  0.97754580620E+02 0.  0.
         11    1    3    3    0    0  0.42160831238E+03  0.18363354355E+03  0.82182924693E+02  0.46714974098E+03  0.00000000000E+00 0.  1.
        -11    1    3    3    0    0  0.72645616815E+03  0.25403666467E+03  0.25387659694E+03  0.81038664704E+03  0.00000000000E+00 0. -1.
         22    1    1    2    0    0 -0.11480644805E+04 -0.43767020822E+03 -0.17218006138E+03  0.12406664484E+04  0.00000000000E+00 0.  1.
<mgrwt>
<rscale>  0 0.25128647E+04</rscale>
<asrwt>0</asrwt>
<pdfrwt beam="1">  1        2 0.20631402E+00 0.25128647E+04</pdfrwt>
<pdfrwt beam="2">  1       -2 0.18110180E+00 0.25128647E+04</pdfrwt>
<totfact> 0.24842061E+00</totfact>
</mgrwt>
</event>
<event>
 6    1  0.9988873E-007  0.3643716E+04  0.7818608E-02  0.8080551E-01
          1   -1    0    0  501    0  0.00000000000E+00  0.00000000000E+00  0.16862234356E+04  0.16862234356E+04  0.00000000000E+00 0. -1.
         -1   -1    0    0    0  501 -0.00000000000E+00 -0.00000000000E+00 -0.19684028177E+04  0.19684028177E+04  0.00000000000E+00 0.  1.
         23    2    1    2    0    0 -0.22276599306E+03  0.18024141954E+04 -0.26969597445E+03  0.18384551559E+04  0.94126629648E+02 0.  0.
         13    1    3    3    0    0 -0.78630751300E+02  0.74551460177E+03 -0.66522930857E+02  0.75259558651E+03  0.00000000000E+00 0.  1.
        -13    1    3    3    0    0 -0.14413524176E+03  0.10568995936E+04 -0.20317304359E+03  0.10858595694E+04  0.00000000000E+00 0. -1.
         22    1    1    2    0    0  0.22276599306E+03 -0.18024141954E+04 -0.12483407664E+02  0.18161710973E+04  0.00000000000E+00 0. -1.
<mgrwt>
<rscale>  0 0.36437162E+04</rscale>
<asrwt>0</asrwt>
<pdfrwt beam="1">  1        1 0.25941899E+00 0.36437162E+04</pdfrwt>
<pdfrwt beam="2">  1       -1 0.30283120E+00 0.36437162E+04</pdfrwt>
<totfact> 0.12427364E-01</totfact>
</mgrwt>
</event>
<event>
 6    1  0.9988873E-007  0.1143060E+04  0.7818608E-02  0.9164210E-01
          4   -1    0    0  501    0  0.00000000000E+00  0.00000000000E+00  0.36481676906E+03  0.36481676906E+03  0.00000000000E+00 0. -1.
         -4   -1    0    0    0  501 -0.00000000000E+00 -0.00000000000E+00 -0.89537182272E+03  0.89537182272E+03  0.00000000000E+00 0.  1.
         23    2    1    2    0    0  0.54051572933E+03 -0.15998227750E+03 -0.34324496422E+03  0.66618804265E+03  0.90762436886E+02 0.  0.
         13    1    3    3    0    0  0.33530866774E+03 -0.13101877707E+03 -0.18067797088E+03  0.40279318734E+03  0.00000000000E+00 0. -1.
        -13    1    3    3    0    0  0.20520706159E+03 -0.28963500424E+02 -0.16256699333E+03  0.26339485531E+03  0.00000000000E+00 0.  1.
         22    1    1    2    0    0 -0.54051572933E+03  0.15998227750E+03 -0.18731008944E+03  0.59400054913E+03  0.00000000000E+00 0.  1.
<mgrwt>
<rscale>  0 0.11430602E+04</rscale>
<asrwt>0</asrwt>
<pdfrwt beam="1">  1        4 0.56125657E-01 0.11430602E+04</pdfrwt>
<pdfrwt beam="2">  1       -4 0.13774951E+00 0.11430602E+04</pdfrwt>
<totfact> 0.22251509E+00</totfact>
</mgrwt>
</event>
<event>
 6    1  0.9988873E-007  0.4770618E+03  0.7818608E-02  0.1019946E+00
          1   -1    0    0  501    0  0.00000000000E+00  0.00000000000E+00  0.33918055681E+03  0.33918055681E+03  0.00000000000E+00 0. -1.
         -1   -1    0    0    0  501 -0.00000000000E+00 -0.00000000000E+00 -0.16774841755E+03  0.16774841755E+03  0.00000000000E+00 0.  1.
         23    2    1    2    0    0 -0.16301516068E+03  0.86333938467E+02  0.23499772464E+03  0.31181855643E+03  0.89327431422E+02 0.  0.
         11    1    3    3    0    0 -0.12169946300E+03  0.51819333997E+02  0.21866718313E+03  0.25556083356E+03  0.00000000000E+00 0. -1.
        -11    1    3    3    0    0 -0.41315697678E+02  0.34514604471E+02  0.16330541507E+02  0.56257722868E+02  0.00000000000E+00 0.  1.
         22    1    1    2    0    0  0.16301516068E+03 -0.86333938467E+02 -0.63565585384E+02  0.19511041793E+03  0.00000000000E+00 0. -1.
<mgrwt>
<rscale>  0 0.47706185E+03</rscale>
<asrwt>0</asrwt>
<pdfrwt beam="1">  1        1 0.52181624E-01 0.47706185E+03</pdfrwt>
<pdfrwt beam="2">  1       -1 0.25807449E-01 0.47706185E+03</pdfrwt>
<totfact> 0.99206543E+02</totfact>
</mgrwt>
</event>
<event>
 6    1  0.9988873E-007  0.1136635E+04  0.7818608E-02  0.9170203E-01
          2   -1    0    0  501    0  0.00000000000E+00  0.00000000000E+00  0.14139344182E+04  0.14139344182E+04  0.00000000000E+00 0. -1.
         -2   -1    0    0    0  501 -0.00000000000E+00 -0.00000000000E+00 -0.22842979720E+03  0.22842979720E+03  0.00000000000E+00 0.  1.
         23    2    1    2    0    0 -0.25581462214E+03 -0.39742104336E+03  0.10428775175E+04  0.11486769690E+04  0.92090477509E+02 0.  0.
         11    1    3    3    0    0 -0.16166839918E+02 -0.18744831046E+02  0.12275448934E+03  0.12522539702E+03  0.00000000000E+00 0.  1.
        -11    1    3    3    0    0 -0.23964778222E+03 -0.37867621232E+03  0.92012302816E+03  0.10234515720E+04  0.00000000000E+00 0. -1.
         22    1    1    2    0    0  0.25581462214E+03  0.39742104336E+03  0.14262710355E+03  0.49368724642E+03  0.00000000000E+00 0.  1.
<mgrwt>
<rscale>  0 0.11366350E+04</rscale>
<asrwt>0</asrwt>
<pdfrwt beam="1">  1        2 0.21752837E+00 0.11366350E+04</pdfrwt>
<pdfrwt beam="2">  1       -2 0.35143047E-01 0.11366350E+04</pdfrwt>
<totfact> 0.10690072E+02</totfact>
</mgrwt>
</event>
<event>
 6    1  0.9988873E-007  0.3066554E+04  0.7818608E-02  0.8224977E-01
          1   -1    0    0  501    0  0.00000000000E+00  0.00000000000E+00  0.17361575381E+04  0.17361575381E+04  0.00000000000E+00 0. -1.
         -1   -1    0    0    0  501 -0.00000000000E+00 -0.00000000000E+00 -0.13541045859E+04  0.13541045859E+04  0.00000000000E+00 0.  1.
         23    2    1    2    0    0 -0.77535940845E+03 -0.10542310810E+04 -0.61124734511E+03  0.14473285085E+04  0.92472213347E+02 0.  0.
         13    1    3    3    0    0 -0.60237979586E+03 -0.75660649795E+03 -0.43201746372E+03  0.10592232532E+04  0.00000000000E+00 0. -1.
        -13    1    3    3    0    0 -0.17297961259E+03 -0.29762458300E+03 -0.17922988140E+03  0.38810525527E+03  0.00000000000E+00 0.  1.
         22    1    1    2    0    0  0.77535940845E+03  0.10542310810E+04  0.99330029732E+03  0.16429336155E+04  0.00000000000E+00 0. -1.
<mgrwt>
<rscale>  0 0.30665543E+04</rscale>
<asrwt>0</asrwt>
<pdfrwt beam="1">  1        1 0.26710116E+00 0.30665543E+04</pdfrwt>
<pdfrwt beam="2">  1       -1 0.20832378E+00 0.30665543E+04</pdfrwt>
<totfact> 0.50292464E-01</totfact>
</mgrwt>
</event>
<event>
 6    1  0.9988873E-007  0.2386117E+04  0.7818608E-02  0.8444720E-01
          1   -1    0    0  501    0  0.00000000000E+00  0.00000000000E+00  0.22037369023E+04  0.22037369023E+04  0.00000000000E+00 0. -1.
         -1   -1    0    0    0  501 -0.00000000000E+00 -0.00000000000E+00 -0.64589746026E+03  0.64589746026E+03  0.00000000000E+00 0.  1.
         23    2    1    2    0    0 -0.25033806358E+03 -0.50810628780E+03  0.20316937943E+04  0.21111365001E+04  0.90975283855E+02 0.  0.
         13    1    3    3    0    0 -0.18639231129E+03 -0.29135603977E+03  0.13097437308E+04  0.13546435236E+04  0.00000000000E+00 0. -1.
        -13    1    3    3    0    0 -0.63945752293E+02 -0.21675024803E+03  0.72195006354E+03  0.75649297651E+03  0.00000000000E+00 0.  1.
         22    1    1    2    0    0  0.25033806358E+03  0.50810628780E+03 -0.47385435226E+03  0.73849786251E+03  0.00000000000E+00 0.  1.
<mgrwt>
<rscale>  0 0.23861166E+04</rscale>
<asrwt>0</asrwt>
<pdfrwt beam="1">  1        1 0.33903644E+00 0.23861166E+04</pdfrwt>
<pdfrwt beam="2">  1       -1 0.99368841E-01 0.23861166E+04</pdfrwt>
<totfact> 0.18786098E+00</totfact>
</mgrwt>
</event>
<event>
 6    1  0.9988873E-007  0.2635269E+04  0.7818608E-02  0.8356319E-01
          2   -1    0    0  501    0  0.00000000000E+00  0.00000000000E+00  0.90127516887E+03  0.90127516887E+03  0.00000000000E+00 0. -1.
         -2   -1    0    0    0  501 -0.00000000000E+00 -0.00000000000E+00 -0.19263374285E+04  0.19263374285E+04  0.00000000000E+00 0.  1.
         23    2    1    2    0    0  0.28152072957E+03 -0.97283953800E+03 -0.14149336478E+04  0.17424073692E+04  0.90969911868E+02 0.  0.
         11    1    3    3    0    0  0.23242397924E+03 -0.82796445236E+03 -0.11427324787E+04  0.14301690664E+04  0.00000000000E+00 0. -1.
        -11    1    3    3    0    0  0.49096750336E+02 -0.14487508563E+03 -0.27220116908E+03  0.31223830287E+03  0.00000000000E+00 0.  1.
         22    1    1    2    0    0 -0.28152072957E+03  0.97283953800E+03  0.38987138816E+03  0.10852052281E+04  0.00000000000E+00 0. -1.
<mgrwt>
<rscale>  0 0.26352686E+04</rscale>
<asrwt>0</asrwt>
<pdfrwt beam="1">  1        2 0.13865772E+00 0.26352686E+04</pdfrwt>
<pdfrwt beam="2">  1       -2 0.29635960E+00 0.26352686E+04</pdfrwt>
<totfact> 0.86355687E-01</totfact>
</mgrwt>
</event>
<event>
 6    1  0.9988873E-007  0.4374065E+04  0.7818608E-02  0.7933063E-01
         -1   -1    0    0    0  501 -0.00000000000E+00  0.00000000000E+00  0.26204011580E+04  0.26204011580E+04  0.00000000000E+00 0.  1.
          1   -1    0    0  501    0  0.00000000000E+00 -0.00000000000E+00 -0.18253352539E+04  0.18253352539E+04  0.00000000000E+00 0. -1.
         23    2    1    2    0    0  0.17992413702E+04  0.66556103029E+03  0.14628610020E+04  0.24144335576E+04  0.96364410288E+02 0.  0.
         13    1    3    3    0    0  0.29074042085E+03  0.14600055414E+03  0.25005906074E+03  0.41033606712E+03  0.00000000000E+00 0. -1.
        -13    1    3    3    0    0  0.15085009494E+04  0.51956047614E+03  0.12128019413E+04  0.20040974905E+04  0.00000000000E+00 0.  1.
         22    1    1    2    0    0 -0.17992413702E+04 -0.66556103029E+03 -0.66779509792E+03  0.20313028544E+04  0.00000000000E+00 0. -1.
<mgrwt>
<rscale>  0 0.43740648E+04</rscale>
<asrwt>0</asrwt>
<pdfrwt beam="1">  1        1 0.28082081E+00 0.43740648E+04</pdfrwt>
<pdfrwt beam="2">  1       -1 0.40313864E+00 0.43740648E+04</pdfrwt>
<totfact> 0.20232735E-02</totfact>
</mgrwt>
</event>
<event>
 6    1  0.9988873E-007  0.2040101E+04  0.7818608E-02  0.8588098E-01
          2   -1    0    0  501    0  0.00000000000E+00  0.00000000000E+00  0.12225627869E+04  0.12225627869E+04  0.00000000000E+00 0. -1.
         -2   -1    0    0    0  501 -0.00000000000E+00 -0.00000000000E+00 -0.85108373257E+03  0.85108373257E+03  0.00000000000E+00 0.  1.
         23    2    1    2    0    0  0.16550654702E+03  0.38445779353E+02  0.12061114163E+04  0.12218943989E+04  0.97214600166E+02 0.  0.
         13    1    3    3    0    0  0.14689370774E+03  0.25794554369E+02  0.72112183247E+03  0.73638292870E+03  0.00000000000E+00 0.  1.
        -13    1    3    3    0    0  0.18612839278E+02  0.12651224984E+02  0.48498958386E+03  0.48551147023E+03  0.00000000000E+00 0. -1.
         22    1    1    2    0    0 -0.16550654702E+03 -0.38445779353E+02 -0.83463236203E+03  0.85175212051E+03  0.00000000000E+00 0.  1.
<mgrwt>
<rscale>  0 0.20401013E+04</rscale>
<asrwt>0</asrwt>
<pdfrwt beam="1">  1        2 0.18808658E+00 0.20401013E+04</pdfrwt>
<pdfrwt beam="2">  1       -2 0.13093596E+00 0.20401013E+04</pdfrwt>
<totfact> 0.72530499E+00</totfact>
</mgrwt>
</event>
<event>
 6    1  0.9988873E-007  0.1519233E+04  0.7818608E-02  0.8871763E-01
         -1   -1    0    0    0  501 -0.00000000000E+00  0.00000000000E+00  0.79173655798E+03  0.79173655798E+03  0.00000000000E+00 0.  1.
          1   -1    0    0  501    0  0.00000000000E+00 -0.00000000000E+00 -0.72879995405E+03  0.72879995405E+03  0.00000000000E+00 0. -1.
         23    2    1    2    0    0  0.36851452609E+03 -0.64085458578E+03 -0.13109027541E+03  0.75624338374E+03  0.90674357424E+02 0.  0.
         11    1    3    3    0    0  0.30323243834E+03 -0.49786705765E+03 -0.13745813424E+03  0.59892925911E+03  0.00000000000E+00 0. -1.
        -11    1    3    3    0    0  0.65282087755E+02 -0.14298752813E+03  0.63678588311E+01  0.15731412463E+03  0.00000000000E+00 0.  1.
         22    1    1    2    0    0 -0.36851452609E+03  0.64085458578E+03  0.19402687934E+03  0.76429312829E+03  0.00000000000E+00 0.  1.
<mgrwt>
<rscale>  0 0.15192334E+04</rscale>
<asrwt>0</asrwt>
<pdfrwt beam="1">  1        1 0.11212307E+00 0.15192334E+04</pdfrwt>
<pdfrwt beam="2">  1       -1 0.12180562E+00 0.15192334E+04</pdfrwt>
<totfact> 0.14764515E+01</totfact>
</mgrwt>
</event>
<event>
 6    1  0.9988873E-007  0.1134308E+04  0.7818608E-02  0.9172384E-01
          4   -1    0    0  501    0  0.00000000000E+00  0.00000000000E+00  0.39465840960E+03  0.39465840960E+03  0.00000000000E+00 0. -1.
         -4   -1    0    0    0  501 -0.00000000000E+00 -0.00000000000E+00 -0.81504250284E+03  0.81504250284E+03  0.00000000000E+00 0.  1.
         23    2    1    2    0    0  0.27851413551E+03  0.41981740581E+02 -0.73205389888E+03  0.78961680423E+03  0.90880121156E+02 0.  0.
         13    1    3    3    0    0  0.10220342231E+03  0.53340892193E+02 -0.35438919661E+03  0.37266941515E+03  0.00000000000E+00 0. -1.
        -13    1    3    3    0    0  0.17631071321E+03 -0.11359151612E+02 -0.37766470227E+03  0.41694738908E+03  0.00000000000E+00 0.  1.
         22    1    1    2    0    0 -0.27851413551E+03 -0.41981740581E+02  0.31166980565E+03  0.42008410821E+03  0.00000000000E+00 0. -1.
<mgrwt>
<rscale>  0 0.11343075E+04</rscale>
<asrwt>0</asrwt>
<pdfrwt beam="1">  1        4 0.60716679E-01 0.11343075E+04</pdfrwt>
<pdfrwt beam="2">  1       -4 0.12539115E+00 0.11343075E+04</pdfrwt>
<totfact> 0.23912122E+00</totfact>
</mgrwt>
</event>
<event>
 6    1  0.9988873E-007  0.3003756E+04  0.7818608E-02  0.8242659E-01
          2   -1    0    0  501    0  0.00000000000E+00  0.00000000000E+00  0.18709898629E+04  0.18709898629E+04  0.00000000000E+00 0. -1.
         -2   -1    0    0    0  501 -0.00000000000E+00 -0.00000000000E+00 -0.12055850272E+04  0.12055850272E+04  0.00000000000E+00 0.  1.
         23    2    1    2    0    0 -0.14467502591E+04  0.14780940070E+03 -0.45569988116E+02  0.14578040196E+04  0.90454433286E+02 0.  0.
         11    1    3    3    0    0 -0.91920658995E+03  0.12667491016E+03 -0.57835747925E+02  0.92969471420E+03  0.00000000000E+00 0.  1.
        -11    1    3    3    0    0 -0.52754366913E+03  0.21134490545E+02  0.12265759809E+02  0.52810930535E+03  0.00000000000E+00 0. -1.
         22    1    1    2    0    0  0.14467502591E+04 -0.14780940070E+03  0.71097482386E+03  0.16187708705E+04  0.00000000000E+00 0. -1.
<mgrwt>
<rscale>  0 0.30037559E+04</rscale>
<asrwt>0</asrwt>
<pdfrwt beam="1">  1        2 0.28784459E+00 0.30037559E+04</pdfrwt>
<pdfrwt beam="2">  1       -2 0.18547462E+00 0.30037559E+04</pdfrwt>
<totfact> 0.11216601E+00</totfact>
</mgrwt>
</event>
<event>
 6    1  0.9988873E-007  0.3622992E+04  0.7818608E-02  0.8085245E-01
         -2   -1    0    0    0  501 -0.00000000000E+00  0.00000000000E+00  0.15641606029E+04  0.15641606029E+04  0.00000000000E+00 0.  1.
          2   -1    0    0  501    0  0.00000000000E+00 -0.00000000000E+00 -0.20979420291E+04  0.20979420291E+04  0.00000000000E+00 0. -1.
         23    2    1    2    0    0 -0.15179305272E+04 -0.73419971740E+03 -0.93321201141E+03  0.19292705273E+04  0.89653772489E+02 0.  0.
         13    1    3    3    0    0 -0.10648400075E+04 -0.50753273623E+03 -0.69865288286E+03  0.13709812437E+04  0.00000000000E+00 0. -1.
        -13    1    3    3    0    0 -0.45309051968E+03 -0.22666698116E+03 -0.23455912855E+03  0.55828928358E+03  0.00000000000E+00 0.  1.
         22    1    1    2    0    0  0.15179305272E+04  0.73419971740E+03  0.39943058519E+03  0.17328321046E+04  0.00000000000E+00 0.  1.
<mgrwt>
<rscale>  0 0.36229923E+04</rscale>
<asrwt>0</asrwt>
<pdfrwt beam="1">  1        2 0.32276031E+00 0.36229923E+04</pdfrwt>
<pdfrwt beam="2">  1       -2 0.24064009E+00 0.36229923E+04</pdfrwt>
<totfact> 0.35181922E-01</totfact>
</mgrwt>
</event>
<event>
 6    1  0.9988873E-007  0.2918226E+04  0.7818608E-02  0.8267475E-01
          2   -1    0    0  501    0  0.00000000000E+00  0.00000000000E+00  0.24749794857E+04  0.24749794857E+04  0.00000000000E+00 0. -1.
         -2   -1    0    0    0  501 -0.00000000000E+00 -0.00000000000E+00 -0.86021353196E+03  0.86021353196E+03  0.00000000000E+00 0.  1.
         23    2    1    2    0    0  0.72872736540E+03  0.12613193402E+04  0.74695477695E+03  0.16395909742E+04  0.91362316300E+02 0.  0.
         11    1    3    3    0    0  0.47986408386E+03  0.91165070701E+03  0.51681190606E+03  0.11525932053E+04  0.00000000000E+00 0.  1.
        -11    1    3    3    0    0  0.24886328154E+03  0.34966863323E+03  0.23014287089E+03  0.48699776897E+03  0.00000000000E+00 0. -1.
         22    1    1    2    0    0 -0.72872736540E+03 -0.12613193402E+04  0.86781117683E+03  0.16956020435E+04  0.00000000000E+00 0.  1.
<mgrwt>
<rscale>  0 0.29182261E+04</rscale>
<asrwt>0</asrwt>
<pdfrwt beam="1">  1        2 0.38076607E+00 0.29182261E+04</pdfrwt>
<pdfrwt beam="2">  1       -2 0.13234054E+00 0.29182261E+04</pdfrwt>
<totfact> 0.12871405E+00</totfact>
</mgrwt>
</event>
<event>
 6    1  0.9988873E-007  0.1985809E+04  0.7818608E-02  0.8613284E-01
         -2   -1    0    0    0  501 -0.00000000000E+00  0.00000000000E+00  0.53558300659E+03  0.53558300659E+03  0.00000000000E+00 0.  1.
          2   -1    0    0  501    0  0.00000000000E+00 -0.00000000000E+00 -0.18407215930E+04  0.18407215930E+04  0.00000000000E+00 0. -1.
         23    2    1    2    0    0  0.60449960338E+03  0.60811409207E+03 -0.59837568330E+02  0.86435316350E+03  0.91122649287E+02 0.  0.
         11    1    3    3    0    0  0.26182530398E+03  0.32673145539E+03 -0.38030661740E+02  0.42041915392E+03  0.00000000000E+00 0.  1.
        -11    1    3    3    0    0  0.34267429939E+03  0.28138263667E+03 -0.21806906590E+02  0.44393400958E+03  0.00000000000E+00 0. -1.
         22    1    1    2    0    0 -0.60449960338E+03 -0.60811409207E+03 -0.12453010180E+04  0.15119514360E+04  0.00000000000E+00 0. -1.
<mgrwt>
<rscale>  0 0.19858089E+04</rscale>
<asrwt>0</asrwt>
<pdfrwt beam="1">  1        2 0.28318794E+00 0.19858089E+04</pdfrwt>
<pdfrwt beam="2">  1       -2 0.82397385E-01 0.19858089E+04</pdfrwt>
<totfact> 0.98513251E+00</totfact>
</mgrwt>
</event>
<event>
 6    1  0.9988873E-007  0.3484304E+04  0.7818608E-02  0.8117520E-01
         -2   -1    0    0    0  501 -0.00000000000E+00  0.00000000000E+00  0.86398004829E+03  0.86398004829E+03  0.00000000000E+00 0.  1.
          2   -1    0    0  501    0  0.00000000000E+00 -0.00000000000E+00 -0.35129211283E+04  0.35129211283E+04  0.00000000000E+00 0. -1.
         23    2    1    2    0    0  0.10304184798E+04 -0.13069883876E+04 -0.19670331302E+04  0.25782963448E+04  0.91715961773E+02 0.  0.
         11    1    3    3    0    0  0.73067470635E+03 -0.86522357770E+03 -0.13666939412E+04  0.17749224475E+04  0.00000000000E+00 0. -1.
        -11    1    3    3    0    0  0.29974377343E+03 -0.44176480989E+03 -0.60033918905E+03  0.80337389731E+03  0.00000000000E+00 0.  1.
         22    1    1    2    0    0 -0.10304184798E+04  0.13069883876E+04 -0.68190794978E+03  0.17986048317E+04  0.00000000000E+00 0.  1.
<mgrwt>
<rscale>  0 0.34843041E+04</rscale>
<asrwt>0</asrwt>
<pdfrwt beam="1">  1        2 0.54044940E+00 0.34843041E+04</pdfrwt>
<pdfrwt beam="2">  1       -2 0.13292001E+00 0.34843041E+04</pdfrwt>
<totfact> 0.26844681E-01</totfact>
</mgrwt>
</event>
<event>
 6    1  0.9988873E-007  0.2899509E+04  0.7818608E-02  0.8273023E-01
         -2   -1    0    0    0  501 -0.00000000000E+00  0.00000000000E+00  0.18896087478E+04  0.18896087478E+04  0.00000000000E+00 0.  1.
          2   -1    0    0  501    0  0.00000000000E+00 -0.00000000000E+00 -0.11122877270E+04  0.11122877270E+04  0.00000000000E+00 0. -1.
         23    2    1    2    0    0  0.43256205385E+03 -0.12479376658E+04  0.10045106724E+04  0.16617198126E+04  0.88389459978E+02 0.  0.
         11    1    3    3    0    0  0.50366354635E+02 -0.22300033930E+03  0.20144908336E+03  0.30470913048E+03  0.00000000000E+00 0. -1.
        -11    1    3    3    0    0  0.38219569921E+03 -0.10249373265E+04  0.80306158905E+03  0.13570106822E+04  0.00000000000E+00 0.  1.
         22    1    1    2    0    0 -0.43256205385E+03  0.12479376658E+04 -0.22718965157E+03  0.13401766622E+04  0.00000000000E+00 0. -1.
<mgrwt>
<rscale>  0 0.28995094E+04</rscale>
<asrwt>0</asrwt>
<pdfrwt beam="1">  1        2 0.17112119E+00 0.28995094E+04</pdfrwt>
<pdfrwt beam="2">  1       -2 0.29070904E+00 0.28995094E+04</pdfrwt>
<totfact> 0.66938236E-01</totfact>
</mgrwt>
</event>
<event>
 6    1  0.9988873E-007  0.2073852E+04  0.7818608E-02  0.8572850E-01
          1   -1    0    0  501    0  0.00000000000E+00  0.00000000000E+00  0.27770748235E+04  0.27770748235E+04  0.00000000000E+00 0. -1.
         -1   -1    0    0    0  501 -0.00000000000E+00 -0.00000000000E+00 -0.38717569085E+03  0.38717569085E+03  0.00000000000E+00 0.  1.
         23    2    1    2    0    0 -0.33031450335E+03  0.81300699697E+03  0.36001602558E+03  0.95279997758E+03  0.90156588041E+02 0.  0.
         13    1    3    3    0    0 -0.27509826499E+03  0.58663950983E+03  0.28668163139E+03  0.70852757722E+03  0.00000000000E+00 0.  1.
        -13    1    3    3    0    0 -0.55216238357E+02  0.22636748714E+03  0.73334394187E+02  0.24427240037E+03  0.00000000000E+00 0. -1.
         22    1    1    2    0    0  0.33031450335E+03 -0.81300699697E+03  0.20298831071E+04  0.22114505368E+04  0.00000000000E+00 0. -1.
<mgrwt>
<rscale>  0 0.20738523E+04</rscale>
<asrwt>0</asrwt>
<pdfrwt beam="1">  1        1 0.42724227E+00 0.20738523E+04</pdfrwt>
<pdfrwt beam="2">  1       -1 0.59565493E-01 0.20738523E+04</pdfrwt>
<totfact> 0.22811206E+00</totfact>
</mgrwt>
</event>
<event>
 6    1  0.9988873E-007  0.2272317E+04  0.7818608E-02  0.8488917E-01
          2   -1    0    0  501    0  0.00000000000E+00  0.00000000000E+00  0.24509119833E+04  0.24509119833E+04  0.00000000000E+00 0. -1.
         -2   -1    0    0    0  501 -0.00000000000E+00 -0.00000000000E+00 -0.52668391432E+03  0.52668391432E+03  0.00000000000E+00 0.  1.
         23    2    1    2    0    0  0.92565687004E+03 -0.19592104715E+03  0.14392107134E+03  0.96148114305E+03  0.92233485739E+02 0.  0.
         13    1    3    3    0    0  0.43931034818E+03 -0.12042256042E+03  0.31312073534E+02  0.45659130634E+03  0.00000000000E+00 0.  1.
        -13    1    3    3    0    0  0.48634652186E+03 -0.75498486730E+02  0.11260899781E+03  0.50488983671E+03  0.00000000000E+00 0. -1.
         22    1    1    2    0    0 -0.92565687004E+03  0.19592104715E+03  0.17803069977E+04  0.20161147546E+04  0.00000000000E+00 0.  1.
<mgrwt>
<rscale>  0 0.22723168E+04</rscale>
<asrwt>0</asrwt>
<pdfrwt beam="1">  1        2 0.37706338E+00 0.22723168E+04</pdfrwt>
<pdfrwt beam="2">  1       -2 0.81028296E-01 0.22723168E+04</pdfrwt>
<totfact> 0.45351850E+00</totfact>
</mgrwt>
</event>
<event>
 6    1  0.9988873E-007  0.3706784E+04  0.7818608E-02  0.8066460E-01
         -1   -1    0    0    0  501 -0.00000000000E+00  0.00000000000E+00  0.80056588533E+03  0.80056588533E+03  0.00000000000E+00 0.  1.
          1   -1    0    0  501    0  0.00000000000E+00 -0.00000000000E+00 -0.42907918947E+04  0.42907918947E+04  0.00000000000E+00 0. -1.
         23    2    1    2    0    0  0.60749116775E+03 -0.10379552625E+04  0.18874517916E+03  0.12207989506E+04  0.91261653142E+02 0.  0.
         13    1    3    3    0    0  0.26785240771E+03 -0.46181562916E+03  0.12969228284E+03  0.54939846730E+03  0.00000000000E+00 0. -1.
        -13    1    3    3    0    0  0.33963876004E+03 -0.57613963335E+03  0.59052896312E+02  0.67140048332E+03  0.00000000000E+00 0.  1.
         22    1    1    2    0    0 -0.60749116775E+03  0.10379552625E+04 -0.36789711885E+04  0.38705588294E+04  0.00000000000E+00 0. -1.
<mgrwt>
<rscale>  0 0.37067838E+04</rscale>
<asrwt>0</asrwt>
<pdfrwt beam="1">  1        1 0.66012183E+00 0.37067838E+04</pdfrwt>
<pdfrwt beam="2">  1       -1 0.12316398E+00 0.37067838E+04</pdfrwt>
<totfact> 0.24078281E-02</totfact>
</mgrwt>
</event>
<event>
 6    1  0.9988873E-007  0.5958327E+03  0.7818608E-02  0.9914090E-01
         -2   -1    0    0    0  501 -0.00000000000E+00  0.00000000000E+00  0.12297319789E+03  0.12297319789E+03  0.00000000000E+00 0.  1.
          2   -1    0    0  501    0  0.00000000000E+00 -0.00000000000E+00 -0.72173570478E+03  0.72173570478E+03  0.00000000000E+00 0. -1.
         23    2    1    2    0    0 -0.53713426023E+02  0.49186583318E+01 -0.71172689522E+03  0.71952792022E+03  0.90862144249E+02 0.  0.
         13    1    3    3    0    0 -0.68798380278E+02 -0.15898806759E+01 -0.31358454581E+03  0.32104674460E+03  0.00000000000E+00 0. -1.
        -13    1    3    3    0    0  0.15084954255E+02  0.65085390077E+01 -0.39814234941E+03  0.39848117562E+03  0.00000000000E+00 0.  1.
         22    1    1    2    0    0  0.53713426023E+02 -0.49186583318E+01  0.11296438834E+03  0.12518098245E+03  0.00000000000E+00 0.  1.
<mgrwt>
<rscale>  0 0.59583269E+03</rscale>
<asrwt>0</asrwt>
<pdfrwt beam="1">  1        2 0.11103626E+00 0.59583269E+03</pdfrwt>
<pdfrwt beam="2">  1       -2 0.18918954E-01 0.59583269E+03</pdfrwt>
<totfact> 0.93122125E+02</totfact>
</mgrwt>
</event>
<event>
 6    1  0.9988873E-007  0.1325960E+04  0.7818608E-02  0.9009229E-01
         -1   -1    0    0    0  501 -0.00000000000E+00  0.00000000000E+00  0.53059461302E+03  0.53059461302E+03  0.00000000000E+00 0.  1.
          1   -1    0    0  501    0  0.00000000000E+00 -0.00000000000E+00 -0.82839542972E+03  0.82839542972E+03  0.00000000000E+00 0. -1.
         23    2    1    2    0    0 -0.65129578186E+03 -0.84000760889E+02 -0.20896475769E+03  0.69631805098E+03  0.99750864001E+02 0.  0.
         13    1    3    3    0    0 -0.31531065291E+03 -0.45956932961E+02 -0.15342365646E+03  0.35365472694E+03  0.00000000000E+00 0.  1.
        -13    1    3    3    0    0 -0.33598512894E+03 -0.38043827928E+02 -0.55541101237E+02  0.34266332404E+03  0.00000000000E+00 0. -1.
         22    1    1    2    0    0  0.65129578186E+03  0.84000760889E+02 -0.88836059003E+02  0.66267199177E+03  0.00000000000E+00 0.  1.
<mgrwt>
<rscale>  0 0.13259595E+04</rscale>
<asrwt>0</asrwt>
<pdfrwt beam="1">  1        1 0.12744545E+00 0.13259595E+04</pdfrwt>
<pdfrwt beam="2">  1       -1 0.81629941E-01 0.13259595E+04</pdfrwt>
<totfact> 0.30622560E+01</totfact>
</mgrwt>
</event>
<event>
 6    1  0.9988873E-007  0.2633600E+04  0.7818608E-02  0.8356877E-01
          2   -1    0    0  501    0  0.00000000000E+00  0.00000000000E+00  0.17724541189E+04  0.17724541189E+04  0.00000000000E+00 0. -1.
         -2   -1    0    0    0  501 -0.00000000000E+00 -0.00000000000E+00 -0.97828312648E+03  0.97828312648E+03  0.00000000000E+00 0.  1.
         23    2    1    2    0    0 -0.10970571962E+04  0.40899933381E+03 -0.22822921416E+03  0.11963508297E+04  0.91388109807E+02 0.  0.
         11    1    3    3    0    0 -0.43484774057E+03  0.20532422381E+03 -0.73657926605E+02  0.48649366339E+03  0.00000000000E+00 0.  1.
        -11    1    3    3    0    0 -0.66220945566E+03  0.20367511000E+03 -0.15457128756E+03  0.70985716629E+03  0.00000000000E+00 0. -1.
         22    1    1    2    0    0  0.10970571962E+04 -0.40899933381E+03  0.10224002066E+04  0.15543864157E+04  0.00000000000E+00 0. -1.
<mgrwt>
<rscale>  0 0.26335998E+04</rscale>
<asrwt>0</asrwt>
<pdfrwt beam="1">  1        2 0.27268525E+00 0.26335998E+04</pdfrwt>
<pdfrwt beam="2">  1       -2 0.15050510E+00 0.26335998E+04</pdfrwt>
<totfact> 0.23416677E+00</totfact>
</mgrwt>
</event>
<event>
 6    1  0.9988873E-007  0.4371875E+04  0.7818608E-02  0.7933460E-01
          1   -1    0    0  501    0  0.00000000000E+00  0.00000000000E+00  0.26993614632E+04  0.26993614632E+04  0.00000000000E+00 0. -1.
         -1   -1    0    0    0  501 -0.00000000000E+00 -0.00000000000E+00 -0.17701677685E+04  0.17701677685E+04  0.00000000000E+00 0.  1.
         23    2    1    2    0    0 -0.44233779740E+03 -0.18982057346E+04 -0.54477772125E+03  0.20258763363E+04  0.92436066951E+02 0.  0.
         13    1    3    3    0    0 -0.62013195409E+02 -0.16138915991E+03 -0.59890404053E+02  0.18297256034E+03  0.00000000000E+00 0.  1.
        -13    1    3    3    0    0 -0.38032460199E+03 -0.17368165747E+04 -0.48488731719E+03  0.18429037760E+04  0.00000000000E+00 0. -1.
         22    1    1    2    0    0  0.44233779740E+03  0.18982057346E+04  0.14739714160E+04  0.24436528954E+04  0.00000000000E+00 0.  1.
<mgrwt>
<rscale>  0 0.43718750E+04</rscale>
<asrwt>0</asrwt>
<pdfrwt beam="1">  1        1 0.41528638E+00 0.43718750E+04</pdfrwt>
<pdfrwt beam="2">  1       -1 0.27233350E+00 0.43718750E+04</pdfrwt>
<totfact> 0.37221138E-02</totfact>
</mgrwt>
</event>
<event>
 6    1  0.9988873E-007  0.2070395E+04  0.7818608E-02  0.8574398E-01
         -1   -1    0    0    0  501 -0.00000000000E+00  0.00000000000E+00  0.81253128404E+03  0.81253128404E+03  0.00000000000E+00 0.  1.
          1   -1    0    0  501    0  0.00000000000E+00 -0.00000000000E+00 -0.13188833790E+04  0.13188833790E+04  0.00000000000E+00 0. -1.
         23    2    1    2    0    0 -0.99205778379E+03  0.11477808315E+03  0.19052161285E+02  0.10029633849E+04  0.90663729131E+02 0.  0.
         13    1    3    3    0    0 -0.57109121389E+03  0.61656622335E+02 -0.33667615272E+02  0.57539570903E+03  0.00000000000E+00 0. -1.
        -13    1    3    3    0    0 -0.42096656990E+03  0.53121460813E+02  0.52719776558E+02  0.42756767583E+03  0.00000000000E+00 0.  1.
         22    1    1    2    0    0  0.99205778379E+03 -0.11477808315E+03 -0.52540425624E+03  0.11284512782E+04  0.00000000000E+00 0. -1.
<mgrwt>
<rscale>  0 0.20703951E+04</rscale>
<asrwt>0</asrwt>
<pdfrwt beam="1">  1        1 0.20290513E+00 0.20703951E+04</pdfrwt>
<pdfrwt beam="2">  1       -1 0.12500481E+00 0.20703951E+04</pdfrwt>
<totfact> 0.45246137E+00</totfact>
</mgrwt>
</event>
<event>
 6    1  0.9988873E-007  0.5281223E+04  0.7818608E-02  0.7786532E-01
         -2   -1    0    0    0  501 -0.00000000000E+00  0.00000000000E+00  0.35657125860E+04  0.35657125860E+04  0.00000000000E+00 0.  1.
          2   -1    0    0  501    0  0.00000000000E+00 -0.00000000000E+00 -0.19555216014E+04  0.19555216014E+04  0.00000000000E+00 0. -1.
         23    2    1    2    0    0 -0.20382088518E+04  0.19137720725E+03 -0.93717504008E+03  0.22532081437E+04  0.87916572840E+02 0.  0.
         11    1    3    3    0    0 -0.52056987902E+03  0.60318007951E+02 -0.19997193457E+03  0.56091000672E+03  0.00000000000E+00 0. -1.
        -11    1    3    3    0    0 -0.15176389728E+04  0.13105919930E+03 -0.73720310551E+03  0.16922981370E+04  0.00000000000E+00 0.  1.
         22    1    1    2    0    0  0.20382088518E+04 -0.19137720725E+03  0.25473660246E+04  0.32680260438E+04  0.00000000000E+00 0.  1.
<mgrwt>
<rscale>  0 0.52812226E+04</rscale>
<asrwt>0</asrwt>
<pdfrwt beam="1">  1        2 0.30084948E+00 0.52812226E+04</pdfrwt>
<pdfrwt beam="2">  1       -2 0.54857117E+00 0.52812226E+04</pdfrwt>
<totfact> 0.44275212E-03</totfact>
</mgrwt>
</event>
<event>
 6    1  0.9988873E-007  0.1717592E+04  0.7818608E-02  0.8751394E-01
          1   -1    0    0  501    0  0.00000000000E+00  0.00000000000E+00  0.86790034077E+03  0.86790034077E+03  0.00000000000E+00 0. -1.
         -1   -1    0    0    0  501 -0.00000000000E+00 -0.00000000000E+00 -0.84978706930E+03  0.84978706930E+03  0.00000000000E+00 0.  1.
         23    2    1    2    0    0 -0.11292145547E+03  0.14051547619E+03  0.84631146993E+03  0.87009782184E+03  0.91275743129E+02 0.  0.
         11    1    3    3    0    0 -0.11421896657E+03  0.84220258240E+02  0.67543783032E+03  0.69018496568E+03  0.00000000000E+00 0. -1.
        -11    1    3    3    0    0  0.12975110975E+01  0.56295217948E+02  0.17087363961E+03  0.17991285616E+03  0.00000000000E+00 0.  1.
         22    1    1    2    0    0  0.11292145547E+03 -0.14051547619E+03 -0.82819819846E+03  0.84758958823E+03  0.00000000000E+00 0.  1.
<mgrwt>
<rscale>  0 0.17175919E+04</rscale>
<asrwt>0</asrwt>
<pdfrwt beam="1">  1        1 0.13352313E+00 0.17175919E+04</pdfrwt>
<pdfrwt beam="2">  1       -1 0.13073647E+00 0.17175919E+04</pdfrwt>
<totfact> 0.91918612E+00</totfact>
</mgrwt>
</event>
<event>
 6    1  0.9988873E-007  0.1527047E+04  0.7818608E-02  0.8866663E-01
          2   -1    0    0  501    0  0.00000000000E+00  0.00000000000E+00  0.11810282264E+04  0.11810282264E+04  0.00000000000E+00 0. -1.
         -2   -1    0    0    0  501 -0.00000000000E+00 -0.00000000000E+00 -0.49361096691E+03  0.49361096691E+03  0.00000000000E+00 0.  1.
         23    2    1    2    0    0  0.81952564349E+02 -0.52081169209E+03  0.94648472672E+03  0.10872066491E+04  0.90685823104E+02 0.  0.
         13    1    3    3    0    0  0.78659186980E+02 -0.30617506146E+03  0.62890599638E+03  0.70388435715E+03  0.00000000000E+00 0.  1.
        -13    1    3    3    0    0  0.32933773691E+01 -0.21463663063E+03  0.31757873035E+03  0.38332229195E+03  0.00000000000E+00 0. -1.
         22    1    1    2    0    0 -0.81952564349E+02  0.52081169209E+03 -0.25906746723E+03  0.58743254421E+03  0.00000000000E+00 0.  1.
<mgrwt>
<rscale>  0 0.15270475E+04</rscale>
<asrwt>0</asrwt>
<pdfrwt beam="1">  1        2 0.18169665E+00 0.15270475E+04</pdfrwt>
<pdfrwt beam="2">  1       -2 0.75940149E-01 0.15270475E+04</pdfrwt>
<totfact> 0.29124110E+01</totfact>
</mgrwt>
</event>
<event>
 6    1  0.9988873E-007  0.1411479E+04  0.7818608E-02  0.8945551E-01
          1   -1    0    0  501    0  0.00000000000E+00  0.00000000000E+00  0.94562549197E+03  0.94562549197E+03  0.00000000000E+00 0. -1.
         -1   -1    0    0    0  501 -0.00000000000E+00 -0.00000000000E+00 -0.52670797891E+03  0.52670797891E+03  0.00000000000E+00 0.  1.
         23    2    1    2    0    0  0.19183349477E+03  0.55911542762E+03 -0.18622852253E+03  0.62639501241E+03  0.90991746071E+02 0.  0.
         13    1    3    3    0    0  0.12401303598E+03  0.40210968625E+03 -0.90576202785E+02  0.43043638483E+03  0.00000000000E+00 0. -1.
        -13    1    3    3    0    0  0.67820458794E+02  0.15700574136E+03 -0.95652319743E+02  0.19595862758E+03  0.00000000000E+00 0.  1.
         22    1    1    2    0    0 -0.19183349477E+03 -0.55911542762E+03  0.60514603559E+03  0.84593845846E+03  0.00000000000E+00 0.  1.
<mgrwt>
<rscale>  0 0.14114794E+04</rscale>
<asrwt>0</asrwt>
<pdfrwt beam="1">  1        1 0.14548084E+00 0.14114794E+04</pdfrwt>
<pdfrwt beam="2">  1       -1 0.81031997E-01 0.14114794E+04</pdfrwt>
<totfact> 0.24712642E+01</totfact>
</mgrwt>
</event>
<event>
 6    1  0.1225103E-006  0.4366251E+04  0.7818608E-02  0.7934480E-01
          2   -1    0    0  501    0  0.00000000000E+00  0.00000000000E+00  0.34216661810E+04  0.34216661810E+04  0.00000000000E+00 0. -1.
         -2   -1    0    0    0  501 -0.00000000000E+00 -0.00000000000E+00 -0.13928995442E+04  0.13928995442E+04  0.00000000000E+00 0.  1.
         23    2    1    2    0    0 -0.77377081406E+03  0.51711633925E+03  0.31912700791E+04  0.33254234103E+04  0.90030875820E+02 0.  0.
         11    1    3    3    0    0 -0.55529458601E+03  0.40124585461E+03  0.22308879289E+04  0.23337119069E+04  0.00000000000E+00 0. -1.
        -11    1    3    3    0    0 -0.21847622805E+03  0.11587048464E+03  0.96038215023E+03  0.99171150337E+03  0.00000000000E+00 0.  1.
         22    1    1    2    0    0  0.77377081406E+03 -0.51711633925E+03 -0.11625034423E+04  0.14891423150E+04  0.00000000000E+00 0.  1.
<mgrwt>
<rscale>  0 0.43662511E+04</rscale>
<asrwt>0</asrwt>
<pdfrwt beam="1">  1        2 0.52641018E+00 0.43662511E+04</pdfrwt>
<pdfrwt beam="2">  1       -2 0.21429224E+00 0.43662511E+04</pdfrwt>
<totfact> 0.75714777E-02</totfact>
</mgrwt>
</event>
<event>
 6    1  0.9988873E-007  0.2065748E+04  0.7818608E-02  0.8576484E-01
         -2   -1    0    0    0  501 -0.00000000000E+00  0.00000000000E+00  0.42897577916E+03  0.42897577916E+03  0.00000000000E+00 0.  1.
          2   -1    0    0  501    0  0.00000000000E+00 -0.00000000000E+00 -0.24869196890E+04  0.24869196890E+04  0.00000000000E+00 0. -1.
         23    2    1    2    0    0  0.25647520021E+03  0.45146707844E+03 -0.22878396544E+04  0.23480450437E+04  0.97484314587E+02 0.  0.
         11    1    3    3    0    0  0.53307332984E+02  0.66087141131E+02 -0.54534556929E+03  0.55191572900E+03  0.00000000000E+00 0.  1.
        -11    1    3    3    0    0  0.20316786723E+03  0.38537993731E+03 -0.17424940851E+04  0.17961293147E+04  0.00000000000E+00 0. -1.
         22    1    1    2    0    0 -0.25647520021E+03 -0.45146707844E+03  0.22989574455E+03  0.56785042450E+03  0.00000000000E+00 0.  1.
<mgrwt>
<rscale>  0 0.20657476E+04</rscale>
<asrwt>0</asrwt>
<pdfrwt beam="1">  1        2 0.38260302E+00 0.20657476E+04</pdfrwt>
<pdfrwt beam="2">  1       -2 0.65996275E-01 0.20657476E+04</pdfrwt>
<totfact> 0.69187510E+00</totfact>
</mgrwt>
</event>
<event>
 6    1  0.9988873E-007  0.2967750E+04  0.7818608E-02  0.8253000E-01
          1   -1    0    0  501    0  0.00000000000E+00  0.00000000000E+00  0.31112276456E+04  0.31112276456E+04  0.00000000000E+00 0. -1.
         -1   -1    0    0    0  501 -0.00000000000E+00 -0.00000000000E+00 -0.70772221841E+03  0.70772221841E+03  0.00000000000E+00 0.  1.
         23    2    1    2    0    0 -0.66648589907E+03  0.82402391528E+03 -0.13089079036E+03  0.10718817807E+04  0.92624436640E+02 0.  0.
         13    1    3    3    0    0 -0.23060856904E+03  0.27727496715E+03 -0.73962034819E+00  0.36064146539E+03  0.00000000000E+00 0. -1.
        -13    1    3    3    0    0 -0.43587733003E+03  0.54674894813E+03 -0.13015117001E+03  0.71124031534E+03  0.00000000000E+00 0.  1.
         22    1    1    2    0    0  0.66648589907E+03 -0.82402391528E+03  0.25343962175E+04  0.27470680833E+04  0.00000000000E+00 0. -1.
<mgrwt>
<rscale>  0 0.29677499E+04</rscale>
<asrwt>0</asrwt>
<pdfrwt beam="1">  1        1 0.47865040E+00 0.29677499E+04</pdfrwt>
<pdfrwt beam="2">  1       -1 0.10888034E+00 0.29677499E+04</pdfrwt>
<totfact> 0.33008827E-01</totfact>
</mgrwt>
</event>
<event>
 6    1  0.1002702E-006  0.3272551E+04  0.7818608E-02  0.8169915E-01
          2   -1    0    0  501    0  0.00000000000E+00  0.00000000000E+00  0.29962048416E+04  0.29962048416E+04  0.00000000000E+00 0. -1.
         -2   -1    0    0    0  501 -0.00000000000E+00 -0.00000000000E+00 -0.89359630242E+03  0.89359630242E+03  0.00000000000E+00 0.  1.
         23    2    1    2    0    0 -0.12693170973E+04  0.10284651131E+03 -0.16675718092E+03  0.12875398063E+04  0.90595237313E+02 0.  0.
         11    1    3    3    0    0 -0.28117277605E+03 -0.86728999549E+01 -0.57669150146E+02  0.28715689102E+03  0.00000000000E+00 0. -1.
        -11    1    3    3    0    0 -0.98814432123E+03  0.11151941126E+03 -0.10908803078E+03  0.10003829152E+04  0.00000000000E+00 0.  1.
         22    1    1    2    0    0  0.12693170973E+04 -0.10284651131E+03  0.22693657201E+04  0.26022613377E+04  0.00000000000E+00 0. -1.
<mgrwt>
<rscale>  0 0.32725510E+04</rscale>
<asrwt>0</asrwt>
<pdfrwt beam="1">  1        2 0.46095459E+00 0.32725510E+04</pdfrwt>
<pdfrwt beam="2">  1       -2 0.13747636E+00 0.32725510E+04</pdfrwt>
<totfact> 0.55138063E-01</totfact>
</mgrwt>
</event>
<event>
 6    1  0.9988873E-007  0.4982379E+04  0.7818608E-02  0.7831231E-01
         -2   -1    0    0    0  501 -0.00000000000E+00  0.00000000000E+00  0.25760554617E+04  0.25760554617E+04  0.00000000000E+00 0.  1.
          2   -1    0    0  501    0  0.00000000000E+00 -0.00000000000E+00 -0.24091198514E+04  0.24091198514E+04  0.00000000000E+00 0. -1.
         23    2    1    2    0    0  0.12475164473E+04 -0.65461921079E+02 -0.20720796002E+04  0.24212385622E+04  0.91102997408E+02 0.  0.
         13    1    3    3    0    0  0.26773013031E+03 -0.38974857187E+02 -0.39571576736E+03  0.47936356839E+03  0.00000000000E+00 0. -1.
        -13    1    3    3    0    0  0.97978631698E+03 -0.26487063892E+02 -0.16763638329E+04  0.19418749938E+04  0.00000000000E+00 0.  1.
         22    1    1    2    0    0 -0.12475164473E+04  0.65461921079E+02  0.22390152105E+04  0.25639367508E+04  0.00000000000E+00 0.  1.
<mgrwt>
<rscale>  0 0.49823795E+04</rscale>
<asrwt>0</asrwt>
<pdfrwt beam="1">  1        2 0.37063383E+00 0.49823795E+04</pdfrwt>
<pdfrwt beam="2">  1       -2 0.39631622E+00 0.49823795E+04</pdfrwt>
<totfact> 0.22480119E-02</totfact>
</mgrwt>
</event>
<event>
 6    1  0.9988873E-007  0.3692629E+04  0.7818608E-02  0.8069597E-01
         -1   -1    0    0    0  501 -0.00000000000E+00  0.00000000000E+00  0.77872888012E+03  0.77872888012E+03  0.00000000000E+00 0.  1.
          1   -1    0    0  501    0  0.00000000000E+00 -0.00000000000E+00 -0.43774898245E+04  0.43774898245E+04  0.00000000000E+00 0. -1.
         23    2    1    2    0    0  0.30662858626E+03  0.17908532336E+04 -0.22505390325E+04  0.28937247891E+04  0.86837918501E+02 0.  0.
         13    1    3    3    0    0  0.46430566847E+02  0.23412525394E+03 -0.25178762836E+03  0.34694011279E+03  0.00000000000E+00 0. -1.
        -13    1    3    3    0    0  0.26019801941E+03  0.15567279796E+04 -0.19987514041E+04  0.25467846763E+04  0.00000000000E+00 0.  1.
         22    1    1    2    0    0 -0.30662858626E+03 -0.17908532336E+04 -0.13482219119E+04  0.22624939155E+04  0.00000000000E+00 0. -1.
<mgrwt>
<rscale>  0 0.36926293E+04</rscale>
<asrwt>0</asrwt>
<pdfrwt beam="1">  1        1 0.67345996E+00 0.36926293E+04</pdfrwt>
<pdfrwt beam="2">  1       -1 0.11980445E+00 0.36926293E+04</pdfrwt>
<totfact> 0.21256524E-02</totfact>
</mgrwt>
</event>
<event>
 6    1  0.9988873E-007  0.2838647E+04  0.7818608E-02  0.8291370E-01
         -1   -1    0    0    0  501 -0.00000000000E+00  0.00000000000E+00  0.26240221664E+04  0.26240221664E+04  0.00000000000E+00 0.  1.
          1   -1    0    0  501    0  0.00000000000E+00 -0.00000000000E+00 -0.76770647574E+03  0.76770647574E+03  0.00000000000E+00 0. -1.
         23    2    1    2    0    0 -0.19912441267E+03  0.44980674787E+03 -0.65982637234E+03  0.82795261382E+03  0.90321907316E+02 0.  0.
         13    1    3    3    0    0 -0.59731384174E+01  0.59227680900E+02 -0.12217898852E+03  0.13590916747E+03  0.00000000000E+00 0.  1.
        -13    1    3    3    0    0 -0.19315127425E+03  0.39057906697E+03 -0.53764738383E+03  0.69204344635E+03  0.00000000000E+00 0. -1.
         22    1    1    2    0    0  0.19912441267E+03 -0.44980674787E+03  0.25161420630E+04  0.25637760283E+04  0.00000000000E+00 0.  1.
<mgrwt>
<rscale>  0 0.28386467E+04</rscale>
<asrwt>0</asrwt>
<pdfrwt beam="1">  1        1 0.11810869E+00 0.28386467E+04</pdfrwt>
<pdfrwt beam="2">  1       -1 0.40369571E+00 0.28386467E+04</pdfrwt>
<totfact> 0.13741934E-01</totfact>
</mgrwt>
</event>
<event>
 6    1  0.9988873E-007  0.2664924E+04  0.7818608E-02  0.8346476E-01
         -2   -1    0    0    0  501 -0.00000000000E+00  0.00000000000E+00  0.14185741003E+04  0.14185741003E+04  0.00000000000E+00 0.  1.
          2   -1    0    0  501    0  0.00000000000E+00 -0.00000000000E+00 -0.12515774013E+04  0.12515774013E+04  0.00000000000E+00 0. -1.
         23    2    1    2    0    0 -0.30730940849E+03  0.12332734888E+04 -0.31215876756E+03  0.13118464800E+04  0.89975108485E+02 0.  0.
         11    1    3    3    0    0 -0.29035430079E+03  0.10867864830E+04 -0.29797586487E+03  0.11637010336E+04  0.00000000000E+00 0.  1.
        -11    1    3    3    0    0 -0.16955107699E+02  0.14648700585E+03 -0.14182902688E+02  0.14814544640E+03  0.00000000000E+00 0. -1.
         22    1    1    2    0    0  0.30730940849E+03 -0.12332734888E+04  0.47915546658E+03  0.13583050217E+04  0.00000000000E+00 0.  1.
<mgrwt>
<rscale>  0 0.26649242E+04</rscale>
<asrwt>0</asrwt>
<pdfrwt beam="1">  1        2 0.19255037E+00 0.26649242E+04</pdfrwt>
<pdfrwt beam="2">  1       -2 0.21824217E+00 0.26649242E+04</pdfrwt>
<totfact> 0.15747472E+00</totfact>
</mgrwt>
</event>
<event>
 6    1  0.9988873E-007  0.1223299E+04  0.7818608E-02  0.9092704E-01
          1   -1    0    0  501    0  0.00000000000E+00  0.00000000000E+00  0.13088139791E+03  0.13088139791E+03  0.00000000000E+00 0. -1.
         -1   -1    0    0    0  501 -0.00000000000E+00 -0.00000000000E+00 -0.28584299911E+04  0.28584299911E+04  0.00000000000E+00 0.  1.
         23    2    1    2    0    0  0.19970731453E+03 -0.48517467777E+03 -0.61936509262E+03  0.81682084783E+03  0.91135613637E+02 0.  0.
         11    1    3    3    0    0  0.44729366242E+02 -0.57640735813E+02 -0.51483814296E+02  0.89295877643E+02  0.00000000000E+00 0. -1.
        -11    1    3    3    0    0  0.15497794829E+03 -0.42753394196E+03 -0.56788127832E+03  0.72752497019E+03  0.00000000000E+00 0.  1.
         22    1    1    2    0    0 -0.19970731453E+03  0.48517467777E+03 -0.21081835006E+04  0.21724905412E+04  0.00000000000E+00 0.  1.
<mgrwt>
<rscale>  0 0.12232993E+04</rscale>
<asrwt>0</asrwt>
<pdfrwt beam="1">  1        1 0.20135600E-01 0.12232993E+04</pdfrwt>
<pdfrwt beam="2">  1       -1 0.43975845E+00 0.12232993E+04</pdfrwt>
<totfact> 0.99346885E-01</totfact>
</mgrwt>
</event>
<event>
 6    1  0.9988873E-007  0.2078533E+04  0.7818608E-02  0.8570759E-01
          2   -1    0    0  501    0  0.00000000000E+00  0.00000000000E+00  0.28746995480E+04  0.28746995480E+04  0.00000000000E+00 0. -1.
         -2   -1    0    0    0  501 -0.00000000000E+00 -0.00000000000E+00 -0.37571746700E+03  0.37571746700E+03  0.00000000000E+00 0.  1.
         23    2    1    2    0    0  0.64836415780E+03  0.46346900077E+03  0.21478782765E+03  0.83117684857E+03  0.97680842029E+02 0.  0.
         11    1    3    3    0    0  0.17377751435E+03  0.89723096108E+02  0.20637270056E+02  0.19665898247E+03  0.00000000000E+00 0. -1.
        -11    1    3    3    0    0  0.47458664345E+03  0.37374590467E+03  0.19415055760E+03  0.63451786611E+03  0.00000000000E+00 0.  1.
         22    1    1    2    0    0 -0.64836415780E+03 -0.46346900077E+03  0.22841942534E+04  0.24192401664E+04  0.00000000000E+00 0. -1.
<mgrwt>
<rscale>  0 0.20785330E+04</rscale>
<asrwt>0</asrwt>
<pdfrwt beam="1">  1        2 0.44226146E+00 0.20785330E+04</pdfrwt>
<pdfrwt beam="2">  1       -2 0.57802689E-01 0.20785330E+04</pdfrwt>
<totfact> 0.53938705E+00</totfact>
</mgrwt>
</event>
<event>
 6    1  0.9988873E-007  0.1293036E+04  0.7818608E-02  0.9035106E-01
         -1   -1    0    0    0  501 -0.00000000000E+00  0.00000000000E+00  0.14100985999E+04  0.14100985999E+04  0.00000000000E+00 0.  1.
          1   -1    0    0  501    0  0.00000000000E+00 -0.00000000000E+00 -0.29642285329E+03  0.29642285329E+03  0.00000000000E+00 0. -1.
         23    2    1    2    0    0  0.27522603852E+03  0.49532118762E+03  0.96125234003E+03  0.11197290316E+04  0.93244795106E+02 0.  0.
         13    1    3    3    0    0  0.87876684882E+02  0.23286213973E+03  0.36350778324E+03  0.44055078747E+03  0.00000000000E+00 0. -1.
        -13    1    3    3    0    0  0.18734935364E+03  0.26245904789E+03  0.59774455679E+03  0.67917824413E+03  0.00000000000E+00 0.  1.
         22    1    1    2    0    0 -0.27522603852E+03 -0.49532118762E+03  0.15242340661E+03  0.58679242161E+03  0.00000000000E+00 0. -1.
<mgrwt>
<rscale>  0 0.12930359E+04</rscale>
<asrwt>0</asrwt>
<pdfrwt beam="1">  1        1 0.45603517E-01 0.12930359E+04</pdfrwt>
<pdfrwt beam="2">  1       -1 0.21693824E+00 0.12930359E+04</pdfrwt>
<totfact> 0.10106166E+01</totfact>
</mgrwt>
</event>
<event>
 6    1  0.9988873E-007  0.2879351E+04  0.7818608E-02  0.8279048E-01
         -2   -1    0    0    0  501 -0.00000000000E+00  0.00000000000E+00  0.13603285094E+04  0.13603285094E+04  0.00000000000E+00 0.  1.
          2   -1    0    0  501    0  0.00000000000E+00 -0.00000000000E+00 -0.15236503113E+04  0.15236503113E+04  0.00000000000E+00 0. -1.
         23    2    1    2    0    0 -0.60100001998E+03 -0.81322835724E+03  0.94262823865E+03  0.13854238910E+04  0.91159071497E+02 0.  0.
         13    1    3    3    0    0 -0.39165979862E+03 -0.55132831705E+03  0.68498476277E+03  0.96258217118E+03  0.00000000000E+00 0.  1.
        -13    1    3    3    0    0 -0.20934022136E+03 -0.26190004018E+03  0.25764347588E+03  0.42284171979E+03  0.00000000000E+00 0. -1.
         22    1    1    2    0    0  0.60100001998E+03  0.81322835724E+03 -0.11059500406E+04  0.14985549297E+04  0.00000000000E+00 0. -1.
<mgrwt>
<rscale>  0 0.28793506E+04</rscale>
<asrwt>0</asrwt>
<pdfrwt beam="1">  1        2 0.23440774E+00 0.28793506E+04</pdfrwt>
<pdfrwt beam="2">  1       -2 0.20928131E+00 0.28793506E+04</pdfrwt>
<totfact> 0.12317647E+00</totfact>
</mgrwt>
</event>
<event>
 6    1  0.9988873E-007  0.2476154E+04  0.7818608E-02  0.8411530E-01
          2   -1    0    0  501    0  0.00000000000E+00  0.00000000000E+00  0.27338790288E+04  0.27338790288E+04  0.00000000000E+00 0. -1.
         -2   -1    0    0    0  501 -0.00000000000E+00 -0.00000000000E+00 -0.56068113767E+03  0.56068113767E+03  0.00000000000E+00 0.  1.
         23    2    1    2    0    0 -0.39123748822E+03 -0.11451441089E+04  0.75055343026E+03  0.14268505893E+04  0.90279289880E+02 0.  0.
         11    1    3    3    0    0 -0.17960759986E+03 -0.41918877472E+03  0.25086520089E+03  0.52049156362E+03  0.00000000000E+00 0.  1.
        -11    1    3    3    0    0 -0.21162988837E+03 -0.72595533422E+03  0.49968822937E+03  0.90635902572E+03  0.00000000000E+00 0. -1.
         22    1    1    2    0    0  0.39123748822E+03  0.11451441089E+04  0.14226444608E+04  0.18677095771E+04  0.00000000000E+00 0.  1.
<mgrwt>
<rscale>  0 0.24761538E+04</rscale>
<asrwt>0</asrwt>
<pdfrwt beam="1">  1        2 0.42059677E+00 0.24761538E+04</pdfrwt>
<pdfrwt beam="2">  1       -2 0.86258638E-01 0.24761538E+04</pdfrwt>
<totfact> 0.26388034E+00</totfact>
</mgrwt>
</event>
<event>
 6    1  0.9988873E-007  0.3764205E+04  0.7818608E-02  0.8053880E-01
          1   -1    0    0  501    0  0.00000000000E+00  0.00000000000E+00  0.28321403727E+04  0.28321403727E+04  0.00000000000E+00 0. -1.
         -1   -1    0    0    0  501 -0.00000000000E+00 -0.00000000000E+00 -0.12507533232E+04  0.12507533232E+04  0.00000000000E+00 0.  1.
         23    2    1    2    0    0  0.16762479189E+04 -0.11289820675E+03 -0.12642814539E+03  0.16872339056E+04  0.90670202028E+02 0.  0.
         11    1    3    3    0    0  0.20147971124E+03 -0.30670238436E+01  0.12370126208E+02  0.20188239324E+03  0.00000000000E+00 0. -1.
        -11    1    3    3    0    0  0.14747682077E+04 -0.10983118290E+03 -0.13879827160E+03  0.14853515124E+04  0.00000000000E+00 0.  1.
         22    1    1    2    0    0 -0.16762479189E+04  0.11289820675E+03  0.17078151949E+04  0.23956597903E+04  0.00000000000E+00 0. -1.
<mgrwt>
<rscale>  0 0.37642046E+04</rscale>
<asrwt>0</asrwt>
<pdfrwt beam="1">  1        1 0.43571390E+00 0.37642046E+04</pdfrwt>
<pdfrwt beam="2">  1       -1 0.19242359E+00 0.37642046E+04</pdfrwt>
<totfact> 0.10714558E-01</totfact>
</mgrwt>
</event>
<event>
 6    1  0.9988873E-007  0.2039237E+04  0.7818608E-02  0.8588493E-01
         -2   -1    0    0    0  501 -0.00000000000E+00  0.00000000000E+00  0.37476326057E+03  0.37476326057E+03  0.00000000000E+00 0.  1.
          2   -1    0    0  501    0  0.00000000000E+00 -0.00000000000E+00 -0.27740762448E+04  0.27740762448E+04  0.00000000000E+00 0. -1.
         23    2    1    2    0    0  0.10034782699E+04  0.31472088303E+02 -0.14579020355E+04  0.17725351405E+04  0.91887695538E+02 0.  0.
         13    1    3    3    0    0  0.33232712180E+03 -0.94365250601E+01 -0.55152571101E+03  0.64398056942E+03  0.00000000000E+00 0. -1.
        -13    1    3    3    0    0  0.67115114808E+03  0.40908613363E+02 -0.90637632449E+03  0.11285545710E+04  0.00000000000E+00 0.  1.
         22    1    1    2    0    0 -0.10034782699E+04 -0.31472088303E+02 -0.94141094870E+03  0.13763043649E+04  0.00000000000E+00 0.  1.
<mgrwt>
<rscale>  0 0.20392370E+04</rscale>
<asrwt>0</asrwt>
<pdfrwt beam="1">  1        2 0.42678097E+00 0.20392370E+04</pdfrwt>
<pdfrwt beam="2">  1       -2 0.57655885E-01 0.20392370E+04</pdfrwt>
<totfact> 0.62620576E+00</totfact>
</mgrwt>
</event>
<event>
 6    1  0.9988873E-007  0.2306080E+04  0.7818608E-02  0.8475528E-01
          2   -1    0    0  501    0  0.00000000000E+00  0.00000000000E+00  0.70295080187E+03  0.70295080187E+03  0.00000000000E+00 0. -1.
         -2   -1    0    0    0  501 -0.00000000000E+00 -0.00000000000E+00 -0.18913151034E+04  0.18913151034E+04  0.00000000000E+00 0.  1.
         23    2    1    2    0    0  0.74447336693E+03  0.80894288982E+03 -0.21085053623E+03  0.11231566794E+04  0.91617600898E+02 0.  0.
         11    1    3    3    0    0  0.51302495433E+03  0.59183327788E+03 -0.11485104138E+03  0.79161353846E+03  0.00000000000E+00 0.  1.
        -11    1    3    3    0    0  0.23144841260E+03  0.21710961194E+03 -0.95999494845E+02  0.33154314093E+03  0.00000000000E+00 0. -1.
         22    1    1    2    0    0 -0.74447336693E+03 -0.80894288982E+03 -0.97751376525E+03  0.14711092258E+04  0.00000000000E+00 0.  1.
<mgrwt>
<rscale>  0 0.23060802E+04</rscale>
<asrwt>0</asrwt>
<pdfrwt beam="1">  1        2 0.10814628E+00 0.23060802E+04</pdfrwt>
<pdfrwt beam="2">  1       -2 0.29097156E+00 0.23060802E+04</pdfrwt>
<totfact> 0.13332854E+00</totfact>
</mgrwt>
</event>
<event>
 6    1  0.9988873E-007  0.2234109E+04  0.7818608E-02  0.8504364E-01
          2   -1    0    0  501    0  0.00000000000E+00  0.00000000000E+00  0.19986526105E+04  0.19986526105E+04  0.00000000000E+00 0. -1.
         -2   -1    0    0    0  501 -0.00000000000E+00 -0.00000000000E+00 -0.62432606246E+03  0.62432606246E+03  0.00000000000E+00 0.  1.
         23    2    1    2    0    0 -0.95472019092E+03 -0.55016874726E+02  0.13618746047E+04  0.16665935255E+04  0.91181362278E+02 0.  0.
         13    1    3    3    0    0 -0.28946758525E+03 -0.49376092769E+02  0.37207405053E+03  0.47399217349E+03  0.00000000000E+00 0.  1.
        -13    1    3    3    0    0 -0.66525260567E+03 -0.56407819566E+01  0.98980055413E+03  0.11926013520E+04  0.00000000000E+00 0. -1.
         22    1    1    2    0    0  0.95472019092E+03  0.55016874726E+02  0.12451943386E+02  0.95638514750E+03  0.00000000000E+00 0.  1.
<mgrwt>
<rscale>  0 0.22341091E+04</rscale>
<asrwt>0</asrwt>
<pdfrwt beam="1">  1        2 0.30748501E+00 0.22341091E+04</pdfrwt>
<pdfrwt beam="2">  1       -2 0.96050165E-01 0.22341091E+04</pdfrwt>
<totfact> 0.55406491E+00</totfact>
</mgrwt>
</event>
<event>
 6    1  0.9988873E-007  0.1436464E+04  0.7818608E-02  0.8927839E-01
          2   -1    0    0  501    0  0.00000000000E+00  0.00000000000E+00  0.79189741463E+03  0.79189741463E+03  0.00000000000E+00 0. -1.
         -2   -1    0    0    0  501 -0.00000000000E+00 -0.00000000000E+00 -0.65141912709E+03  0.65141912709E+03  0.00000000000E+00 0.  1.
         23    2    1    2    0    0 -0.11940935590E+03 -0.70284501084E+03  0.14848815720E+03  0.73035520929E+03  0.55859604087E+02 0.  0.
         11    1    3    3    0    0 -0.63101308119E+01 -0.87150255240E+02  0.35140343204E+02  0.94179766722E+02  0.00000000000E+00 0. -1.
        -11    1    3    3    0    0 -0.11309922509E+03 -0.61569475560E+03  0.11334781400E+03  0.63617544257E+03  0.00000000000E+00 0.  1.
         22    1    1    2    0    0  0.11940935590E+03  0.70284501084E+03 -0.80098696615E+01  0.71296133244E+03  0.00000000000E+00 0. -1.
<mgrwt>
<rscale>  0 0.14364639E+04</rscale>
<asrwt>0</asrwt>
<pdfrwt beam="1">  1        2 0.12183037E+00 0.14364639E+04</pdfrwt>
<pdfrwt beam="2">  1       -2 0.10021833E+00 0.14364639E+04</pdfrwt>
<totfact> 0.27858481E+01</totfact>
</mgrwt>
</event>
<event>
 6    1  0.9988873E-007  0.1596338E+04  0.7818608E-02  0.8822801E-01
         -2   -1    0    0    0  501 -0.00000000000E+00  0.00000000000E+00  0.34564754048E+03  0.34564754048E+03  0.00000000000E+00 0.  1.
          2   -1    0    0  501    0  0.00000000000E+00 -0.00000000000E+00 -0.18431302372E+04  0.18431302372E+04  0.00000000000E+00 0. -1.
         23    2    1    2    0    0 -0.31284234341E+03  0.23339711116E+03 -0.17009091490E+04  0.17486336367E+04  0.11082923300E+03 0.  0.
         13    1    3    3    0    0 -0.76546709790E+02  0.23017359186E+02 -0.51868940338E+03  0.52481224718E+03  0.00000000000E+00 0.  1.
        -13    1    3    3    0    0 -0.23629563362E+03  0.21037975198E+03 -0.11822197456E+04  0.12238213895E+04  0.00000000000E+00 0. -1.
         22    1    1    2    0    0  0.31284234341E+03 -0.23339711116E+03  0.20342645230E+03  0.44014414096E+03  0.00000000000E+00 0.  1.
<mgrwt>
<rscale>  0 0.15963376E+04</rscale>
<asrwt>0</asrwt>
<pdfrwt beam="1">  1        2 0.28355851E+00 0.15963376E+04</pdfrwt>
<pdfrwt beam="2">  1       -2 0.53176543E-01 0.15963376E+04</pdfrwt>
<totfact> 0.26115968E+01</totfact>
</mgrwt>
</event>
<event>
 6    1  0.9988873E-007  0.1083611E+04  0.7818608E-02  0.9221314E-01
          2   -1    0    0  501    0  0.00000000000E+00  0.00000000000E+00  0.35172615409E+03  0.35172615409E+03  0.00000000000E+00 0. -1.
         -2   -1    0    0    0  501 -0.00000000000E+00 -0.00000000000E+00 -0.83460766724E+03  0.83460766724E+03  0.00000000000E+00 0.  1.
         23    2    1    2    0    0 -0.50526660545E+03 -0.16844071719E+03 -0.15986543399E+03  0.56343254089E+03  0.90733970258E+02 0.  0.
         13    1    3    3    0    0 -0.30326344640E+03 -0.14600127203E+03 -0.88467122593E+02  0.34801080606E+03  0.00000000000E+00 0.  1.
        -13    1    3    3    0    0 -0.20200315905E+03 -0.22439445157E+02 -0.71398311402E+02  0.21542173483E+03  0.00000000000E+00 0. -1.
         22    1    1    2    0    0  0.50526660545E+03  0.16844071719E+03 -0.32301607915E+03  0.62290128044E+03  0.00000000000E+00 0.  1.
<mgrwt>
<rscale>  0 0.10836113E+04</rscale>
<asrwt>0</asrwt>
<pdfrwt beam="1">  1        2 0.54111717E-01 0.10836113E+04</pdfrwt>
<pdfrwt beam="2">  1       -2 0.12840118E+00 0.10836113E+04</pdfrwt>
<totfact> 0.40901596E+01</totfact>
</mgrwt>
</event>
<event>
 6    1  0.9988873E-007  0.2939832E+04  0.7818608E-02  0.8261124E-01
          2   -1    0    0  501    0  0.00000000000E+00  0.00000000000E+00  0.23865342531E+04  0.23865342531E+04  0.00000000000E+00 0. -1.
         -2   -1    0    0    0  501 -0.00000000000E+00 -0.00000000000E+00 -0.90535155126E+03  0.90535155126E+03  0.00000000000E+00 0.  1.
         23    2    1    2    0    0  0.13724752606E+04 -0.52043271694E+03  0.81674264178E+03  0.16806691377E+04  0.55151188490E+02 0.  0.
         11    1    3    3    0    0  0.10626670144E+04 -0.39493891335E+03  0.60544382376E+03  0.12852237752E+04  0.00000000000E+00 0. -1.
        -11    1    3    3    0    0  0.30980824621E+03 -0.12549380358E+03  0.21129881802E+03  0.39544536241E+03  0.00000000000E+00 0.  1.
         22    1    1    2    0    0 -0.13724752606E+04  0.52043271694E+03  0.66444006010E+03  0.16112166668E+04  0.00000000000E+00 0.  1.
<mgrwt>
<rscale>  0 0.29398316E+04</rscale>
<asrwt>0</asrwt>
<pdfrwt beam="1">  1        2 0.36715911E+00 0.29398316E+04</pdfrwt>
<pdfrwt beam="2">  1       -2 0.13928486E+00 0.29398316E+04</pdfrwt>
<totfact> 0.12668984E+00</totfact>
</mgrwt>
</event>
<event>
 6    1  0.9988873E-007  0.1629828E+04  0.7818608E-02  0.8802430E-01
         -1   -1    0    0    0  501 -0.00000000000E+00  0.00000000000E+00  0.15493008854E+04  0.15493008854E+04  0.00000000000E+00 0.  1.
          1   -1    0    0  501    0  0.00000000000E+00 -0.00000000000E+00 -0.42863521820E+03  0.42863521820E+03  0.00000000000E+00 0. -1.
         23    2    1    2    0    0  0.30225518722E+03 -0.32131838218E+03  0.13902274558E+04  0.14609571303E+04  0.84021763564E+02 0.  0.
         11    1    3    3    0    0  0.17851165295E+03 -0.12853636913E+03  0.67460742927E+03  0.70956549525E+03  0.00000000000E+00 0.  1.
        -11    1    3    3    0    0  0.12374353427E+03 -0.19278201306E+03  0.71562002655E+03  0.75139163505E+03  0.00000000000E+00 0. -1.
         22    1    1    2    0    0 -0.30225518722E+03  0.32131838218E+03 -0.26956178862E+03  0.51697897328E+03  0.00000000000E+00 0. -1.
<mgrwt>
<rscale>  0 0.16298281E+04</rscale>
<asrwt>0</asrwt>
<pdfrwt beam="1">  1        1 0.65943880E-01 0.16298281E+04</pdfrwt>
<pdfrwt beam="2">  1       -1 0.23835398E+00 0.16298281E+04</pdfrwt>
<totfact> 0.43513622E+00</totfact>
</mgrwt>
</event>
<event>
 6    1  0.9988873E-007  0.4379186E+04  0.7818608E-02  0.7932136E-01
         -1   -1    0    0    0  501 -0.00000000000E+00  0.00000000000E+00  0.20185362057E+04  0.20185362057E+04  0.00000000000E+00 0.  1.
          1   -1    0    0  501    0  0.00000000000E+00 -0.00000000000E+00 -0.23751459248E+04  0.23751459248E+04  0.00000000000E+00 0. -1.
         23    2    1    2    0    0 -0.43118272353E+03  0.17606504031E+04  0.10520439345E+04  0.20980093537E+04  0.95070631903E+02 0.  0.
         11    1    3    3    0    0 -0.19682402724E+03  0.91345952041E+03  0.58794649617E+03  0.11040059219E+04  0.00000000000E+00 0. -1.
        -11    1    3    3    0    0 -0.23435869629E+03  0.84719088267E+03  0.46409743828E+03  0.99400343180E+03  0.00000000000E+00 0.  1.
         22    1    1    2    0    0  0.43118272353E+03 -0.17606504031E+04 -0.14086536535E+04  0.22956727769E+04  0.00000000000E+00 0. -1.
<mgrwt>
<rscale>  0 0.43791862E+04</rscale>
<asrwt>0</asrwt>
<pdfrwt beam="1">  1        1 0.36540706E+00 0.43791862E+04</pdfrwt>
<pdfrwt beam="2">  1       -1 0.31054403E+00 0.43791862E+04</pdfrwt>
<totfact> 0.35373026E-02</totfact>
</mgrwt>
</event>
<event>
 6    1  0.9988873E-007  0.7929519E+03  0.7818608E-02  0.9570275E-01
          1   -1    0    0  501    0  0.00000000000E+00  0.00000000000E+00  0.45871249450E+03  0.45871249450E+03  0.00000000000E+00 0. -1.
         -1   -1    0    0    0  501 -0.00000000000E+00 -0.00000000000E+00 -0.34268345857E+03  0.34268345857E+03  0.00000000000E+00 0.  1.
         23    2    1    2    0    0 -0.19462381219E+02 -0.22617172264E+03  0.38077848469E+03  0.45264861899E+03  0.91466307804E+02 0.  0.
         13    1    3    3    0    0 -0.22912945397E+02 -0.48146873313E+02  0.16211329190E+03  0.17065709446E+03  0.00000000000E+00 0.  1.
        -13    1    3    3    0    0  0.34505641784E+01 -0.17802484932E+03  0.21866519279E+03  0.28199152453E+03  0.00000000000E+00 0. -1.
         22    1    1    2    0    0  0.19462381219E+02  0.22617172264E+03 -0.26474944877E+03  0.34874733408E+03  0.00000000000E+00 0.  1.
<mgrwt>
<rscale>  0 0.79295191E+03</rscale>
<asrwt>0</asrwt>
<pdfrwt beam="1">  1        1 0.70571154E-01 0.79295191E+03</pdfrwt>
<pdfrwt beam="2">  1       -1 0.52720531E-01 0.79295191E+03</pdfrwt>
<totfact> 0.18306111E+02</totfact>
</mgrwt>
</event>
<event>
 6    1  0.9988873E-007  0.2863114E+04  0.7818608E-02  0.8283937E-01
          2   -1    0    0  501    0  0.00000000000E+00  0.00000000000E+00  0.11965939759E+04  0.11965939759E+04  0.00000000000E+00 0. -1.
         -2   -1    0    0    0  501 -0.00000000000E+00 -0.00000000000E+00 -0.17126577816E+04  0.17126577816E+04  0.00000000000E+00 0.  1.
         23    2    1    2    0    0  0.28888242986E+01 -0.86657700985E+03  0.89832177571E+03  0.12505020379E+04  0.76218598824E+02 0.  0.
         11    1    3    3    0    0  0.27283340859E+02 -0.28115394057E+03  0.32739552292E+03  0.43241154865E+03  0.00000000000E+00 0. -1.
        -11    1    3    3    0    0 -0.24394516561E+02 -0.58542306929E+03  0.57092625280E+03  0.81809048926E+03  0.00000000000E+00 0.  1.
         22    1    1    2    0    0 -0.28888242986E+01  0.86657700985E+03 -0.14143855814E+04  0.16587497195E+04  0.00000000000E+00 0.  1.
<mgrwt>
<rscale>  0 0.28631144E+04</rscale>
<asrwt>0</asrwt>
<pdfrwt beam="1">  1        2 0.18409138E+00 0.28631144E+04</pdfrwt>
<pdfrwt beam="2">  1       -2 0.26348581E+00 0.28631144E+04</pdfrwt>
<totfact> 0.87506851E-01</totfact>
</mgrwt>
</event>
<event>
 6    1  0.9988873E-007  0.1591776E+04  0.7818608E-02  0.8825616E-01
         -1   -1    0    0    0  501 -0.00000000000E+00  0.00000000000E+00  0.40961120459E+03  0.40961120459E+03  0.00000000000E+00 0.  1.
          1   -1    0    0  501    0  0.00000000000E+00 -0.00000000000E+00 -0.15464364385E+04  0.15464364385E+04  0.00000000000E+00 0. -1.
         23    2    1    2    0    0 -0.70588362426E+03 -0.13765264696E+03 -0.98171490234E+03  0.12203308789E+04  0.90682756182E+02 0.  0.
         11    1    3    3    0    0 -0.52038232860E+03 -0.60205634935E+02 -0.71070429705E+03  0.88290604497E+03  0.00000000000E+00 0. -1.
        -11    1    3    3    0    0 -0.18550129565E+03 -0.77447012025E+02 -0.27101060529E+03  0.33742483391E+03  0.00000000000E+00 0.  1.
         22    1    1    2    0    0  0.70588362426E+03  0.13765264696E+03 -0.15511033159E+03  0.73571676423E+03  0.00000000000E+00 0.  1.
<mgrwt>
<rscale>  0 0.15917760E+04</rscale>
<asrwt>0</asrwt>
<pdfrwt beam="1">  1        1 0.23791330E+00 0.15917760E+04</pdfrwt>
<pdfrwt beam="2">  1       -1 0.63017108E-01 0.15917760E+04</pdfrwt>
<totfact> 0.14897323E+01</totfact>
</mgrwt>
</event>
<event>
 6    1  0.9988873E-007  0.5397611E+04  0.7818608E-02  0.7769937E-01
         -2   -1    0    0    0  501 -0.00000000000E+00  0.00000000000E+00  0.35320633377E+04  0.35320633377E+04  0.00000000000E+00 0.  1.
          2   -1    0    0  501    0  0.00000000000E+00 -0.00000000000E+00 -0.20621232303E+04  0.20621232303E+04  0.00000000000E+00 0. -1.
         23    2    1    2    0    0  0.21741831668E+04 -0.15962738882E+04  0.79551018776E+03  0.28138954887E+04  0.10004295834E+03 0.  0.
         11    1    3    3    0    0  0.10341393932E+04 -0.73314679918E+03  0.42105843579E+03  0.13357539893E+04  0.00000000000E+00 0. -1.
        -11    1    3    3    0    0  0.11400437736E+04 -0.86312708905E+03  0.37445175197E+03  0.14781414994E+04  0.00000000000E+00 0.  1.
         22    1    1    2    0    0 -0.21741831668E+04  0.15962738882E+04  0.67442991966E+03  0.27802910793E+04  0.00000000000E+00 0. -1.
<mgrwt>
<rscale>  0 0.53976105E+04</rscale>
<asrwt>0</asrwt>
<pdfrwt beam="1">  1        2 0.31724973E+00 0.53976105E+04</pdfrwt>
<pdfrwt beam="2">  1       -2 0.54339436E+00 0.53976105E+04</pdfrwt>
<totfact> 0.40763391E-03</totfact>
</mgrwt>
</event>
<event>
 6    1  0.9988873E-007  0.3058044E+04  0.7818608E-02  0.8227348E-01
         -1   -1    0    0    0  501 -0.00000000000E+00  0.00000000000E+00  0.12856924413E+04  0.12856924413E+04  0.00000000000E+00 0.  1.
          1   -1    0    0  501    0  0.00000000000E+00 -0.00000000000E+00 -0.18184036441E+04  0.18184036441E+04  0.00000000000E+00 0. -1.
         23    2    1    2    0    0 -0.11119809010E+03 -0.12576791482E+04  0.60633151113E+03  0.14036431578E+04  0.91947582611E+02 0.  0.
         11    1    3    3    0    0 -0.23231262536E+02 -0.62671777399E+03  0.33733261209E+03  0.71211526523E+03  0.00000000000E+00 0.  1.
        -11    1    3    3    0    0 -0.87966827566E+02 -0.63096137418E+03  0.26899889904E+03  0.69152789253E+03  0.00000000000E+00 0. -1.
         22    1    1    2    0    0  0.11119809010E+03  0.12576791482E+04 -0.11390427140E+04  0.17004529277E+04  0.00000000000E+00 0.  1.
<mgrwt>
<rscale>  0 0.30580437E+04</rscale>
<asrwt>0</asrwt>
<pdfrwt beam="1">  1        1 0.27975440E+00 0.30580437E+04</pdfrwt>
<pdfrwt beam="2">  1       -1 0.19779884E+00 0.30580437E+04</pdfrwt>
<totfact> 0.52253971E-01</totfact>
</mgrwt>
</event>
<event>
 6    1  0.9988873E-007  0.1016613E+04  0.7818608E-02  0.9290510E-01
         -2   -1    0    0    0  501 -0.00000000000E+00  0.00000000000E+00  0.44625440301E+03  0.44625440301E+03  0.00000000000E+00 0.  1.
          2   -1    0    0  501    0  0.00000000000E+00 -0.00000000000E+00 -0.57898676934E+03  0.57898676934E+03  0.00000000000E+00 0. -1.
         23    2    1    2    0    0  0.14565402698E+03  0.46068402654E+03 -0.21235103087E+03  0.53556372787E+03  0.91053162567E+02 0.  0.
         13    1    3    3    0    0  0.85681833227E+02  0.26995215170E+03 -0.74976434524E+02  0.29297953253E+03  0.00000000000E+00 0. -1.
        -13    1    3    3    0    0  0.59972193756E+02  0.19073187485E+03 -0.13737459635E+03  0.24258419534E+03  0.00000000000E+00 0.  1.
         22    1    1    2    0    0 -0.14565402698E+03 -0.46068402654E+03  0.79618664539E+02  0.48967744448E+03  0.00000000000E+00 0. -1.
<mgrwt>
<rscale>  0 0.10166128E+04</rscale>
<asrwt>0</asrwt>
<pdfrwt beam="1">  1        2 0.89074888E-01 0.10166128E+04</pdfrwt>
<pdfrwt beam="2">  1       -2 0.68654524E-01 0.10166128E+04</pdfrwt>
<totfact> 0.10023763E+02</totfact>
</mgrwt>
</event>
<event>
 6    1  0.9988873E-007  0.4204838E+04  0.7818608E-02  0.7964453E-01
         -2   -1    0    0    0  501 -0.00000000000E+00  0.00000000000E+00  0.11708467566E+04  0.11708467566E+04  0.00000000000E+00 0.  1.
          2   -1    0    0  501    0  0.00000000000E+00 -0.00000000000E+00 -0.37751877566E+04  0.37751877566E+04  0.00000000000E+00 0. -1.
         23    2    1    2    0    0  0.64532289866E+03  0.33842383520E+03  0.10156214279E+04  0.12534608423E+04  0.93299852660E+02 0.  0.
         11    1    3    3    0    0  0.47931336391E+03  0.20491491335E+03  0.70416500977E+03  0.87611630708E+03  0.00000000000E+00 0. -1.
        -11    1    3    3    0    0  0.16600953475E+03  0.13350892185E+03  0.31145641814E+03  0.37734453519E+03  0.00000000000E+00 0.  1.
         22    1    1    2    0    0 -0.64532289866E+03 -0.33842383520E+03 -0.36199624279E+04  0.36925736709E+04  0.00000000000E+00 0. -1.
<mgrwt>
<rscale>  0 0.42048383E+04</rscale>
<asrwt>0</asrwt>
<pdfrwt beam="1">  1        2 0.58079812E+00 0.42048383E+04</pdfrwt>
<pdfrwt beam="2">  1       -2 0.18013027E+00 0.42048383E+04</pdfrwt>
<totfact> 0.71805895E-02</totfact>
</mgrwt>
</event>
<event>
 6    1  0.9988873E-007  0.1866909E+04  0.7818608E-02  0.8671505E-01
         -2   -1    0    0    0  501 -0.00000000000E+00  0.00000000000E+00  0.42708103013E+03  0.42708103013E+03  0.00000000000E+00 0.  1.
          2   -1    0    0  501    0  0.00000000000E+00 -0.00000000000E+00 -0.20402161080E+04  0.20402161080E+04  0.00000000000E+00 0. -1.
         23    2    1    2    0    0  0.76223561161E+03  0.51222024205E+03 -0.10129131846E+04  0.13701923003E+04  0.89783719670E+02 0.  0.
         11    1    3    3    0    0  0.42285080613E+03  0.24271997137E+03 -0.57880635278E+03  0.75679097693E+03  0.00000000000E+00 0.  1.
        -11    1    3    3    0    0  0.33938480548E+03  0.26950027068E+03 -0.43410683178E+03  0.61340132335E+03  0.00000000000E+00 0. -1.
         22    1    1    2    0    0 -0.76223561161E+03 -0.51222024205E+03 -0.60022189327E+03  0.10971048378E+04  0.00000000000E+00 0. -1.
<mgrwt>
<rscale>  0 0.18669093E+04</rscale>
<asrwt>0</asrwt>
<pdfrwt beam="1">  1        2 0.31387940E+00 0.18669093E+04</pdfrwt>
<pdfrwt beam="2">  1       -2 0.65704774E-01 0.18669093E+04</pdfrwt>
<totfact> 0.12709236E+01</totfact>
</mgrwt>
</event>
<event>
 6    1  0.9988873E-007  0.2654051E+04  0.7818608E-02  0.8350070E-01
          2   -1    0    0  501    0  0.00000000000E+00  0.00000000000E+00  0.13584268712E+04  0.13584268712E+04  0.00000000000E+00 0. -1.
         -2   -1    0    0    0  501 -0.00000000000E+00 -0.00000000000E+00 -0.12963495201E+04  0.12963495201E+04  0.00000000000E+00 0.  1.
         23    2    1    2    0    0  0.56310366859E+03 -0.11715571989E+04  0.29035598062E+03  0.13350252236E+04  0.91398798508E+02 0.  0.
         13    1    3    3    0    0  0.29368610779E+03 -0.71331590269E+03  0.17940443380E+03  0.79199561729E+03  0.00000000000E+00 0. -1.
        -13    1    3    3    0    0  0.26941756079E+03 -0.45824129623E+03  0.11095154682E+03  0.54302960635E+03  0.00000000000E+00 0.  1.
         22    1    1    2    0    0 -0.56310366859E+03  0.11715571989E+04 -0.22827862950E+03  0.13197511677E+04  0.00000000000E+00 0.  1.
<mgrwt>
<rscale>  0 0.26540505E+04</rscale>
<asrwt>0</asrwt>
<pdfrwt beam="1">  1        2 0.20898875E+00 0.26540505E+04</pdfrwt>
<pdfrwt beam="2">  1       -2 0.19943839E+00 0.26540505E+04</pdfrwt>
<totfact> 0.18061726E+00</totfact>
</mgrwt>
</event>
<event>
 6    1  0.9988873E-007  0.3045894E+04  0.7818608E-02  0.8230746E-01
         -1   -1    0    0    0  501 -0.00000000000E+00  0.00000000000E+00  0.14099551831E+04  0.14099551831E+04  0.00000000000E+00 0.  1.
          1   -1    0    0  501    0  0.00000000000E+00 -0.00000000000E+00 -0.16449935861E+04  0.16449935861E+04  0.00000000000E+00 0. -1.
         23    2    1    2    0    0 -0.18638199332E+03  0.10909136637E+04 -0.11649438077E+04  0.16094194784E+04  0.91137880148E+02 0.  0.
         13    1    3    3    0    0 -0.61496609576E+02  0.16473720034E+03 -0.17805450523E+03  0.25024704793E+03  0.00000000000E+00 0.  1.
        -13    1    3    3    0    0 -0.12488538374E+03  0.92617646336E+03 -0.98688930245E+03  0.13591724304E+04  0.00000000000E+00 0. -1.
         22    1    1    2    0    0  0.18638199332E+03 -0.10909136637E+04  0.92990540461E+03  0.14455292908E+04  0.00000000000E+00 0.  1.
<mgrwt>
<rscale>  0 0.30458938E+04</rscale>
<asrwt>0</asrwt>
<pdfrwt beam="1">  1        1 0.25307594E+00 0.30458938E+04</pdfrwt>
<pdfrwt beam="2">  1       -1 0.21691618E+00 0.30458938E+04</pdfrwt>
<totfact> 0.50858573E-01</totfact>
</mgrwt>
</event>
<event>
 6    1  0.9988873E-007  0.3015736E+04  0.7818608E-02  0.8239252E-01
         -2   -1    0    0    0  501 -0.00000000000E+00  0.00000000000E+00  0.11981098879E+04  0.11981098879E+04  0.00000000000E+00 0.  1.
          2   -1    0    0  501    0  0.00000000000E+00 -0.00000000000E+00 -0.18977101997E+04  0.18977101997E+04  0.00000000000E+00 0. -1.
         23    2    1    2    0    0 -0.81111200397E+03 -0.95602471026E+01  0.95306781351E+03  0.12548132942E+04  0.90686629313E+02 0.  0.
         11    1    3    3    0    0 -0.24825231463E+02 -0.46455428093E+01  0.58957688630E+02  0.64139552803E+02  0.00000000000E+00 0.  1.
        -11    1    3    3    0    0 -0.78628677250E+03 -0.49147042933E+01  0.89411012488E+03  0.11906737414E+04  0.00000000000E+00 0. -1.
         22    1    1    2    0    0  0.81111200397E+03  0.95602471026E+01 -0.16526681252E+04  0.18410067934E+04  0.00000000000E+00 0. -1.
<mgrwt>
<rscale>  0 0.30157356E+04</rscale>
<asrwt>0</asrwt>
<pdfrwt beam="1">  1        2 0.29195542E+00 0.30157356E+04</pdfrwt>
<pdfrwt beam="2">  1       -2 0.18432460E+00 0.30157356E+04</pdfrwt>
<totfact> 0.11026415E+00</totfact>
</mgrwt>
</event>
<event>
 6    1  0.9988873E-007  0.2485309E+04  0.7818608E-02  0.8408238E-01
          1   -1    0    0  501    0  0.00000000000E+00  0.00000000000E+00  0.40621706428E+04  0.40621706428E+04  0.00000000000E+00 0. -1.
         -1   -1    0    0    0  501 -0.00000000000E+00 -0.00000000000E+00 -0.38013914398E+03  0.38013914398E+03  0.00000000000E+00 0.  1.
         23    2    1    2    0    0 -0.26935709390E+03 -0.43993897508E+03  0.38608501285E+04  0.38963467402E+04  0.96201138805E+02 0.  0.
         11    1    3    3    0    0 -0.15611848276E+03 -0.19719308393E+03  0.21487962853E+04  0.21634656384E+04  0.00000000000E+00 0. -1.
        -11    1    3    3    0    0 -0.11323861114E+03 -0.24274589114E+03  0.17120538433E+04  0.17328811018E+04  0.00000000000E+00 0.  1.
         22    1    1    2    0    0  0.26935709390E+03  0.43993897508E+03 -0.17881862976E+03  0.54596304653E+03  0.00000000000E+00 0.  1.
<mgrwt>
<rscale>  0 0.24853089E+04</rscale>
<asrwt>0</asrwt>
<pdfrwt beam="1">  1        1 0.62494930E+00 0.24853089E+04</pdfrwt>
<pdfrwt beam="2">  1       -1 0.58482948E-01 0.24853089E+04</pdfrwt>
<totfact> 0.22336345E-01</totfact>
</mgrwt>
</event>
<event>
 6    1  0.9988873E-007  0.2085227E+04  0.7818608E-02  0.8567779E-01
          1   -1    0    0  501    0  0.00000000000E+00  0.00000000000E+00  0.11363705283E+04  0.11363705283E+04  0.00000000000E+00 0. -1.
         -1   -1    0    0    0  501 -0.00000000000E+00 -0.00000000000E+00 -0.95659151514E+03  0.95659151514E+03  0.00000000000E+00 0.  1.
         23    2    1    2    0    0  0.41591717991E+03 -0.62707256776E+03  0.81160475332E+03  0.11104088023E+04  0.89990704289E+02 0.  0.
         13    1    3    3    0    0  0.20307707598E+03 -0.26024508827E+03  0.30189635704E+03  0.44733568508E+03  0.00000000000E+00 0. -1.
        -13    1    3    3    0    0  0.21284010394E+03 -0.36682747949E+03  0.50970839628E+03  0.66307311723E+03  0.00000000000E+00 0.  1.
         22    1    1    2    0    0 -0.41591717991E+03  0.62707256776E+03 -0.63182574014E+03  0.98255324115E+03  0.00000000000E+00 0.  1.
<mgrwt>
<rscale>  0 0.20852265E+04</rscale>
<asrwt>0</asrwt>
<pdfrwt beam="1">  1        1 0.17482624E+00 0.20852265E+04</pdfrwt>
<pdfrwt beam="2">  1       -1 0.14716793E+00 0.20852265E+04</pdfrwt>
<totfact> 0.40271077E+00</totfact>
</mgrwt>
</event>
<event>
 6    1  0.9988873E-007  0.1321827E+04  0.7818608E-02  0.9012433E-01
          1   -1    0    0  501    0  0.00000000000E+00  0.00000000000E+00  0.32984741398E+04  0.32984741398E+04  0.00000000000E+00 0. -1.
         -1   -1    0    0    0  501 -0.00000000000E+00 -0.00000000000E+00 -0.13242681315E+03  0.13242681315E+03  0.00000000000E+00 0.  1.
         23    2    1    2    0    0 -0.56804565563E+03  0.31042928732E+03  0.18927416058E+04  0.20024928642E+04  0.92003671142E+02 0.  0.
         13    1    3    3    0    0 -0.27884487638E+03  0.17114933939E+03  0.82370231273E+03  0.88630246612E+03  0.00000000000E+00 0.  1.
        -13    1    3    3    0    0 -0.28920077925E+03  0.13927994792E+03  0.10690392930E+04  0.11161903980E+04  0.00000000000E+00 0. -1.
         22    1    1    2    0    0  0.56804565563E+03 -0.31042928732E+03  0.12733057209E+04  0.14284080888E+04  0.00000000000E+00 0.  1.
<mgrwt>
<rscale>  0 0.13218266E+04</rscale>
<asrwt>0</asrwt>
<pdfrwt beam="1">  1        1 0.50745750E+00 0.13218266E+04</pdfrwt>
<pdfrwt beam="2">  1       -1 0.20373358E-01 0.13218266E+04</pdfrwt>
<totfact> 0.70616920E+00</totfact>
</mgrwt>
</event>
<event>
 6    1  0.9988873E-007  0.1115699E+04  0.7818608E-02  0.9190025E-01
         -1   -1    0    0    0  501 -0.00000000000E+00  0.00000000000E+00  0.45960155343E+03  0.45960155343E+03  0.00000000000E+00 0.  1.
          1   -1    0    0  501    0  0.00000000000E+00 -0.00000000000E+00 -0.67709933849E+03  0.67709933849E+03  0.00000000000E+00 0. -1.
         23    2    1    2    0    0 -0.24953987756E+02 -0.48390040869E+03  0.16458043139E+03  0.51963843922E+03  0.90305493122E+02 0.  0.
         11    1    3    3    0    0 -0.23620702213E+02 -0.89254735593E+02  0.73522007707E+00  0.92330308932E+02  0.00000000000E+00 0. -1.
        -11    1    3    3    0    0 -0.13332855422E+01 -0.39464567310E+03  0.16384521131E+03  0.42730813029E+03  0.00000000000E+00 0.  1.
         22    1    1    2    0    0  0.24953987756E+02  0.48390040869E+03 -0.38207821645E+03  0.61706245269E+03  0.00000000000E+00 0. -1.
<mgrwt>
<rscale>  0 0.11156987E+04</rscale>
<asrwt>0</asrwt>
<pdfrwt beam="1">  1        1 0.10416913E+00 0.11156987E+04</pdfrwt>
<pdfrwt beam="2">  1       -1 0.70707931E-01 0.11156987E+04</pdfrwt>
<totfact> 0.57662356E+01</totfact>
</mgrwt>
</event>
<event>
 6    1  0.9988873E-007  0.4089600E+04  0.7818608E-02  0.7986711E-01
         -2   -1    0    0    0  501 -0.00000000000E+00  0.00000000000E+00  0.30625363004E+04  0.30625363004E+04  0.00000000000E+00 0.  1.
          2   -1    0    0  501    0  0.00000000000E+00 -0.00000000000E+00 -0.13652756931E+04  0.13652756931E+04  0.00000000000E+00 0. -1.
         23    2    1    2    0    0  0.14114577419E+04 -0.53170927859E+02 -0.75030418358E+03  0.16019292092E+04  0.90447325231E+02 0.  0.
         13    1    3    3    0    0  0.22331426843E+03  0.24056477479E+02 -0.12588932852E+03  0.25748028979E+03  0.00000000000E+00 0.  1.
        -13    1    3    3    0    0  0.11881434735E+04 -0.77227405339E+02 -0.62441485506E+03  0.13444489194E+04  0.00000000000E+00 0. -1.
         22    1    1    2    0    0 -0.14114577419E+04  0.53170927859E+02  0.24475647908E+04  0.28258827842E+04  0.00000000000E+00 0.  1.
<mgrwt>
<rscale>  0 0.40895997E+04</rscale>
<asrwt>0</asrwt>
<pdfrwt beam="1">  1        2 0.21004241E+00 0.40895997E+04</pdfrwt>
<pdfrwt beam="2">  1       -2 0.47115943E+00 0.40895997E+04</pdfrwt>
<totfact> 0.29923938E-02</totfact>
</mgrwt>
</event>
<event>
 6    1  0.9988873E-007  0.3368097E+04  0.7818608E-02  0.8145781E-01
         -2   -1    0    0    0  501 -0.00000000000E+00  0.00000000000E+00  0.14640433022E+04  0.14640433022E+04  0.00000000000E+00 0.  1.
          2   -1    0    0  501    0  0.00000000000E+00 -0.00000000000E+00 -0.19371148079E+04  0.19371148079E+04  0.00000000000E+00 0. -1.
         23    2    1    2    0    0  0.56105543435E+03 -0.86173014403E+03 -0.15819268248E+04  0.18889008039E+04  0.89954024008E+02 0.  0.
         13    1    3    3    0    0  0.40427873125E+03 -0.54373246405E+03 -0.10512606551E+04  0.12506939074E+04  0.00000000000E+00 0.  1.
        -13    1    3    3    0    0  0.15677670310E+03 -0.31799767997E+03 -0.53066616967E+03  0.63820689650E+03  0.00000000000E+00 0. -1.
         22    1    1    2    0    0 -0.56105543435E+03  0.86173014403E+03  0.11088553191E+04  0.15122573062E+04  0.00000000000E+00 0.  1.
<mgrwt>
<rscale>  0 0.33680974E+04</rscale>
<asrwt>0</asrwt>
<pdfrwt beam="1">  1        2 0.29801766E+00 0.33680974E+04</pdfrwt>
<pdfrwt beam="2">  1       -2 0.22523743E+00 0.33680974E+04</pdfrwt>
<totfact> 0.55091487E-01</totfact>
</mgrwt>
</event>
<event>
 6    1  0.9988873E-007  0.5064254E+04  0.7818608E-02  0.7818671E-01
          2   -1    0    0  501    0  0.00000000000E+00  0.00000000000E+00  0.40547801580E+04  0.40547801580E+04  0.00000000000E+00 0. -1.
         -2   -1    0    0    0  501 -0.00000000000E+00 -0.00000000000E+00 -0.15812610854E+04  0.15812610854E+04  0.00000000000E+00 0.  1.
         23    2    1    2    0    0  0.21070107771E+03 -0.19545826751E+04  0.30117174031E+04  0.35977954729E+04  0.94351314297E+02 0.  0.
         13    1    3    3    0    0  0.70924019349E+01 -0.40306534409E+03  0.59536424883E+03  0.71900664987E+03  0.00000000000E+00 0. -1.
        -13    1    3    3    0    0  0.20360867577E+03 -0.15515173311E+04  0.24163531543E+04  0.28787888230E+04  0.00000000000E+00 0.  1.
         22    1    1    2    0    0 -0.21070107771E+03  0.19545826751E+04 -0.53819833046E+03  0.20382457705E+04  0.00000000000E+00 0.  1.
<mgrwt>
<rscale>  0 0.50642536E+04</rscale>
<asrwt>0</asrwt>
<pdfrwt beam="1">  1        2 0.62381233E+00 0.50642536E+04</pdfrwt>
<pdfrwt beam="2">  1       -2 0.24327094E+00 0.50642536E+04</pdfrwt>
<totfact> 0.15722949E-02</totfact>
</mgrwt>
</event>
<event>
 6    1  0.9988873E-007  0.2452286E+04  0.7818608E-02  0.8420184E-01
          2   -1    0    0  501    0  0.00000000000E+00  0.00000000000E+00  0.76744121346E+03  0.76744121346E+03  0.00000000000E+00 0. -1.
         -2   -1    0    0    0  501 -0.00000000000E+00 -0.00000000000E+00 -0.19590123659E+04  0.19590123659E+04  0.00000000000E+00 0.  1.
         23    2    1    2    0    0 -0.73275602338E+03 -0.91947448334E+03 -0.97681848810E+03  0.15312617863E+04  0.90683980357E+02 0.  0.
         13    1    3    3    0    0 -0.51333601322E+03 -0.62872537068E+03 -0.62017327877E+03  0.10214814486E+04  0.00000000000E+00 0. -1.
        -13    1    3    3    0    0 -0.21942001016E+03 -0.29074911266E+03 -0.35664520932E+03  0.50978033770E+03  0.00000000000E+00 0.  1.
         22    1    1    2    0    0  0.73275602338E+03  0.91947448334E+03 -0.21475266437E+03  0.11951917931E+04  0.00000000000E+00 0. -1.
<mgrwt>
<rscale>  0 0.24522861E+04</rscale>
<asrwt>0</asrwt>
<pdfrwt beam="1">  1        2 0.11806788E+00 0.24522861E+04</pdfrwt>
<pdfrwt beam="2">  1       -2 0.30138652E+00 0.24522861E+04</pdfrwt>
<totfact> 0.10158368E+00</totfact>
</mgrwt>
</event>
<event>
 6    1  0.9988873E-007  0.3316766E+04  0.7818608E-02  0.8158642E-01
          2   -1    0    0  501    0  0.00000000000E+00  0.00000000000E+00  0.42273642809E+04  0.42273642809E+04  0.00000000000E+00 0. -1.
         -2   -1    0    0    0  501 -0.00000000000E+00 -0.00000000000E+00 -0.65057906988E+03  0.65057906988E+03  0.00000000000E+00 0.  1.
         23    2    1    2    0    0  0.14265609461E+04 -0.31588665214E+03  0.63985205587E+03  0.15976328673E+04  0.90330589607E+02 0.  0.
         13    1    3    3    0    0  0.23003518958E+03 -0.33798675935E+02  0.13350630776E+03  0.26810906951E+03  0.00000000000E+00 0. -1.
        -13    1    3    3    0    0  0.11965257565E+04 -0.28208797620E+03  0.50634574811E+03  0.13295237978E+04  0.00000000000E+00 0.  1.
         22    1    1    2    0    0 -0.14265609461E+04  0.31588665214E+03  0.29369331551E+04  0.32803104834E+04  0.00000000000E+00 0. -1.
<mgrwt>
<rscale>  0 0.33167663E+04</rscale>
<asrwt>0</asrwt>
<pdfrwt beam="1">  1        2 0.65036372E+00 0.33167663E+04</pdfrwt>
<pdfrwt beam="2">  1       -2 0.10008909E+00 0.33167663E+04</pdfrwt>
<totfact> 0.15090713E-01</totfact>
</mgrwt>
</event>
<event>
 6    1  0.9988873E-007  0.4911726E+04  0.7818608E-02  0.7842270E-01
         -1   -1    0    0    0  501 -0.00000000000E+00  0.00000000000E+00  0.29370445945E+04  0.29370445945E+04  0.00000000000E+00 0.  1.
          1   -1    0    0  501    0  0.00000000000E+00 -0.00000000000E+00 -0.20535145493E+04  0.20535145493E+04  0.00000000000E+00 0. -1.
         23    2    1    2    0    0 -0.63906308934E+03  0.34716442855E+03 -0.19404889897E+04  0.20743958628E+04  0.93251831776E+02 0.  0.
         11    1    3    3    0    0 -0.28759897845E+03  0.12051024925E+03 -0.92570907244E+03  0.97681788445E+03  0.00000000000E+00 0.  1.
        -11    1    3    3    0    0 -0.35146411089E+03  0.22665417929E+03 -0.10147799172E+04  0.10975779784E+04  0.00000000000E+00 0. -1.
         22    1    1    2    0    0  0.63906308934E+03 -0.34716442855E+03  0.28240190348E+04  0.29161632811E+04  0.00000000000E+00 0.  1.
<mgrwt>
<rscale>  0 0.49117263E+04</rscale>
<asrwt>0</asrwt>
<pdfrwt beam="1">  1        1 0.31592531E+00 0.49117263E+04</pdfrwt>
<pdfrwt beam="2">  1       -1 0.45185302E+00 0.49117263E+04</pdfrwt>
<totfact> 0.62741351E-03</totfact>
</mgrwt>
</event>
<event>
 6    1  0.9988873E-007  0.2325066E+04  0.7818608E-02  0.8468103E-01
         -1   -1    0    0    0  501 -0.00000000000E+00  0.00000000000E+00  0.84208269552E+03  0.84208269552E+03  0.00000000000E+00 0.  1.
          1   -1    0    0  501    0  0.00000000000E+00 -0.00000000000E+00 -0.16049288844E+04  0.16049288844E+04  0.00000000000E+00 0. -1.
         23    2    1    2    0    0  0.24970519290E+03 -0.60956355544E+03  0.62394145880E+03  0.91172646267E+03  0.89564430683E+02 0.  0.
         13    1    3    3    0    0  0.11782331879E+03 -0.35910072965E+03  0.30813727509E+03  0.48763126314E+03  0.00000000000E+00 0.  1.
        -13    1    3    3    0    0  0.13188187411E+03 -0.25046282578E+03  0.31580418371E+03  0.42409519953E+03  0.00000000000E+00 0. -1.
         22    1    1    2    0    0 -0.24970519290E+03  0.60956355544E+03 -0.13867876477E+04  0.15352851172E+04  0.00000000000E+00 0. -1.
<mgrwt>
<rscale>  0 0.23250659E+04</rscale>
<asrwt>0</asrwt>
<pdfrwt beam="1">  1        1 0.24691214E+00 0.23250659E+04</pdfrwt>
<pdfrwt beam="2">  1       -1 0.12955118E+00 0.23250659E+04</pdfrwt>
<totfact> 0.25547638E+00</totfact>
</mgrwt>
</event>
<event>
 6    1  0.9988873E-007  0.4148532E+04  0.7818608E-02  0.7975235E-01
          2   -1    0    0  501    0  0.00000000000E+00  0.00000000000E+00  0.29622703361E+04  0.29622703361E+04  0.00000000000E+00 0. -1.
         -2   -1    0    0    0  501 -0.00000000000E+00 -0.00000000000E+00 -0.14524598597E+04  0.14524598597E+04  0.00000000000E+00 0.  1.
         23    2    1    2    0    0 -0.79401091604E+02 -0.12867815680E+04 -0.97257469538E+03  0.16175266854E+04  0.91540715887E+02 0.  0.
         11    1    3    3    0    0 -0.35754716757E+02 -0.95110185297E+03 -0.67515425536E+03  0.11669217639E+04  0.00000000000E+00 0.  1.
        -11    1    3    3    0    0 -0.43646374847E+02 -0.33567971508E+03 -0.29742044002E+03  0.45060492152E+03  0.00000000000E+00 0. -1.
         22    1    1    2    0    0  0.79401091604E+02  0.12867815680E+04  0.24823851718E+04  0.27972035103E+04  0.00000000000E+00 0. -1.
<mgrwt>
<rscale>  0 0.41485317E+04</rscale>
<asrwt>0</asrwt>
<pdfrwt beam="1">  1        2 0.45573390E+00 0.41485317E+04</pdfrwt>
<pdfrwt beam="2">  1       -2 0.22345536E+00 0.41485317E+04</pdfrwt>
<totfact> 0.13461041E-01</totfact>
</mgrwt>
</event>
<event>
 6    1  0.9988873E-007  0.9907097E+03  0.7818608E-02  0.9318793E-01
          1   -1    0    0  501    0  0.00000000000E+00  0.00000000000E+00  0.20600458768E+04  0.20600458768E+04  0.00000000000E+00 0. -1.
         -1   -1    0    0    0  501 -0.00000000000E+00 -0.00000000000E+00 -0.11911212292E+03  0.11911212292E+03  0.00000000000E+00 0.  1.
         23    2    1    2    0    0 -0.14149051999E+03 -0.21962065865E+03  0.18934734753E+04  0.19136296981E+04  0.92108732847E+02 0.  0.
         13    1    3    3    0    0 -0.76678656964E+02 -0.99290009038E+02  0.12196349406E+04  0.12260699452E+04  0.00000000000E+00 0. -1.
        -13    1    3    3    0    0 -0.64811863023E+02 -0.12033064961E+03  0.67383853473E+03  0.68755975283E+03  0.00000000000E+00 0.  1.
         22    1    1    2    0    0  0.14149051999E+03  0.21962065865E+03  0.47460278611E+02  0.26552830169E+03  0.00000000000E+00 0.  1.
<mgrwt>
<rscale>  0 0.99070972E+03</rscale>
<asrwt>0</asrwt>
<pdfrwt beam="1">  1        1 0.31693011E+00 0.99070972E+03</pdfrwt>
<pdfrwt beam="2">  1       -1 0.18324943E-01 0.99070972E+03</pdfrwt>
<totfact> 0.64793225E+01</totfact>
</mgrwt>
</event>
<event>
 6    1  0.9988873E-007  0.4486722E+04  0.7818608E-02  0.7912966E-01
          1   -1    0    0  501    0  0.00000000000E+00  0.00000000000E+00  0.23708589855E+04  0.23708589855E+04  0.00000000000E+00 0. -1.
         -1   -1    0    0    0  501 -0.00000000000E+00 -0.00000000000E+00 -0.21227193561E+04  0.21227193561E+04  0.00000000000E+00 0.  1.
         23    2    1    2    0    0 -0.10758242788E+04 -0.17424609985E+04 -0.79100952969E+03  0.21971900502E+04  0.91541412227E+02 0.  0.
         11    1    3    3    0    0 -0.43081588874E+03 -0.71802519239E+03 -0.27668913173E+03  0.88188399606E+03  0.00000000000E+00 0. -1.
        -11    1    3    3    0    0 -0.64500839009E+03 -0.10244358061E+04 -0.51432039796E+03  0.13153060541E+04  0.00000000000E+00 0.  1.
         22    1    1    2    0    0  0.10758242788E+04  0.17424609985E+04  0.10391491591E+04  0.22963882914E+04  0.00000000000E+00 0. -1.
<mgrwt>
<rscale>  0 0.44867219E+04</rscale>
<asrwt>0</asrwt>
<pdfrwt beam="1">  1        1 0.36474753E+00 0.44867219E+04</pdfrwt>
<pdfrwt beam="2">  1       -1 0.32657221E+00 0.44867219E+04</pdfrwt>
<totfact> 0.27747869E-02</totfact>
</mgrwt>
</event>
<event>
 6    1  0.9988873E-007  0.2473975E+04  0.7818608E-02  0.8412316E-01
         -2   -1    0    0    0  501 -0.00000000000E+00  0.00000000000E+00  0.66407793300E+03  0.66407793300E+03  0.00000000000E+00 0.  1.
          2   -1    0    0  501    0  0.00000000000E+00 -0.00000000000E+00 -0.23041537182E+04  0.23041537182E+04  0.00000000000E+00 0. -1.
         23    2    1    2    0    0 -0.63979932640E+03 -0.15869778919E+03 -0.20745925042E+04  0.21787172780E+04  0.91360563958E+02 0.  0.
         11    1    3    3    0    0 -0.42466805969E+03 -0.14466518264E+03 -0.13368977280E+04  0.14101654197E+04  0.00000000000E+00 0.  1.
        -11    1    3    3    0    0 -0.21513126671E+03 -0.14032606554E+02 -0.73769477626E+03  0.76855185829E+03  0.00000000000E+00 0. -1.
         22    1    1    2    0    0  0.63979932640E+03  0.15869778919E+03  0.43451671902E+03  0.78951437318E+03  0.00000000000E+00 0.  1.
<mgrwt>
<rscale>  0 0.24739746E+04</rscale>
<asrwt>0</asrwt>
<pdfrwt beam="1">  1        2 0.35448519E+00 0.24739746E+04</pdfrwt>
<pdfrwt beam="2">  1       -2 0.10216584E+00 0.24739746E+04</pdfrwt>
<totfact> 0.31627352E+00</totfact>
</mgrwt>
</event>
<event>
 6    1  0.9988873E-007  0.2029009E+04  0.7818608E-02  0.8593177E-01
          2   -1    0    0  501    0  0.00000000000E+00  0.00000000000E+00  0.24174123856E+04  0.24174123856E+04  0.00000000000E+00 0. -1.
         -2   -1    0    0    0  501 -0.00000000000E+00 -0.00000000000E+00 -0.42575234116E+03  0.42575234116E+03  0.00000000000E+00 0.  1.
         23    2    1    2    0    0  0.49420587520E+03 -0.68900919521E+02  0.22322452080E+04  0.22892080455E+04  0.92563618078E+02 0.  0.
         13    1    3    3    0    0  0.38822682878E+03 -0.64742911733E+02  0.19039373944E+04  0.19441937447E+04  0.00000000000E+00 0. -1.
        -13    1    3    3    0    0  0.10597904642E+03 -0.41580077879E+01  0.32830781354E+03  0.34501430078E+03  0.00000000000E+00 0.  1.
         22    1    1    2    0    0 -0.49420587520E+03  0.68900919521E+02 -0.24058516351E+03  0.55395668124E+03  0.00000000000E+00 0.  1.
<mgrwt>
<rscale>  0 0.20290086E+04</rscale>
<asrwt>0</asrwt>
<pdfrwt beam="1">  1        2 0.37190959E+00 0.20290086E+04</pdfrwt>
<pdfrwt beam="2">  1       -2 0.65500362E-01 0.20290086E+04</pdfrwt>
<totfact> 0.77350179E+00</totfact>
</mgrwt>
</event>
<event>
 6    1  0.9988873E-007  0.2632627E+04  0.7818608E-02  0.8357202E-01
         -2   -1    0    0    0  501 -0.00000000000E+00  0.00000000000E+00  0.16229879123E+04  0.16229879123E+04  0.00000000000E+00 0.  1.
          2   -1    0    0  501    0  0.00000000000E+00 -0.00000000000E+00 -0.10675869910E+04  0.10675869910E+04  0.00000000000E+00 0. -1.
         23    2    1    2    0    0  0.50110709376E+02 -0.23212021645E+03  0.15996200259E+04  0.16196946970E+04  0.90751341798E+02 0.  0.
         13    1    3    3    0    0  0.42970239155E+02 -0.20289021327E+03  0.11137929962E+04  0.11329367672E+04  0.00000000000E+00 0. -1.
        -13    1    3    3    0    0  0.71404702206E+01 -0.29230003182E+02  0.48582702968E+03  0.48675792974E+03  0.00000000000E+00 0.  1.
         22    1    1    2    0    0 -0.50110709376E+02  0.23212021645E+03 -0.10442191046E+04  0.10708802064E+04  0.00000000000E+00 0. -1.
<mgrwt>
<rscale>  0 0.26326267E+04</rscale>
<asrwt>0</asrwt>
<pdfrwt beam="1">  1        2 0.16424415E+00 0.26326267E+04</pdfrwt>
<pdfrwt beam="2">  1       -2 0.24969045E+00 0.26326267E+04</pdfrwt>
<totfact> 0.12993199E+00</totfact>
</mgrwt>
</event>
<event>
 6    1  0.9988873E-007  0.2508629E+04  0.7818608E-02  0.8399918E-01
         -2   -1    0    0    0  501 -0.00000000000E+00  0.00000000000E+00  0.81308848812E+03  0.81308848812E+03  0.00000000000E+00 0.  1.
          2   -1    0    0  501    0  0.00000000000E+00 -0.00000000000E+00 -0.19349731055E+04  0.19349731055E+04  0.00000000000E+00 0. -1.
         23    2    1    2    0    0 -0.88113487898E+03 -0.78968168114E+03 -0.10123696592E+04  0.15597900091E+04  0.89759195693E+02 0.  0.
         13    1    3    3    0    0 -0.71331664330E+02 -0.10034228239E+03 -0.10845526066E+03  0.16407109293E+03  0.00000000000E+00 0. -1.
        -13    1    3    3    0    0 -0.80980321465E+03 -0.68933939875E+03 -0.90391439856E+03  0.13957189162E+04  0.00000000000E+00 0.  1.
         22    1    1    2    0    0  0.88113487898E+03  0.78968168114E+03 -0.10951495818E+03  0.11882715845E+04  0.00000000000E+00 0.  1.
<mgrwt>
<rscale>  0 0.25086286E+04</rscale>
<asrwt>0</asrwt>
<pdfrwt beam="1">  1        2 0.29768817E+00 0.25086286E+04</pdfrwt>
<pdfrwt beam="2">  1       -2 0.12509054E+00 0.25086286E+04</pdfrwt>
<totfact> 0.30975127E+00</totfact>
</mgrwt>
</event>
<event>
 6    1  0.9988873E-007  0.2002880E+04  0.7818608E-02  0.8605275E-01
          1   -1    0    0  501    0  0.00000000000E+00  0.00000000000E+00  0.74396472899E+03  0.74396472899E+03  0.00000000000E+00 0. -1.
         -1   -1    0    0    0  501 -0.00000000000E+00 -0.00000000000E+00 -0.13480235028E+04  0.13480235028E+04  0.00000000000E+00 0.  1.
         23    2    1    2    0    0  0.86640594835E+03 -0.41511808927E+03 -0.15191469039E+02  0.96515772189E+03  0.91194035066E+02 0.  0.
         13    1    3    3    0    0  0.64155805569E+03 -0.33840483535E+03  0.16200835672E+02  0.72551846185E+03  0.00000000000E+00 0.  1.
        -13    1    3    3    0    0  0.22484789266E+03 -0.76713253914E+02 -0.31392304711E+02  0.23963926004E+03  0.00000000000E+00 0. -1.
         22    1    1    2    0    0 -0.86640594835E+03  0.41511808927E+03 -0.58886730473E+03  0.11268305099E+04  0.00000000000E+00 0.  1.
<mgrwt>
<rscale>  0 0.20028799E+04</rscale>
<asrwt>0</asrwt>
<pdfrwt beam="1">  1        1 0.11445611E+00 0.20028799E+04</pdfrwt>
<pdfrwt beam="2">  1       -1 0.20738823E+00 0.20028799E+04</pdfrwt>
<totfact> 0.30803505E+00</totfact>
</mgrwt>
</event>
<event>
 6    1  0.9988873E-007  0.2744794E+03  0.7818608E-02  0.1098743E+00
          2   -1    0    0  501    0  0.00000000000E+00  0.00000000000E+00  0.78698740479E+02  0.78698740479E+02  0.00000000000E+00 0. -1.
         -2   -1    0    0    0  501 -0.00000000000E+00 -0.00000000000E+00 -0.23932700865E+03  0.23932700865E+03  0.00000000000E+00 0.  1.
         23    2    1    2    0    0 -0.39453427304E+02 -0.52270302001E+02 -0.20816603942E+03  0.23710234651E+03  0.92712811155E+02 0.  0.
         13    1    3    3    0    0 -0.60367559010E+02 -0.59903868966E+02 -0.19070290729E+03  0.20880688338E+03  0.00000000000E+00 0. -1.
        -13    1    3    3    0    0  0.20914131706E+02  0.76335669643E+01 -0.17463132133E+02  0.28295463126E+02  0.00000000000E+00 0.  1.
         22    1    1    2    0    0  0.39453427304E+02  0.52270302001E+02  0.47537771249E+02  0.80923402626E+02  0.00000000000E+00 0. -1.
<mgrwt>
<rscale>  0 0.27447939E+03</rscale>
<asrwt>0</asrwt>
<pdfrwt beam="1">  1        2 0.12107499E-01 0.27447939E+03</pdfrwt>
<pdfrwt beam="2">  1       -2 0.36819540E-01 0.27447939E+03</pdfrwt>
<totfact> 0.35105299E+03</totfact>
</mgrwt>
</event>
<event>
 6    1  0.9988873E-007  0.1794926E+04  0.7818608E-02  0.8709002E-01
         -1   -1    0    0    0  501 -0.00000000000E+00  0.00000000000E+00  0.44327498029E+03  0.44327498029E+03  0.00000000000E+00 0.  1.
          1   -1    0    0  501    0  0.00000000000E+00 -0.00000000000E+00 -0.18170213963E+04  0.18170213963E+04  0.00000000000E+00 0. -1.
         23    2    1    2    0    0  0.21193671756E+03 -0.73982758306E+03 -0.12644579339E+04  0.14829894892E+04  0.90232664006E+02 0.  0.
         13    1    3    3    0    0  0.37543063004E+02 -0.15826341222E+03 -0.20267007248E+03  0.25986909687E+03  0.00000000000E+00 0.  1.
        -13    1    3    3    0    0  0.17439365455E+03 -0.58156417084E+03 -0.10617878614E+04  0.12231203924E+04  0.00000000000E+00 0. -1.
         22    1    1    2    0    0 -0.21193671756E+03  0.73982758306E+03 -0.10928848216E+03  0.77730688742E+03  0.00000000000E+00 0.  1.
<mgrwt>
<rscale>  0 0.17949263E+04</rscale>
<asrwt>0</asrwt>
<pdfrwt beam="1">  1        1 0.27954175E+00 0.17949263E+04</pdfrwt>
<pdfrwt beam="2">  1       -1 0.68196153E-01 0.17949263E+04</pdfrwt>
<totfact> 0.81511160E+00</totfact>
</mgrwt>
</event>
<event>
 6    1  0.9988873E-007  0.1180693E+04  0.7818608E-02  0.9129926E-01
          2   -1    0    0  501    0  0.00000000000E+00  0.00000000000E+00  0.16449652429E+04  0.16449652429E+04  0.00000000000E+00 0. -1.
         -2   -1    0    0    0  501 -0.00000000000E+00 -0.00000000000E+00 -0.21186406285E+03  0.21186406285E+03  0.00000000000E+00 0.  1.
         23    2    1    2    0    0  0.30716696680E+03  0.28971544709E+02  0.15057879232E+04  0.15398525582E+04  0.92508028496E+02 0.  0.
         11    1    3    3    0    0  0.15493514444E+03  0.40280081872E+02  0.95400991401E+03  0.96734807593E+03  0.00000000000E+00 0.  1.
        -11    1    3    3    0    0  0.15223182236E+03 -0.11308537164E+02  0.55177800918E+03  0.57250448223E+03  0.00000000000E+00 0. -1.
         22    1    1    2    0    0 -0.30716696680E+03 -0.28971544709E+02 -0.72686743135E+02  0.31697674761E+03  0.00000000000E+00 0.  1.
<mgrwt>
<rscale>  0 0.11806931E+04</rscale>
<asrwt>0</asrwt>
<pdfrwt beam="1">  1        2 0.25307157E+00 0.11806931E+04</pdfrwt>
<pdfrwt beam="2">  1       -2 0.32594472E-01 0.11806931E+04</pdfrwt>
<totfact> 0.91197360E+01</totfact>
</mgrwt>
</event>
<event>
 6    1  0.9988873E-007  0.2890586E+04  0.7818608E-02  0.8275684E-01
          1   -1    0    0  501    0  0.00000000000E+00  0.00000000000E+00  0.81261294405E+03  0.81261294405E+03  0.00000000000E+00 0. -1.
         -1   -1    0    0    0  501 -0.00000000000E+00 -0.00000000000E+00 -0.25705622319E+04  0.25705622319E+04  0.00000000000E+00 0.  1.
         23    2    1    2    0    0  0.44800451676E+03  0.12421726238E+04 -0.19640637736E+03  0.13381526490E+04  0.91521433118E+02 0.  0.
         13    1    3    3    0    0  0.28403771710E+03  0.89323896187E+03 -0.16039293803E+03  0.95093594017E+03  0.00000000000E+00 0. -1.
        -13    1    3    3    0    0  0.16396679965E+03  0.34893366191E+03 -0.36013439331E+02  0.38721670886E+03  0.00000000000E+00 0.  1.
         22    1    1    2    0    0 -0.44800451676E+03 -0.12421726238E+04 -0.15615429105E+04  0.20450225269E+04  0.00000000000E+00 0.  1.
<mgrwt>
<rscale>  0 0.28905862E+04</rscale>
<asrwt>0</asrwt>
<pdfrwt beam="1">  1        1 0.12501738E+00 0.28905862E+04</pdfrwt>
<pdfrwt beam="2">  1       -1 0.39547111E+00 0.28905862E+04</pdfrwt>
<totfact> 0.14218829E-01</totfact>
</mgrwt>
</event>
<event>
 6    1  0.9988873E-007  0.3818443E+04  0.7818608E-02  0.8042209E-01
         -1   -1    0    0    0  501 -0.00000000000E+00  0.00000000000E+00  0.15095369951E+04  0.15095369951E+04  0.00000000000E+00 0.  1.
          1   -1    0    0  501    0  0.00000000000E+00 -0.00000000000E+00 -0.24147310511E+04  0.24147310511E+04  0.00000000000E+00 0. -1.
         23    2    1    2    0    0 -0.78532938806E+03 -0.66986815894E+03 -0.21021733680E+04  0.23436905976E+04  0.91033785567E+02 0.  0.
         13    1    3    3    0    0 -0.33264001164E+03 -0.23068742369E+03 -0.86402177401E+03  0.95414867330E+03  0.00000000000E+00 0.  1.
        -13    1    3    3    0    0 -0.45268937642E+03 -0.43918073525E+03 -0.12381515940E+04  0.13895419243E+04  0.00000000000E+00 0. -1.
         22    1    1    2    0    0  0.78532938806E+03  0.66986815894E+03  0.11969793120E+04  0.15805774487E+04  0.00000000000E+00 0.  1.
<mgrwt>
<rscale>  0 0.38184425E+04</rscale>
<asrwt>0</asrwt>
<pdfrwt beam="1">  1        1 0.37149708E+00 0.38184425E+04</pdfrwt>
<pdfrwt beam="2">  1       -1 0.23223646E+00 0.38184425E+04</pdfrwt>
<totfact> 0.11247653E-01</totfact>
</mgrwt>
</event>
<event>
 6    1  0.9988873E-007  0.1925923E+04  0.7818608E-02  0.8642060E-01
         -2   -1    0    0    0  501 -0.00000000000E+00  0.00000000000E+00  0.34763194190E+03  0.34763194190E+03  0.00000000000E+00 0.  1.
          2   -1    0    0  501    0  0.00000000000E+00 -0.00000000000E+00 -0.26674605682E+04  0.26674605682E+04  0.00000000000E+00 0. -1.
         23    2    1    2    0    0 -0.31567727448E+03 -0.50102879656E+03  0.22195965829E+02  0.59936049129E+03  0.89768262814E+02 0.  0.
         11    1    3    3    0    0 -0.70275715182E+02 -0.12747505278E+03 -0.32290851472E+02  0.14910152352E+03  0.00000000000E+00 0. -1.
        -11    1    3    3    0    0 -0.24540155930E+03 -0.37355374378E+03  0.54486817301E+02  0.45025896777E+03  0.00000000000E+00 0.  1.
         22    1    1    2    0    0  0.31567727448E+03  0.50102879656E+03 -0.23420245922E+04  0.24157320189E+04  0.00000000000E+00 0. -1.
<mgrwt>
<rscale>  0 0.19259226E+04</rscale>
<asrwt>0</asrwt>
<pdfrwt beam="1">  1        2 0.41037857E+00 0.19259226E+04</pdfrwt>
<pdfrwt beam="2">  1       -2 0.53481834E-01 0.19259226E+04</pdfrwt>
<totfact> 0.85617184E+00</totfact>
</mgrwt>
</event>
<event>
 6    1  0.9988873E-007  0.3048162E+04  0.7818608E-02  0.8230110E-01
         -1   -1    0    0    0  501 -0.00000000000E+00  0.00000000000E+00  0.33660749152E+04  0.33660749152E+04  0.00000000000E+00 0.  1.
          1   -1    0    0  501    0  0.00000000000E+00 -0.00000000000E+00 -0.69006879151E+03  0.69006879151E+03  0.00000000000E+00 0. -1.
         23    2    1    2    0    0 -0.95010655791E+02 -0.11733740603E+04  0.26246937711E+04  0.28778115517E+04  0.83356011629E+02 0.  0.
         13    1    3    3    0    0 -0.11480955679E+01 -0.30452486454E+03  0.61189965923E+03  0.68348950556E+03  0.00000000000E+00 0.  1.
        -13    1    3    3    0    0 -0.93862560223E+02 -0.86884919578E+03  0.20127941119E+04  0.21943220461E+04  0.00000000000E+00 0. -1.
         22    1    1    2    0    0  0.95010655791E+02  0.11733740603E+04  0.51312352601E+02  0.11783321551E+04  0.00000000000E+00 0. -1.
<mgrwt>
<rscale>  0 0.30481622E+04</rscale>
<asrwt>0</asrwt>
<pdfrwt beam="1">  1        1 0.10616443E+00 0.30481622E+04</pdfrwt>
<pdfrwt beam="2">  1       -1 0.51785767E+00 0.30481622E+04</pdfrwt>
<totfact> 0.27029150E-02</totfact>
</mgrwt>
</event>
<event>
 6    1  0.9988873E-007  0.4977574E+03  0.7818608E-02  0.1014366E+00
          4   -1    0    0  501    0  0.00000000000E+00  0.00000000000E+00  0.14198613067E+03  0.14198613067E+03  0.00000000000E+00 0. -1.
         -4   -1    0    0    0  501 -0.00000000000E+00 -0.00000000000E+00 -0.43624402762E+03  0.43624402762E+03  0.00000000000E+00 0.  1.
         23    2    1    2    0    0 -0.22521891885E+02  0.10520138655E+03 -0.40203715262E+03  0.42594445542E+03  0.90665537348E+02 0.  0.
         13    1    3    3    0    0  0.31617710590E+02  0.64115104992E+02 -0.23423682223E+03  0.24490266475E+03  0.00000000000E+00 0.  1.
        -13    1    3    3    0    0 -0.54139602475E+02  0.41086281562E+02 -0.16780033039E+03  0.18104179067E+03  0.00000000000E+00 0. -1.
         22    1    1    2    0    0  0.22521891885E+02 -0.10520138655E+03  0.10777925567E+03  0.15228570287E+03  0.00000000000E+00 0. -1.
<mgrwt>
<rscale>  0 0.49775738E+03</rscale>
<asrwt>0</asrwt>
<pdfrwt beam="1">  1        4 0.21844021E-01 0.49775738E+03</pdfrwt>
<pdfrwt beam="2">  1       -4 0.67114464E-01 0.49775738E+03</pdfrwt>
<totfact> 0.78509241E+01</totfact>
</mgrwt>
</event>
<event>
 6    1  0.9988873E-007  0.1876762E+04  0.7818608E-02  0.8666511E-01
          2   -1    0    0  501    0  0.00000000000E+00  0.00000000000E+00  0.34668622931E+04  0.34668622931E+04  0.00000000000E+00 0. -1.
         -2   -1    0    0    0  501 -0.00000000000E+00 -0.00000000000E+00 -0.25399310796E+03  0.25399310796E+03  0.00000000000E+00 0.  1.
         23    2    1    2    0    0  0.32178479232E+03 -0.31206038129E+02  0.33513185565E+04  0.33691630670E+04  0.12411460559E+03 0.  0.
         13    1    3    3    0    0  0.31357324500E+03 -0.57301451188E+02  0.31141134374E+04  0.31303856212E+04  0.00000000000E+00 0. -1.
        -13    1    3    3    0    0  0.82115473200E+01  0.26095413059E+02  0.23720511913E+03  0.23877744582E+03  0.00000000000E+00 0.  1.
         22    1    1    2    0    0 -0.32178479232E+03  0.31206038129E+02 -0.13844937141E+03  0.35169233405E+03  0.00000000000E+00 0.  1.
<mgrwt>
<rscale>  0 0.18767622E+04</rscale>
<asrwt>0</asrwt>
<pdfrwt beam="1">  1        2 0.53336340E+00 0.18767622E+04</pdfrwt>
<pdfrwt beam="2">  1       -2 0.39075865E-01 0.18767622E+04</pdfrwt>
<totfact> 0.50149780E+00</totfact>
</mgrwt>
</event>
<event>
 6    1  0.9988873E-007  0.6306146E+03  0.7818608E-02  0.9843850E-01
          2   -1    0    0  501    0  0.00000000000E+00  0.00000000000E+00  0.14019320997E+04  0.14019320997E+04  0.00000000000E+00 0. -1.
         -2   -1    0    0    0  501 -0.00000000000E+00 -0.00000000000E+00 -0.70915491019E+02  0.70915491019E+02  0.00000000000E+00 0.  1.
         23    2    1    2    0    0 -0.24903645565E+03  0.14733725392E+01  0.11046326347E+04  0.11362899720E+04  0.94447422731E+02 0.  0.
         13    1    3    3    0    0 -0.12764956508E+03  0.44651208468E+02  0.63958512527E+03  0.65372568739E+03  0.00000000000E+00 0.  1.
        -13    1    3    3    0    0 -0.12138689057E+03 -0.43177835928E+02  0.46504750947E+03  0.48256428461E+03  0.00000000000E+00 0. -1.
         22    1    1    2    0    0  0.24903645565E+03 -0.14733725392E+01  0.22638397397E+03  0.33655761875E+03  0.00000000000E+00 0.  1.
<mgrwt>
<rscale>  0 0.63061463E+03</rscale>
<asrwt>0</asrwt>
<pdfrwt beam="1">  1        2 0.21568184E+00 0.63061463E+03</pdfrwt>
<pdfrwt beam="2">  1       -2 0.10910077E-01 0.63061463E+03</pdfrwt>
<totfact> 0.87261807E+02</totfact>
</mgrwt>
</event>
<event>
 6    1  0.9988873E-007  0.2566275E+04  0.7818608E-02  0.8379748E-01
          2   -1    0    0  501    0  0.00000000000E+00  0.00000000000E+00  0.93700250902E+03  0.93700250902E+03  0.00000000000E+00 0. -1.
         -2   -1    0    0    0  501 -0.00000000000E+00 -0.00000000000E+00 -0.17571365613E+04  0.17571365613E+04  0.00000000000E+00 0.  1.
         23    2    1    2    0    0  0.12294087382E+04 -0.58643498697E+02 -0.35409487153E+02  0.12344550125E+04  0.87979774278E+02 0.  0.
         11    1    3    3    0    0  0.72144535377E+03  0.62867030578E+01 -0.35761125569E+02  0.72235848387E+03  0.00000000000E+00 0.  1.
        -11    1    3    3    0    0  0.50796338443E+03 -0.64930201755E+02  0.35163841610E+00  0.51209652866E+03  0.00000000000E+00 0. -1.
         22    1    1    2    0    0 -0.12294087382E+04  0.58643498697E+02 -0.78472456516E+03  0.14596840578E+04  0.00000000000E+00 0.  1.
<mgrwt>
<rscale>  0 0.25662746E+04</rscale>
<asrwt>0</asrwt>
<pdfrwt beam="1">  1        2 0.14415423E+00 0.25662746E+04</pdfrwt>
<pdfrwt beam="2">  1       -2 0.27032870E+00 0.25662746E+04</pdfrwt>
<totfact> 0.11850167E+00</totfact>
</mgrwt>
</event>
<event>
 6    1  0.9988873E-007  0.2128614E+04  0.7818608E-02  0.8548742E-01
         -2   -1    0    0    0  501 -0.00000000000E+00  0.00000000000E+00  0.10463378718E+04  0.10463378718E+04  0.00000000000E+00 0.  1.
          2   -1    0    0  501    0  0.00000000000E+00 -0.00000000000E+00 -0.10825847073E+04  0.10825847073E+04  0.00000000000E+00 0. -1.
         23    2    1    2    0    0  0.87499929554E+03  0.41999411695E+03 -0.44997433134E+03  0.10738447307E+04  0.92988071280E+02 0.  0.
         11    1    3    3    0    0  0.39925339190E+03  0.14108398285E+03 -0.18790894592E+03  0.46326853241E+03  0.00000000000E+00 0.  1.
        -11    1    3    3    0    0  0.47574590364E+03  0.27891013410E+03 -0.26206538541E+03  0.61057619833E+03  0.00000000000E+00 0. -1.
         22    1    1    2    0    0 -0.87499929554E+03 -0.41999411695E+03  0.41372749583E+03  0.10550778484E+04  0.00000000000E+00 0. -1.
<mgrwt>
<rscale>  0 0.21286140E+04</rscale>
<asrwt>0</asrwt>
<pdfrwt beam="1">  1        2 0.16655149E+00 0.21286140E+04</pdfrwt>
<pdfrwt beam="2">  1       -2 0.16097506E+00 0.21286140E+04</pdfrwt>
<totfact> 0.50871164E+00</totfact>
</mgrwt>
</event>
<event>
 6    1  0.9988873E-007  0.3904520E+04  0.7818608E-02  0.8024090E-01
          2   -1    0    0  501    0  0.00000000000E+00  0.00000000000E+00  0.19863316932E+04  0.19863316932E+04  0.00000000000E+00 0. -1.
         -2   -1    0    0    0  501 -0.00000000000E+00 -0.00000000000E+00 -0.19187728641E+04  0.19187728641E+04  0.00000000000E+00 0.  1.
         23    2    1    2    0    0  0.93922588484E+03  0.52493141660E+01 -0.16766927516E+04  0.19240476690E+04  0.92130510665E+02 0.  0.
         11    1    3    3    0    0  0.58060666965E+03  0.39890328060E+02 -0.98253611443E+03  0.11419599640E+04  0.00000000000E+00 0. -1.
        -11    1    3    3    0    0  0.35861921519E+03 -0.34641013894E+02 -0.69415663720E+03  0.78208770500E+03  0.00000000000E+00 0.  1.
         22    1    1    2    0    0 -0.93922588484E+03 -0.52493141660E+01  0.17442515807E+04  0.19810568884E+04  0.00000000000E+00 0. -1.
<mgrwt>
<rscale>  0 0.39045201E+04</rscale>
<asrwt>0</asrwt>
<pdfrwt beam="1">  1        2 0.30558949E+00 0.39045201E+04</pdfrwt>
<pdfrwt beam="2">  1       -2 0.29519582E+00 0.39045201E+04</pdfrwt>
<totfact> 0.18383581E-01</totfact>
</mgrwt>
</event>
<event>
 6    1  0.9988873E-007  0.3828881E+04  0.7818608E-02  0.8039985E-01
         -2   -1    0    0    0  501 -0.00000000000E+00  0.00000000000E+00  0.13097767606E+04  0.13097767606E+04  0.00000000000E+00 0.  1.
          2   -1    0    0  501    0  0.00000000000E+00 -0.00000000000E+00 -0.27982498892E+04  0.27982498892E+04  0.00000000000E+00 0. -1.
         23    2    1    2    0    0  0.16261511667E+03 -0.28670695992E+03 -0.27666562469E+04  0.27880279221E+04  0.10034115982E+03 0.  0.
         13    1    3    3    0    0  0.75279578983E+02 -0.55381321835E+02 -0.58724373186E+03  0.59463375824E+03  0.00000000000E+00 0. -1.
        -13    1    3    3    0    0  0.87335537687E+02 -0.23132563809E+03 -0.21794125151E+04  0.21933941638E+04  0.00000000000E+00 0.  1.
         22    1    1    2    0    0 -0.16261511667E+03  0.28670695992E+03  0.12781831184E+04  0.13199987277E+04  0.00000000000E+00 0.  1.
<mgrwt>
<rscale>  0 0.38288811E+04</rscale>
<asrwt>0</asrwt>
<pdfrwt beam="1">  1        2 0.43049999E+00 0.38288811E+04</pdfrwt>
<pdfrwt beam="2">  1       -2 0.20150411E+00 0.38288811E+04</pdfrwt>
<totfact> 0.24099806E-01</totfact>
</mgrwt>
</event>
<event>
 6    1  0.9988873E-007  0.7031121E+03  0.7818608E-02  0.9711925E-01
          3   -1    0    0  501    0  0.00000000000E+00  0.00000000000E+00  0.14269154477E+04  0.14269154477E+04  0.00000000000E+00 0. -1.
         -3   -1    0    0    0  501 -0.00000000000E+00 -0.00000000000E+00 -0.86614551828E+02  0.86614551828E+02  0.00000000000E+00 0.  1.
         23    2    1    2    0    0 -0.15964356247E+03 -0.10028154494E+02  0.13410589091E+04  0.13535699873E+04  0.90144783379E+02 0.  0.
         13    1    3    3    0    0 -0.12529761445E+03 -0.43920980552E+02  0.87438872698E+03  0.88441177660E+03  0.00000000000E+00 0. -1.
        -13    1    3    3    0    0 -0.34345948017E+02  0.33892826058E+02  0.46667018213E+03  0.46915821073E+03  0.00000000000E+00 0.  1.
         22    1    1    2    0    0  0.15964356247E+03  0.10028154494E+02 -0.75801323226E+00  0.15996001221E+03  0.00000000000E+00 0.  1.
<mgrwt>
<rscale>  0 0.70311206E+03</rscale>
<asrwt>0</asrwt>
<pdfrwt beam="1">  1        3 0.21952544E+00 0.70311206E+03</pdfrwt>
<pdfrwt beam="2">  1       -3 0.13325317E-01 0.70311206E+03</pdfrwt>
<totfact> 0.14037266E+01</totfact>
</mgrwt>
</event>
<event>
 6    1  0.9988873E-007  0.3737054E+04  0.7818608E-02  0.8059799E-01
         -2   -1    0    0    0  501 -0.00000000000E+00  0.00000000000E+00  0.13163478194E+04  0.13163478194E+04  0.00000000000E+00 0.  1.
          2   -1    0    0  501    0  0.00000000000E+00 -0.00000000000E+00 -0.26523334964E+04  0.26523334964E+04  0.00000000000E+00 0. -1.
         23    2    1    2    0    0  0.14939365638E+04  0.64387072115E+03 -0.16421124490E+04  0.23133476446E+04  0.92887391302E+02 0.  0.
         13    1    3    3    0    0  0.68548299429E+03  0.24517521383E+03 -0.73161888978E+03  0.10321162826E+04  0.00000000000E+00 0. -1.
        -13    1    3    3    0    0  0.80845356952E+03  0.39869550731E+03 -0.91049355921E+03  0.12812313620E+04  0.00000000000E+00 0.  1.
         22    1    1    2    0    0 -0.14939365638E+04 -0.64387072115E+03  0.30612677202E+03  0.16553336711E+04  0.00000000000E+00 0.  1.
<mgrwt>
<rscale>  0 0.37370541E+04</rscale>
<asrwt>0</asrwt>
<pdfrwt beam="1">  1        2 0.40805131E+00 0.37370541E+04</pdfrwt>
<pdfrwt beam="2">  1       -2 0.20251505E+00 0.37370541E+04</pdfrwt>
<totfact> 0.29246030E-01</totfact>
</mgrwt>
</event>
<event>
 6    1  0.9988873E-007  0.3455491E+04  0.7818608E-02  0.8124420E-01
         -1   -1    0    0    0  501 -0.00000000000E+00  0.00000000000E+00  0.95811725245E+03  0.95811725245E+03  0.00000000000E+00 0.  1.
          1   -1    0    0  501    0  0.00000000000E+00 -0.00000000000E+00 -0.31155941829E+04  0.31155941829E+04  0.00000000000E+00 0. -1.
         23    2    1    2    0    0 -0.57316690559E+03  0.16272435431E+04 -0.11578684358E+04  0.20798059730E+04  0.92150533288E+02 0.  0.
         11    1    3    3    0    0 -0.19589049643E+03  0.56626173856E+03 -0.45530093611E+03  0.75254527145E+03  0.00000000000E+00 0. -1.
        -11    1    3    3    0    0 -0.37727640916E+03  0.10609818045E+04 -0.70256749968E+03  0.13272607016E+04  0.00000000000E+00 0.  1.
         22    1    1    2    0    0  0.57316690559E+03 -0.16272435431E+04 -0.99960849469E+03  0.19939054623E+04  0.00000000000E+00 0.  1.
<mgrwt>
<rscale>  0 0.34554910E+04</rscale>
<asrwt>0</asrwt>
<pdfrwt beam="1">  1        1 0.47932218E+00 0.34554910E+04</pdfrwt>
<pdfrwt beam="2">  1       -1 0.14740266E+00 0.34554910E+04</pdfrwt>
<totfact> 0.14701582E-01</totfact>
</mgrwt>
</event>
<event>
 6    1  0.9988873E-007  0.1253308E+04  0.7818608E-02  0.9067434E-01
         -2   -1    0    0    0  501 -0.00000000000E+00  0.00000000000E+00  0.68144073667E+03  0.68144073667E+03  0.00000000000E+00 0.  1.
          2   -1    0    0  501    0  0.00000000000E+00 -0.00000000000E+00 -0.57627232001E+03  0.57627232001E+03  0.00000000000E+00 0. -1.
         23    2    1    2    0    0  0.31219048705E+03  0.53670660046E+03 -0.23695500262E+01  0.62756919258E+03  0.91217331318E+02 0.  0.
         11    1    3    3    0    0  0.15288988311E+03  0.23298737579E+03 -0.43877566657E+02  0.28210578599E+03  0.00000000000E+00 0. -1.
        -11    1    3    3    0    0  0.15930060394E+03  0.30371922467E+03  0.41508016630E+02  0.34546340659E+03  0.00000000000E+00 0.  1.
         22    1    1    2    0    0 -0.31219048705E+03 -0.53670660046E+03  0.10753796668E+03  0.63014386410E+03  0.00000000000E+00 0.  1.
<mgrwt>
<rscale>  0 0.12533083E+04</rscale>
<asrwt>0</asrwt>
<pdfrwt beam="1">  1        2 0.88657281E-01 0.12533083E+04</pdfrwt>
<pdfrwt beam="2">  1       -2 0.10483704E+00 0.12533083E+04</pdfrwt>
<totfact> 0.37781532E+01</totfact>
</mgrwt>
</event>
<event>
 6    1  0.9988873E-007  0.3163735E+04  0.7818608E-02  0.8198461E-01
         -2   -1    0    0    0  501 -0.00000000000E+00  0.00000000000E+00  0.48409948916E+04  0.48409948916E+04  0.00000000000E+00 0.  1.
          2   -1    0    0  501    0  0.00000000000E+00 -0.00000000000E+00 -0.51689882015E+03  0.51689882015E+03  0.00000000000E+00 0. -1.
         23    2    1    2    0    0 -0.38947699601E+03 -0.12454490036E+04  0.36742630129E+04  0.39001150746E+04  0.88619166329E+02 0.  0.
         11    1    3    3    0    0 -0.32736691728E+03 -0.98249950401E+03  0.28199698053E+04  0.30041145246E+04  0.00000000000E+00 0. -1.
        -11    1    3    3    0    0 -0.62110078723E+02 -0.26294949954E+03  0.85429320758E+03  0.89600055006E+03  0.00000000000E+00 0.  1.
         22    1    1    2    0    0  0.38947699601E+03  0.12454490036E+04  0.64983305860E+03  0.14577786371E+04  0.00000000000E+00 0. -1.
<mgrwt>
<rscale>  0 0.31637348E+04</rscale>
<asrwt>0</asrwt>
<pdfrwt beam="1">  1        2 0.79522899E-01 0.31637348E+04</pdfrwt>
<pdfrwt beam="2">  1       -2 0.74476841E+00 0.31637348E+04</pdfrwt>
<totfact> 0.75507115E-03</totfact>
</mgrwt>
</event>
<event>
 6    1  0.9988873E-007  0.1143695E+04  0.7818608E-02  0.9163620E-01
          2   -1    0    0  501    0  0.00000000000E+00  0.00000000000E+00  0.44126338724E+04  0.44126338724E+04  0.00000000000E+00 0. -1.
         -2   -1    0    0    0  501 -0.00000000000E+00 -0.00000000000E+00 -0.74107552544E+02  0.74107552544E+02  0.00000000000E+00 0.  1.
         23    2    1    2    0    0 -0.12070285420E+03  0.35564656831E+03  0.38559472365E+04  0.38752381688E+04  0.89933941399E+02 0.  0.
         11    1    3    3    0    0 -0.10244632426E+03  0.16238979884E+03  0.18812878665E+04  0.18910604784E+04  0.00000000000E+00 0.  1.
        -11    1    3    3    0    0 -0.18256529943E+02  0.19325676947E+03  0.19746593700E+04  0.19841776905E+04  0.00000000000E+00 0. -1.
         22    1    1    2    0    0  0.12070285420E+03 -0.35564656831E+03  0.48257908336E+03  0.61150325613E+03  0.00000000000E+00 0.  1.
<mgrwt>
<rscale>  0 0.11436949E+04</rscale>
<asrwt>0</asrwt>
<pdfrwt beam="1">  1        2 0.67886654E+00 0.11436949E+04</pdfrwt>
<pdfrwt beam="2">  1       -2 0.11401165E-01 0.11436949E+04</pdfrwt>
<totfact> 0.87122948E+00</totfact>
</mgrwt>
</event>
<event>
 6    1  0.9988873E-007  0.1015720E+04  0.7818608E-02  0.9291470E-01
          1   -1    0    0  501    0  0.00000000000E+00  0.00000000000E+00  0.13255041937E+03  0.13255041937E+03  0.00000000000E+00 0. -1.
         -1   -1    0    0    0  501 -0.00000000000E+00 -0.00000000000E+00 -0.19458381650E+04  0.19458381650E+04  0.00000000000E+00 0.  1.
         23    2    1    2    0    0  0.24026918185E+03 -0.99665578020E+02 -0.17966908684E+04  0.18177394648E+04  0.91739730693E+02 0.  0.
         13    1    3    3    0    0  0.74932334077E+02  0.11989314564E+02 -0.45093654388E+03  0.45727712053E+03  0.00000000000E+00 0.  1.
        -13    1    3    3    0    0  0.16533684778E+03 -0.11165489258E+03 -0.13457543245E+04  0.13604623443E+04  0.00000000000E+00 0. -1.
         22    1    1    2    0    0 -0.24026918185E+03  0.99665578020E+02 -0.16596877234E+02  0.26064911955E+03  0.00000000000E+00 0. -1.
<mgrwt>
<rscale>  0 0.10157198E+04</rscale>
<asrwt>0</asrwt>
<pdfrwt beam="1">  1        1 0.20392372E-01 0.10157198E+04</pdfrwt>
<pdfrwt beam="2">  1       -1 0.29935972E+00 0.10157198E+04</pdfrwt>
<totfact> 0.86422876E+00</totfact>
</mgrwt>
</event>
<event>
 6    1  0.9988873E-007  0.5511229E+04  0.7818608E-02  0.7754146E-01
          2   -1    0    0  501    0  0.00000000000E+00  0.00000000000E+00  0.32910685823E+04  0.32910685823E+04  0.00000000000E+00 0. -1.
         -2   -1    0    0    0  501 -0.00000000000E+00 -0.00000000000E+00 -0.23072786352E+04  0.23072786352E+04  0.00000000000E+00 0.  1.
         23    2    1    2    0    0  0.11921048644E+04 -0.12999461261E+04  0.26416967103E+04  0.31776802074E+04  0.90089136033E+02 0.  0.
         11    1    3    3    0    0  0.70669352096E+03 -0.78701341112E+03  0.16603194724E+04  0.19686204795E+04  0.00000000000E+00 0. -1.
        -11    1    3    3    0    0  0.48541134344E+03 -0.51293271499E+03  0.98137723792E+03  0.12090597279E+04  0.00000000000E+00 0.  1.
         22    1    1    2    0    0 -0.11921048644E+04  0.12999461261E+04 -0.16579067632E+04  0.24206670101E+04  0.00000000000E+00 0.  1.
<mgrwt>
<rscale>  0 0.55112293E+04</rscale>
<asrwt>0</asrwt>
<pdfrwt beam="1">  1        2 0.50631824E+00 0.55112293E+04</pdfrwt>
<pdfrwt beam="2">  1       -2 0.35496594E+00 0.55112293E+04</pdfrwt>
<totfact> 0.11415447E-02</totfact>
</mgrwt>
</event>
<event>
 6    1  0.9988873E-007  0.1304108E+04  0.7818608E-02  0.9026314E-01
         -1   -1    0    0    0  501 -0.00000000000E+00  0.00000000000E+00  0.71307499566E+03  0.71307499566E+03  0.00000000000E+00 0.  1.
          1   -1    0    0  501    0  0.00000000000E+00 -0.00000000000E+00 -0.59625442864E+03  0.59625442864E+03  0.00000000000E+00 0. -1.
         23    2    1    2    0    0 -0.95156176573E+02  0.40741084363E+03  0.55669158751E+03  0.70226698262E+03  0.90747439791E+02 0.  0.
         13    1    3    3    0    0 -0.22630032429E+02  0.28317248582E+03  0.36010486334E+03  0.45866576905E+03  0.00000000000E+00 0.  1.
        -13    1    3    3    0    0 -0.72526144144E+02  0.12423835781E+03  0.19658672416E+03  0.24360121357E+03  0.00000000000E+00 0. -1.
         22    1    1    2    0    0  0.95156176573E+02 -0.40741084363E+03 -0.43987102048E+03  0.60706244169E+03  0.00000000000E+00 0. -1.
<mgrwt>
<rscale>  0 0.13041075E+04</rscale>
<asrwt>0</asrwt>
<pdfrwt beam="1">  1        1 0.91731450E-01 0.13041075E+04</pdfrwt>
<pdfrwt beam="2">  1       -1 0.10970385E+00 0.13041075E+04</pdfrwt>
<totfact> 0.26085147E+01</totfact>
</mgrwt>
</event>
<event>
 6    1  0.9988873E-007  0.9005521E+03  0.7818608E-02  0.9424892E-01
         -2   -1    0    0    0  501 -0.00000000000E+00  0.00000000000E+00  0.11113502826E+03  0.11113502826E+03  0.00000000000E+00 0.  1.
          2   -1    0    0  501    0  0.00000000000E+00 -0.00000000000E+00 -0.18243438371E+04  0.18243438371E+04  0.00000000000E+00 0. -1.
         23    2    1    2    0    0 -0.21475518075E+03 -0.33907212361E+03 -0.44869030921E+03  0.60879249376E+03  0.90640025463E+02 0.  0.
         13    1    3    3    0    0 -0.20188249900E+03 -0.26773900458E+03 -0.33520889227E+03  0.47413681510E+03  0.00000000000E+00 0. -1.
        -13    1    3    3    0    0 -0.12872681754E+02 -0.71333119028E+02 -0.11348141694E+03  0.13465567867E+03  0.00000000000E+00 0.  1.
         22    1    1    2    0    0  0.21475518075E+03  0.33907212361E+03 -0.12645184997E+04  0.13266863716E+04  0.00000000000E+00 0.  1.
<mgrwt>
<rscale>  0 0.90055206E+03</rscale>
<asrwt>0</asrwt>
<pdfrwt beam="1">  1        2 0.28066826E+00 0.90055206E+03</pdfrwt>
<pdfrwt beam="2">  1       -2 0.17097698E-01 0.90055206E+03</pdfrwt>
<totfact> 0.23639620E+02</totfact>
</mgrwt>
</event>
<event>
 6    1  0.9988873E-007  0.2107724E+04  0.7818608E-02  0.8557849E-01
          1   -1    0    0  501    0  0.00000000000E+00  0.00000000000E+00  0.15510405018E+04  0.15510405018E+04  0.00000000000E+00 0. -1.
         -1   -1    0    0    0  501 -0.00000000000E+00 -0.00000000000E+00 -0.71605140311E+03  0.71605140311E+03  0.00000000000E+00 0.  1.
         23    2    1    2    0    0  0.48769619936E+03  0.83667337789E+03 -0.23349850335E+02  0.97302248036E+03  0.91419952058E+02 0.  0.
         13    1    3    3    0    0  0.35349285326E+03  0.53100629413E+03 -0.36322053918E+02  0.63893988239E+03  0.00000000000E+00 0. -1.
        -13    1    3    3    0    0  0.13420334611E+03  0.30566708376E+03  0.12972203583E+02  0.33408259797E+03  0.00000000000E+00 0.  1.
         22    1    1    2    0    0 -0.48769619936E+03 -0.83667337789E+03  0.85833894905E+03  0.12940694246E+04  0.00000000000E+00 0. -1.
<mgrwt>
<rscale>  0 0.21077236E+04</rscale>
<asrwt>0</asrwt>
<pdfrwt beam="1">  1        1 0.23862161E+00 0.21077236E+04</pdfrwt>
<pdfrwt beam="2">  1       -1 0.11016175E+00 0.21077236E+04</pdfrwt>
<totfact> 0.42150980E+00</totfact>
</mgrwt>
</event>
<event>
 6    1  0.9988873E-007  0.2610748E+04  0.7818608E-02  0.8364559E-01
          1   -1    0    0  501    0  0.00000000000E+00  0.00000000000E+00  0.90127905028E+03  0.90127905028E+03  0.00000000000E+00 0. -1.
         -1   -1    0    0    0  501 -0.00000000000E+00 -0.00000000000E+00 -0.18906482085E+04  0.18906482085E+04  0.00000000000E+00 0.  1.
         23    2    1    2    0    0  0.74840653674E+03 -0.37134400101E+03  0.57514424153E+03  0.10183120555E+04  0.90331791217E+02 0.  0.
         11    1    3    3    0    0  0.30617763086E+03 -0.10863038199E+03  0.24798069862E+03  0.40870494054E+03  0.00000000000E+00 0. -1.
        -11    1    3    3    0    0  0.44222890588E+03 -0.26271361902E+03  0.32716354291E+03  0.60960711497E+03  0.00000000000E+00 0.  1.
         22    1    1    2    0    0 -0.74840653674E+03  0.37134400101E+03 -0.15645133998E+04  0.17736152033E+04  0.00000000000E+00 0.  1.
<mgrwt>
<rscale>  0 0.26107483E+04</rscale>
<asrwt>0</asrwt>
<pdfrwt beam="1">  1        1 0.13865832E+00 0.26107483E+04</pdfrwt>
<pdfrwt beam="2">  1       -1 0.29086895E+00 0.26107483E+04</pdfrwt>
<totfact> 0.60451747E-01</totfact>
</mgrwt>
</event>
<event>
 6    1  0.9988873E-007  0.2249194E+04  0.7818608E-02  0.8498227E-01
         -2   -1    0    0    0  501 -0.00000000000E+00  0.00000000000E+00  0.19484964229E+04  0.19484964229E+04  0.00000000000E+00 0.  1.
          2   -1    0    0  501    0  0.00000000000E+00 -0.00000000000E+00 -0.64907411885E+03  0.64907411885E+03  0.00000000000E+00 0. -1.
         23    2    1    2    0    0 -0.11660413238E+03 -0.11160215205E+04  0.69987132943E+03  0.13253433887E+04  0.87262031309E+02 0.  0.
         11    1    3    3    0    0  0.39662495753E+00 -0.39619008290E+03  0.24975977342E+03  0.46834462047E+03  0.00000000000E+00 0. -1.
        -11    1    3    3    0    0 -0.11700075734E+03 -0.71983143763E+03  0.45011155601E+03  0.85699876818E+03  0.00000000000E+00 0.  1.
         22    1    1    2    0    0  0.11660413238E+03  0.11160215205E+04  0.59955097466E+03  0.12722271531E+04  0.00000000000E+00 0.  1.
<mgrwt>
<rscale>  0 0.22491942E+04</rscale>
<asrwt>0</asrwt>
<pdfrwt beam="1">  1        2 0.99857558E-01 0.22491942E+04</pdfrwt>
<pdfrwt beam="2">  1       -2 0.29976868E+00 0.22491942E+04</pdfrwt>
<totfact> 0.13081580E+00</totfact>
</mgrwt>
</event>
<event>
 6    1  0.9988873E-007  0.3574202E+04  0.7818608E-02  0.8096427E-01
          1   -1    0    0  501    0  0.00000000000E+00  0.00000000000E+00  0.16834266323E+04  0.16834266323E+04  0.00000000000E+00 0. -1.
         -1   -1    0    0    0  501 -0.00000000000E+00 -0.00000000000E+00 -0.18971600731E+04  0.18971600731E+04  0.00000000000E+00 0.  1.
         23    2    1    2    0    0 -0.14127708663E+03 -0.11616483290E+04 -0.14584772197E+04  0.18721449796E+04  0.91569476455E+02 0.  0.
         11    1    3    3    0    0  0.40328132944E+01 -0.12263579237E+03 -0.12144915590E+03  0.17264326984E+03  0.00000000000E+00 0. -1.
        -11    1    3    3    0    0 -0.14530989993E+03 -0.10390125366E+04 -0.13370280638E+04  0.16995017098E+04  0.00000000000E+00 0.  1.
         22    1    1    2    0    0  0.14127708663E+03  0.11616483290E+04  0.12447437788E+04  0.17084417258E+04  0.00000000000E+00 0. -1.
<mgrwt>
<rscale>  0 0.35742019E+04</rscale>
<asrwt>0</asrwt>
<pdfrwt beam="1">  1        1 0.25898871E+00 0.35742019E+04</pdfrwt>
<pdfrwt beam="2">  1       -1 0.29187078E+00 0.35742019E+04</pdfrwt>
<totfact> 0.14787327E-01</totfact>
</mgrwt>
</event>
<event>
 6    1  0.9988873E-007  0.1658573E+04  0.7818608E-02  0.8785351E-01
          2   -1    0    0  501    0  0.00000000000E+00  0.00000000000E+00  0.28284746741E+04  0.28284746741E+04  0.00000000000E+00 0. -1.
         -2   -1    0    0    0  501 -0.00000000000E+00 -0.00000000000E+00 -0.24314015582E+03  0.24314015582E+03  0.00000000000E+00 0.  1.
         23    2    1    2    0    0  0.17421107157E+03 -0.74862256769E+03  0.18604193516E+04  0.20150698734E+04  0.92526668933E+02 0.  0.
         13    1    3    3    0    0  0.14831759979E+03 -0.54876217744E+03  0.14608931144E+04  0.15675926542E+04  0.00000000000E+00 0.  1.
        -13    1    3    3    0    0  0.25893471777E+02 -0.19986039025E+03  0.39952623724E+03  0.44747721921E+03  0.00000000000E+00 0. -1.
         22    1    1    2    0    0 -0.17421107157E+03  0.74862256769E+03  0.72491516668E+03  0.10565449565E+04  0.00000000000E+00 0.  1.
<mgrwt>
<rscale>  0 0.16585726E+04</rscale>
<asrwt>0</asrwt>
<pdfrwt beam="1">  1        2 0.43514993E+00 0.16585726E+04</pdfrwt>
<pdfrwt beam="2">  1       -2 0.37406180E-01 0.16585726E+04</pdfrwt>
<totfact> 0.14353313E+01</totfact>
</mgrwt>
</event>
<event>
 6    1  0.9988873E-007  0.4746653E+04  0.7818608E-02  0.7868823E-01
         -2   -1    0    0    0  501 -0.00000000000E+00  0.00000000000E+00  0.20845995966E+04  0.20845995966E+04  0.00000000000E+00 0.  1.
          2   -1    0    0  501    0  0.00000000000E+00 -0.00000000000E+00 -0.27020436158E+04  0.27020436158E+04  0.00000000000E+00 0. -1.
         23    2    1    2    0    0 -0.28093874672E+03 -0.18738332466E+04 -0.17485679038E+04  0.25799219210E+04  0.91267675048E+02 0.  0.
         11    1    3    3    0    0 -0.13788359990E+03 -0.12129881875E+04 -0.11193761607E+04  0.16563077068E+04  0.00000000000E+00 0. -1.
        -11    1    3    3    0    0 -0.14305514683E+03 -0.66084505907E+03 -0.62919174307E+03  0.92361421420E+03  0.00000000000E+00 0.  1.
         22    1    1    2    0    0  0.28093874672E+03  0.18738332466E+04  0.11311238847E+04  0.22067212914E+04  0.00000000000E+00 0.  1.
<mgrwt>
<rscale>  0 0.47466531E+04</rscale>
<asrwt>0</asrwt>
<pdfrwt beam="1">  1        2 0.41569902E+00 0.47466531E+04</pdfrwt>
<pdfrwt beam="2">  1       -2 0.32070763E+00 0.47466531E+04</pdfrwt>
<totfact> 0.46621689E-02</totfact>
</mgrwt>
</event>
<event>
 6    1  0.9988873E-007  0.1319154E+04  0.7818608E-02  0.9014512E-01
          2   -1    0    0  501    0  0.00000000000E+00  0.00000000000E+00  0.95325699986E+03  0.95325699986E+03  0.00000000000E+00 0. -1.
         -2   -1    0    0    0  501 -0.00000000000E+00 -0.00000000000E+00 -0.45637410121E+03  0.45637410121E+03  0.00000000000E+00 0.  1.
         23    2    1    2    0    0 -0.32575895728E+03 -0.30412579425E+03  0.76455007444E+03  0.88976850964E+03  0.92410970446E+02 0.  0.
         11    1    3    3    0    0 -0.10372452253E+03 -0.44528912682E+02  0.16972782829E+03  0.20383605259E+03  0.00000000000E+00 0.  1.
        -11    1    3    3    0    0 -0.22203443476E+03 -0.25959688156E+03  0.59482224614E+03  0.68593245706E+03  0.00000000000E+00 0. -1.
         22    1    1    2    0    0  0.32575895728E+03  0.30412579425E+03 -0.26766717578E+03  0.51986259143E+03  0.00000000000E+00 0.  1.
<mgrwt>
<rscale>  0 0.13191540E+04</rscale>
<asrwt>0</asrwt>
<pdfrwt beam="1">  1        2 0.14665492E+00 0.13191540E+04</pdfrwt>
<pdfrwt beam="2">  1       -2 0.70211401E-01 0.13191540E+04</pdfrwt>
<totfact> 0.48850761E+01</totfact>
</mgrwt>
</event>
<event>
 6    1  0.9988873E-007  0.1635549E+04  0.7818608E-02  0.8799002E-01
         -2   -1    0    0    0  501 -0.00000000000E+00  0.00000000000E+00  0.10167139512E+04  0.10167139512E+04  0.00000000000E+00 0.  1.
          2   -1    0    0  501    0  0.00000000000E+00 -0.00000000000E+00 -0.65776107774E+03  0.65776107774E+03  0.00000000000E+00 0. -1.
         23    2    1    2    0    0  0.65080014021E+02 -0.74193352397E+03  0.51937543357E+03  0.91261141914E+03  0.91695142343E+02 0.  0.
         11    1    3    3    0    0 -0.18364905278E+02 -0.56964860305E+02  0.50986878126E+02  0.78625230025E+02  0.00000000000E+00 0. -1.
        -11    1    3    3    0    0  0.83444919300E+02 -0.68496866366E+03  0.46838855544E+03  0.83398618911E+03  0.00000000000E+00 0.  1.
         22    1    1    2    0    0 -0.65080014021E+02  0.74193352397E+03 -0.16042256007E+03  0.76186360984E+03  0.00000000000E+00 0. -1.
<mgrwt>
<rscale>  0 0.16355487E+04</rscale>
<asrwt>0</asrwt>
<pdfrwt beam="1">  1        2 0.10119401E+00 0.16355487E+04</pdfrwt>
<pdfrwt beam="2">  1       -2 0.15641753E+00 0.16355487E+04</pdfrwt>
<totfact> 0.11341301E+01</totfact>
</mgrwt>
</event>
<event>
 6    1  0.9988873E-007  0.4542403E+03  0.7818608E-02  0.1026465E+00
          2   -1    0    0  501    0  0.00000000000E+00  0.00000000000E+00  0.27912168309E+03  0.27912168309E+03  0.00000000000E+00 0. -1.
         -2   -1    0    0    0  501 -0.00000000000E+00 -0.00000000000E+00 -0.18480669657E+03  0.18480669657E+03  0.00000000000E+00 0.  1.
         23    2    1    2    0    0 -0.95913891918E+02 -0.17733089014E+03 -0.31654462080E+02  0.22620160111E+03  0.97567618152E+02 0.  0.
         13    1    3    3    0    0 -0.10889444569E+03 -0.12209025107E+03 -0.54238074515E+01  0.16368704102E+03  0.00000000000E+00 0. -1.
        -13    1    3    3    0    0  0.12980553772E+02 -0.55240639072E+02 -0.26230654628E+02  0.62514560092E+02  0.00000000000E+00 0.  1.
         22    1    1    2    0    0  0.95913891918E+02  0.17733089014E+03  0.12596944859E+03  0.23772677855E+03  0.00000000000E+00 0. -1.
<mgrwt>
<rscale>  0 0.45424027E+03</rscale>
<asrwt>0</asrwt>
<pdfrwt beam="1">  1        2 0.42941798E-01 0.45424027E+03</pdfrwt>
<pdfrwt beam="2">  1       -2 0.28431799E-01 0.45424027E+03</pdfrwt>
<totfact> 0.13434140E+03</totfact>
</mgrwt>
</event>
<event>
 6    1  0.9988873E-007  0.1489183E+04  0.7818608E-02  0.8891678E-01
         -2   -1    0    0    0  501 -0.00000000000E+00  0.00000000000E+00  0.19190406604E+04  0.19190406604E+04  0.00000000000E+00 0.  1.
          2   -1    0    0  501    0  0.00000000000E+00 -0.00000000000E+00 -0.28890278928E+03  0.28890278928E+03  0.00000000000E+00 0. -1.
         23    2    1    2    0    0 -0.90629485600E+02  0.63064516170E+03  0.25540639744E+03  0.69274918875E+03  0.93498593746E+02 0.  0.
         13    1    3    3    0    0 -0.18689937768E+02  0.83987528936E+02  0.23345209758E+01  0.86073624176E+02  0.00000000000E+00 0. -1.
        -13    1    3    3    0    0 -0.71939547832E+02  0.54665763276E+03  0.25307187646E+03  0.60667556458E+03  0.00000000000E+00 0.  1.
         22    1    1    2    0    0  0.90629485600E+02 -0.63064516170E+03  0.13747314737E+04  0.15151942609E+04  0.00000000000E+00 0.  1.
<mgrwt>
<rscale>  0 0.14891826E+04</rscale>
<asrwt>0</asrwt>
<pdfrwt beam="1">  1        2 0.44446584E-01 0.14891826E+04</pdfrwt>
<pdfrwt beam="2">  1       -2 0.29523702E+00 0.14891826E+04</pdfrwt>
<totfact> 0.37767313E+00</totfact>
</mgrwt>
</event>
<event>
 6    1  0.9988873E-007  0.2213924E+04  0.7818608E-02  0.8512655E-01
          1   -1    0    0  501    0  0.00000000000E+00  0.00000000000E+00  0.72037665954E+03  0.72037665954E+03  0.00000000000E+00 0. -1.
         -1   -1    0    0    0  501 -0.00000000000E+00 -0.00000000000E+00 -0.17010063546E+04  0.17010063546E+04  0.00000000000E+00 0.  1.
         23    2    1    2    0    0 -0.10664144778E+04  0.52702561627E+02 -0.17882625552E+03  0.10861279246E+04  0.87622146961E+02 0.  0.
         11    1    3    3    0    0 -0.27418193316E+03  0.36880180889E+02 -0.15533306625E+02  0.27708692468E+03  0.00000000000E+00 0. -1.
        -11    1    3    3    0    0 -0.79223254459E+03  0.15822380738E+02 -0.16329294889E+03  0.80904099994E+03  0.00000000000E+00 0.  1.
         22    1    1    2    0    0  0.10664144778E+04 -0.52702561627E+02 -0.80180343952E+03  0.13352550895E+04  0.00000000000E+00 0. -1.
<mgrwt>
<rscale>  0 0.22139244E+04</rscale>
<asrwt>0</asrwt>
<pdfrwt beam="1">  1        1 0.11082718E+00 0.22139244E+04</pdfrwt>
<pdfrwt beam="2">  1       -1 0.26169329E+00 0.22139244E+04</pdfrwt>
<totfact> 0.13889435E+00</totfact>
</mgrwt>
</event>
<event>
 6    1  0.9988873E-007  0.4768959E+04  0.7818608E-02  0.7865171E-01
         -2   -1    0    0    0  501 -0.00000000000E+00  0.00000000000E+00  0.23094373419E+04  0.23094373419E+04  0.00000000000E+00 0.  1.
          2   -1    0    0  501    0  0.00000000000E+00 -0.00000000000E+00 -0.24619602295E+04  0.24619602295E+04  0.00000000000E+00 0. -1.
         23    2    1    2    0    0 -0.23413954898E+04 -0.17964545840E+03  0.33211346036E+03  0.23736324202E+04  0.97088542300E+02 0.  0.
         13    1    3    3    0    0 -0.20274706995E+04 -0.18828025204E+03  0.28270314930E+03  0.20557256532E+04  0.00000000000E+00 0.  1.
        -13    1    3    3    0    0 -0.31392479027E+03  0.86347936427E+01  0.49410311065E+02  0.31790676691E+03  0.00000000000E+00 0. -1.
         22    1    1    2    0    0  0.23413954898E+04  0.17964545840E+03 -0.48463634796E+03  0.23977651512E+04  0.00000000000E+00 0.  1.
<mgrwt>
<rscale>  0 0.47689592E+04</rscale>
<asrwt>0</asrwt>
<pdfrwt beam="1">  1        2 0.37876311E+00 0.47689592E+04</pdfrwt>
<pdfrwt beam="2">  1       -2 0.35529805E+00 0.47689592E+04</pdfrwt>
<totfact> 0.39115700E-02</totfact>
</mgrwt>
</event>
<event>
 6    1  0.9988873E-007  0.2883436E+04  0.7818608E-02  0.8277823E-01
         -1   -1    0    0    0  501 -0.00000000000E+00  0.00000000000E+00  0.75376318096E+03  0.75376318096E+03  0.00000000000E+00 0.  1.
          1   -1    0    0  501    0  0.00000000000E+00 -0.00000000000E+00 -0.27575650090E+04  0.27575650090E+04  0.00000000000E+00 0. -1.
         23    2    1    2    0    0 -0.13188668810E+04 -0.41421673651E+03 -0.51050659339E+03  0.14764041097E+04  0.90370121495E+02 0.  0.
         13    1    3    3    0    0 -0.52733816350E+03 -0.21184588810E+03 -0.20352415642E+03  0.60364418430E+03  0.00000000000E+00 0. -1.
        -13    1    3    3    0    0 -0.79152871745E+03 -0.20237084841E+03 -0.30698243697E+03  0.87275992544E+03  0.00000000000E+00 0.  1.
         22    1    1    2    0    0  0.13188668810E+04  0.41421673651E+03 -0.14932952347E+04  0.20349240803E+04  0.00000000000E+00 0.  1.
<mgrwt>
<rscale>  0 0.28834361E+04</rscale>
<asrwt>0</asrwt>
<pdfrwt beam="1">  1        1 0.42424076E+00 0.28834361E+04</pdfrwt>
<pdfrwt beam="2">  1       -1 0.11596357E+00 0.28834361E+04</pdfrwt>
<totfact> 0.51636043E-01</totfact>
</mgrwt>
</event>
<event>
 6    1  0.9988873E-007  0.2317007E+03  0.7818608E-02  0.1125448E+00
         -4   -1    0    0    0  501 -0.00000000000E+00  0.00000000000E+00  0.39655539739E+03  0.39655539739E+03  0.00000000000E+00 0.  1.
          4   -1    0    0  501    0  0.00000000000E+00 -0.00000000000E+00 -0.33844715093E+02  0.33844715093E+02  0.00000000000E+00 0. -1.
         23    2    1    2    0    0 -0.63416971861E+02 -0.53669762865E+02  0.92409329089E+02  0.14761931874E+03  0.79685779130E+02 0.  0.
         13    1    3    3    0    0 -0.18552238214E+02 -0.47368957474E+02  0.75584320510E+01  0.51430862038E+02  0.00000000000E+00 0. -1.
        -13    1    3    3    0    0 -0.44864733647E+02 -0.63008053911E+01  0.84850897038E+02  0.96188456699E+02  0.00000000000E+00 0.  1.
         22    1    1    2    0    0  0.63416971861E+02  0.53669762865E+02  0.27030135321E+03  0.28278079375E+03  0.00000000000E+00 0.  1.
<mgrwt>
<rscale>  0 0.23170071E+03</rscale>
<asrwt>0</asrwt>
<pdfrwt beam="1">  1        4 0.52068795E-02 0.23170071E+03</pdfrwt>
<pdfrwt beam="2">  1       -4 0.61008519E-01 0.23170071E+03</pdfrwt>
<totfact> 0.10477986E+03</totfact>
</mgrwt>
</event>
<event>
 6    1  0.9988873E-007  0.1822259E+04  0.7818608E-02  0.8694551E-01
         -1   -1    0    0    0  501 -0.00000000000E+00  0.00000000000E+00  0.14070398117E+04  0.14070398117E+04  0.00000000000E+00 0.  1.
          1   -1    0    0  501    0  0.00000000000E+00 -0.00000000000E+00 -0.59000279362E+03  0.59000279362E+03  0.00000000000E+00 0. -1.
         23    2    1    2    0    0  0.52748482755E+03  0.25549148059E+03 -0.35147804235E+03  0.68977691449E+03  0.93483889231E+02 0.  0.
         13    1    3    3    0    0  0.30838947612E+02  0.34096783388E+02 -0.81228740537E+01  0.46686319304E+02  0.00000000000E+00 0.  1.
        -13    1    3    3    0    0  0.49664587994E+03  0.22139469721E+03 -0.34335516830E+03  0.64309059518E+03  0.00000000000E+00 0. -1.
         22    1    1    2    0    0 -0.52748482755E+03 -0.25549148059E+03  0.11685150604E+04  0.13072656908E+04  0.00000000000E+00 0.  1.
<mgrwt>
<rscale>  0 0.18222595E+04</rscale>
<asrwt>0</asrwt>
<pdfrwt beam="1">  1        1 0.90769661E-01 0.18222595E+04</pdfrwt>
<pdfrwt beam="2">  1       -1 0.21646766E+00 0.18222595E+04</pdfrwt>
<totfact> 0.38407226E+00</totfact>
</mgrwt>
</event>
<event>
 6    1  0.9988873E-007  0.2498322E+04  0.7818608E-02  0.8403584E-01
         -2   -1    0    0    0  501 -0.00000000000E+00  0.00000000000E+00  0.72476251914E+03  0.72476251914E+03  0.00000000000E+00 0.  1.
          2   -1    0    0  501    0  0.00000000000E+00 -0.00000000000E+00 -0.21529848991E+04  0.21529848991E+04  0.00000000000E+00 0. -1.
         23    2    1    2    0    0 -0.97868964201E+03 -0.16091780872E+02 -0.16058670345E+04  0.18829358864E+04  0.92445978589E+02 0.  0.
         13    1    3    3    0    0 -0.91107335832E+03 -0.20092817340E+02 -0.15333158835E+04  0.17836804602E+04  0.00000000000E+00 0. -1.
        -13    1    3    3    0    0 -0.67616283694E+02  0.40010364682E+01 -0.72551150976E+02  0.99255426155E+02  0.00000000000E+00 0.  1.
         22    1    1    2    0    0  0.97868964201E+03  0.16091780872E+02  0.17764465446E+03  0.99481153193E+03  0.00000000000E+00 0.  1.
<mgrwt>
<rscale>  0 0.24983216E+04</rscale>
<asrwt>0</asrwt>
<pdfrwt beam="1">  1        2 0.33122844E+00 0.24983216E+04</pdfrwt>
<pdfrwt beam="2">  1       -2 0.11150193E+00 0.24983216E+04</pdfrwt>
<totfact> 0.31117355E+00</totfact>
</mgrwt>
</event>
<event>
 6    1  0.9988873E-007  0.4295381E+04  0.7818608E-02  0.7947473E-01
         -2   -1    0    0    0  501 -0.00000000000E+00  0.00000000000E+00  0.14002705248E+04  0.14002705248E+04  0.00000000000E+00 0.  1.
          2   -1    0    0  501    0  0.00000000000E+00 -0.00000000000E+00 -0.32940592234E+04  0.32940592234E+04  0.00000000000E+00 0. -1.
         23    2    1    2    0    0 -0.49354780734E+03  0.18934486038E+04 -0.19123295651E+04  0.27375260236E+04  0.91144449764E+02 0.  0.
         11    1    3    3    0    0 -0.25584196478E+03  0.82801901048E+03 -0.87916492985E+03  0.12345045834E+04  0.00000000000E+00 0.  1.
        -11    1    3    3    0    0 -0.23770584255E+03  0.10654295933E+04 -0.10331646352E+04  0.15030214401E+04  0.00000000000E+00 0. -1.
         22    1    1    2    0    0  0.49354780734E+03 -0.18934486038E+04  0.18540866480E+02  0.19568037247E+04  0.00000000000E+00 0.  1.
<mgrwt>
<rscale>  0 0.42953808E+04</rscale>
<asrwt>0</asrwt>
<pdfrwt beam="1">  1        2 0.50677833E+00 0.42953808E+04</pdfrwt>
<pdfrwt beam="2">  1       -2 0.21542624E+00 0.42953808E+04</pdfrwt>
<totfact> 0.91399456E-02</totfact>
</mgrwt>
</event>
<event>
 6    1  0.9988873E-007  0.1971468E+04  0.7818608E-02  0.8620078E-01
          2   -1    0    0  501    0  0.00000000000E+00  0.00000000000E+00  0.15304191685E+04  0.15304191685E+04  0.00000000000E+00 0. -1.
         -2   -1    0    0    0  501 -0.00000000000E+00 -0.00000000000E+00 -0.63490532092E+03  0.63490532092E+03  0.00000000000E+00 0.  1.
         23    2    1    2    0    0 -0.96868503296E+03 -0.14238473394E+03  0.55314333796E+03  0.11280966112E+04  0.89500314719E+02 0.  0.
         11    1    3    3    0    0 -0.64462298519E+03 -0.12493253284E+03  0.40386329164E+03  0.77087773942E+03  0.00000000000E+00 0. -1.
        -11    1    3    3    0    0 -0.32406204777E+03 -0.17452201101E+02  0.14928004631E+03  0.35721887178E+03  0.00000000000E+00 0.  1.
         22    1    1    2    0    0  0.96868503296E+03  0.14238473394E+03  0.34237050967E+03  0.10372278783E+04  0.00000000000E+00 0.  1.
<mgrwt>
<rscale>  0 0.19714678E+04</rscale>
<asrwt>0</asrwt>
<pdfrwt beam="1">  1        2 0.23544910E+00 0.19714678E+04</pdfrwt>
<pdfrwt beam="2">  1       -2 0.97677742E-01 0.19714678E+04</pdfrwt>
<totfact> 0.99219212E+00</totfact>
</mgrwt>
</event>
<event>
 6    1  0.9988873E-007  0.3256640E+04  0.7818608E-02  0.8174017E-01
          2   -1    0    0  501    0  0.00000000000E+00  0.00000000000E+00  0.22153041914E+04  0.22153041914E+04  0.00000000000E+00 0. -1.
         -2   -1    0    0    0  501 -0.00000000000E+00 -0.00000000000E+00 -0.11968678414E+04  0.11968678414E+04  0.00000000000E+00 0.  1.
         23    2    1    2    0    0  0.14953804414E+04 -0.15348764543E+03 -0.14273998779E+03  0.15126848364E+04  0.90108757716E+02 0.  0.
         13    1    3    3    0    0  0.29940944922E+03 -0.65292999309E+02 -0.17519843140E+02  0.30694647570E+03  0.00000000000E+00 0.  1.
        -13    1    3    3    0    0  0.11959709922E+04 -0.88194646125E+02 -0.12522014465E+03  0.12057383607E+04  0.00000000000E+00 0. -1.
         22    1    1    2    0    0 -0.14953804414E+04  0.15348764543E+03  0.11611763378E+04  0.18994871964E+04  0.00000000000E+00 0. -1.
<mgrwt>
<rscale>  0 0.32566402E+04</rscale>
<asrwt>0</asrwt>
<pdfrwt beam="1">  1        2 0.34081603E+00 0.32566402E+04</pdfrwt>
<pdfrwt beam="2">  1       -2 0.18413351E+00 0.32566402E+04</pdfrwt>
<totfact> 0.72066883E-01</totfact>
</mgrwt>
</event>
<event>
 6    1  0.9988873E-007  0.2936829E+04  0.7818608E-02  0.8262003E-01
         -4   -1    0    0    0  501 -0.00000000000E+00  0.00000000000E+00  0.34113823385E+04  0.34113823385E+04  0.00000000000E+00 0.  1.
          4   -1    0    0  501    0  0.00000000000E+00 -0.00000000000E+00 -0.63207246334E+03  0.63207246334E+03  0.00000000000E+00 0. -1.
         23    2    1    2    0    0  0.50917681893E+02 -0.93590703657E+03  0.29445603982E+04  0.30917078151E+04  0.98522504328E+02 0.  0.
         13    1    3    3    0    0 -0.24074186371E+02 -0.45759959779E+03  0.14508830876E+04  0.15215251205E+04  0.00000000000E+00 0. -1.
        -13    1    3    3    0    0  0.74991868264E+02 -0.47830743878E+03  0.14936773106E+04  0.15701826946E+04  0.00000000000E+00 0.  1.
         22    1    1    2    0    0 -0.50917681893E+02  0.93590703657E+03 -0.16525052302E+03  0.95174698675E+03  0.00000000000E+00 0. -1.
<mgrwt>
<rscale>  0 0.29368288E+04</rscale>
<asrwt>0</asrwt>
<pdfrwt beam="1">  1        4 0.97241919E-01 0.29368288E+04</pdfrwt>
<pdfrwt beam="2">  1       -4 0.52482804E+00 0.29368288E+04</pdfrwt>
<totfact> 0.11387514E-03</totfact>
</mgrwt>
</event>
<event>
 6    1  0.9988873E-007  0.3284269E+04  0.7818608E-02  0.8166910E-01
          1   -1    0    0  501    0  0.00000000000E+00  0.00000000000E+00  0.19219461909E+04  0.19219461909E+04  0.00000000000E+00 0. -1.
         -1   -1    0    0    0  501 -0.00000000000E+00 -0.00000000000E+00 -0.14030602172E+04  0.14030602172E+04  0.00000000000E+00 0.  1.
         23    2    1    2    0    0  0.15305516173E+04 -0.16640369162E+03 -0.31486938254E+03  0.15741704832E+04  0.92690561663E+02 0.  0.
         13    1    3    3    0    0  0.13788192595E+04 -0.17358031730E+03 -0.26903674808E+03  0.14155046622E+04  0.00000000000E+00 0.  1.
        -13    1    3    3    0    0  0.15173235780E+03  0.71766256772E+01 -0.45832634460E+02  0.15866582096E+03  0.00000000000E+00 0. -1.
         22    1    1    2    0    0 -0.15305516173E+04  0.16640369162E+03  0.83375535631E+03  0.17508359249E+04  0.00000000000E+00 0. -1.
<mgrwt>
<rscale>  0 0.32842693E+04</rscale>
<asrwt>0</asrwt>
<pdfrwt beam="1">  1        1 0.29568403E+00 0.32842693E+04</pdfrwt>
<pdfrwt beam="2">  1       -1 0.21585542E+00 0.32842693E+04</pdfrwt>
<totfact> 0.32819773E-01</totfact>
</mgrwt>
</event>
<event>
 6    1  0.9988873E-007  0.2269000E+04  0.7818608E-02  0.8490245E-01
         -1   -1    0    0    0  501 -0.00000000000E+00  0.00000000000E+00  0.33983938228E+03  0.33983938228E+03  0.00000000000E+00 0.  1.
          1   -1    0    0  501    0  0.00000000000E+00 -0.00000000000E+00 -0.37873481569E+04  0.37873481569E+04  0.00000000000E+00 0. -1.
         23    2    1    2    0    0 -0.33903536095E+03 -0.52545502172E+02 -0.36900183682E+04  0.37070483851E+04  0.90918458486E+02 0.  0.
         11    1    3    3    0    0 -0.29767799931E+02 -0.26174890787E+01 -0.70573840878E+03  0.70637077713E+03  0.00000000000E+00 0. -1.
        -11    1    3    3    0    0 -0.30926756102E+03 -0.49928013094E+02 -0.29842799594E+04  0.30006776080E+04  0.00000000000E+00 0.  1.
         22    1    1    2    0    0  0.33903536095E+03  0.52545502172E+02  0.24250959361E+03  0.42013915405E+03  0.00000000000E+00 0.  1.
<mgrwt>
<rscale>  0 0.22689998E+04</rscale>
<asrwt>0</asrwt>
<pdfrwt beam="1">  1        1 0.58266896E+00 0.22689998E+04</pdfrwt>
<pdfrwt beam="2">  1       -1 0.52282981E-01 0.22689998E+04</pdfrwt>
<totfact> 0.48949494E-01</totfact>
</mgrwt>
</event>
<event>
 6    1  0.9988873E-007  0.5107958E+04  0.7818608E-02  0.7812066E-01
          2   -1    0    0  501    0  0.00000000000E+00  0.00000000000E+00  0.43503223059E+04  0.43503223059E+04  0.00000000000E+00 0. -1.
         -2   -1    0    0    0  501 -0.00000000000E+00 -0.00000000000E+00 -0.14993853309E+04  0.14993853309E+04  0.00000000000E+00 0.  1.
         23    2    1    2    0    0  0.16071996473E+04  0.10963319030E+04 -0.46833531794E+03  0.20022925431E+04  0.69304475477E+02 0.  0.
         13    1    3    3    0    0  0.30413426432E+03  0.23582058210E+03 -0.10765519747E+03  0.39962312148E+03  0.00000000000E+00 0.  1.
        -13    1    3    3    0    0  0.13030653830E+04  0.86051132092E+03 -0.36068012046E+03  0.16026694217E+04  0.00000000000E+00 0. -1.
         22    1    1    2    0    0 -0.16071996473E+04 -0.10963319030E+04  0.33192722929E+04  0.38474150936E+04  0.00000000000E+00 0. -1.
<mgrwt>
<rscale>  0 0.51079583E+04</rscale>
<asrwt>0</asrwt>
<pdfrwt beam="1">  1        2 0.66928035E+00 0.51079583E+04</pdfrwt>
<pdfrwt beam="2">  1       -2 0.23067467E+00 0.51079583E+04</pdfrwt>
<totfact> 0.10347816E-02</totfact>
</mgrwt>
</event>
<event>
 6    1  0.9988873E-007  0.6178429E+03  0.7818608E-02  0.9869064E-01
         -2   -1    0    0    0  501 -0.00000000000E+00  0.00000000000E+00  0.59635899796E+02  0.59635899796E+02  0.00000000000E+00 0.  1.
          2   -1    0    0  501    0  0.00000000000E+00 -0.00000000000E+00 -0.16002516764E+04  0.16002516764E+04  0.00000000000E+00 0. -1.
         23    2    1    2    0    0  0.72848102655E+01  0.27118323384E+03 -0.11449034467E+04  0.11801150647E+04  0.90962898055E+02 0.  0.
         11    1    3    3    0    0 -0.20853332243E+02  0.23931553969E+03 -0.10287912039E+04  0.10564649214E+04  0.00000000000E+00 0. -1.
        -11    1    3    3    0    0  0.28138142509E+02  0.31867694148E+02 -0.11611224282E+03  0.12365014326E+03  0.00000000000E+00 0.  1.
         22    1    1    2    0    0 -0.72848102655E+01 -0.27118323384E+03 -0.39571232990E+03  0.47977251152E+03  0.00000000000E+00 0.  1.
<mgrwt>
<rscale>  0 0.61784286E+03</rscale>
<asrwt>0</asrwt>
<pdfrwt beam="1">  1        2 0.24619254E+00 0.61784286E+03</pdfrwt>
<pdfrwt beam="2">  1       -2 0.91747547E-02 0.61784286E+03</pdfrwt>
<totfact> 0.89824278E+02</totfact>
</mgrwt>
</event>
<event>
 6    1  0.9988873E-007  0.1013825E+04  0.7818608E-02  0.9293511E-01
          2   -1    0    0  501    0  0.00000000000E+00  0.00000000000E+00  0.66614107818E+03  0.66614107818E+03  0.00000000000E+00 0. -1.
         -2   -1    0    0    0  501 -0.00000000000E+00 -0.00000000000E+00 -0.38574429407E+03  0.38574429407E+03  0.00000000000E+00 0.  1.
         23    2    1    2    0    0  0.17521224248E+03 -0.79366892489E+02  0.62329082088E+03  0.65872541246E+03  0.91811154477E+02 0.  0.
         11    1    3    3    0    0  0.54139034073E+02 -0.66593883322E+02  0.33422040217E+03  0.34506384559E+03  0.00000000000E+00 0.  1.
        -11    1    3    3    0    0  0.12107320841E+03 -0.12773009166E+02  0.28907041871E+03  0.31366156687E+03  0.00000000000E+00 0. -1.
         22    1    1    2    0    0 -0.17521224248E+03  0.79366892489E+02 -0.34289403676E+03  0.39315995979E+03  0.00000000000E+00 0.  1.
<mgrwt>
<rscale>  0 0.10138247E+04</rscale>
<asrwt>0</asrwt>
<pdfrwt beam="1">  1        2 0.10248324E+00 0.10138247E+04</pdfrwt>
<pdfrwt beam="2">  1       -2 0.59345276E-01 0.10138247E+04</pdfrwt>
<totfact> 0.11539264E+02</totfact>
</mgrwt>
</event>
<event>
 6    1  0.9988873E-007  0.2054233E+04  0.7818608E-02  0.8581676E-01
         -1   -1    0    0    0  501 -0.00000000000E+00  0.00000000000E+00  0.37581235713E+03  0.37581235713E+03  0.00000000000E+00 0.  1.
          1   -1    0    0  501    0  0.00000000000E+00 -0.00000000000E+00 -0.28071676917E+04  0.28071676917E+04  0.00000000000E+00 0. -1.
         23    2    1    2    0    0 -0.93479898151E+02 -0.97601880280E+03 -0.16806065809E+04  0.19480813137E+04  0.96078771735E+02 0.  0.
         13    1    3    3    0    0  0.17012146204E+02 -0.20633305871E+03 -0.38100178258E+03  0.43361861418E+03  0.00000000000E+00 0. -1.
        -13    1    3    3    0    0 -0.11049204435E+03 -0.76968574409E+03 -0.12996047983E+04  0.15144626996E+04  0.00000000000E+00 0.  1.
         22    1    1    2    0    0  0.93479898151E+02  0.97601880280E+03 -0.75074875365E+03  0.12348987351E+04  0.00000000000E+00 0.  1.
<mgrwt>
<rscale>  0 0.20542330E+04</rscale>
<asrwt>0</asrwt>
<pdfrwt beam="1">  1        1 0.43187196E+00 0.20542330E+04</pdfrwt>
<pdfrwt beam="2">  1       -1 0.57817285E-01 0.20542330E+04</pdfrwt>
<totfact> 0.23068469E+00</totfact>
</mgrwt>
</event>
<event>
 6    1  0.9988873E-007  0.3079623E+04  0.7818608E-02  0.8221353E-01
          2   -1    0    0  501    0  0.00000000000E+00  0.00000000000E+00  0.22723235090E+04  0.22723235090E+04  0.00000000000E+00 0. -1.
         -2   -1    0    0    0  501 -0.00000000000E+00 -0.00000000000E+00 -0.10434338246E+04  0.10434338246E+04  0.00000000000E+00 0.  1.
         23    2    1    2    0    0  0.11888360449E+04  0.68302716947E+03 -0.13635840413E+03  0.13808775959E+04  0.91498986986E+02 0.  0.
         13    1    3    3    0    0  0.66385292812E+03  0.37469816197E+03 -0.12108822621E+03  0.77185606254E+03  0.00000000000E+00 0. -1.
        -13    1    3    3    0    0  0.52498311679E+03  0.30832900750E+03 -0.15270177916E+02  0.60902153338E+03  0.00000000000E+00 0.  1.
         22    1    1    2    0    0 -0.11888360449E+04 -0.68302716947E+03  0.13652480886E+04  0.19348797377E+04  0.00000000000E+00 0. -1.
<mgrwt>
<rscale>  0 0.30796228E+04</rscale>
<asrwt>0</asrwt>
<pdfrwt beam="1">  1        2 0.34958823E+00 0.30796228E+04</pdfrwt>
<pdfrwt beam="2">  1       -2 0.16052828E+00 0.30796228E+04</pdfrwt>
<totfact> 0.99785701E-01</totfact>
</mgrwt>
</event>
<event>
 6    1  0.9988873E-007  0.1537041E+04  0.7818608E-02  0.8860188E-01
          2   -1    0    0  501    0  0.00000000000E+00  0.00000000000E+00  0.78375208149E+03  0.78375208149E+03  0.00000000000E+00 0. -1.
         -2   -1    0    0    0  501 -0.00000000000E+00 -0.00000000000E+00 -0.75358533047E+03  0.75358533047E+03  0.00000000000E+00 0.  1.
         23    2    1    2    0    0  0.44554287505E+03 -0.99280967108E+02 -0.59985010062E+03  0.75933587129E+03  0.91682377128E+02 0.  0.
         11    1    3    3    0    0  0.39169222135E+03 -0.57201569814E+02 -0.53116313684E+03  0.66244176634E+03  0.00000000000E+00 0. -1.
        -11    1    3    3    0    0  0.53850653700E+02 -0.42079397294E+02 -0.68686963781E+02  0.96894104949E+02  0.00000000000E+00 0.  1.
         22    1    1    2    0    0 -0.44554287505E+03  0.99280967108E+02  0.63001685164E+03  0.77800154067E+03  0.00000000000E+00 0. -1.
<mgrwt>
<rscale>  0 0.15370414E+04</rscale>
<asrwt>0</asrwt>
<pdfrwt beam="1">  1        2 0.12057724E+00 0.15370414E+04</pdfrwt>
<pdfrwt beam="2">  1       -2 0.11593620E+00 0.15370414E+04</pdfrwt>
<totfact> 0.19715521E+01</totfact>
</mgrwt>
</event>
<event>
 6    1  0.9988873E-007  0.3027135E+04  0.7818608E-02  0.8236024E-01
          2   -1    0    0  501    0  0.00000000000E+00  0.00000000000E+00  0.29990136618E+04  0.29990136618E+04  0.00000000000E+00 0. -1.
         -2   -1    0    0    0  501 -0.00000000000E+00 -0.00000000000E+00 -0.76388013771E+03  0.76388013771E+03  0.00000000000E+00 0.  1.
         23    2    1    2    0    0  0.12007553143E+04  0.69687690080E+03  0.18636875765E+04  0.23257358987E+04  0.90913961602E+02 0.  0.
         13    1    3    3    0    0  0.34211291930E+03  0.15245995324E+03  0.49185836113E+03  0.61823129515E+03  0.00000000000E+00 0.  1.
        -13    1    3    3    0    0  0.85864239498E+03  0.54441694756E+03  0.13718292153E+04  0.17075046036E+04  0.00000000000E+00 0. -1.
         22    1    1    2    0    0 -0.12007553143E+04 -0.69687690080E+03  0.37144594760E+03  0.14371579007E+04  0.00000000000E+00 0.  1.
<mgrwt>
<rscale>  0 0.30271353E+04</rscale>
<asrwt>0</asrwt>
<pdfrwt beam="1">  1        2 0.46138671E+00 0.30271353E+04</pdfrwt>
<pdfrwt beam="2">  1       -2 0.11752002E+00 0.30271353E+04</pdfrwt>
<totfact> 0.83222710E-01</totfact>
</mgrwt>
</event>
<event>
 6    1  0.9988873E-007  0.2911072E+03  0.7818608E-02  0.1089772E+00
          2   -1    0    0  501    0  0.00000000000E+00  0.00000000000E+00  0.15617357063E+04  0.15617357063E+04  0.00000000000E+00 0. -1.
         -2   -1    0    0    0  501 -0.00000000000E+00 -0.00000000000E+00 -0.13565579955E+02  0.13565579955E+02  0.00000000000E+00 0.  1.
         23    2    1    2    0    0  0.86614499230E+02  0.94777373785E+02  0.10764351131E+04  0.10864058529E+04  0.71276239942E+02 0.  0.
         11    1    3    3    0    0  0.62670281787E+02  0.96652789124E+02  0.71942887348E+03  0.72859263643E+03  0.00000000000E+00 0. -1.
        -11    1    3    3    0    0  0.23944217443E+02 -0.18754153389E+01  0.35700623967E+03  0.35781321649E+03  0.00000000000E+00 0.  1.
         22    1    1    2    0    0 -0.86614499230E+02 -0.94777373785E+02  0.47173501316E+03  0.48889543330E+03  0.00000000000E+00 0.  1.
<mgrwt>
<rscale>  0 0.29110720E+03</rscale>
<asrwt>0</asrwt>
<pdfrwt beam="1">  1        2 0.24026689E+00 0.29110720E+03</pdfrwt>
<pdfrwt beam="2">  1       -2 0.20870135E-02 0.29110720E+03</pdfrwt>
<totfact> 0.91916358E+03</totfact>
</mgrwt>
</event>
<event>
 6    1  0.9988873E-007  0.2591779E+04  0.7818608E-02  0.8370999E-01
          2   -1    0    0  501    0  0.00000000000E+00  0.00000000000E+00  0.39627461373E+04  0.39627461373E+04  0.00000000000E+00 0. -1.
         -2   -1    0    0    0  501 -0.00000000000E+00 -0.00000000000E+00 -0.42377920808E+03  0.42377920808E+03  0.00000000000E+00 0.  1.
         23    2    1    2    0    0  0.11848358546E+04  0.22139212212E+03  0.25696826598E+04  0.28397989736E+04  0.91316837059E+02 0.  0.
         13    1    3    3    0    0  0.45002172078E+03  0.49988294858E+02  0.10322094108E+04  0.11271533376E+04  0.00000000000E+00 0.  1.
        -13    1    3    3    0    0  0.73481413379E+03  0.17140382726E+03  0.15374732490E+04  0.17126456360E+04  0.00000000000E+00 0. -1.
         22    1    1    2    0    0 -0.11848358546E+04 -0.22139212212E+03  0.96928426942E+03  0.15467263717E+04  0.00000000000E+00 0.  1.
<mgrwt>
<rscale>  0 0.25917789E+04</rscale>
<asrwt>0</asrwt>
<pdfrwt beam="1">  1        2 0.60965323E+00 0.25917789E+04</pdfrwt>
<pdfrwt beam="2">  1       -2 0.65196804E-01 0.25917789E+04</pdfrwt>
<totfact> 0.70546783E-01</totfact>
</mgrwt>
</event>
<event>
 6    1  0.9988873E-007  0.2220053E+04  0.7818608E-02  0.8510128E-01
          2   -1    0    0  501    0  0.00000000000E+00  0.00000000000E+00  0.62690985195E+03  0.62690985195E+03  0.00000000000E+00 0. -1.
         -2   -1    0    0    0  501 -0.00000000000E+00 -0.00000000000E+00 -0.19654477908E+04  0.19654477908E+04  0.00000000000E+00 0.  1.
         23    2    1    2    0    0 -0.87606438479E+02  0.10150689885E+04 -0.16109837474E+03  0.10353079112E+04  0.88712148012E+02 0.  0.
         11    1    3    3    0    0 -0.55509693827E+02  0.59662621186E+03 -0.50616872008E+02  0.60133703571E+03  0.00000000000E+00 0. -1.
        -11    1    3    3    0    0 -0.32096744652E+02  0.41844277662E+03 -0.11048150273E+03  0.43397087548E+03  0.00000000000E+00 0.  1.
         22    1    1    2    0    0  0.87606438479E+02 -0.10150689885E+04 -0.11774395642E+04  0.15570497316E+04  0.00000000000E+00 0.  1.
<mgrwt>
<rscale>  0 0.22200528E+04</rscale>
<asrwt>0</asrwt>
<pdfrwt beam="1">  1        2 0.96447671E-01 0.22200528E+04</pdfrwt>
<pdfrwt beam="2">  1       -2 0.30237658E+00 0.22200528E+04</pdfrwt>
<totfact> 0.13193372E+00</totfact>
</mgrwt>
</event>
<event>
 6    1  0.9988873E-007  0.1101904E+04  0.7818608E-02  0.9203338E-01
         -1   -1    0    0    0  501 -0.00000000000E+00  0.00000000000E+00  0.19362821406E+03  0.19362821406E+03  0.00000000000E+00 0.  1.
          1   -1    0    0  501    0  0.00000000000E+00 -0.00000000000E+00 -0.15676846109E+04  0.15676846109E+04  0.00000000000E+00 0. -1.
         23    2    1    2    0    0  0.60381771301E+02  0.27849945075E+03  0.54701292386E+02  0.30441322757E+03  0.92017820851E+02 0.  0.
         11    1    3    3    0    0  0.31502607265E+02  0.15600734413E+03  0.76668500968E+02  0.17666002584E+03  0.00000000000E+00 0.  1.
        -11    1    3    3    0    0  0.28879164036E+02  0.12249210662E+03 -0.21967208581E+02  0.12775320173E+03  0.00000000000E+00 0. -1.
         22    1    1    2    0    0 -0.60381771301E+02 -0.27849945075E+03 -0.14287576892E+04  0.14568995974E+04  0.00000000000E+00 0. -1.
<mgrwt>
<rscale>  0 0.11019038E+04</rscale>
<asrwt>0</asrwt>
<pdfrwt beam="1">  1        1 0.24118225E+00 0.11019038E+04</pdfrwt>
<pdfrwt beam="2">  1       -1 0.29788956E-01 0.11019038E+04</pdfrwt>
<totfact> 0.60458108E+01</totfact>
</mgrwt>
</event>
<event>
 6    1  0.9988873E-007  0.6740903E+03  0.7818608E-02  0.9762597E-01
         -1   -1    0    0    0  501 -0.00000000000E+00  0.00000000000E+00  0.19288123440E+03  0.19288123440E+03  0.00000000000E+00 0.  1.
          1   -1    0    0  501    0  0.00000000000E+00 -0.00000000000E+00 -0.58896044002E+03  0.58896044002E+03  0.00000000000E+00 0. -1.
         23    2    1    2    0    0 -0.25120148934E+03 -0.21428331039E+03 -0.22687493546E+03  0.41083007028E+03  0.91047157814E+02 0.  0.
         11    1    3    3    0    0 -0.14343850843E+03 -0.80192121134E+02 -0.72211586180E+02  0.17949901162E+03  0.00000000000E+00 0. -1.
        -11    1    3    3    0    0 -0.10776298091E+03 -0.13409118926E+03 -0.15466334928E+03  0.23133105866E+03  0.00000000000E+00 0.  1.
         22    1    1    2    0    0  0.25120148934E+03  0.21428331039E+03 -0.16920427016E+03  0.37101160414E+03  0.00000000000E+00 0.  1.
<mgrwt>
<rscale>  0 0.67409025E+03</rscale>
<asrwt>0</asrwt>
<pdfrwt beam="1">  1        1 0.90609297E-01 0.67409025E+03</pdfrwt>
<pdfrwt beam="2">  1       -1 0.29674036E-01 0.67409025E+03</pdfrwt>
<totfact> 0.37009191E+02</totfact>
</mgrwt>
</event>
<event>
 6    1  0.9988873E-007  0.1932682E+04  0.7818608E-02  0.8638758E-01
          2   -1    0    0  501    0  0.00000000000E+00  0.00000000000E+00  0.19129830401E+04  0.19129830401E+04  0.00000000000E+00 0. -1.
         -2   -1    0    0    0  501 -0.00000000000E+00 -0.00000000000E+00 -0.48814573444E+03  0.48814573444E+03  0.00000000000E+00 0.  1.
         23    2    1    2    0    0  0.73969636029E+03  0.39082305436E+03  0.13087311604E+04  0.15565140682E+04  0.10032661082E+03 0.  0.
         11    1    3    3    0    0  0.53472645085E+03  0.32096468781E+03  0.91841989185E+03  0.11101557575E+04  0.00000000000E+00 0. -1.
        -11    1    3    3    0    0  0.20496990945E+03  0.69858366553E+02  0.39031126858E+03  0.44635831071E+03  0.00000000000E+00 0.  1.
         22    1    1    2    0    0 -0.73969636029E+03 -0.39082305436E+03  0.11610614522E+03  0.84461470637E+03  0.00000000000E+00 0.  1.
<mgrwt>
<rscale>  0 0.19326816E+04</rscale>
<asrwt>0</asrwt>
<pdfrwt beam="1">  1        2 0.29430508E+00 0.19326816E+04</pdfrwt>
<pdfrwt beam="2">  1       -2 0.75099345E-01 0.19326816E+04</pdfrwt>
<totfact> 0.11106226E+01</totfact>
</mgrwt>
</event>
<event>
 6    1  0.9988873E-007  0.2250651E+04  0.7818608E-02  0.8497637E-01
          1   -1    0    0  501    0  0.00000000000E+00  0.00000000000E+00  0.49249573418E+03  0.49249573418E+03  0.00000000000E+00 0. -1.
         -1   -1    0    0    0  501 -0.00000000000E+00 -0.00000000000E+00 -0.25713074743E+04  0.25713074743E+04  0.00000000000E+00 0.  1.
         23    2    1    2    0    0 -0.32797485963E+03  0.17094869184E+02 -0.25036840720E+04  0.25267964660E+04  0.91688086131E+02 0.  0.
         13    1    3    3    0    0 -0.18892958058E+03  0.52366131128E+02 -0.15601888766E+04  0.15724585618E+04  0.00000000000E+00 0. -1.
        -13    1    3    3    0    0 -0.13904527905E+03 -0.35271261944E+02 -0.94349519542E+03  0.95433790417E+03  0.00000000000E+00 0.  1.
         22    1    1    2    0    0  0.32797485963E+03 -0.17094869184E+02  0.42487233186E+03  0.53700674249E+03  0.00000000000E+00 0. -1.
<mgrwt>
<rscale>  0 0.22506514E+04</rscale>
<asrwt>0</asrwt>
<pdfrwt beam="1">  1        1 0.75768577E-01 0.22506514E+04</pdfrwt>
<pdfrwt beam="2">  1       -1 0.39558575E+00 0.22506514E+04</pdfrwt>
<totfact> 0.31526335E-01</totfact>
</mgrwt>
</event>
<event>
 6    1  0.9988873E-007  0.3668743E+04  0.7818608E-02  0.8074924E-01
          2   -1    0    0  501    0  0.00000000000E+00  0.00000000000E+00  0.24037742058E+04  0.24037742058E+04  0.00000000000E+00 0. -1.
         -2   -1    0    0    0  501 -0.00000000000E+00 -0.00000000000E+00 -0.13998480293E+04  0.13998480293E+04  0.00000000000E+00 0.  1.
         23    2    1    2    0    0 -0.10557499185E+04 -0.14787407565E+04  0.24936138957E+03  0.18362254442E+04  0.90888195489E+02 0.  0.
         11    1    3    3    0    0 -0.56905988418E+03 -0.76757219022E+03  0.17351785682E+03  0.97113576065E+03  0.00000000000E+00 0. -1.
        -11    1    3    3    0    0 -0.48669003429E+03 -0.71116856628E+03  0.75843532753E+02  0.86508968356E+03  0.00000000000E+00 0.  1.
         22    1    1    2    0    0  0.10557499185E+04  0.14787407565E+04  0.75456478683E+03  0.19673967909E+04  0.00000000000E+00 0. -1.
<mgrwt>
<rscale>  0 0.36687429E+04</rscale>
<asrwt>0</asrwt>
<pdfrwt beam="1">  1        2 0.36981142E+00 0.36687429E+04</pdfrwt>
<pdfrwt beam="2">  1       -2 0.21536123E+00 0.36687429E+04</pdfrwt>
<totfact> 0.33914731E-01</totfact>
</mgrwt>
</event>
<event>
 6    1  0.9988873E-007  0.3353677E+04  0.7818608E-02  0.8149370E-01
         -2   -1    0    0    0  501 -0.00000000000E+00  0.00000000000E+00  0.66703444975E+03  0.66703444975E+03  0.00000000000E+00 0.  1.
          2   -1    0    0  501    0  0.00000000000E+00 -0.00000000000E+00 -0.42153561845E+04  0.42153561845E+04  0.00000000000E+00 0. -1.
         23    2    1    2    0    0 -0.15292349788E+03 -0.10857465821E+04 -0.36202974106E+04  0.37835677484E+04  0.81242404905E+02 0.  0.
         11    1    3    3    0    0 -0.40949409511E+02 -0.13463759738E+03 -0.52211971278E+03  0.54075237516E+03  0.00000000000E+00 0.  1.
        -11    1    3    3    0    0 -0.11197408837E+03 -0.95110898470E+03 -0.30981776979E+04  0.32428153732E+04  0.00000000000E+00 0. -1.
         22    1    1    2    0    0  0.15292349788E+03  0.10857465821E+04  0.71975675853E+02  0.10988228859E+04  0.00000000000E+00 0.  1.
<mgrwt>
<rscale>  0 0.33536773E+04</rscale>
<asrwt>0</asrwt>
<pdfrwt beam="1">  1        2 0.64851634E+00 0.33536773E+04</pdfrwt>
<pdfrwt beam="2">  1       -2 0.10262068E+00 0.33536773E+04</pdfrwt>
<totfact> 0.14520496E-01</totfact>
</mgrwt>
</event>
<event>
 6    1  0.9988873E-007  0.5757048E+03  0.7818608E-02  0.9957134E-01
          4   -1    0    0  501    0  0.00000000000E+00  0.00000000000E+00  0.23110260507E+03  0.23110260507E+03  0.00000000000E+00 0. -1.
         -4   -1    0    0    0  501 -0.00000000000E+00 -0.00000000000E+00 -0.35853772682E+03  0.35853772682E+03  0.00000000000E+00 0.  1.
         23    2    1    2    0    0  0.11895424958E+03 -0.13486934768E+03 -0.28583389422E+03  0.34999470694E+03  0.91953386933E+02 0.  0.
         13    1    3    3    0    0  0.59365097004E+02 -0.55918900142E+01 -0.84744689912E+02  0.10362020288E+03  0.00000000000E+00 0.  1.
        -13    1    3    3    0    0  0.59589152573E+02 -0.12927745767E+03 -0.20108920431E+03  0.24637450406E+03  0.00000000000E+00 0. -1.
         22    1    1    2    0    0 -0.11895424958E+03  0.13486934768E+03  0.15839877247E+03  0.23964562495E+03  0.00000000000E+00 0. -1.
<mgrwt>
<rscale>  0 0.57570479E+03</rscale>
<asrwt>0</asrwt>
<pdfrwt beam="1">  1        4 0.35554247E-01 0.57570479E+03</pdfrwt>
<pdfrwt beam="2">  1       -4 0.55159650E-01 0.57570479E+03</pdfrwt>
<totfact> 0.47600362E+01</totfact>
</mgrwt>
</event>
<event>
 6    1  0.9988873E-007  0.9272067E+03  0.7818608E-02  0.9392196E-01
          1   -1    0    0  501    0  0.00000000000E+00  0.00000000000E+00  0.11234954859E+04  0.11234954859E+04  0.00000000000E+00 0. -1.
         -1   -1    0    0    0  501 -0.00000000000E+00 -0.00000000000E+00 -0.19130301502E+03  0.19130301502E+03  0.00000000000E+00 0.  1.
         23    2    1    2    0    0 -0.43075266929E+03  0.34003893765E+01  0.69577767479E+03  0.82342147605E+03  0.91416244375E+02 0.  0.
         13    1    3    3    0    0 -0.34380562668E+03  0.32030725580E+02  0.50426166321E+03  0.61115309154E+03  0.00000000000E+00 0. -1.
        -13    1    3    3    0    0 -0.86947042606E+02 -0.28630336203E+02  0.19151601158E+03  0.21226838451E+03  0.00000000000E+00 0.  1.
         22    1    1    2    0    0  0.43075266929E+03 -0.34003893765E+01  0.23641479606E+03  0.49137702484E+03  0.00000000000E+00 0. -1.
<mgrwt>
<rscale>  0 0.92720672E+03</rscale>
<asrwt>0</asrwt>
<pdfrwt beam="1">  1        1 0.17284546E+00 0.92720672E+03</pdfrwt>
<pdfrwt beam="2">  1       -1 0.29431234E-01 0.92720672E+03</pdfrwt>
<totfact> 0.12912303E+02</totfact>
</mgrwt>
</event>
<event>
 6    1  0.9988873E-007  0.3587517E+04  0.7818608E-02  0.8093357E-01
         -1   -1    0    0    0  501 -0.00000000000E+00  0.00000000000E+00  0.17483883039E+04  0.17483883039E+04  0.00000000000E+00 0.  1.
          1   -1    0    0  501    0  0.00000000000E+00 -0.00000000000E+00 -0.18403061491E+04  0.18403061491E+04  0.00000000000E+00 0. -1.
         23    2    1    2    0    0  0.67556063119E+03  0.13286324208E+04 -0.10421896786E+04  0.18210228677E+04  0.91206813495E+02 0.  0.
         13    1    3    3    0    0  0.20059147976E+03  0.47065369405E+03 -0.38939213330E+03  0.64294484596E+03  0.00000000000E+00 0. -1.
        -13    1    3    3    0    0  0.47496915143E+03  0.85797872672E+03 -0.65279754526E+03  0.11780780218E+04  0.00000000000E+00 0.  1.
         22    1    1    2    0    0 -0.67556063119E+03 -0.13286324208E+04  0.95027183336E+03  0.17676715852E+04  0.00000000000E+00 0.  1.
<mgrwt>
<rscale>  0 0.35875171E+04</rscale>
<asrwt>0</asrwt>
<pdfrwt beam="1">  1        1 0.28312402E+00 0.35875171E+04</pdfrwt>
<pdfrwt beam="2">  1       -1 0.26898281E+00 0.35875171E+04</pdfrwt>
<totfact> 0.16251564E-01</totfact>
</mgrwt>
</event>
<event>
 6    1  0.9988873E-007  0.2104453E+04  0.7818608E-02  0.8559284E-01
          2   -1    0    0  501    0  0.00000000000E+00  0.00000000000E+00  0.32290637313E+04  0.32290637313E+04  0.00000000000E+00 0. -1.
         -2   -1    0    0    0  501 -0.00000000000E+00 -0.00000000000E+00 -0.34287984647E+03  0.34287984647E+03  0.00000000000E+00 0.  1.
         23    2    1    2    0    0  0.43337662875E+03 -0.89549920925E+03  0.87441286372E+03  0.13276270276E+04  0.90892969984E+02 0.  0.
         11    1    3    3    0    0  0.40324125663E+03 -0.86442922127E+03  0.85161611479E+03  0.12787069237E+04  0.00000000000E+00 0. -1.
        -11    1    3    3    0    0  0.30135372118E+02 -0.31069987987E+02  0.22796748937E+02  0.48920103928E+02  0.00000000000E+00 0.  1.
         22    1    1    2    0    0 -0.43337662875E+03  0.89549920925E+03  0.20117710211E+04  0.22443165502E+04  0.00000000000E+00 0. -1.
<mgrwt>
<rscale>  0 0.21044533E+04</rscale>
<asrwt>0</asrwt>
<pdfrwt beam="1">  1        2 0.49677901E+00 0.21044533E+04</pdfrwt>
<pdfrwt beam="2">  1       -2 0.52750748E-01 0.21044533E+04</pdfrwt>
<totfact> 0.38870952E+00</totfact>
</mgrwt>
</event>
<event>
 6    1  0.9988873E-007  0.1533547E+04  0.7818608E-02  0.8862446E-01
          2   -1    0    0  501    0  0.00000000000E+00  0.00000000000E+00  0.16434920175E+04  0.16434920175E+04  0.00000000000E+00 0. -1.
         -2   -1    0    0    0  501 -0.00000000000E+00 -0.00000000000E+00 -0.35773903029E+03  0.35773903029E+03  0.00000000000E+00 0.  1.
         23    2    1    2    0    0 -0.76911717446E+02 -0.21892636010E+03  0.15953740014E+04  0.16143081409E+04  0.83237046946E+02 0.  0.
         13    1    3    3    0    0 -0.25670714237E+02 -0.11164830180E+03  0.10437384026E+04  0.10500067533E+04  0.00000000000E+00 0. -1.
        -13    1    3    3    0    0 -0.51241003209E+02 -0.10727805830E+03  0.55163559876E+03  0.56430138758E+03  0.00000000000E+00 0.  1.
         22    1    1    2    0    0  0.76911717446E+02  0.21892636010E+03 -0.30962101421E+03  0.38692290688E+03  0.00000000000E+00 0.  1.
<mgrwt>
<rscale>  0 0.15335465E+04</rscale>
<asrwt>0</asrwt>
<pdfrwt beam="1">  1        2 0.25284492E+00 0.15335465E+04</pdfrwt>
<pdfrwt beam="2">  1       -2 0.55036775E-01 0.15335465E+04</pdfrwt>
<totfact> 0.31546614E+01</totfact>
</mgrwt>
</event>
<event>
 6    1  0.1403920E-006  0.4862784E+04  0.7818608E-02  0.7850030E-01
          1   -1    0    0  501    0  0.00000000000E+00  0.00000000000E+00  0.23756947725E+04  0.23756947725E+04  0.00000000000E+00 0. -1.
         -1   -1    0    0    0  501 -0.00000000000E+00 -0.00000000000E+00 -0.24883951426E+04  0.24883951426E+04  0.00000000000E+00 0.  1.
         23    2    1    2    0    0 -0.23735487581E+04 -0.44738244789E+03  0.21500818235E+03  0.24266162932E+04  0.91396686793E+02 0.  0.
         13    1    3    3    0    0 -0.17071151993E+04 -0.31715928215E+03  0.11349069593E+03  0.17400323135E+04  0.00000000000E+00 0. -1.
        -13    1    3    3    0    0 -0.66643355883E+03 -0.13022316574E+03  0.10151748642E+03  0.68658397977E+03  0.00000000000E+00 0.  1.
         22    1    1    2    0    0  0.23735487581E+04  0.44738244789E+03 -0.32770855249E+03  0.24374736218E+04  0.00000000000E+00 0.  1.
<mgrwt>
<rscale>  0 0.48627841E+04</rscale>
<asrwt>0</asrwt>
<pdfrwt beam="1">  1        1 0.36549151E+00 0.48627841E+04</pdfrwt>
<pdfrwt beam="2">  1       -1 0.38283002E+00 0.48627841E+04</pdfrwt>
<totfact> 0.11283818E-02</totfact>
</mgrwt>
</event>
<event>
 6    1  0.9988873E-007  0.3373161E+04  0.7818608E-02  0.8144525E-01
         -2   -1    0    0    0  501 -0.00000000000E+00  0.00000000000E+00  0.81236577945E+03  0.81236577945E+03  0.00000000000E+00 0.  1.
          2   -1    0    0  501    0  0.00000000000E+00 -0.00000000000E+00 -0.35015672645E+04  0.35015672645E+04  0.00000000000E+00 0. -1.
         23    2    1    2    0    0  0.54252277117E+03  0.38446922725E+03  0.63491065565E+03  0.92396710491E+03  0.91957198546E+02 0.  0.
         13    1    3    3    0    0  0.36806768554E+03  0.22036890038E+03  0.44691095056E+03  0.61948823324E+03  0.00000000000E+00 0.  1.
        -13    1    3    3    0    0  0.17445508563E+03  0.16410032687E+03  0.18799970508E+03  0.30447887167E+03  0.00000000000E+00 0. -1.
         22    1    1    2    0    0 -0.54252277117E+03 -0.38446922725E+03 -0.33241121407E+04  0.33899659391E+04  0.00000000000E+00 0. -1.
<mgrwt>
<rscale>  0 0.33731608E+04</rscale>
<asrwt>0</asrwt>
<pdfrwt beam="1">  1        2 0.53870266E+00 0.33731608E+04</pdfrwt>
<pdfrwt beam="2">  1       -2 0.12497935E+00 0.33731608E+04</pdfrwt>
<totfact> 0.32246914E-01</totfact>
</mgrwt>
</event>
<event>
 6    1  0.9988873E-007  0.1023666E+04  0.7818608E-02  0.9282962E-01
         -2   -1    0    0    0  501 -0.00000000000E+00  0.00000000000E+00  0.43952402154E+03  0.43952402154E+03  0.00000000000E+00 0.  1.
          2   -1    0    0  501    0  0.00000000000E+00 -0.00000000000E+00 -0.59603853683E+03  0.59603853683E+03  0.00000000000E+00 0. -1.
         23    2    1    2    0    0  0.66388880488E+02  0.46282403458E+03 -0.27994984970E+03  0.55198231455E+03  0.87743870399E+02 0.  0.
         11    1    3    3    0    0  0.78174753117E+02  0.24557474598E+03 -0.16356292341E+03  0.30523937787E+03  0.00000000000E+00 0.  1.
        -11    1    3    3    0    0 -0.11785872629E+02  0.21724928859E+03 -0.11638692629E+03  0.24674293668E+03  0.00000000000E+00 0. -1.
         22    1    1    2    0    0 -0.66388880488E+02 -0.46282403458E+03  0.12343533442E+03  0.48358024382E+03  0.00000000000E+00 0. -1.
<mgrwt>
<rscale>  0 0.10236665E+04</rscale>
<asrwt>0</asrwt>
<pdfrwt beam="1">  1        2 0.91698236E-01 0.10236665E+04</pdfrwt>
<pdfrwt beam="2">  1       -2 0.67619081E-01 0.10236665E+04</pdfrwt>
<totfact> 0.10000146E+02</totfact>
</mgrwt>
</event>
<event>
 6    1  0.9988873E-007  0.3767228E+04  0.7818608E-02  0.8053224E-01
          2   -1    0    0  501    0  0.00000000000E+00  0.00000000000E+00  0.38876291753E+04  0.38876291753E+04  0.00000000000E+00 0. -1.
         -2   -1    0    0    0  501 -0.00000000000E+00 -0.00000000000E+00 -0.91263881777E+03  0.91263881777E+03  0.00000000000E+00 0.  1.
         23    2    1    2    0    0 -0.18622310881E+04 -0.86565738627E+02  0.11547844543E+04  0.21947838187E+04  0.90280797533E+02 0.  0.
         11    1    3    3    0    0 -0.96626032973E+03 -0.85287535592E+02  0.57653657250E+03  0.11284180998E+04  0.00000000000E+00 0. -1.
        -11    1    3    3    0    0 -0.89597075837E+03 -0.12782030350E+01  0.57824788180E+03  0.10663657189E+04  0.00000000000E+00 0.  1.
         22    1    1    2    0    0  0.18622310881E+04  0.86565738627E+02  0.18202059032E+04  0.26054841743E+04  0.00000000000E+00 0. -1.
<mgrwt>
<rscale>  0 0.37672278E+04</rscale>
<asrwt>0</asrwt>
<pdfrwt beam="1">  1        2 0.59809679E+00 0.37672278E+04</pdfrwt>
<pdfrwt beam="2">  1       -2 0.14040597E+00 0.37672278E+04</pdfrwt>
<totfact> 0.12011615E-01</totfact>
</mgrwt>
</event>
<event>
 6    1  0.9988873E-007  0.1224953E+04  0.7818608E-02  0.9091292E-01
         -2   -1    0    0    0  501 -0.00000000000E+00  0.00000000000E+00  0.16938801720E+03  0.16938801720E+03  0.00000000000E+00 0.  1.
          2   -1    0    0  501    0  0.00000000000E+00 -0.00000000000E+00 -0.22146033371E+04  0.22146033371E+04  0.00000000000E+00 0. -1.
         23    2    1    2    0    0 -0.25305706761E+03 -0.27759730677E+03 -0.95223908742E+02  0.39815031138E+03  0.91421734067E+02 0.  0.
         11    1    3    3    0    0 -0.23809951065E+03 -0.25438495653E+03 -0.11181995691E+03  0.36593276137E+03  0.00000000000E+00 0.  1.
        -11    1    3    3    0    0 -0.14957556967E+02 -0.23212350237E+02  0.16596048165E+02  0.32217550010E+02  0.00000000000E+00 0. -1.
         22    1    1    2    0    0  0.25305706761E+03  0.27759730677E+03 -0.19499914111E+04  0.19858410429E+04  0.00000000000E+00 0. -1.
<mgrwt>
<rscale>  0 0.12249527E+04</rscale>
<asrwt>0</asrwt>
<pdfrwt beam="1">  1        2 0.34070818E+00 0.12249527E+04</pdfrwt>
<pdfrwt beam="2">  1       -2 0.26059697E-01 0.12249527E+04</pdfrwt>
<totfact> 0.66585408E+01</totfact>
</mgrwt>
</event>
<event>
 6    1  0.9988873E-007  0.1991166E+04  0.7818608E-02  0.8610762E-01
          1   -1    0    0  501    0  0.00000000000E+00  0.00000000000E+00  0.31120213841E+03  0.31120213841E+03  0.00000000000E+00 0. -1.
         -1   -1    0    0    0  501 -0.00000000000E+00 -0.00000000000E+00 -0.31850222559E+04  0.31850222559E+04  0.00000000000E+00 0.  1.
         23    2    1    2    0    0  0.86791515600E+03  0.48200132196E+03 -0.13744091911E+04  0.16979376768E+04  0.91595508619E+02 0.  0.
         11    1    3    3    0    0  0.47138060916E+03  0.21340692780E+03 -0.74349799279E+03  0.90583191642E+03  0.00000000000E+00 0.  1.
        -11    1    3    3    0    0  0.39653454684E+03  0.26859439416E+03 -0.63091119835E+03  0.79210576037E+03  0.00000000000E+00 0. -1.
         22    1    1    2    0    0 -0.86791515600E+03 -0.48200132196E+03 -0.14994109264E+04  0.17982867176E+04  0.00000000000E+00 0.  1.
<mgrwt>
<rscale>  0 0.19911662E+04</rscale>
<asrwt>0</asrwt>
<pdfrwt beam="1">  1        1 0.47877247E-01 0.19911662E+04</pdfrwt>
<pdfrwt beam="2">  1       -1 0.49000348E+00 0.19911662E+04</pdfrwt>
<totfact> 0.13401638E-01</totfact>
</mgrwt>
</event>
<event>
 6    1  0.9988873E-007  0.1362663E+04  0.7818608E-02  0.8981297E-01
          1   -1    0    0  501    0  0.00000000000E+00  0.00000000000E+00  0.55517552291E+03  0.55517552291E+03  0.00000000000E+00 0. -1.
         -1   -1    0    0    0  501 -0.00000000000E+00 -0.00000000000E+00 -0.83615490789E+03  0.83615490789E+03  0.00000000000E+00 0.  1.
         23    2    1    2    0    0 -0.27869910847E+03  0.56812122445E+03  0.10875212395E+03  0.64814433850E+03  0.88482429561E+02 0.  0.
         11    1    3    3    0    0 -0.12756269224E+03  0.32011043176E+03  0.94720262648E+02  0.35737215495E+03  0.00000000000E+00 0. -1.
        -11    1    3    3    0    0 -0.15113641623E+03  0.24801079269E+03  0.14031861298E+02  0.29077218356E+03  0.00000000000E+00 0.  1.
         22    1    1    2    0    0  0.27869910847E+03 -0.56812122445E+03 -0.38973150893E+03  0.74318609230E+03  0.00000000000E+00 0.  1.
<mgrwt>
<rscale>  0 0.13626632E+04</rscale>
<asrwt>0</asrwt>
<pdfrwt beam="1">  1        1 0.85411619E-01 0.13626632E+04</pdfrwt>
<pdfrwt beam="2">  1       -1 0.12863922E+00 0.13626632E+04</pdfrwt>
<totfact> 0.19500588E+01</totfact>
</mgrwt>
</event>
<event>
 6    1  0.9988873E-007  0.1581411E+04  0.7818608E-02  0.8832050E-01
         -2   -1    0    0    0  501 -0.00000000000E+00  0.00000000000E+00  0.67378832596E+03  0.67378832596E+03  0.00000000000E+00 0.  1.
          2   -1    0    0  501    0  0.00000000000E+00 -0.00000000000E+00 -0.92791039335E+03  0.92791039335E+03  0.00000000000E+00 0. -1.
         23    2    1    2    0    0  0.46690566591E+03  0.30627524449E+03  0.43631210883E+03  0.71372080407E+03  0.84992373808E+02 0.  0.
         11    1    3    3    0    0  0.89323438806E+02  0.25717676689E+02  0.53611385340E+02  0.10730450248E+03  0.00000000000E+00 0. -1.
        -11    1    3    3    0    0  0.37758222710E+03  0.28055756780E+03  0.38270072349E+03  0.60641630159E+03  0.00000000000E+00 0.  1.
         22    1    1    2    0    0 -0.46690566591E+03 -0.30627524449E+03 -0.69043417622E+03  0.88797791523E+03  0.00000000000E+00 0. -1.
<mgrwt>
<rscale>  0 0.15814110E+04</rscale>
<asrwt>0</asrwt>
<pdfrwt beam="1">  1        2 0.14275545E+00 0.15814110E+04</pdfrwt>
<pdfrwt beam="2">  1       -2 0.10365974E+00 0.15814110E+04</pdfrwt>
<totfact> 0.20446663E+01</totfact>
</mgrwt>
</event>
<event>
 6    1  0.9988873E-007  0.2422536E+04  0.7818608E-02  0.8431114E-01
          1   -1    0    0  501    0  0.00000000000E+00  0.00000000000E+00  0.21974109425E+04  0.21974109425E+04  0.00000000000E+00 0. -1.
         -1   -1    0    0    0  501 -0.00000000000E+00 -0.00000000000E+00 -0.66768135534E+03  0.66768135534E+03  0.00000000000E+00 0.  1.
         23    2    1    2    0    0  0.60938402627E+02  0.37120005294E+03 -0.59370046498E+03  0.70860020313E+03  0.90172265971E+02 0.  0.
         13    1    3    3    0    0  0.48040905777E+02  0.36294734762E+03 -0.53743475672E+03  0.65028826186E+03  0.00000000000E+00 0. -1.
        -13    1    3    3    0    0  0.12897496850E+02  0.82527053128E+01 -0.56265708254E+02  0.58311941275E+02  0.00000000000E+00 0.  1.
         22    1    1    2    0    0 -0.60938402627E+02 -0.37120005294E+03  0.21234300522E+04  0.21564920947E+04  0.00000000000E+00 0. -1.
<mgrwt>
<rscale>  0 0.24225361E+04</rscale>
<asrwt>0</asrwt>
<pdfrwt beam="1">  1        1 0.33806322E+00 0.24225361E+04</pdfrwt>
<pdfrwt beam="2">  1       -1 0.10272021E+00 0.24225361E+04</pdfrwt>
<totfact> 0.17523340E+00</totfact>
</mgrwt>
</event>
<event>
 6    1  0.1088487E-006  0.2567188E+04  0.7818608E-02  0.8379433E-01
         -1   -1    0    0    0  501 -0.00000000000E+00  0.00000000000E+00  0.91899558522E+03  0.91899558522E+03  0.00000000000E+00 0.  1.
          1   -1    0    0  501    0  0.00000000000E+00 -0.00000000000E+00 -0.17928422233E+04  0.17928422233E+04  0.00000000000E+00 0. -1.
         23    2    1    2    0    0  0.63631094430E+03 -0.41233694209E+03 -0.15294443400E+04  0.17094797295E+04  0.90595721156E+02 0.  0.
         13    1    3    3    0    0  0.37013357907E+03 -0.22998368461E+03 -0.77866916220E+03  0.89230993814E+03  0.00000000000E+00 0.  1.
        -13    1    3    3    0    0  0.26617736523E+03 -0.18235325748E+03 -0.75077517784E+03  0.81716979137E+03  0.00000000000E+00 0. -1.
         22    1    1    2    0    0 -0.63631094430E+03  0.41233694209E+03  0.65559770199E+03  0.10023580790E+04  0.00000000000E+00 0.  1.
<mgrwt>
<rscale>  0 0.25671884E+04</rscale>
<asrwt>0</asrwt>
<pdfrwt beam="1">  1        1 0.27582188E+00 0.25671884E+04</pdfrwt>
<pdfrwt beam="2">  1       -1 0.14138394E+00 0.25671884E+04</pdfrwt>
<totfact> 0.14863430E+00</totfact>
</mgrwt>
</event>
<event>
 6    1  0.9988873E-007  0.1566855E+04  0.7818608E-02  0.8841173E-01
         -2   -1    0    0    0  501 -0.00000000000E+00  0.00000000000E+00  0.24432861639E+03  0.24432861639E+03  0.00000000000E+00 0.  1.
          2   -1    0    0  501    0  0.00000000000E+00 -0.00000000000E+00 -0.25120216371E+04  0.25120216371E+04  0.00000000000E+00 0. -1.
         23    2    1    2    0    0  0.77871966665E+03 -0.16836698961E+02 -0.10405890110E+04  0.13029156852E+04  0.89866563666E+02 0.  0.
         13    1    3    3    0    0  0.18723119118E+03 -0.13927237044E+02 -0.19216718293E+03  0.26865910198E+03  0.00000000000E+00 0. -1.
        -13    1    3    3    0    0  0.59148847548E+03 -0.29094619168E+01 -0.84842182809E+03  0.10342565832E+04  0.00000000000E+00 0.  1.
         22    1    1    2    0    0 -0.77871966665E+03  0.16836698961E+02 -0.12271040097E+04  0.14534345683E+04  0.00000000000E+00 0.  1.
<mgrwt>
<rscale>  0 0.15668552E+04</rscale>
<asrwt>0</asrwt>
<pdfrwt beam="1">  1        2 0.38646488E+00 0.15668552E+04</pdfrwt>
<pdfrwt beam="2">  1       -2 0.37589017E-01 0.15668552E+04</pdfrwt>
<totfact> 0.22040018E+01</totfact>
</mgrwt>
</event>
<event>
 6    1  0.1001336E-006  0.3968395E+04  0.7818608E-02  0.8010953E-01
         -2   -1    0    0    0  501 -0.00000000000E+00  0.00000000000E+00  0.25871936287E+04  0.25871936287E+04  0.00000000000E+00 0.  1.
          2   -1    0    0  501    0  0.00000000000E+00 -0.00000000000E+00 -0.15217417190E+04  0.15217417190E+04  0.00000000000E+00 0. -1.
         23    2    1    2    0    0 -0.17908761975E+04 -0.56180816166E+03  0.11959678197E+04  0.22274730526E+04  0.91821614794E+02 0.  0.
         11    1    3    3    0    0 -0.35217373109E+03 -0.86002700651E+02  0.26425134008E+03  0.44861071334E+03  0.00000000000E+00 0.  1.
        -11    1    3    3    0    0 -0.14387024664E+04 -0.47580546101E+03  0.93171647962E+03  0.17788623392E+04  0.00000000000E+00 0. -1.
         22    1    1    2    0    0  0.17908761975E+04  0.56180816166E+03 -0.13051591005E+03  0.18814622951E+04  0.00000000000E+00 0. -1.
<mgrwt>
<rscale>  0 0.39683954E+04</rscale>
<asrwt>0</asrwt>
<pdfrwt beam="1">  1        2 0.23411411E+00 0.39683954E+04</pdfrwt>
<pdfrwt beam="2">  1       -2 0.39802979E+00 0.39683954E+04</pdfrwt>
<totfact> 0.74583066E-02</totfact>
</mgrwt>
</event>
<event>
 6    1  0.9988873E-007  0.1827618E+04  0.7818608E-02  0.8691749E-01
         -2   -1    0    0    0  501 -0.00000000000E+00  0.00000000000E+00  0.59961305843E+03  0.59961305843E+03  0.00000000000E+00 0.  1.
          2   -1    0    0  501    0  0.00000000000E+00 -0.00000000000E+00 -0.13926432407E+04  0.13926432407E+04  0.00000000000E+00 0. -1.
         23    2    1    2    0    0 -0.68527640287E+03 -0.70190152795E+02 -0.10482081669E+04  0.12576501395E+04  0.91722986688E+02 0.  0.
         11    1    3    3    0    0 -0.35087485220E+03 -0.69539922857E+01 -0.46753940478E+03  0.58459782324E+03  0.00000000000E+00 0.  1.
        -11    1    3    3    0    0 -0.33440155067E+03 -0.63236160509E+02 -0.58066876215E+03  0.67305231625E+03  0.00000000000E+00 0. -1.
         22    1    1    2    0    0  0.68527640287E+03  0.70190152795E+02  0.25517798468E+03  0.73460615961E+03  0.00000000000E+00 0. -1.
<mgrwt>
<rscale>  0 0.18276182E+04</rscale>
<asrwt>0</asrwt>
<pdfrwt beam="1">  1        2 0.21425280E+00 0.18276182E+04</pdfrwt>
<pdfrwt beam="2">  1       -2 0.92248164E-01 0.18276182E+04</pdfrwt>
<totfact> 0.13739562E+01</totfact>
</mgrwt>
</event>
<event>
 6    1  0.9988873E-007  0.3086362E+04  0.7818608E-02  0.8219491E-01
          2   -1    0    0  501    0  0.00000000000E+00  0.00000000000E+00  0.31859153442E+04  0.31859153442E+04  0.00000000000E+00 0. -1.
         -2   -1    0    0    0  501 -0.00000000000E+00 -0.00000000000E+00 -0.74747995106E+03  0.74747995106E+03  0.00000000000E+00 0.  1.
         23    2    1    2    0    0  0.66940772923E+03  0.49037681127E+03 -0.43585042406E+03  0.94172434345E+03  0.91120919161E+02 0.  0.
         13    1    3    3    0    0  0.45400665159E+03  0.34217367322E+03 -0.34460714980E+03  0.66479993233E+03  0.00000000000E+00 0.  1.
        -13    1    3    3    0    0  0.21540107764E+03  0.14820313805E+03 -0.91243274260E+02  0.27692441112E+03  0.00000000000E+00 0. -1.
         22    1    1    2    0    0 -0.66940772923E+03 -0.49037681127E+03  0.28742858172E+04  0.29916709518E+04  0.00000000000E+00 0. -1.
<mgrwt>
<rscale>  0 0.30863622E+04</rscale>
<asrwt>0</asrwt>
<pdfrwt beam="1">  1        2 0.49014082E+00 0.30863622E+04</pdfrwt>
<pdfrwt beam="2">  1       -2 0.11499692E+00 0.30863622E+04</pdfrwt>
<totfact> 0.66331027E-01</totfact>
</mgrwt>
</event>
<event>
 6    1  0.9988873E-007  0.2478586E+04  0.7818608E-02  0.8410654E-01
         -2   -1    0    0    0  501 -0.00000000000E+00  0.00000000000E+00  0.11111738163E+04  0.11111738163E+04  0.00000000000E+00 0.  1.
          2   -1    0    0  501    0  0.00000000000E+00 -0.00000000000E+00 -0.13821846318E+04  0.13821846318E+04  0.00000000000E+00 0. -1.
         23    2    1    2    0    0  0.10011821608E+04  0.56306187256E+03 -0.59921041684E+03  0.12987374329E+04  0.90892268683E+02 0.  0.
         11    1    3    3    0    0  0.78856875838E+03  0.40044613113E+03 -0.46886716801E+03  0.10010165892E+04  0.00000000000E+00 0.  1.
        -11    1    3    3    0    0  0.21261340247E+03  0.16261574143E+03 -0.13034324882E+03  0.29772084372E+03  0.00000000000E+00 0. -1.
         22    1    1    2    0    0 -0.10011821608E+04 -0.56306187256E+03  0.32819960129E+03  0.11946210151E+04  0.00000000000E+00 0.  1.
<mgrwt>
<rscale>  0 0.24785862E+04</rscale>
<asrwt>0</asrwt>
<pdfrwt beam="1">  1        2 0.21264379E+00 0.24785862E+04</pdfrwt>
<pdfrwt beam="2">  1       -2 0.17094982E+00 0.24785862E+04</pdfrwt>
<totfact> 0.27780081E+00</totfact>
</mgrwt>
</event>
<event>
 6    1  0.9988873E-007  0.2969204E+04  0.7818608E-02  0.8252580E-01
         -2   -1    0    0    0  501 -0.00000000000E+00  0.00000000000E+00  0.24025674842E+04  0.24025674842E+04  0.00000000000E+00 0.  1.
          2   -1    0    0  501    0  0.00000000000E+00 -0.00000000000E+00 -0.91736982888E+03  0.91736982888E+03  0.00000000000E+00 0. -1.
         23    2    1    2    0    0  0.35710034675E+03  0.27801278535E+03 -0.83594102207E+03  0.95509132948E+03  0.92683810885E+02 0.  0.
         13    1    3    3    0    0  0.13066646869E+03  0.15993188848E+03 -0.36624673377E+03  0.42046237048E+03  0.00000000000E+00 0.  1.
        -13    1    3    3    0    0  0.22643387806E+03  0.11808089687E+03 -0.46969428830E+03  0.53462895900E+03  0.00000000000E+00 0. -1.
         22    1    1    2    0    0 -0.35710034675E+03 -0.27801278535E+03  0.23211386774E+04  0.23648459836E+04  0.00000000000E+00 0.  1.
<mgrwt>
<rscale>  0 0.29692039E+04</rscale>
<asrwt>0</asrwt>
<pdfrwt beam="1">  1        2 0.14113382E+00 0.29692039E+04</pdfrwt>
<pdfrwt beam="2">  1       -2 0.36962576E+00 0.29692039E+04</pdfrwt>
<totfact> 0.28583771E-01</totfact>
</mgrwt>
</event>
<event>
 6    1  0.9988873E-007  0.6569137E+04  0.7818608E-02  0.7623580E-01
          2   -1    0    0  501    0  0.00000000000E+00  0.00000000000E+00  0.39926223116E+04  0.39926223116E+04  0.00000000000E+00 0. -1.
         -2   -1    0    0    0  501 -0.00000000000E+00 -0.00000000000E+00 -0.27020817475E+04  0.27020817475E+04  0.00000000000E+00 0.  1.
         23    2    1    2    0    0 -0.29137980396E+04 -0.46552565107E+02  0.21879033321E+04  0.36454998851E+04  0.10179521277E+03 0.  0.
         13    1    3    3    0    0 -0.15135866121E+04 -0.16070535721E+02  0.11991383312E+04  0.19310969504E+04  0.00000000000E+00 0. -1.
        -13    1    3    3    0    0 -0.14002114275E+04 -0.30482029386E+02  0.98876500084E+03  0.17144029347E+04  0.00000000000E+00 0.  1.
         22    1    1    2    0    0  0.29137980396E+04  0.46552565107E+02 -0.89736276801E+03  0.30492041739E+04  0.00000000000E+00 0.  1.
<mgrwt>
<rscale>  0 0.65691375E+04</rscale>
<asrwt>0</asrwt>
<pdfrwt beam="1">  1        2 0.61424959E+00 0.65691375E+04</pdfrwt>
<pdfrwt beam="2">  1       -2 0.41570488E+00 0.65691375E+04</pdfrwt>
<totfact> 0.13038481E-03</totfact>
</mgrwt>
</event>
<event>
 6    1  0.9988873E-007  0.2228783E+04  0.7818608E-02  0.8506543E-01
          2   -1    0    0  501    0  0.00000000000E+00  0.00000000000E+00  0.18682028995E+04  0.18682028995E+04  0.00000000000E+00 0. -1.
         -2   -1    0    0    0  501 -0.00000000000E+00 -0.00000000000E+00 -0.66473935966E+03  0.66473935966E+03  0.00000000000E+00 0.  1.
         23    2    1    2    0    0  0.55394539033E+03  0.27032409988E+03 -0.44994266547E+03  0.76837922708E+03  0.89596986252E+02 0.  0.
         11    1    3    3    0    0  0.58039184116E+02  0.58591527395E+02 -0.44268514184E+02  0.93601363897E+02  0.00000000000E+00 0. -1.
        -11    1    3    3    0    0  0.49590620622E+03  0.21173257249E+03 -0.40567415128E+03  0.67477786318E+03  0.00000000000E+00 0.  1.
         22    1    1    2    0    0 -0.55394539033E+03 -0.27032409988E+03  0.16534062053E+04  0.17645630320E+04  0.00000000000E+00 0. -1.
<mgrwt>
<rscale>  0 0.22287826E+04</rscale>
<asrwt>0</asrwt>
<pdfrwt beam="1">  1        2 0.28741583E+00 0.22287826E+04</pdfrwt>
<pdfrwt beam="2">  1       -2 0.10226759E+00 0.22287826E+04</pdfrwt>
<totfact> 0.56468085E+00</totfact>
</mgrwt>
</event>
<event>
 6    1  0.9988873E-007  0.2102777E+04  0.7818608E-02  0.8560021E-01
         -2   -1    0    0    0  501 -0.00000000000E+00  0.00000000000E+00  0.66555859106E+03  0.66555859106E+03  0.00000000000E+00 0.  1.
          2   -1    0    0  501    0  0.00000000000E+00 -0.00000000000E+00 -0.16608879950E+04  0.16608879950E+04  0.00000000000E+00 0. -1.
         23    2    1    2    0    0  0.80649344307E+03  0.50094528321E+03 -0.44233372998E+01  0.95412276007E+03  0.94619368460E+02 0.  0.
         11    1    3    3    0    0  0.22552000343E+03  0.99620794858E+02  0.21964777920E+02  0.24751974908E+03  0.00000000000E+00 0. -1.
        -11    1    3    3    0    0  0.58097343964E+03  0.40132448835E+03 -0.26388115219E+02  0.70660301099E+03  0.00000000000E+00 0.  1.
         22    1    1    2    0    0 -0.80649344307E+03 -0.50094528321E+03 -0.99090606662E+03  0.13723238260E+04  0.00000000000E+00 0. -1.
<mgrwt>
<rscale>  0 0.21027775E+04</rscale>
<asrwt>0</asrwt>
<pdfrwt beam="1">  1        2 0.25552123E+00 0.21027775E+04</pdfrwt>
<pdfrwt beam="2">  1       -2 0.10239363E+00 0.21027775E+04</pdfrwt>
<totfact> 0.74177689E+00</totfact>
</mgrwt>
</event>
<event>
 6    1  0.9988873E-007  0.3417974E+04  0.7818608E-02  0.8133509E-01
          2   -1    0    0  501    0  0.00000000000E+00  0.00000000000E+00  0.22666730469E+04  0.22666730469E+04  0.00000000000E+00 0. -1.
         -2   -1    0    0    0  501 -0.00000000000E+00 -0.00000000000E+00 -0.12885121538E+04  0.12885121538E+04  0.00000000000E+00 0.  1.
         23    2    1    2    0    0  0.16922685534E+04 -0.22736183440E+03  0.46096420163E+03  0.17711003714E+04  0.94033343624E+02 0.  0.
         13    1    3    3    0    0  0.45317636540E+03 -0.94775660914E+02  0.99237567366E+02  0.47349692589E+03  0.00000000000E+00 0.  1.
        -13    1    3    3    0    0  0.12390921880E+04 -0.13258617348E+03  0.36172663426E+03  0.12976034455E+04  0.00000000000E+00 0. -1.
         22    1    1    2    0    0 -0.16922685534E+04  0.22736183440E+03  0.51719669155E+03  0.17840848294E+04  0.00000000000E+00 0.  1.
<mgrwt>
<rscale>  0 0.34179735E+04</rscale>
<asrwt>0</asrwt>
<pdfrwt beam="1">  1        2 0.34871893E+00 0.34179735E+04</pdfrwt>
<pdfrwt beam="2">  1       -2 0.19823264E+00 0.34179735E+04</pdfrwt>
<totfact> 0.53511841E-01</totfact>
</mgrwt>
</event>
<event>
 6    1  0.9988873E-007  0.1624393E+04  0.7818608E-02  0.8805701E-01
         -2   -1    0    0    0  501 -0.00000000000E+00  0.00000000000E+00  0.10028097313E+04  0.10028097313E+04  0.00000000000E+00 0.  1.
          2   -1    0    0  501    0  0.00000000000E+00 -0.00000000000E+00 -0.65781470921E+03  0.65781470921E+03  0.00000000000E+00 0. -1.
         23    2    1    2    0    0 -0.11558012923E+03 -0.44620996663E+03  0.85339438165E+03  0.97437957947E+03  0.93120855111E+02 0.  0.
         11    1    3    3    0    0 -0.10744830915E+03 -0.23360604809E+03  0.48582396020E+03  0.54967430825E+03  0.00000000000E+00 0.  1.
        -11    1    3    3    0    0 -0.81318200808E+01 -0.21260391853E+03  0.36757042145E+03  0.42470527122E+03  0.00000000000E+00 0. -1.
         22    1    1    2    0    0  0.11558012923E+03  0.44620996663E+03 -0.50839935953E+03  0.68624486108E+03  0.00000000000E+00 0. -1.
<mgrwt>
<rscale>  0 0.16243928E+04</rscale>
<asrwt>0</asrwt>
<pdfrwt beam="1">  1        2 0.10120226E+00 0.16243928E+04</pdfrwt>
<pdfrwt beam="2">  1       -2 0.15427842E+00 0.16243928E+04</pdfrwt>
<totfact> 0.11778744E+01</totfact>
</mgrwt>
</event>
<event>
 6    1  0.9988873E-007  0.8930898E+03  0.7818608E-02  0.9434261E-01
         -2   -1    0    0    0  501 -0.00000000000E+00  0.00000000000E+00  0.41301075835E+03  0.41301075835E+03  0.00000000000E+00 0.  1.
          2   -1    0    0  501    0  0.00000000000E+00 -0.00000000000E+00 -0.48280186956E+03  0.48280186956E+03  0.00000000000E+00 0. -1.
         23    2    1    2    0    0  0.15181399565E+03 -0.32994655342E+03 -0.28781750320E+03  0.47219992155E+03  0.90673223044E+02 0.  0.
         11    1    3    3    0    0  0.18408629935E+02 -0.12214145386E+03 -0.12897388413E+03  0.17858240449E+03  0.00000000000E+00 0. -1.
        -11    1    3    3    0    0  0.13340536572E+03 -0.20780509955E+03 -0.15884361907E+03  0.29361751705E+03  0.00000000000E+00 0.  1.
         22    1    1    2    0    0 -0.15181399565E+03  0.32994655342E+03  0.21802639198E+03  0.42361270636E+03  0.00000000000E+00 0.  1.
<mgrwt>
<rscale>  0 0.89308984E+03</rscale>
<asrwt>0</asrwt>
<pdfrwt beam="1">  1        2 0.74277211E-01 0.89308984E+03</pdfrwt>
<pdfrwt beam="2">  1       -2 0.63540117E-01 0.89308984E+03</pdfrwt>
<totfact> 0.14764417E+02</totfact>
</mgrwt>
</event>
<event>
 6    1  0.9988873E-007  0.8141265E+03  0.7818608E-02  0.9539792E-01
          1   -1    0    0  501    0  0.00000000000E+00  0.00000000000E+00  0.60221573151E+03  0.60221573151E+03  0.00000000000E+00 0. -1.
         -1   -1    0    0    0  501 -0.00000000000E+00 -0.00000000000E+00 -0.27515135676E+03  0.27515135676E+03  0.00000000000E+00 0.  1.
         23    2    1    2    0    0  0.30651508192E+03 -0.70423362008E+02 -0.10394908285E+03  0.34380964432E+03  0.92134219176E+02 0.  0.
         11    1    3    3    0    0  0.25952886645E+03 -0.23903751227E+02 -0.93379298857E+02  0.27685070941E+03  0.00000000000E+00 0. -1.
        -11    1    3    3    0    0  0.46986215467E+02 -0.46519610781E+02 -0.10569783990E+02  0.66958934914E+02  0.00000000000E+00 0.  1.
         22    1    1    2    0    0 -0.30651508192E+03  0.70423362008E+02  0.43101345759E+03  0.53355744395E+03  0.00000000000E+00 0. -1.
<mgrwt>
<rscale>  0 0.81412647E+03</rscale>
<asrwt>0</asrwt>
<pdfrwt beam="1">  1        1 0.92648574E-01 0.81412647E+03</pdfrwt>
<pdfrwt beam="2">  1       -1 0.42330978E-01 0.81412647E+03</pdfrwt>
<totfact> 0.18887883E+02</totfact>
</mgrwt>
</event>
<event>
 6    1  0.9988873E-007  0.2899331E+04  0.7818608E-02  0.8273077E-01
         -2   -1    0    0    0  501 -0.00000000000E+00  0.00000000000E+00  0.10417527999E+04  0.10417527999E+04  0.00000000000E+00 0.  1.
          2   -1    0    0  501    0  0.00000000000E+00 -0.00000000000E+00 -0.20173015764E+04  0.20173015764E+04  0.00000000000E+00 0. -1.
         23    2    1    2    0    0 -0.12373985386E+03  0.13701797081E+04 -0.12439599006E+02  0.13796844731E+04  0.10329819876E+03 0.  0.
         11    1    3    3    0    0 -0.43702945386E+02  0.78101874849E+03 -0.50702530006E+02  0.78388199334E+03  0.00000000000E+00 0.  1.
        -11    1    3    3    0    0 -0.80036908475E+02  0.58916095958E+03  0.38262931000E+02  0.59580247977E+03  0.00000000000E+00 0. -1.
         22    1    1    2    0    0  0.12373985386E+03 -0.13701797081E+04 -0.96310917750E+03  0.16793699032E+04  0.00000000000E+00 0. -1.
<mgrwt>
<rscale>  0 0.28993307E+04</rscale>
<asrwt>0</asrwt>
<pdfrwt beam="1">  1        2 0.31035409E+00 0.28993307E+04</pdfrwt>
<pdfrwt beam="2">  1       -2 0.16026966E+00 0.28993307E+04</pdfrwt>
<totfact> 0.14142948E+00</totfact>
</mgrwt>
</event>
<event>
 6    1  0.9988873E-007  0.2750330E+04  0.7818608E-02  0.8318857E-01
         -1   -1    0    0    0  501 -0.00000000000E+00  0.00000000000E+00  0.70025740105E+03  0.70025740105E+03  0.00000000000E+00 0.  1.
          1   -1    0    0  501    0  0.00000000000E+00 -0.00000000000E+00 -0.27005474150E+04  0.27005474150E+04  0.00000000000E+00 0. -1.
         23    2    1    2    0    0 -0.13525127132E+04  0.22444708940E+03 -0.89678300126E+03  0.16408630947E+04  0.92438136030E+02 0.  0.
         11    1    3    3    0    0 -0.81241274086E+03  0.10760980102E+03 -0.57899128475E+03  0.10034068161E+04  0.00000000000E+00 0.  1.
        -11    1    3    3    0    0 -0.54009997237E+03  0.11683728838E+03 -0.31779171651E+03  0.63745627865E+03  0.00000000000E+00 0. -1.
         22    1    1    2    0    0  0.13525127132E+04 -0.22444708940E+03 -0.11035070127E+04  0.17599417213E+04  0.00000000000E+00 0.  1.
<mgrwt>
<rscale>  0 0.27503297E+04</rscale>
<asrwt>0</asrwt>
<pdfrwt beam="1">  1        1 0.41546884E+00 0.27503297E+04</pdfrwt>
<pdfrwt beam="2">  1       -1 0.10773191E+00 0.27503297E+04</pdfrwt>
<totfact> 0.68301484E-01</totfact>
</mgrwt>
</event>
<event>
 6    1  0.9988873E-007  0.1741723E+04  0.7818608E-02  0.8737919E-01
          2   -1    0    0  501    0  0.00000000000E+00  0.00000000000E+00  0.13129117084E+04  0.13129117084E+04  0.00000000000E+00 0. -1.
         -2   -1    0    0    0  501 -0.00000000000E+00 -0.00000000000E+00 -0.57764733246E+03  0.57764733246E+03  0.00000000000E+00 0.  1.
         23    2    1    2    0    0  0.51404328805E+03  0.60248257360E+03  0.75544964680E+03  0.10983259952E+04  0.91597321993E+02 0.  0.
         11    1    3    3    0    0  0.71219487907E+02  0.77158898918E+02  0.14648791418E+03  0.18023434784E+03  0.00000000000E+00 0. -1.
        -11    1    3    3    0    0  0.44282380015E+03  0.52532367468E+03  0.60896173262E+03  0.91809164736E+03  0.00000000000E+00 0.  1.
         22    1    1    2    0    0 -0.51404328805E+03 -0.60248257360E+03 -0.20185270853E+02  0.79223304566E+03  0.00000000000E+00 0.  1.
<mgrwt>
<rscale>  0 0.17417232E+04</rscale>
<asrwt>0</asrwt>
<pdfrwt beam="1">  1        2 0.20198642E+00 0.17417232E+04</pdfrwt>
<pdfrwt beam="2">  1       -2 0.88868821E-01 0.17417232E+04</pdfrwt>
<totfact> 0.16768907E+01</totfact>
</mgrwt>
</event>
<event>
 6    1  0.9988873E-007  0.1432616E+04  0.7818608E-02  0.8930542E-01
          2   -1    0    0  501    0  0.00000000000E+00  0.00000000000E+00  0.49251441591E+03  0.49251441591E+03  0.00000000000E+00 0. -1.
         -2   -1    0    0    0  501 -0.00000000000E+00 -0.00000000000E+00 -0.10417912711E+04  0.10417912711E+04  0.00000000000E+00 0.  1.
         23    2    1    2    0    0 -0.57695071683E+02 -0.36817665925E+03 -0.92724287283E+03  0.10035128044E+04  0.91519558687E+02 0.  0.
         11    1    3    3    0    0 -0.39258838034E+02 -0.33749274115E+03 -0.76015290482E+03  0.83263139828E+03  0.00000000000E+00 0.  1.
        -11    1    3    3    0    0 -0.18436233649E+02 -0.30683918105E+02 -0.16708996801E+03  0.17088140610E+03  0.00000000000E+00 0. -1.
         22    1    1    2    0    0  0.57695071683E+02  0.36817665925E+03  0.37796601767E+03  0.53079288261E+03  0.00000000000E+00 0. -1.
<mgrwt>
<rscale>  0 0.14326161E+04</rscale>
<asrwt>0</asrwt>
<pdfrwt beam="1">  1        2 0.75771449E-01 0.14326161E+04</pdfrwt>
<pdfrwt beam="2">  1       -2 0.16027558E+00 0.14326161E+04</pdfrwt>
<totfact> 0.15241163E+01</totfact>
</mgrwt>
</event>
<event>
 6    1  0.9988873E-007  0.2324716E+04  0.7818608E-02  0.8468239E-01
          1   -1    0    0  501    0  0.00000000000E+00  0.00000000000E+00  0.15596929255E+04  0.15596929255E+04  0.00000000000E+00 0. -1.
         -1   -1    0    0    0  501 -0.00000000000E+00 -0.00000000000E+00 -0.86624473934E+03  0.86624473934E+03  0.00000000000E+00 0.  1.
         23    2    1    2    0    0  0.85747541185E+02 -0.80825254857E+03  0.12116388720E+04  0.14620152562E+04  0.93781822965E+02 0.  0.
         11    1    3    3    0    0  0.34081203143E+02 -0.53980140830E+03  0.87053948548E+03  0.10248834493E+04  0.00000000000E+00 0. -1.
        -11    1    3    3    0    0  0.51666338042E+02 -0.26845114027E+03  0.34109938649E+03  0.43713180697E+03  0.00000000000E+00 0.  1.
         22    1    1    2    0    0 -0.85747541185E+02  0.80825254857E+03 -0.51819068576E+03  0.96392240865E+03  0.00000000000E+00 0.  1.
<mgrwt>
<rscale>  0 0.23247157E+04</rscale>
<asrwt>0</asrwt>
<pdfrwt beam="1">  1        1 0.23995276E+00 0.23247157E+04</pdfrwt>
<pdfrwt beam="2">  1       -1 0.13326842E+00 0.23247157E+04</pdfrwt>
<totfact> 0.25544884E+00</totfact>
</mgrwt>
</event>
<event>
 6    1  0.9988873E-007  0.2276929E+04  0.7818608E-02  0.8487074E-01
          2   -1    0    0  501    0  0.00000000000E+00  0.00000000000E+00  0.23678987045E+04  0.23678987045E+04  0.00000000000E+00 0. -1.
         -2   -1    0    0    0  501 -0.00000000000E+00 -0.00000000000E+00 -0.54736339279E+03  0.54736339279E+03  0.00000000000E+00 0.  1.
         23    2    1    2    0    0  0.10099699435E+04 -0.45590714302E+03  0.58644908346E+03  0.12566905949E+04  0.86360373267E+02 0.  0.
         11    1    3    3    0    0  0.13604275469E+03 -0.48302910739E+02  0.47407862522E+02  0.15194837188E+03  0.00000000000E+00 0.  1.
        -11    1    3    3    0    0  0.87392718878E+03 -0.40760423228E+03  0.53904122093E+03  0.11047422230E+04  0.00000000000E+00 0. -1.
         22    1    1    2    0    0 -0.10099699435E+04  0.45590714302E+03  0.12340862282E+04  0.16585715024E+04  0.00000000000E+00 0. -1.
<mgrwt>
<rscale>  0 0.22769287E+04</rscale>
<asrwt>0</asrwt>
<pdfrwt beam="1">  1        2 0.36429210E+00 0.22769287E+04</pdfrwt>
<pdfrwt beam="2">  1       -2 0.84209754E-01 0.22769287E+04</pdfrwt>
<totfact> 0.46361656E+00</totfact>
</mgrwt>
</event>
<event>
 6    1  0.9988873E-007  0.2884273E+04  0.7818608E-02  0.8277572E-01
         -1   -1    0    0    0  501 -0.00000000000E+00  0.00000000000E+00  0.13844841884E+04  0.13844841884E+04  0.00000000000E+00 0.  1.
          1   -1    0    0  501    0  0.00000000000E+00 -0.00000000000E+00 -0.15021896648E+04  0.15021896648E+04  0.00000000000E+00 0. -1.
         23    2    1    2    0    0  0.74325249884E+02  0.95880945874E+03 -0.11325050677E+04  0.14885830009E+04  0.92042387875E+02 0.  0.
         13    1    3    3    0    0  0.13766362322E+02  0.68553538830E+03 -0.82576275076E+03  0.10733277234E+04  0.00000000000E+00 0.  1.
        -13    1    3    3    0    0  0.60558887563E+02  0.27327407043E+03 -0.30674231697E+03  0.41525527746E+03  0.00000000000E+00 0. -1.
         22    1    1    2    0    0 -0.74325249884E+02 -0.95880945874E+03  0.10147995912E+04  0.13980908523E+04  0.00000000000E+00 0.  1.
<mgrwt>
<rscale>  0 0.28842731E+04</rscale>
<asrwt>0</asrwt>
<pdfrwt beam="1">  1        1 0.23110610E+00 0.28842731E+04</pdfrwt>
<pdfrwt beam="2">  1       -1 0.21299757E+00 0.28842731E+04</pdfrwt>
<totfact> 0.68739988E-01</totfact>
</mgrwt>
</event>
<event>
 6    1  0.9988873E-007  0.5576770E+04  0.7818608E-02  0.7745213E-01
         -2   -1    0    0    0  501 -0.00000000000E+00  0.00000000000E+00  0.17490723472E+04  0.17490723472E+04  0.00000000000E+00 0.  1.
          2   -1    0    0  501    0  0.00000000000E+00 -0.00000000000E+00 -0.44452654826E+04  0.44452654826E+04  0.00000000000E+00 0. -1.
         23    2    1    2    0    0  0.16502311559E+02  0.11486474482E+04 -0.41696233947E+04  0.43260070197E+04  0.94415013363E+02 0.  0.
         11    1    3    3    0    0 -0.86453922648E+01  0.10309127866E+04 -0.37928745016E+04  0.39304901605E+04  0.00000000000E+00 0. -1.
        -11    1    3    3    0    0  0.25147703824E+02  0.11773466162E+03 -0.37674889306E+03  0.39551685928E+03  0.00000000000E+00 0.  1.
         22    1    1    2    0    0 -0.16502311559E+02 -0.11486474482E+04  0.14734302593E+04  0.18683308100E+04  0.00000000000E+00 0.  1.
<mgrwt>
<rscale>  0 0.55767700E+04</rscale>
<asrwt>0</asrwt>
<pdfrwt beam="1">  1        2 0.68388700E+00 0.55767700E+04</pdfrwt>
<pdfrwt beam="2">  1       -2 0.26908805E+00 0.55767700E+04</pdfrwt>
<totfact> 0.46998697E-03</totfact>
</mgrwt>
</event>
<event>
 6    1  0.9988873E-007  0.4137578E+04  0.7818608E-02  0.7977353E-01
          2   -1    0    0  501    0  0.00000000000E+00  0.00000000000E+00  0.14755052015E+04  0.14755052015E+04  0.00000000000E+00 0. -1.
         -2   -1    0    0    0  501 -0.00000000000E+00 -0.00000000000E+00 -0.29006261113E+04  0.29006261113E+04  0.00000000000E+00 0.  1.
         23    2    1    2    0    0 -0.89466961890E+03 -0.10462294348E+04 -0.23443865956E+04  0.27208128667E+04  0.10790916825E+03 0.  0.
         11    1    3    3    0    0 -0.40753914847E+03 -0.39668593018E+03 -0.94380621762E+03  0.11019156325E+04  0.00000000000E+00 0.  1.
        -11    1    3    3    0    0 -0.48713047043E+03 -0.64954350457E+03 -0.14005803780E+04  0.16188972342E+04  0.00000000000E+00 0. -1.
         22    1    1    2    0    0  0.89466961890E+03  0.10462294348E+04  0.91926568586E+03  0.16553184462E+04  0.00000000000E+00 0. -1.
<mgrwt>
<rscale>  0 0.41375785E+04</rscale>
<asrwt>0</asrwt>
<pdfrwt beam="1">  1        2 0.22700080E+00 0.41375785E+04</pdfrwt>
<pdfrwt beam="2">  1       -2 0.44625017E+00 0.41375785E+04</pdfrwt>
<totfact> 0.37583939E-02</totfact>
</mgrwt>
</event>
<event>
 6    1  0.9988873E-007  0.1884306E+04  0.7818608E-02  0.8662708E-01
         -2   -1    0    0    0  501 -0.00000000000E+00  0.00000000000E+00  0.13709076495E+04  0.13709076495E+04  0.00000000000E+00 0.  1.
          2   -1    0    0  501    0  0.00000000000E+00 -0.00000000000E+00 -0.64749207086E+03  0.64749207086E+03  0.00000000000E+00 0. -1.
         23    2    1    2    0    0 -0.13269554373E+03  0.75071877888E+03 -0.22430690340E+03  0.80210835098E+03  0.10898361117E+03 0.  0.
         13    1    3    3    0    0 -0.13068452712E+03  0.43464257571E+03 -0.12417356346E+03  0.47054403419E+03  0.00000000000E+00 0. -1.
        -13    1    3    3    0    0 -0.20110166056E+01  0.31607620317E+03 -0.10013333994E+03  0.33156431678E+03  0.00000000000E+00 0.  1.
         22    1    1    2    0    0  0.13269554373E+03 -0.75071877888E+03  0.94772248206E+03  0.12162913694E+04  0.00000000000E+00 0.  1.
<mgrwt>
<rscale>  0 0.18843055E+04</rscale>
<asrwt>0</asrwt>
<pdfrwt beam="1">  1        2 0.99614165E-01 0.18843055E+04</pdfrwt>
<pdfrwt beam="2">  1       -2 0.21090887E+00 0.18843055E+04</pdfrwt>
<totfact> 0.47829864E+00</totfact>
</mgrwt>
</event>
<event>
 6    1  0.9988873E-007  0.3664939E+04  0.7818608E-02  0.8075776E-01
         -1   -1    0    0    0  501 -0.00000000000E+00  0.00000000000E+00  0.18166350950E+04  0.18166350950E+04  0.00000000000E+00 0.  1.
          1   -1    0    0  501    0  0.00000000000E+00 -0.00000000000E+00 -0.18484420508E+04  0.18484420508E+04  0.00000000000E+00 0. -1.
         23    2    1    2    0    0 -0.55392170314E+03 -0.16940904515E+04  0.40523436357E+03  0.18299267906E+04  0.87438311623E+02 0.  0.
         13    1    3    3    0    0 -0.45329255240E+03 -0.13800508403E+04  0.36474085434E+03  0.14976816586E+04  0.00000000000E+00 0.  1.
        -13    1    3    3    0    0 -0.10062915074E+03 -0.31403961126E+03  0.40493509223E+02  0.33224513195E+03  0.00000000000E+00 0. -1.
         22    1    1    2    0    0  0.55392170314E+03  0.16940904515E+04 -0.43704131933E+03  0.18351503551E+04  0.00000000000E+00 0. -1.
<mgrwt>
<rscale>  0 0.36649391E+04</rscale>
<asrwt>0</asrwt>
<pdfrwt beam="1">  1        1 0.28437570E+00 0.36649391E+04</pdfrwt>
<pdfrwt beam="2">  1       -1 0.27948232E+00 0.36649391E+04</pdfrwt>
<totfact> 0.13630198E-01</totfact>
</mgrwt>
</event>
<event>
 6    1  0.9988873E-007  0.2197739E+04  0.7818608E-02  0.8519370E-01
         -2   -1    0    0    0  501 -0.00000000000E+00  0.00000000000E+00  0.92446501072E+03  0.92446501072E+03  0.00000000000E+00 0.  1.
          2   -1    0    0  501    0  0.00000000000E+00 -0.00000000000E+00 -0.13061759694E+04  0.13061759694E+04  0.00000000000E+00 0. -1.
         23    2    1    2    0    0 -0.37634318218E+02 -0.10201776560E+04 -0.59815688433E+03  0.11870761136E+04  0.95808399780E+02 0.  0.
         11    1    3    3    0    0 -0.11280771705E+02 -0.95283850030E+03 -0.55087350394E+03  0.11006771011E+04  0.00000000000E+00 0. -1.
        -11    1    3    3    0    0 -0.26353546513E+02 -0.67339155729E+02 -0.47283380388E+02  0.86399012546E+02  0.00000000000E+00 0.  1.
         22    1    1    2    0    0  0.37634318218E+02  0.10201776560E+04  0.21644592568E+03  0.10435648665E+04  0.00000000000E+00 0.  1.
<mgrwt>
<rscale>  0 0.21977388E+04</rscale>
<asrwt>0</asrwt>
<pdfrwt beam="1">  1        2 0.20095015E+00 0.21977388E+04</pdfrwt>
<pdfrwt beam="2">  1       -2 0.14222539E+00 0.21977388E+04</pdfrwt>
<totfact> 0.51671597E+00</totfact>
</mgrwt>
</event>
<event>
 6    1  0.9988873E-007  0.1394305E+04  0.7818608E-02  0.8957952E-01
         -2   -1    0    0    0  501 -0.00000000000E+00  0.00000000000E+00  0.31103519434E+03  0.31103519434E+03  0.00000000000E+00 0.  1.
          2   -1    0    0  501    0  0.00000000000E+00 -0.00000000000E+00 -0.15625925344E+04  0.15625925344E+04  0.00000000000E+00 0. -1.
         23    2    1    2    0    0  0.25830227205E+03 -0.12415551373E+03  0.22097462148E+03  0.37346605976E+03  0.92262988888E+02 0.  0.
         11    1    3    3    0    0  0.14991522464E+03 -0.10940574236E+03  0.10170841513E+03  0.21163362859E+03  0.00000000000E+00 0.  1.
        -11    1    3    3    0    0  0.10838704740E+03 -0.14749771366E+02  0.11926620636E+03  0.16183243117E+03  0.00000000000E+00 0. -1.
         22    1    1    2    0    0 -0.25830227205E+03  0.12415551373E+03 -0.14725319616E+04  0.15001616690E+04  0.00000000000E+00 0. -1.
<mgrwt>
<rscale>  0 0.13943045E+04</rscale>
<asrwt>0</asrwt>
<pdfrwt beam="1">  1        2 0.24039885E+00 0.13943045E+04</pdfrwt>
<pdfrwt beam="2">  1       -2 0.47851569E-01 0.13943045E+04</pdfrwt>
<totfact> 0.47145861E+01</totfact>
</mgrwt>
</event>
<event>
 6    1  0.9988873E-007  0.1428109E+04  0.7818608E-02  0.8933719E-01
         -1   -1    0    0    0  501 -0.00000000000E+00  0.00000000000E+00  0.10178418736E+04  0.10178418736E+04  0.00000000000E+00 0.  1.
          1   -1    0    0  501    0  0.00000000000E+00 -0.00000000000E+00 -0.50093652660E+03  0.50093652660E+03  0.00000000000E+00 0. -1.
         23    2    1    2    0    0  0.53554910169E+03  0.12156627513E+03 -0.21895149804E+03  0.60058642901E+03  0.10570288852E+03 0.  0.
         13    1    3    3    0    0  0.46074418592E+03  0.10099834262E+03 -0.22533266449E+03  0.52274341675E+03  0.00000000000E+00 0.  1.
        -13    1    3    3    0    0  0.74804915776E+02  0.20567932516E+02  0.63811664548E+01  0.77843012259E+02  0.00000000000E+00 0. -1.
         22    1    1    2    0    0 -0.53554910169E+03 -0.12156627513E+03  0.73585684506E+03  0.91819197121E+03  0.00000000000E+00 0.  1.
<mgrwt>
<rscale>  0 0.14281095E+04</rscale>
<asrwt>0</asrwt>
<pdfrwt beam="1">  1        1 0.77067158E-01 0.14281095E+04</pdfrwt>
<pdfrwt beam="2">  1       -1 0.15659106E+00 0.14281095E+04</pdfrwt>
<totfact> 0.13344784E+01</totfact>
</mgrwt>
</event>
<event>
 6    1  0.9988873E-007  0.1860670E+04  0.7818608E-02  0.8674685E-01
          2   -1    0    0  501    0  0.00000000000E+00  0.00000000000E+00  0.20094940424E+04  0.20094940424E+04  0.00000000000E+00 0. -1.
         -2   -1    0    0    0  501 -0.00000000000E+00 -0.00000000000E+00 -0.43071700008E+03  0.43071700008E+03  0.00000000000E+00 0.  1.
         23    2    1    2    0    0 -0.13830432313E+03 -0.32699803033E+03 -0.33354905042E+03  0.49520541715E+03  0.88981113169E+02 0.  0.
         13    1    3    3    0    0 -0.34163373627E+02 -0.61213225916E+02 -0.11898289453E+03  0.13809824153E+03  0.00000000000E+00 0.  1.
        -13    1    3    3    0    0 -0.10414094950E+03 -0.26578480442E+03 -0.21456615589E+03  0.35710717561E+03  0.00000000000E+00 0. -1.
         22    1    1    2    0    0  0.13830432313E+03  0.32699803033E+03  0.19123260927E+04  0.19450056253E+04  0.00000000000E+00 0. -1.
<mgrwt>
<rscale>  0 0.18606700E+04</rscale>
<asrwt>0</asrwt>
<pdfrwt beam="1">  1        2 0.30915292E+00 0.18606700E+04</pdfrwt>
<pdfrwt beam="2">  1       -2 0.66264155E-01 0.18606700E+04</pdfrwt>
<totfact> 0.12986545E+01</totfact>
</mgrwt>
</event>
<event>
 6    1  0.9988873E-007  0.2412880E+04  0.7818608E-02  0.8434697E-01
          2   -1    0    0  501    0  0.00000000000E+00  0.00000000000E+00  0.22279861791E+04  0.22279861791E+04  0.00000000000E+00 0. -1.
         -2   -1    0    0    0  501 -0.00000000000E+00 -0.00000000000E+00 -0.65327927093E+03  0.65327927093E+03  0.00000000000E+00 0.  1.
         23    2    1    2    0    0 -0.67932153120E+03 -0.97567768318E+03  0.55603981794E+03  0.13156641838E+04  0.91472843451E+02 0.  0.
         13    1    3    3    0    0 -0.35216169876E+03 -0.43266876328E+03  0.28055780043E+03  0.62444599460E+03  0.00000000000E+00 0. -1.
        -13    1    3    3    0    0 -0.32715983244E+03 -0.54300891990E+03  0.27548201751E+03  0.69121818916E+03  0.00000000000E+00 0.  1.
         22    1    1    2    0    0  0.67932153120E+03  0.97567768318E+03  0.10186670902E+04  0.15656012662E+04  0.00000000000E+00 0. -1.
<mgrwt>
<rscale>  0 0.24128798E+04</rscale>
<asrwt>0</asrwt>
<pdfrwt beam="1">  1        2 0.34276710E+00 0.24128798E+04</pdfrwt>
<pdfrwt beam="2">  1       -2 0.10050450E+00 0.24128798E+04</pdfrwt>
<totfact> 0.36504287E+00</totfact>
</mgrwt>
</event>
<event>
 6    1  0.9988873E-007  0.1301121E+04  0.7818608E-02  0.9028677E-01
          1   -1    0    0  501    0  0.00000000000E+00  0.00000000000E+00  0.13184044009E+04  0.13184044009E+04  0.00000000000E+00 0. -1.
         -1   -1    0    0    0  501 -0.00000000000E+00 -0.00000000000E+00 -0.32101587646E+03  0.32101587646E+03  0.00000000000E+00 0.  1.
         23    2    1    2    0    0 -0.38878889951E+03 -0.48630581132E+03  0.72399892522E+03  0.95942614246E+03  0.93133928371E+02 0.  0.
         11    1    3    3    0    0 -0.23200101869E+03 -0.34073682543E+03  0.42831026337E+03  0.59445415179E+03  0.00000000000E+00 0.  1.
        -11    1    3    3    0    0 -0.15678788083E+03 -0.14556898589E+03  0.29568866185E+03  0.36497199067E+03  0.00000000000E+00 0. -1.
         22    1    1    2    0    0  0.38878889951E+03  0.48630581132E+03  0.27338959919E+03  0.67999413487E+03  0.00000000000E+00 0.  1.
<mgrwt>
<rscale>  0 0.13011207E+04</rscale>
<asrwt>0</asrwt>
<pdfrwt beam="1">  1        1 0.20283144E+00 0.13011207E+04</pdfrwt>
<pdfrwt beam="2">  1       -1 0.49387059E-01 0.13011207E+04</pdfrwt>
<totfact> 0.35422058E+01</totfact>
</mgrwt>
</event>
<event>
 6    1  0.1271463E-006  0.3844128E+04  0.7818608E-02  0.8036751E-01
         -2   -1    0    0    0  501 -0.00000000000E+00  0.00000000000E+00  0.16641920089E+04  0.16641920089E+04  0.00000000000E+00 0.  1.
          2   -1    0    0  501    0  0.00000000000E+00 -0.00000000000E+00 -0.22198943553E+04  0.22198943553E+04  0.00000000000E+00 0. -1.
         23    2    1    2    0    0  0.14621101443E+04  0.11858413827E+03 -0.15312030368E+04  0.21224309300E+04  0.91115535627E+02 0.  0.
         11    1    3    3    0    0  0.98040002486E+03  0.92428435214E+02 -0.96784520581E+03  0.13807431212E+04  0.00000000000E+00 0. -1.
        -11    1    3    3    0    0  0.48171011947E+03  0.26155703058E+02 -0.56335783094E+03  0.74168780878E+03  0.00000000000E+00 0.  1.
         22    1    1    2    0    0 -0.14621101443E+04 -0.11858413827E+03  0.97550069041E+03  0.17616554342E+04  0.00000000000E+00 0.  1.
<mgrwt>
<rscale>  0 0.38441282E+04</rscale>
<asrwt>0</asrwt>
<pdfrwt beam="1">  1        2 0.34152221E+00 0.38441282E+04</pdfrwt>
<pdfrwt beam="2">  1       -2 0.25602954E+00 0.38441282E+04</pdfrwt>
<totfact> 0.23724821E-01</totfact>
</mgrwt>
</event>
<event>
 6    1  0.9988873E-007  0.2712145E+04  0.7818608E-02  0.8331075E-01
          2   -1    0    0  501    0  0.00000000000E+00  0.00000000000E+00  0.28602454936E+04  0.28602454936E+04  0.00000000000E+00 0. -1.
         -2   -1    0    0    0  501 -0.00000000000E+00 -0.00000000000E+00 -0.64292807565E+03  0.64292807565E+03  0.00000000000E+00 0.  1.
         23    2    1    2    0    0  0.86648315098E+03 -0.10402948308E+04  0.11657673600E+04  0.17888912383E+04  0.90066301629E+02 0.  0.
         13    1    3    3    0    0  0.63401282860E+03 -0.79069803349E+03  0.82609601228E+03  0.13075206570E+04  0.00000000000E+00 0.  1.
        -13    1    3    3    0    0  0.23247032238E+03 -0.24959679732E+03  0.33967134773E+03  0.48137058125E+03  0.00000000000E+00 0. -1.
         22    1    1    2    0    0 -0.86648315098E+03  0.10402948308E+04  0.10515500579E+04  0.17142823309E+04  0.00000000000E+00 0.  1.
<mgrwt>
<rscale>  0 0.27121446E+04</rscale>
<asrwt>0</asrwt>
<pdfrwt beam="1">  1        2 0.44003776E+00 0.27121446E+04</pdfrwt>
<pdfrwt beam="2">  1       -2 0.98912013E-01 0.27121446E+04</pdfrwt>
<totfact> 0.15783363E+00</totfact>
</mgrwt>
</event>
<event>
 6    1  0.9988873E-007  0.8718345E+03  0.7818608E-02  0.9461491E-01
          2   -1    0    0  501    0  0.00000000000E+00  0.00000000000E+00  0.85580141307E+03  0.85580141307E+03  0.00000000000E+00 0. -1.
         -2   -1    0    0    0  501 -0.00000000000E+00 -0.00000000000E+00 -0.22204198946E+03  0.22204198946E+03  0.00000000000E+00 0.  1.
         23    2    1    2    0    0  0.75428429841E+02 -0.39389008832E+03  0.51750258053E+03  0.66028561819E+03  0.85611488895E+02 0.  0.
         13    1    3    3    0    0  0.76854674993E+02 -0.19488774760E+03  0.23638703018E+03  0.31585867610E+03  0.00000000000E+00 0.  1.
        -13    1    3    3    0    0 -0.14262451522E+01 -0.19900234072E+03  0.28111555035E+03  0.34442694209E+03  0.00000000000E+00 0. -1.
         22    1    1    2    0    0 -0.75428429841E+02  0.39389008832E+03  0.11625684308E+03  0.41755778434E+03  0.00000000000E+00 0.  1.
<mgrwt>
<rscale>  0 0.87183450E+03</rscale>
<asrwt>0</asrwt>
<pdfrwt beam="1">  1        2 0.13166175E+00 0.87183450E+03</pdfrwt>
<pdfrwt beam="2">  1       -2 0.34160306E-01 0.87183450E+03</pdfrwt>
<totfact> 0.25299964E+02</totfact>
</mgrwt>
</event>
<event>
 6    1  0.9988873E-007  0.1150689E+04  0.7818608E-02  0.9157148E-01
         -2   -1    0    0    0  501 -0.00000000000E+00  0.00000000000E+00  0.40377124761E+03  0.40377124761E+03  0.00000000000E+00 0.  1.
          2   -1    0    0  501    0  0.00000000000E+00 -0.00000000000E+00 -0.81982431761E+03  0.81982431761E+03  0.00000000000E+00 0. -1.
         23    2    1    2    0    0  0.12948571968E+03  0.38190177500E+03  0.22156219617E+03  0.46916283463E+03  0.91697553282E+02 0.  0.
         11    1    3    3    0    0  0.20069839035E+02  0.55828013353E+02  0.74149828006E+02  0.94961900292E+02  0.00000000000E+00 0.  1.
        -11    1    3    3    0    0  0.10941588065E+03  0.32607376164E+03  0.14741236816E+03  0.37420093434E+03  0.00000000000E+00 0. -1.
         22    1    1    2    0    0 -0.12948571968E+03 -0.38190177500E+03 -0.63761526617E+03  0.75443273060E+03  0.00000000000E+00 0. -1.
<mgrwt>
<rscale>  0 0.11506893E+04</rscale>
<asrwt>0</asrwt>
<pdfrwt beam="1">  1        2 0.12612682E+00 0.11506893E+04</pdfrwt>
<pdfrwt beam="2">  1       -2 0.62118654E-01 0.11506893E+04</pdfrwt>
<totfact> 0.79410189E+01</totfact>
</mgrwt>
</event>
<event>
 6    1  0.9988873E-007  0.1655451E+04  0.7818608E-02  0.8787189E-01
          1   -1    0    0  501    0  0.00000000000E+00  0.00000000000E+00  0.53661486430E+03  0.53661486430E+03  0.00000000000E+00 0. -1.
         -1   -1    0    0    0  501 -0.00000000000E+00 -0.00000000000E+00 -0.12767613357E+04  0.12767613357E+04  0.00000000000E+00 0.  1.
         23    2    1    2    0    0 -0.34737474471E+03 -0.23357472662E+03 -0.11502173244E+04  0.12273860374E+04  0.90830750690E+02 0.  0.
         13    1    3    3    0    0 -0.23336302704E+03 -0.13931285541E+03 -0.62074417560E+03  0.67763537807E+03  0.00000000000E+00 0.  1.
        -13    1    3    3    0    0 -0.11401171767E+03 -0.94261871206E+02 -0.52947314882E+03  0.54975065934E+03  0.00000000000E+00 0. -1.
         22    1    1    2    0    0  0.34737474471E+03  0.23357472662E+03  0.41007085301E+03  0.58599016260E+03  0.00000000000E+00 0. -1.
<mgrwt>
<rscale>  0 0.16554505E+04</rscale>
<asrwt>0</asrwt>
<pdfrwt beam="1">  1        1 0.82556134E-01 0.16554505E+04</pdfrwt>
<pdfrwt beam="2">  1       -1 0.19642482E+00 0.16554505E+04</pdfrwt>
<totfact> 0.61113122E+00</totfact>
</mgrwt>
</event>
<event>
 6    1  0.9988873E-007  0.7258270E+03  0.7818608E-02  0.9674056E-01
          2   -1    0    0  501    0  0.00000000000E+00  0.00000000000E+00  0.32792107284E+03  0.32792107284E+03  0.00000000000E+00 0. -1.
         -2   -1    0    0    0  501 -0.00000000000E+00 -0.00000000000E+00 -0.40163995400E+03  0.40163995400E+03  0.00000000000E+00 0.  1.
         23    2    1    2    0    0  0.17518689069E+03 -0.23958831024E+03 -0.23646252885E+03  0.39106656612E+03  0.94475004703E+02 0.  0.
         11    1    3    3    0    0  0.10679153989E+03 -0.14463502798E+03 -0.82852788071E+02  0.19796037180E+03  0.00000000000E+00 0. -1.
        -11    1    3    3    0    0  0.68395350797E+02 -0.94953282254E+02 -0.15360974078E+03  0.19310619432E+03  0.00000000000E+00 0.  1.
         22    1    1    2    0    0 -0.17518689069E+03  0.23958831024E+03  0.16274364769E+03  0.33849446071E+03  0.00000000000E+00 0. -1.
<mgrwt>
<rscale>  0 0.72582699E+03</rscale>
<asrwt>0</asrwt>
<pdfrwt beam="1">  1        2 0.50449396E-01 0.72582699E+03</pdfrwt>
<pdfrwt beam="2">  1       -2 0.61790762E-01 0.72582699E+03</pdfrwt>
<totfact> 0.24414205E+02</totfact>
</mgrwt>
</event>
<event>
 6    1  0.9988873E-007  0.5933323E+04  0.7818608E-02  0.7698724E-01
          2   -1    0    0  501    0  0.00000000000E+00  0.00000000000E+00  0.35664233356E+04  0.35664233356E+04  0.00000000000E+00 0. -1.
         -2   -1    0    0    0  501 -0.00000000000E+00 -0.00000000000E+00 -0.24677607322E+04  0.24677607322E+04  0.00000000000E+00 0.  1.
         23    2    1    2    0    0  0.73515842611E+03  0.19372246489E+04 -0.16087793049E+04  0.26248529107E+04  0.91568001698E+02 0.  0.
         13    1    3    3    0    0  0.36090390927E+03  0.10604907440E+04 -0.89944262477E+03  0.14366242672E+04  0.00000000000E+00 0. -1.
        -13    1    3    3    0    0  0.37425451683E+03  0.87673390491E+03 -0.70933668017E+03  0.11882286435E+04  0.00000000000E+00 0.  1.
         22    1    1    2    0    0 -0.73515842611E+03 -0.19372246489E+04  0.27074419083E+04  0.34093311571E+04  0.00000000000E+00 0.  1.
<mgrwt>
<rscale>  0 0.59333227E+04</rscale>
<asrwt>0</asrwt>
<pdfrwt beam="1">  1        2 0.54868051E+00 0.59333227E+04</pdfrwt>
<pdfrwt beam="2">  1       -2 0.37965550E+00 0.59333227E+04</pdfrwt>
<totfact> 0.49591658E-03</totfact>
</mgrwt>
</event>
<event>
 6    1  0.9988873E-007  0.3418192E+04  0.7818608E-02  0.8133456E-01
         -1   -1    0    0    0  501 -0.00000000000E+00  0.00000000000E+00  0.22712606005E+04  0.22712606005E+04  0.00000000000E+00 0.  1.
          1   -1    0    0  501    0  0.00000000000E+00 -0.00000000000E+00 -0.12860737593E+04  0.12860737593E+04  0.00000000000E+00 0. -1.
         23    2    1    2    0    0 -0.16226472666E+04 -0.20680326462E+03 -0.18113068588E+02  0.16383860929E+04  0.90714739928E+02 0.  0.
         11    1    3    3    0    0 -0.54611462977E+03 -0.71972138503E+02  0.36708811141E+02  0.55205861499E+03  0.00000000000E+00 0. -1.
        -11    1    3    3    0    0 -0.10765326369E+04 -0.13483112612E+03 -0.54821879729E+02  0.10863274779E+04  0.00000000000E+00 0.  1.
         22    1    1    2    0    0  0.16226472666E+04  0.20680326462E+03  0.10032999098E+04  0.19189482669E+04  0.00000000000E+00 0. -1.
<mgrwt>
<rscale>  0 0.34181917E+04</rscale>
<asrwt>0</asrwt>
<pdfrwt beam="1">  1        1 0.19785750E+00 0.34181917E+04</pdfrwt>
<pdfrwt beam="2">  1       -1 0.34942471E+00 0.34181917E+04</pdfrwt>
<totfact> 0.11912594E-01</totfact>
</mgrwt>
</event>
<event>
 6    1  0.9988873E-007  0.2440636E+04  0.7818608E-02  0.8424445E-01
          2   -1    0    0  501    0  0.00000000000E+00  0.00000000000E+00  0.23016828906E+04  0.23016828906E+04  0.00000000000E+00 0. -1.
         -2   -1    0    0    0  501 -0.00000000000E+00 -0.00000000000E+00 -0.64699419151E+03  0.64699419151E+03  0.00000000000E+00 0.  1.
         23    2    1    2    0    0 -0.77319672539E+03  0.32467485779E+03 -0.24013020177E+03  0.87658017161E+03  0.86506323651E+02 0.  0.
         13    1    3    3    0    0 -0.44457797052E+03  0.14169265500E+03 -0.12116977334E+03  0.48208764175E+03  0.00000000000E+00 0. -1.
        -13    1    3    3    0    0 -0.32861875487E+03  0.18298220279E+03 -0.11896042843E+03  0.39449252987E+03  0.00000000000E+00 0.  1.
         22    1    1    2    0    0  0.77319672539E+03 -0.32467485779E+03  0.18948189009E+04  0.20720969105E+04  0.00000000000E+00 0. -1.
<mgrwt>
<rscale>  0 0.24406355E+04</rscale>
<asrwt>0</asrwt>
<pdfrwt beam="1">  1        2 0.35410506E+00 0.24406355E+04</pdfrwt>
<pdfrwt beam="2">  1       -2 0.99537569E-01 0.24406355E+04</pdfrwt>
<totfact> 0.33853367E+00</totfact>
</mgrwt>
</event>
<event>
 6    1  0.9988873E-007  0.1675891E+04  0.7818608E-02  0.8775235E-01
          2   -1    0    0  501    0  0.00000000000E+00  0.00000000000E+00  0.90841390791E+03  0.90841390791E+03  0.00000000000E+00 0. -1.
         -2   -1    0    0    0  501 -0.00000000000E+00 -0.00000000000E+00 -0.77294340785E+03  0.77294340785E+03  0.00000000000E+00 0.  1.
         23    2    1    2    0    0 -0.24794476792E+03  0.61631553388E+03 -0.44043698568E+03  0.80215831815E+03  0.90287229342E+02 0.  0.
         13    1    3    3    0    0 -0.72387206649E+02  0.20577605616E+03 -0.19530619024E+03  0.29279378566E+03  0.00000000000E+00 0.  1.
        -13    1    3    3    0    0 -0.17555756127E+03  0.41053947773E+03 -0.24513079544E+03  0.50936453250E+03  0.00000000000E+00 0. -1.
         22    1    1    2    0    0  0.24794476792E+03 -0.61631553388E+03  0.57590748574E+03  0.87919899760E+03  0.00000000000E+00 0. -1.
<mgrwt>
<rscale>  0 0.16758909E+04</rscale>
<asrwt>0</asrwt>
<pdfrwt beam="1">  1        2 0.13975599E+00 0.16758909E+04</pdfrwt>
<pdfrwt beam="2">  1       -2 0.11891437E+00 0.16758909E+04</pdfrwt>
<totfact> 0.14985066E+01</totfact>
</mgrwt>
</event>
<event>
 6    1  0.9988873E-007  0.2799126E+04  0.7818608E-02  0.8303540E-01
         -1   -1    0    0    0  501 -0.00000000000E+00  0.00000000000E+00  0.97769288012E+03  0.97769288012E+03  0.00000000000E+00 0.  1.
          1   -1    0    0  501    0  0.00000000000E+00 -0.00000000000E+00 -0.20034688492E+04  0.20034688492E+04  0.00000000000E+00 0. -1.
         23    2    1    2    0    0  0.24973584588E+03 -0.86421247157E+03 -0.16532909326E+04  0.18843453279E+04  0.90306246902E+02 0.  0.
         13    1    3    3    0    0  0.24488372508E+03 -0.76479709150E+03 -0.14345734236E+04  0.16440448710E+04  0.00000000000E+00 0.  1.
        -13    1    3    3    0    0  0.48521207963E+01 -0.99415380071E+02 -0.21871750899E+03  0.24030045695E+03  0.00000000000E+00 0. -1.
         22    1    1    2    0    0 -0.24973584588E+03  0.86421247157E+03  0.62751496359E+03  0.10968164014E+04  0.00000000000E+00 0.  1.
<mgrwt>
<rscale>  0 0.27991265E+04</rscale>
<asrwt>0</asrwt>
<pdfrwt beam="1">  1        1 0.30822597E+00 0.27991265E+04</pdfrwt>
<pdfrwt beam="2">  1       -1 0.15041429E+00 0.27991265E+04</pdfrwt>
<totfact> 0.88858056E-01</totfact>
</mgrwt>
</event>
<event>
 6    1  0.9988873E-007  0.1129646E+04  0.7818608E-02  0.9176769E-01
         -1   -1    0    0    0  501 -0.00000000000E+00  0.00000000000E+00  0.47485921678E+03  0.47485921678E+03  0.00000000000E+00 0.  1.
          1   -1    0    0  501    0  0.00000000000E+00 -0.00000000000E+00 -0.67183059488E+03  0.67183059488E+03  0.00000000000E+00 0. -1.
         23    2    1    2    0    0 -0.23172956679E+03  0.49622049802E+03 -0.22452634359E+03  0.59833531782E+03  0.87519705237E+02 0.  0.
         11    1    3    3    0    0 -0.63447301507E+02  0.15628109421E+03 -0.27473100258E+02  0.17089210548E+03  0.00000000000E+00 0.  1.
        -11    1    3    3    0    0 -0.16828226528E+03  0.33993940381E+03 -0.19705324333E+03  0.42744321234E+03  0.00000000000E+00 0. -1.
         22    1    1    2    0    0  0.23172956679E+03 -0.49622049802E+03  0.27554965486E+02  0.54835449383E+03  0.00000000000E+00 0.  1.
<mgrwt>
<rscale>  0 0.11296459E+04</rscale>
<asrwt>0</asrwt>
<pdfrwt beam="1">  1        1 0.10335855E+00 0.11296459E+04</pdfrwt>
<pdfrwt beam="2">  1       -1 0.73055265E-01 0.11296459E+04</pdfrwt>
<totfact> 0.54478753E+01</totfact>
</mgrwt>
</event>
<event>
 6    1  0.9988873E-007  0.2575277E+04  0.7818608E-02  0.8376648E-01
          2   -1    0    0  501    0  0.00000000000E+00  0.00000000000E+00  0.20790801156E+04  0.20790801156E+04  0.00000000000E+00 0. -1.
         -2   -1    0    0    0  501 -0.00000000000E+00 -0.00000000000E+00 -0.79747410784E+03  0.79747410784E+03  0.00000000000E+00 0.  1.
         23    2    1    2    0    0  0.27112400871E+03 -0.40668864296E+03  0.19702981366E+04  0.20320420988E+04  0.90644710944E+02 0.  0.
         13    1    3    3    0    0  0.65201494169E+02 -0.15654767185E+03  0.79621808136E+03  0.81407717171E+03  0.00000000000E+00 0.  1.
        -13    1    3    3    0    0  0.20592251454E+03 -0.25014097111E+03  0.11740800553E+04  0.12179649271E+04  0.00000000000E+00 0. -1.
         22    1    1    2    0    0 -0.27112400871E+03  0.40668864296E+03 -0.68869212884E+03  0.84451212468E+03  0.00000000000E+00 0.  1.
<mgrwt>
<rscale>  0 0.25752767E+04</rscale>
<asrwt>0</asrwt>
<pdfrwt beam="1">  1        2 0.31985848E+00 0.25752767E+04</pdfrwt>
<pdfrwt beam="2">  1       -2 0.12268833E+00 0.25752767E+04</pdfrwt>
<totfact> 0.26881825E+00</totfact>
</mgrwt>
</event>
<event>
 6    1  0.9988873E-007  0.1502703E+04  0.7818608E-02  0.8882658E-01
          2   -1    0    0  501    0  0.00000000000E+00  0.00000000000E+00  0.33454742728E+04  0.33454742728E+04  0.00000000000E+00 0. -1.
         -2   -1    0    0    0  501 -0.00000000000E+00 -0.00000000000E+00 -0.16874405938E+03  0.16874405938E+03  0.00000000000E+00 0.  1.
         23    2    1    2    0    0  0.47333060977E+03  0.23626437199E+03  0.35589272251E+03  0.64420319811E+03  0.92061994942E+02 0.  0.
         13    1    3    3    0    0  0.39699208033E+03  0.23221100735E+03  0.29416256819E+03  0.54594530889E+03  0.00000000000E+00 0. -1.
        -13    1    3    3    0    0  0.76338529436E+02  0.40533646348E+01  0.61730154322E+02  0.98257889220E+02  0.00000000000E+00 0.  1.
         22    1    1    2    0    0 -0.47333060977E+03 -0.23626437199E+03  0.28208374909E+04  0.28700151341E+04  0.00000000000E+00 0. -1.
<mgrwt>
<rscale>  0 0.15027028E+04</rscale>
<asrwt>0</asrwt>
<pdfrwt beam="1">  1        2 0.51468830E+00 0.15027028E+04</pdfrwt>
<pdfrwt beam="2">  1       -2 0.25960627E-01 0.15027028E+04</pdfrwt>
<totfact> 0.13592723E+01</totfact>
</mgrwt>
</event>
<event>
 6    1  0.9988873E-007  0.7347130E+03  0.7818608E-02  0.9659643E-01
         -3   -1    0    0    0  501 -0.00000000000E+00  0.00000000000E+00  0.32260952652E+03  0.32260952652E+03  0.00000000000E+00 0.  1.
          3   -1    0    0  501    0  0.00000000000E+00 -0.00000000000E+00 -0.41831002714E+03  0.41831002714E+03  0.00000000000E+00 0. -1.
         23    2    1    2    0    0  0.31561409474E+02 -0.25521181360E+03  0.20745234420E+03  0.34338862443E+03  0.93541861777E+02 0.  0.
         13    1    3    3    0    0  0.55805363171E+02 -0.90077141097E+02  0.68118015924E+02  0.12596902000E+03  0.00000000000E+00 0. -1.
        -13    1    3    3    0    0 -0.24243953697E+02 -0.16513467250E+03  0.13933432827E+03  0.21741960443E+03  0.00000000000E+00 0.  1.
         22    1    1    2    0    0 -0.31561409474E+02  0.25521181360E+03 -0.30315284482E+03  0.39753092923E+03  0.00000000000E+00 0.  1.
<mgrwt>
<rscale>  0 0.73471300E+03</rscale>
<asrwt>0</asrwt>
<pdfrwt beam="1">  1        3 0.64355389E-01 0.73471300E+03</pdfrwt>
<pdfrwt beam="2">  1       -3 0.49632235E-01 0.73471300E+03</pdfrwt>
<totfact> 0.24843402E+01</totfact>
</mgrwt>
</event>
<event>
 6    1  0.9988873E-007  0.3243094E+04  0.7818608E-02  0.8177528E-01
         -2   -1    0    0    0  501 -0.00000000000E+00  0.00000000000E+00  0.20858010403E+04  0.20858010403E+04  0.00000000000E+00 0.  1.
          2   -1    0    0  501    0  0.00000000000E+00 -0.00000000000E+00 -0.12606259583E+04  0.12606259583E+04  0.00000000000E+00 0. -1.
         23    2    1    2    0    0  0.96422419584E+02 -0.95023978973E+03  0.17634611017E+04  0.20075343233E+04  0.90255531555E+02 0.  0.
         13    1    3    3    0    0  0.36526047328E+02 -0.62334137069E+03  0.12200861716E+04  0.13705834096E+04  0.00000000000E+00 0.  1.
        -13    1    3    3    0    0  0.59896372256E+02 -0.32689841903E+03  0.54337493009E+03  0.63695091367E+03  0.00000000000E+00 0. -1.
         22    1    1    2    0    0 -0.96422419584E+02  0.95023978973E+03 -0.93828601976E+03  0.13388926753E+04  0.00000000000E+00 0. -1.
<mgrwt>
<rscale>  0 0.32430942E+04</rscale>
<asrwt>0</asrwt>
<pdfrwt beam="1">  1        2 0.19394246E+00 0.32430942E+04</pdfrwt>
<pdfrwt beam="2">  1       -2 0.32089247E+00 0.32430942E+04</pdfrwt>
<totfact> 0.34577725E-01</totfact>
</mgrwt>
</event>
<event>
 6    1  0.9988873E-007  0.1346441E+04  0.7818608E-02  0.8993526E-01
         -2   -1    0    0    0  501 -0.00000000000E+00  0.00000000000E+00  0.34241284238E+03  0.34241284238E+03  0.00000000000E+00 0.  1.
          2   -1    0    0  501    0  0.00000000000E+00 -0.00000000000E+00 -0.13236247451E+04  0.13236247451E+04  0.00000000000E+00 0. -1.
         23    2    1    2    0    0 -0.39726309885E+01  0.19601426933E+03 -0.12857194082E+04  0.13038743695E+04  0.92609930234E+02 0.  0.
         13    1    3    3    0    0 -0.45667459614E+02  0.67878811190E+02 -0.51749665521E+03  0.52392350398E+03  0.00000000000E+00 0. -1.
        -13    1    3    3    0    0  0.41694828626E+02  0.12813545814E+03 -0.76822275297E+03  0.77995086547E+03  0.00000000000E+00 0.  1.
         22    1    1    2    0    0  0.39726309885E+01 -0.19601426933E+03  0.30450750548E+03  0.36216321800E+03  0.00000000000E+00 0.  1.
<mgrwt>
<rscale>  0 0.13464414E+04</rscale>
<asrwt>0</asrwt>
<pdfrwt beam="1">  1        2 0.20363458E+00 0.13464414E+04</pdfrwt>
<pdfrwt beam="2">  1       -2 0.52678898E-01 0.13464414E+04</pdfrwt>
<totfact> 0.53186222E+01</totfact>
</mgrwt>
</event>
<event>
 6    1  0.9988873E-007  0.1960477E+04  0.7818608E-02  0.8625325E-01
         -1   -1    0    0    0  501 -0.00000000000E+00  0.00000000000E+00  0.33636891215E+03  0.33636891215E+03  0.00000000000E+00 0.  1.
          1   -1    0    0  501    0  0.00000000000E+00 -0.00000000000E+00 -0.28565889237E+04  0.28565889237E+04  0.00000000000E+00 0. -1.
         23    2    1    2    0    0  0.88390090777E+03 -0.39670963273E+03 -0.14786023707E+04  0.17704155141E+04  0.97194518455E+02 0.  0.
         13    1    3    3    0    0  0.48194823180E+03 -0.17936117612E+03 -0.71924661806E+03  0.88417205748E+03  0.00000000000E+00 0.  1.
        -13    1    3    3    0    0  0.40195267597E+03 -0.21734845661E+03 -0.75935575268E+03  0.88624345664E+03  0.00000000000E+00 0. -1.
         22    1    1    2    0    0 -0.88390090777E+03  0.39670963273E+03 -0.10416176408E+04  0.14225423217E+04  0.00000000000E+00 0.  1.
<mgrwt>
<rscale>  0 0.19604772E+04</rscale>
<asrwt>0</asrwt>
<pdfrwt beam="1">  1        1 0.43947522E+00 0.19604772E+04</pdfrwt>
<pdfrwt beam="2">  1       -1 0.51749063E-01 0.19604772E+04</pdfrwt>
<totfact> 0.26599925E+00</totfact>
</mgrwt>
</event>
<event>
 6    1  0.9988873E-007  0.8681444E+03  0.7818608E-02  0.9466303E-01
          2   -1    0    0  501    0  0.00000000000E+00  0.00000000000E+00  0.10731414000E+04  0.10731414000E+04  0.00000000000E+00 0. -1.
         -2   -1    0    0    0  501 -0.00000000000E+00 -0.00000000000E+00 -0.17557673553E+03  0.17557673553E+03  0.00000000000E+00 0.  1.
         23    2    1    2    0    0  0.19107030683E+03  0.16078217785E+00  0.10066795918E+04  0.10286864211E+04  0.91016834982E+02 0.  0.
         11    1    3    3    0    0 -0.94064747864E+01 -0.15128834350E+01  0.80162722523E+02  0.80726901752E+02  0.00000000000E+00 0.  1.
        -11    1    3    3    0    0  0.20047678162E+03  0.16736656128E+01  0.92651686933E+03  0.94795951932E+03  0.00000000000E+00 0. -1.
         22    1    1    2    0    0 -0.19107030683E+03 -0.16078217785E+00 -0.10911492736E+03  0.22003171448E+03  0.00000000000E+00 0.  1.
<mgrwt>
<rscale>  0 0.86814437E+03</rscale>
<asrwt>0</asrwt>
<pdfrwt beam="1">  1        2 0.16509867E+00 0.86814437E+03</pdfrwt>
<pdfrwt beam="2">  1       -2 0.27011806E-01 0.86814437E+03</pdfrwt>
<totfact> 0.28255418E+02</totfact>
</mgrwt>
</event>
<event>
 6    1  0.9988873E-007  0.2572157E+04  0.7818608E-02  0.8377721E-01
         -1   -1    0    0    0  501 -0.00000000000E+00  0.00000000000E+00  0.70815716390E+03  0.70815716390E+03  0.00000000000E+00 0.  1.
          1   -1    0    0  501    0  0.00000000000E+00 -0.00000000000E+00 -0.23356363357E+04  0.23356363357E+04  0.00000000000E+00 0. -1.
         23    2    1    2    0    0 -0.58139699077E+03  0.22721348285E+03 -0.21434500399E+04  0.22339327928E+04  0.80182427357E+02 0.  0.
         13    1    3    3    0    0 -0.39385577690E+03  0.18440816311E+03 -0.15673488592E+04  0.16265642287E+04  0.00000000000E+00 0. -1.
        -13    1    3    3    0    0 -0.18754121387E+03  0.42805319741E+02 -0.57610118068E+03  0.60736856411E+03  0.00000000000E+00 0.  1.
         22    1    1    2    0    0  0.58139699077E+03 -0.22721348285E+03  0.51597086810E+03  0.80986070678E+03  0.00000000000E+00 0.  1.
<mgrwt>
<rscale>  0 0.25721568E+04</rscale>
<asrwt>0</asrwt>
<pdfrwt beam="1">  1        1 0.35932867E+00 0.25721568E+04</pdfrwt>
<pdfrwt beam="2">  1       -1 0.10894725E+00 0.25721568E+04</pdfrwt>
<totfact> 0.12122249E+00</totfact>
</mgrwt>
</event>
<event>
 6    1  0.9988873E-007  0.1675817E+04  0.7818608E-02  0.8775278E-01
         -2   -1    0    0    0  501 -0.00000000000E+00  0.00000000000E+00  0.30160799228E+03  0.30160799228E+03  0.00000000000E+00 0.  1.
          2   -1    0    0  501    0  0.00000000000E+00 -0.00000000000E+00 -0.23278240127E+04  0.23278240127E+04  0.00000000000E+00 0. -1.
         23    2    1    2    0    0 -0.18020676838E+03  0.78340734699E+03 -0.13733124076E+04  0.15938236435E+04  0.89918224528E+02 0.  0.
         11    1    3    3    0    0 -0.84243895453E+02  0.25457045715E+03 -0.52633677386E+03  0.59070597685E+03  0.00000000000E+00 0. -1.
        -11    1    3    3    0    0 -0.95962872930E+02  0.52883688985E+03 -0.84697563377E+03  0.10031176667E+04  0.00000000000E+00 0.  1.
         22    1    1    2    0    0  0.18020676838E+03 -0.78340734699E+03 -0.65290361281E+03  0.10356083615E+04  0.00000000000E+00 0.  1.
<mgrwt>
<rscale>  0 0.16758166E+04</rscale>
<asrwt>0</asrwt>
<pdfrwt beam="1">  1        2 0.35812678E+00 0.16758166E+04</pdfrwt>
<pdfrwt beam="2">  1       -2 0.46401228E-01 0.16758166E+04</pdfrwt>
<totfact> 0.18369728E+01</totfact>
</mgrwt>
</event>
<event>
 6    1  0.9988873E-007  0.1059080E+04  0.7818608E-02  0.9246019E-01
         -2   -1    0    0    0  501 -0.00000000000E+00  0.00000000000E+00  0.11638037166E+04  0.11638037166E+04  0.00000000000E+00 0.  1.
          2   -1    0    0  501    0  0.00000000000E+00 -0.00000000000E+00 -0.24094505604E+03  0.24094505604E+03  0.00000000000E+00 0. -1.
         23    2    1    2    0    0 -0.44305506924E+03 -0.51308222183E+02  0.97737567608E+02  0.46679613734E+03  0.97034394267E+02 0.  0.
         11    1    3    3    0    0 -0.33656441162E+03 -0.10468448860E+02  0.40402207334E+02  0.33914234467E+03  0.00000000000E+00 0.  1.
        -11    1    3    3    0    0 -0.10649065762E+03 -0.40839773324E+02  0.57335360274E+02  0.12765379267E+03  0.00000000000E+00 0. -1.
         22    1    1    2    0    0  0.44305506924E+03  0.51308222183E+02  0.82512109290E+03  0.93795263526E+03  0.00000000000E+00 0.  1.
<mgrwt>
<rscale>  0 0.10590803E+04</rscale>
<asrwt>0</asrwt>
<pdfrwt beam="1">  1        2 0.37068471E-01 0.10590803E+04</pdfrwt>
<pdfrwt beam="2">  1       -2 0.17904672E+00 0.10590803E+04</pdfrwt>
<totfact> 0.25683925E+01</totfact>
</mgrwt>
</event>
<event>
 6    1  0.9988873E-007  0.2765196E+04  0.7818608E-02  0.8314156E-01
          2   -1    0    0  501    0  0.00000000000E+00  0.00000000000E+00  0.29598975681E+04  0.29598975681E+04  0.00000000000E+00 0. -1.
         -2   -1    0    0    0  501 -0.00000000000E+00 -0.00000000000E+00 -0.64582537589E+03  0.64582537589E+03  0.00000000000E+00 0.  1.
         23    2    1    2    0    0 -0.68937992047E+03 -0.59722256376E+03 -0.19416827946E+03  0.93679249733E+03  0.89215452107E+02 0.  0.
         13    1    3    3    0    0 -0.25782784891E+03 -0.19390238133E+03 -0.31597391830E+02  0.32414769524E+03  0.00000000000E+00 0.  1.
        -13    1    3    3    0    0 -0.43155207156E+03 -0.40332018243E+03 -0.16257088763E+03  0.61264480209E+03  0.00000000000E+00 0. -1.
         22    1    1    2    0    0  0.68937992047E+03  0.59722256376E+03  0.25082404717E+04  0.26689304467E+04  0.00000000000E+00 0. -1.
<mgrwt>
<rscale>  0 0.27651958E+04</rscale>
<asrwt>0</asrwt>
<pdfrwt beam="1">  1        2 0.45536885E+00 0.27651958E+04</pdfrwt>
<pdfrwt beam="2">  1       -2 0.99357752E-01 0.27651958E+04</pdfrwt>
<totfact> 0.13495341E+00</totfact>
</mgrwt>
</event>
<event>
 6    1  0.9988873E-007  0.2236131E+04  0.7818608E-02  0.8503538E-01
         -1   -1    0    0    0  501 -0.00000000000E+00  0.00000000000E+00  0.42650764822E+03  0.42650764822E+03  0.00000000000E+00 0.  1.
          1   -1    0    0  501    0  0.00000000000E+00 -0.00000000000E+00 -0.29309446089E+04  0.29309446089E+04  0.00000000000E+00 0. -1.
         23    2    1    2    0    0  0.91338715340E+03  0.58562096505E+03 -0.16477103034E+04  0.19749875842E+04  0.91644459367E+02 0.  0.
         13    1    3    3    0    0  0.61618839798E+03  0.41127123750E+03 -0.11960736347E+04  0.14069201513E+04  0.00000000000E+00 0.  1.
        -13    1    3    3    0    0  0.29719875542E+03  0.17434972755E+03 -0.45163666872E+03  0.56806743284E+03  0.00000000000E+00 0. -1.
         22    1    1    2    0    0 -0.91338715340E+03 -0.58562096505E+03 -0.85672665727E+03  0.13824646730E+04  0.00000000000E+00 0. -1.
<mgrwt>
<rscale>  0 0.22361308E+04</rscale>
<asrwt>0</asrwt>
<pdfrwt beam="1">  1        1 0.45091455E+00 0.22361308E+04</pdfrwt>
<pdfrwt beam="2">  1       -1 0.65616562E-01 0.22361308E+04</pdfrwt>
<totfact> 0.14366947E+00</totfact>
</mgrwt>
</event>
<event>
 6    1  0.9988873E-007  0.2085813E+04  0.7818608E-02  0.8567519E-01
         -2   -1    0    0    0  501 -0.00000000000E+00  0.00000000000E+00  0.47612634616E+03  0.47612634616E+03  0.00000000000E+00 0.  1.
          2   -1    0    0  501    0  0.00000000000E+00 -0.00000000000E+00 -0.22843807928E+04  0.22843807928E+04  0.00000000000E+00 0. -1.
         23    2    1    2    0    0 -0.69642436618E+02  0.56832506366E+03  0.24441269110E+03  0.62947785120E+03  0.93066398951E+02 0.  0.
         11    1    3    3    0    0 -0.70207373872E+02  0.20978064669E+03  0.83004113413E+02  0.23627669778E+03  0.00000000000E+00 0.  1.
        -11    1    3    3    0    0  0.56493725487E+00  0.35854441697E+03  0.16140857769E+03  0.39320115342E+03  0.00000000000E+00 0. -1.
         22    1    1    2    0    0  0.69642436618E+02 -0.56832506366E+03 -0.20526671378E+04  0.21310292878E+04  0.00000000000E+00 0. -1.
<mgrwt>
<rscale>  0 0.20858129E+04</rscale>
<asrwt>0</asrwt>
<pdfrwt beam="1">  1        2 0.35144320E+00 0.20858129E+04</pdfrwt>
<pdfrwt beam="2">  1       -2 0.73250207E-01 0.20858129E+04</pdfrwt>
<totfact> 0.71826480E+00</totfact>
</mgrwt>
</event>
<event>
 6    1  0.9988873E-007  0.2386451E+04  0.7818608E-02  0.8444594E-01
         -1   -1    0    0    0  501 -0.00000000000E+00  0.00000000000E+00  0.93550995299E+03  0.93550995299E+03  0.00000000000E+00 0.  1.
          1   -1    0    0  501    0  0.00000000000E+00 -0.00000000000E+00 -0.15219367496E+04  0.15219367496E+04  0.00000000000E+00 0. -1.
         23    2    1    2    0    0 -0.92004299421E+03 -0.55811817614E+03  0.23309724585E+03  0.11048216008E+04  0.91221893585E+02 0.  0.
         13    1    3    3    0    0 -0.42812737068E+03 -0.24090036789E+03  0.62953090279E+02  0.49526672041E+03  0.00000000000E+00 0. -1.
        -13    1    3    3    0    0 -0.49191562354E+03 -0.31721780825E+03  0.17014415557E+03  0.60955488040E+03  0.00000000000E+00 0.  1.
         22    1    1    2    0    0  0.92004299421E+03  0.55811817614E+03 -0.81952404245E+03  0.13526251018E+04  0.00000000000E+00 0. -1.
<mgrwt>
<rscale>  0 0.23864509E+04</rscale>
<asrwt>0</asrwt>
<pdfrwt beam="1">  1        1 0.23414411E+00 0.23864509E+04</pdfrwt>
<pdfrwt beam="2">  1       -1 0.14392461E+00 0.23864509E+04</pdfrwt>
<totfact> 0.22085616E+00</totfact>
</mgrwt>
</event>
<event>
 6    1  0.9988873E-007  0.1520513E+04  0.7818608E-02  0.8870925E-01
         -1   -1    0    0    0  501 -0.00000000000E+00  0.00000000000E+00  0.69842187215E+03  0.69842187215E+03  0.00000000000E+00 0.  1.
          1   -1    0    0  501    0  0.00000000000E+00 -0.00000000000E+00 -0.82756560489E+03  0.82756560489E+03  0.00000000000E+00 0. -1.
         23    2    1    2    0    0  0.46372237587E+03  0.53290458136E+03  0.20926208285E+03  0.74269683447E+03  0.93713573663E+02 0.  0.
         13    1    3    3    0    0  0.39360554258E+03  0.39568715366E+03  0.17411911496E+03  0.58464614333E+03  0.00000000000E+00 0.  1.
        -13    1    3    3    0    0  0.70116833297E+02  0.13721742770E+03  0.35142967896E+02  0.15805069114E+03  0.00000000000E+00 0. -1.
         22    1    1    2    0    0 -0.46372237587E+03 -0.53290458136E+03 -0.33840581559E+03  0.78329064258E+03  0.00000000000E+00 0. -1.
<mgrwt>
<rscale>  0 0.15205130E+04</rscale>
<asrwt>0</asrwt>
<pdfrwt beam="1">  1        1 0.12731779E+00 0.15205130E+04</pdfrwt>
<pdfrwt beam="2">  1       -1 0.10744952E+00 0.15205130E+04</pdfrwt>
<totfact> 0.16307963E+01</totfact>
</mgrwt>
</event>
<event>
 6    1  0.9988873E-007  0.8064108E+03  0.7818608E-02  0.9550784E-01
         -1   -1    0    0    0  501 -0.00000000000E+00  0.00000000000E+00  0.25638255744E+03  0.25638255744E+03  0.00000000000E+00 0.  1.
          1   -1    0    0  501    0  0.00000000000E+00 -0.00000000000E+00 -0.63410937014E+03  0.63410937014E+03  0.00000000000E+00 0. -1.
         23    2    1    2    0    0 -0.33649203790E+03  0.21286650318E+03 -0.18672770802E+03  0.44888158153E+03  0.89935518846E+02 0.  0.
         11    1    3    3    0    0 -0.25508257875E+03  0.11328091025E+03 -0.13773523837E+03  0.31124055407E+03  0.00000000000E+00 0. -1.
        -11    1    3    3    0    0 -0.81409459144E+02  0.99585592930E+02 -0.48992469654E+02  0.13764102746E+03  0.00000000000E+00 0.  1.
         22    1    1    2    0    0  0.33649203790E+03 -0.21286650318E+03 -0.19099910469E+03  0.44161034605E+03  0.00000000000E+00 0. -1.
<mgrwt>
<rscale>  0 0.80641077E+03</rscale>
<asrwt>0</asrwt>
<pdfrwt beam="1">  1        1 0.97555286E-01 0.80641077E+03</pdfrwt>
<pdfrwt beam="2">  1       -1 0.39443471E-01 0.80641077E+03</pdfrwt>
<totfact> 0.19946927E+02</totfact>
</mgrwt>
</event>
<event>
 6    1  0.9988873E-007  0.1419355E+04  0.7818608E-02  0.8939926E-01
         -2   -1    0    0    0  501 -0.00000000000E+00  0.00000000000E+00  0.40308639768E+03  0.40308639768E+03  0.00000000000E+00 0.  1.
          2   -1    0    0  501    0  0.00000000000E+00 -0.00000000000E+00 -0.12494644665E+04  0.12494644665E+04  0.00000000000E+00 0. -1.
         23    2    1    2    0    0  0.42728321475E+03  0.44679130900E+03 -0.82466288129E+03  0.10339516654E+04  0.82424263153E+02 0.  0.
         13    1    3    3    0    0  0.29333176103E+03  0.26561491083E+03 -0.47871053316E+03  0.62109466061E+03  0.00000000000E+00 0.  1.
        -13    1    3    3    0    0  0.13395145373E+03  0.18117639816E+03 -0.34595234813E+03  0.41285700476E+03  0.00000000000E+00 0. -1.
         22    1    1    2    0    0 -0.42728321475E+03 -0.44679130900E+03 -0.21715187541E+02  0.61859919881E+03  0.00000000000E+00 0.  1.
<mgrwt>
<rscale>  0 0.14193550E+04</rscale>
<asrwt>0</asrwt>
<pdfrwt beam="1">  1        2 0.19222530E+00 0.14193550E+04</pdfrwt>
<pdfrwt beam="2">  1       -2 0.62013294E-01 0.14193550E+04</pdfrwt>
<totfact> 0.41539879E+01</totfact>
</mgrwt>
</event>
<event>
 6    1  0.9988873E-007  0.4087791E+04  0.7818608E-02  0.7987067E-01
          2   -1    0    0  501    0  0.00000000000E+00  0.00000000000E+00  0.26591293767E+04  0.26591293767E+04  0.00000000000E+00 0. -1.
         -2   -1    0    0    0  501 -0.00000000000E+00 -0.00000000000E+00 -0.15710061747E+04  0.15710061747E+04  0.00000000000E+00 0.  1.
         23    2    1    2    0    0 -0.13648685825E+04  0.12799340073E+04  0.13928330988E+04  0.23343651455E+04  0.90439376166E+02 0.  0.
         13    1    3    3    0    0 -0.26931646622E+03  0.20516165353E+03  0.24708553975E+03  0.41913473610E+03  0.00000000000E+00 0.  1.
        -13    1    3    3    0    0 -0.10955521163E+04  0.10747723537E+04  0.11457475590E+04  0.19152304094E+04  0.00000000000E+00 0. -1.
         22    1    1    2    0    0  0.13648685825E+04 -0.12799340073E+04 -0.30470989677E+03  0.18957704059E+04  0.00000000000E+00 0.  1.
<mgrwt>
<rscale>  0 0.40877909E+04</rscale>
<asrwt>0</asrwt>
<pdfrwt beam="1">  1        2 0.40909683E+00 0.40877909E+04</pdfrwt>
<pdfrwt beam="2">  1       -2 0.24169326E+00 0.40877909E+04</pdfrwt>
<totfact> 0.15904662E-01</totfact>
</mgrwt>
</event>
<event>
 6    1  0.9988873E-007  0.1683618E+04  0.7818608E-02  0.8770763E-01
          1   -1    0    0  501    0  0.00000000000E+00  0.00000000000E+00  0.57518116083E+03  0.57518116083E+03  0.00000000000E+00 0. -1.
         -1   -1    0    0    0  501 -0.00000000000E+00 -0.00000000000E+00 -0.12320330947E+04  0.12320330947E+04  0.00000000000E+00 0.  1.
         23    2    1    2    0    0 -0.35155765796E+02 -0.81450272226E+03 -0.54390439790E+03  0.98416640865E+03  0.90005074420E+02 0.  0.
         13    1    3    3    0    0  0.94331605982E+01 -0.29164535911E+03 -0.15052670282E+03  0.32833563357E+03  0.00000000000E+00 0.  1.
        -13    1    3    3    0    0 -0.44588926394E+02 -0.52285736315E+03 -0.39337769507E+03  0.65583077508E+03  0.00000000000E+00 0. -1.
         22    1    1    2    0    0  0.35155765796E+02  0.81450272226E+03 -0.11294753601E+03  0.82304784692E+03  0.00000000000E+00 0. -1.
<mgrwt>
<rscale>  0 0.16836178E+04</rscale>
<asrwt>0</asrwt>
<pdfrwt beam="1">  1        1 0.88489410E-01 0.16836178E+04</pdfrwt>
<pdfrwt beam="2">  1       -1 0.18954355E+00 0.16836178E+04</pdfrwt>
<totfact> 0.61728068E+00</totfact>
</mgrwt>
</event>
<event>
 6    1  0.9988873E-007  0.2537263E+04  0.7818608E-02  0.8389829E-01
         -2   -1    0    0    0  501 -0.00000000000E+00  0.00000000000E+00  0.75083317869E+03  0.75083317869E+03  0.00000000000E+00 0.  1.
          2   -1    0    0  501    0  0.00000000000E+00 -0.00000000000E+00 -0.21435200050E+04  0.21435200050E+04  0.00000000000E+00 0. -1.
         23    2    1    2    0    0  0.55600523004E+03 -0.11366410745E+04 -0.64271091617E+03  0.14234491712E+04  0.10970630453E+03 0.  0.
         11    1    3    3    0    0  0.32947262563E+03 -0.75793831922E+03 -0.37736173509E+03  0.90852880301E+03  0.00000000000E+00 0. -1.
        -11    1    3    3    0    0  0.22653260441E+03 -0.37870275529E+03 -0.26534918108E+03  0.51492036823E+03  0.00000000000E+00 0.  1.
         22    1    1    2    0    0 -0.55600523004E+03  0.11366410745E+04 -0.74997591018E+03  0.14709040125E+04  0.00000000000E+00 0. -1.
<mgrwt>
<rscale>  0 0.25372630E+04</rscale>
<asrwt>0</asrwt>
<pdfrwt beam="1">  1        2 0.32977231E+00 0.25372630E+04</pdfrwt>
<pdfrwt beam="2">  1       -2 0.11551280E+00 0.25372630E+04</pdfrwt>
<totfact> 0.28807955E+00</totfact>
</mgrwt>
</event>
<event>
 6    1  0.9988873E-007  0.4665507E+04  0.7818608E-02  0.7882285E-01
          2   -1    0    0  501    0  0.00000000000E+00  0.00000000000E+00  0.28665120274E+04  0.28665120274E+04  0.00000000000E+00 0. -1.
         -2   -1    0    0    0  501 -0.00000000000E+00 -0.00000000000E+00 -0.18983836494E+04  0.18983836494E+04  0.00000000000E+00 0.  1.
         23    2    1    2    0    0 -0.13667129328E+04  0.12996093858E+04 -0.91635996212E+03  0.20987776936E+04  0.90903412948E+02 0.  0.
         13    1    3    3    0    0 -0.96433958249E+03  0.92169306047E+03 -0.60187912227E+03  0.14634641799E+04  0.00000000000E+00 0.  1.
        -13    1    3    3    0    0 -0.40237335033E+03  0.37791632531E+03 -0.31448083985E+03  0.63531351365E+03  0.00000000000E+00 0. -1.
         22    1    1    2    0    0  0.13667129328E+04 -0.12996093858E+04  0.18844883401E+04  0.26661179832E+04  0.00000000000E+00 0. -1.
<mgrwt>
<rscale>  0 0.46655073E+04</rscale>
<asrwt>0</asrwt>
<pdfrwt beam="1">  1        2 0.44100185E+00 0.46655073E+04</pdfrwt>
<pdfrwt beam="2">  1       -2 0.29205902E+00 0.46655073E+04</pdfrwt>
<totfact> 0.55964333E-02</totfact>
</mgrwt>
</event>
<event>
 6    1  0.9988873E-007  0.3707824E+04  0.7818608E-02  0.8066230E-01
         -2   -1    0    0    0  501 -0.00000000000E+00  0.00000000000E+00  0.13765870994E+04  0.13765870994E+04  0.00000000000E+00 0.  1.
          2   -1    0    0  501    0  0.00000000000E+00 -0.00000000000E+00 -0.24967476131E+04  0.24967476131E+04  0.00000000000E+00 0. -1.
         23    2    1    2    0    0 -0.13675570305E+04 -0.19813249807E+02  0.74515310045E+03  0.15603280814E+04  0.93625754335E+02 0.  0.
         13    1    3    3    0    0 -0.13178394906E+04 -0.11752138769E+02  0.73483932874E+03  0.15089161258E+04  0.00000000000E+00 0. -1.
        -13    1    3    3    0    0 -0.49717539943E+02 -0.80611110378E+01  0.10313771716E+02  0.51411955576E+02  0.00000000000E+00 0.  1.
         22    1    1    2    0    0  0.13675570305E+04  0.19813249807E+02 -0.18653136141E+04  0.23130066311E+04  0.00000000000E+00 0. -1.
<mgrwt>
<rscale>  0 0.37078245E+04</rscale>
<asrwt>0</asrwt>
<pdfrwt beam="1">  1        2 0.38411501E+00 0.37078245E+04</pdfrwt>
<pdfrwt beam="2">  1       -2 0.21178263E+00 0.37078245E+04</pdfrwt>
<totfact> 0.31498861E-01</totfact>
</mgrwt>
</event>
<event>
 6    1  0.9988873E-007  0.3778467E+04  0.7818608E-02  0.8050792E-01
          2   -1    0    0  501    0  0.00000000000E+00  0.00000000000E+00  0.15236462845E+04  0.15236462845E+04  0.00000000000E+00 0. -1.
         -2   -1    0    0    0  501 -0.00000000000E+00 -0.00000000000E+00 -0.23425410257E+04  0.23425410257E+04  0.00000000000E+00 0.  1.
         23    2    1    2    0    0  0.89101816518E+03 -0.21032643518E+02  0.12940353663E+04  0.15729735430E+04  0.73229059004E+02 0.  0.
         13    1    3    3    0    0  0.52750750037E+03  0.21415484496E+02  0.74260923546E+03  0.91114832081E+03  0.00000000000E+00 0. -1.
        -13    1    3    3    0    0  0.36351066481E+03 -0.42448128014E+02  0.55142613085E+03  0.66182522224E+03  0.00000000000E+00 0.  1.
         22    1    1    2    0    0 -0.89101816518E+03  0.21032643518E+02 -0.21129301075E+04  0.22932137672E+04  0.00000000000E+00 0.  1.
<mgrwt>
<rscale>  0 0.37784674E+04</rscale>
<asrwt>0</asrwt>
<pdfrwt beam="1">  1        2 0.23440712E+00 0.37784674E+04</pdfrwt>
<pdfrwt beam="2">  1       -2 0.36039093E+00 0.37784674E+04</pdfrwt>
<totfact> 0.13214457E-01</totfact>
</mgrwt>
</event>
<event>
 6    1  0.9988873E-007  0.1582746E+04  0.7818608E-02  0.8831219E-01
         -2   -1    0    0    0  501 -0.00000000000E+00  0.00000000000E+00  0.99661286573E+03  0.99661286573E+03  0.00000000000E+00 0.  1.
          2   -1    0    0  501    0  0.00000000000E+00 -0.00000000000E+00 -0.62839943215E+03  0.62839943215E+03  0.00000000000E+00 0. -1.
         23    2    1    2    0    0  0.20489760311E+03 -0.70137917668E+03 -0.11841253775E+03  0.74710534768E+03  0.10113898457E+03 0.  0.
         11    1    3    3    0    0  0.12926119469E+03 -0.36083280378E+03 -0.16344396576E+02  0.38363512357E+03  0.00000000000E+00 0.  1.
        -11    1    3    3    0    0  0.75636408412E+02 -0.34054637290E+03 -0.10206814118E+03  0.36347022411E+03  0.00000000000E+00 0. -1.
         22    1    1    2    0    0 -0.20489760311E+03  0.70137917668E+03  0.48662597133E+03  0.87790695020E+03  0.00000000000E+00 0.  1.
<mgrwt>
<rscale>  0 0.15827457E+04</rscale>
<asrwt>0</asrwt>
<pdfrwt beam="1">  1        2 0.96676835E-01 0.15827457E+04</pdfrwt>
<pdfrwt beam="2">  1       -2 0.15332506E+00 0.15827457E+04</pdfrwt>
<totfact> 0.12711930E+01</totfact>
</mgrwt>
</event>
<event>
 6    1  0.9988873E-007  0.8152741E+03  0.7818608E-02  0.9538168E-01
          2   -1    0    0  501    0  0.00000000000E+00  0.00000000000E+00  0.11605160351E+04  0.11605160351E+04  0.00000000000E+00 0. -1.
         -2   -1    0    0    0  501 -0.00000000000E+00 -0.00000000000E+00 -0.14318456435E+03  0.14318456435E+03  0.00000000000E+00 0.  1.
         23    2    1    2    0    0  0.16819833199E+03 -0.29913044106E+03  0.85131403287E+03  0.92247692583E+03  0.91969541052E+02 0.  0.
         11    1    3    3    0    0  0.14336748905E+03 -0.16780360117E+03  0.49745986665E+03  0.54422293632E+03  0.00000000000E+00 0. -1.
        -11    1    3    3    0    0  0.24830842936E+02 -0.13132683989E+03  0.35385416621E+03  0.37825398951E+03  0.00000000000E+00 0.  1.
         22    1    1    2    0    0 -0.16819833199E+03  0.29913044106E+03  0.16601743789E+03  0.38122367363E+03  0.00000000000E+00 0.  1.
<mgrwt>
<rscale>  0 0.81527415E+03</rscale>
<asrwt>0</asrwt>
<pdfrwt beam="1">  1        2 0.17854092E+00 0.81527415E+03</pdfrwt>
<pdfrwt beam="2">  1       -2 0.22028395E-01 0.81527415E+03</pdfrwt>
<totfact> 0.36174757E+02</totfact>
</mgrwt>
</event>
<event>
 6    1  0.9988873E-007  0.5505584E+04  0.7818608E-02  0.7754921E-01
          2   -1    0    0  501    0  0.00000000000E+00  0.00000000000E+00  0.39323383386E+04  0.39323383386E+04  0.00000000000E+00 0. -1.
         -2   -1    0    0    0  501 -0.00000000000E+00 -0.00000000000E+00 -0.19270629476E+04  0.19270629476E+04  0.00000000000E+00 0.  1.
         23    2    1    2    0    0  0.20927480556E+04  0.15648096859E+04  0.19217996683E+04  0.32449812790E+04  0.91464521869E+02 0.  0.
         11    1    3    3    0    0  0.30448118082E+03  0.20056055006E+03  0.29716700095E+03  0.47036321090E+03  0.00000000000E+00 0. -1.
        -11    1    3    3    0    0  0.17882668748E+04  0.13642491359E+04  0.16246326673E+04  0.27746180681E+04  0.00000000000E+00 0.  1.
         22    1    1    2    0    0 -0.20927480556E+04 -0.15648096859E+04  0.83475722797E+02  0.26144200072E+04  0.00000000000E+00 0.  1.
<mgrwt>
<rscale>  0 0.55055839E+04</rscale>
<asrwt>0</asrwt>
<pdfrwt beam="1">  1        2 0.60497513E+00 0.55055839E+04</pdfrwt>
<pdfrwt beam="2">  1       -2 0.29647122E+00 0.55055839E+04</pdfrwt>
<totfact> 0.90158218E-03</totfact>
</mgrwt>
</event>
<event>
 6    1  0.9988873E-007  0.2731696E+04  0.7818608E-02  0.8324794E-01
          2   -1    0    0  501    0  0.00000000000E+00  0.00000000000E+00  0.14664024283E+04  0.14664024283E+04  0.00000000000E+00 0. -1.
         -2   -1    0    0    0  501 -0.00000000000E+00 -0.00000000000E+00 -0.12721884502E+04  0.12721884502E+04  0.00000000000E+00 0.  1.
         23    2    1    2    0    0  0.17455476263E+03  0.13503304627E+04  0.18407941769E+03  0.13769872530E+04  0.91361585142E+02 0.  0.
         13    1    3    3    0    0  0.11442018218E+03  0.58993423558E+03  0.10635793049E+03  0.61026747397E+03  0.00000000000E+00 0. -1.
        -13    1    3    3    0    0  0.60134580449E+02  0.76039622715E+03  0.77721487198E+02  0.76671977906E+03  0.00000000000E+00 0.  1.
         22    1    1    2    0    0 -0.17455476263E+03 -0.13503304627E+04  0.10134560402E+02  0.13616036255E+04  0.00000000000E+00 0. -1.
<mgrwt>
<rscale>  0 0.27316956E+04</rscale>
<asrwt>0</asrwt>
<pdfrwt beam="1">  1        2 0.22560037E+00 0.27316956E+04</pdfrwt>
<pdfrwt beam="2">  1       -2 0.19572130E+00 0.27316956E+04</pdfrwt>
<totfact> 0.16474258E+00</totfact>
</mgrwt>
</event>
<event>
 6    1  0.9988873E-007  0.1941052E+04  0.7818608E-02  0.8634688E-01
          1   -1    0    0  501    0  0.00000000000E+00  0.00000000000E+00  0.20009141595E+04  0.20009141595E+04  0.00000000000E+00 0. -1.
         -1   -1    0    0    0  501 -0.00000000000E+00 -0.00000000000E+00 -0.47074505390E+03  0.47074505390E+03  0.00000000000E+00 0.  1.
         23    2    1    2    0    0 -0.59648957881E+03  0.26555591447E+03  0.16772850283E+04  0.18023589399E+04  0.94302283251E+02 0.  0.
         11    1    3    3    0    0 -0.10674479154E+03  0.66357849136E+02  0.42079113360E+03  0.43916169320E+03  0.00000000000E+00 0. -1.
        -11    1    3    3    0    0 -0.48974478727E+03  0.19919806534E+03  0.12564938947E+04  0.13631972467E+04  0.00000000000E+00 0.  1.
         22    1    1    2    0    0  0.59648957881E+03 -0.26555591447E+03 -0.14711592277E+03  0.66930027347E+03  0.00000000000E+00 0.  1.
<mgrwt>
<rscale>  0 0.19410517E+04</rscale>
<asrwt>0</asrwt>
<pdfrwt beam="1">  1        1 0.30783294E+00 0.19410517E+04</pdfrwt>
<pdfrwt beam="2">  1       -1 0.72422317E-01 0.19410517E+04</pdfrwt>
<totfact> 0.53355430E+00</totfact>
</mgrwt>
</event>
<event>
 6    1  0.9988873E-007  0.1915924E+04  0.7818608E-02  0.8646970E-01
         -1   -1    0    0    0  501 -0.00000000000E+00  0.00000000000E+00  0.12970764003E+04  0.12970764003E+04  0.00000000000E+00 0.  1.
          1   -1    0    0  501    0  0.00000000000E+00 -0.00000000000E+00 -0.70750729577E+03  0.70750729577E+03  0.00000000000E+00 0. -1.
         23    2    1    2    0    0  0.66994588674E+03 -0.26932488348E+03 -0.35984332880E+03  0.81179396080E+03  0.90326239157E+02 0.  0.
         13    1    3    3    0    0  0.35016939907E+03 -0.16877039968E+03 -0.23412896881E+03  0.45378235961E+03  0.00000000000E+00 0. -1.
        -13    1    3    3    0    0  0.31977648767E+03 -0.10055448380E+03 -0.12571435999E+03  0.35801160119E+03  0.00000000000E+00 0.  1.
         22    1    1    2    0    0 -0.66994588674E+03  0.26932488348E+03  0.94941243333E+03  0.11927897353E+04  0.00000000000E+00 0. -1.
<mgrwt>
<rscale>  0 0.19159238E+04</rscale>
<asrwt>0</asrwt>
<pdfrwt beam="1">  1        1 0.10884728E+00 0.19159238E+04</pdfrwt>
<pdfrwt beam="2">  1       -1 0.19955021E+00 0.19159238E+04</pdfrwt>
<totfact> 0.37957882E+00</totfact>
</mgrwt>
</event>
<event>
 6    1  0.9988873E-007  0.4788417E+04  0.7818608E-02  0.7862001E-01
          2   -1    0    0  501    0  0.00000000000E+00  0.00000000000E+00  0.12775940572E+04  0.12775940572E+04  0.00000000000E+00 0. -1.
         -2   -1    0    0    0  501 -0.00000000000E+00 -0.00000000000E+00 -0.44867407650E+04  0.44867407650E+04  0.00000000000E+00 0.  1.
         23    2    1    2    0    0 -0.10254662682E+04 -0.21482303590E+04 -0.13061568732E+04  0.27167382195E+04  0.90255379278E+02 0.  0.
         11    1    3    3    0    0 -0.55426152931E+03 -0.10721535904E+04 -0.63474180791E+03  0.13636775011E+04  0.00000000000E+00 0.  1.
        -11    1    3    3    0    0 -0.47120473892E+03 -0.10760767686E+04 -0.67141506527E+03  0.13530607184E+04  0.00000000000E+00 0. -1.
         22    1    1    2    0    0  0.10254662682E+04  0.21482303590E+04 -0.19029898345E+04  0.30475966027E+04  0.00000000000E+00 0. -1.
<mgrwt>
<rscale>  0 0.47884166E+04</rscale>
<asrwt>0</asrwt>
<pdfrwt beam="1">  1        2 0.19655293E+00 0.47884166E+04</pdfrwt>
<pdfrwt beam="2">  1       -2 0.69026782E+00 0.47884166E+04</pdfrwt>
<totfact> 0.31266133E-03</totfact>
</mgrwt>
</event>
<event>
 6    1  0.9988873E-007  0.1553439E+04  0.7818608E-02  0.8849674E-01
          2   -1    0    0  501    0  0.00000000000E+00  0.00000000000E+00  0.64219260637E+03  0.64219260637E+03  0.00000000000E+00 0. -1.
         -2   -1    0    0    0  501 -0.00000000000E+00 -0.00000000000E+00 -0.93942712462E+03  0.93942712462E+03  0.00000000000E+00 0.  1.
         23    2    1    2    0    0 -0.28817931539E+03  0.48507335838E+03  0.39065076859E+03  0.69194021078E+03  0.88485882858E+02 0.  0.
         11    1    3    3    0    0 -0.10361485727E+03  0.20208789823E+03  0.10814174745E+03  0.25153567301E+03  0.00000000000E+00 0. -1.
        -11    1    3    3    0    0 -0.18456445812E+03  0.28298546015E+03  0.28250902114E+03  0.44040453776E+03  0.00000000000E+00 0.  1.
         22    1    1    2    0    0  0.28817931539E+03 -0.48507335838E+03 -0.68788528684E+03  0.88967952021E+03  0.00000000000E+00 0.  1.
<mgrwt>
<rscale>  0 0.15534390E+04</rscale>
<asrwt>0</asrwt>
<pdfrwt beam="1">  1        2 0.98798863E-01 0.15534390E+04</pdfrwt>
<pdfrwt beam="2">  1       -2 0.14452725E+00 0.15534390E+04</pdfrwt>
<totfact> 0.14507123E+01</totfact>
</mgrwt>
</event>
<event>
 6    1  0.9988873E-007  0.3327694E+04  0.7818608E-02  0.8155884E-01
         -2   -1    0    0    0  501 -0.00000000000E+00  0.00000000000E+00  0.10359757105E+04  0.10359757105E+04  0.00000000000E+00 0.  1.
          2   -1    0    0  501    0  0.00000000000E+00 -0.00000000000E+00 -0.26722510298E+04  0.26722510298E+04  0.00000000000E+00 0. -1.
         23    2    1    2    0    0 -0.14704038352E+04 -0.46457413509E+03 -0.15105572436E+04  0.21610610736E+04  0.10239732581E+03 0.  0.
         13    1    3    3    0    0 -0.82601542453E+03 -0.31186620469E+03 -0.88353248105E+03  0.12490763212E+04  0.00000000000E+00 0. -1.
        -13    1    3    3    0    0 -0.64438841067E+03 -0.15270793040E+03 -0.62702476253E+03  0.91198475241E+03  0.00000000000E+00 0.  1.
         22    1    1    2    0    0  0.14704038352E+04  0.46457413509E+03 -0.12571807569E+03  0.15471656667E+04  0.00000000000E+00 0.  1.
<mgrwt>
<rscale>  0 0.33276942E+04</rscale>
<asrwt>0</asrwt>
<pdfrwt beam="1">  1        2 0.41111554E+00 0.33276942E+04</pdfrwt>
<pdfrwt beam="2">  1       -2 0.15938088E+00 0.33276942E+04</pdfrwt>
<totfact> 0.58496943E-01</totfact>
</mgrwt>
</event>
<event>
 6    1  0.9988873E-007  0.2284590E+04  0.7818608E-02  0.8484022E-01
          2   -1    0    0  501    0  0.00000000000E+00  0.00000000000E+00  0.15069890659E+04  0.15069890659E+04  0.00000000000E+00 0. -1.
         -2   -1    0    0    0  501 -0.00000000000E+00 -0.00000000000E+00 -0.86585720907E+03  0.86585720907E+03  0.00000000000E+00 0.  1.
         23    2    1    2    0    0 -0.72455442998E+03  0.20452558324E+03 -0.56760853122E+03  0.94881567069E+03  0.10612208082E+03 0.  0.
         13    1    3    3    0    0 -0.47004887182E+03  0.18435178122E+03 -0.38419350397E+03  0.63445738205E+03  0.00000000000E+00 0.  1.
        -13    1    3    3    0    0 -0.25450555816E+03  0.20173802026E+02 -0.18341502725E+03  0.31435828865E+03  0.00000000000E+00 0. -1.
         22    1    1    2    0    0  0.72455442998E+03 -0.20452558324E+03  0.12087403881E+04  0.14240306043E+04  0.00000000000E+00 0. -1.
<mgrwt>
<rscale>  0 0.22845895E+04</rscale>
<asrwt>0</asrwt>
<pdfrwt beam="1">  1        2 0.23184447E+00 0.22845895E+04</pdfrwt>
<pdfrwt beam="2">  1       -2 0.13320880E+00 0.22845895E+04</pdfrwt>
<totfact> 0.46618931E+00</totfact>
</mgrwt>
</event>
<event>
 6    1  0.9988873E-007  0.2010345E+04  0.7818608E-02  0.8601799E-01
         -2   -1    0    0    0  501 -0.00000000000E+00  0.00000000000E+00  0.11186997224E+04  0.11186997224E+04  0.00000000000E+00 0.  1.
          2   -1    0    0  501    0  0.00000000000E+00 -0.00000000000E+00 -0.90316628098E+03  0.90316628098E+03  0.00000000000E+00 0. -1.
         23    2    1    2    0    0  0.61002226955E+03  0.68428938739E+03  0.51760855026E+03  0.10566569553E+04  0.90698262655E+02 0.  0.
         13    1    3    3    0    0  0.11179330218E+03  0.12261111393E+03  0.13541203219E+03  0.21416733209E+03  0.00000000000E+00 0.  1.
        -13    1    3    3    0    0  0.49822896736E+03  0.56167827347E+03  0.38219651807E+03  0.84248962322E+03  0.00000000000E+00 0. -1.
         22    1    1    2    0    0 -0.61002226955E+03 -0.68428938739E+03 -0.30207510887E+03  0.96520904805E+03  0.00000000000E+00 0.  1.
<mgrwt>
<rscale>  0 0.20103451E+04</rscale>
<asrwt>0</asrwt>
<pdfrwt beam="1">  1        2 0.13894866E+00 0.20103451E+04</pdfrwt>
<pdfrwt beam="2">  1       -2 0.17210765E+00 0.20103451E+04</pdfrwt>
<totfact> 0.55754393E+00</totfact>
</mgrwt>
</event>
<event>
 6    1  0.9988873E-007  0.1217918E+04  0.7818608E-02  0.9097316E-01
         -1   -1    0    0    0  501 -0.00000000000E+00  0.00000000000E+00  0.54738616752E+03  0.54738616752E+03  0.00000000000E+00 0.  1.
          1   -1    0    0  501    0  0.00000000000E+00 -0.00000000000E+00 -0.67745753229E+03  0.67745753229E+03  0.00000000000E+00 0. -1.
         23    2    1    2    0    0 -0.28822144118E+03 -0.48969464242E+03  0.14524610554E+03  0.59343879688E+03  0.90557895799E+02 0.  0.
         13    1    3    3    0    0 -0.22085382138E+02 -0.10697420380E+03  0.27080501039E+02  0.11253709575E+03  0.00000000000E+00 0. -1.
        -13    1    3    3    0    0 -0.26613605905E+03 -0.38272043862E+03  0.11816560450E+03  0.48090170113E+03  0.00000000000E+00 0.  1.
         22    1    1    2    0    0  0.28822144118E+03  0.48969464242E+03 -0.27531747031E+03  0.63140490292E+03  0.00000000000E+00 0. -1.
<mgrwt>
<rscale>  0 0.12179177E+04</rscale>
<asrwt>0</asrwt>
<pdfrwt beam="1">  1        1 0.10422424E+00 0.12179177E+04</pdfrwt>
<pdfrwt beam="2">  1       -1 0.84213257E-01 0.12179177E+04</pdfrwt>
<totfact> 0.39553033E+01</totfact>
</mgrwt>
</event>
<event>
 6    1  0.9988873E-007  0.8379366E+03  0.7818608E-02  0.9506673E-01
         -2   -1    0    0    0  501 -0.00000000000E+00  0.00000000000E+00  0.71755227120E+03  0.71755227120E+03  0.00000000000E+00 0.  1.
          2   -1    0    0  501    0  0.00000000000E+00 -0.00000000000E+00 -0.24462948890E+03  0.24462948890E+03  0.00000000000E+00 0. -1.
         23    2    1    2    0    0  0.96636996713E+02  0.31704663566E+03  0.52402296499E+03  0.62681851378E+03  0.91891800852E+02 0.  0.
         11    1    3    3    0    0  0.36381910592E+01  0.16144900360E+03  0.27297835111E+03  0.31716903596E+03  0.00000000000E+00 0. -1.
        -11    1    3    3    0    0  0.92998805654E+02  0.15559763206E+03  0.25104461388E+03  0.30964947782E+03  0.00000000000E+00 0.  1.
         22    1    1    2    0    0 -0.96636996713E+02 -0.31704663566E+03 -0.51100182690E+02  0.33536324633E+03  0.00000000000E+00 0. -1.
<mgrwt>
<rscale>  0 0.83793662E+03</rscale>
<asrwt>0</asrwt>
<pdfrwt beam="1">  1        2 0.37635306E-01 0.83793662E+03</pdfrwt>
<pdfrwt beam="2">  1       -2 0.11039266E+00 0.83793662E+03</pdfrwt>
<totfact> 0.90326591E+01</totfact>
</mgrwt>
</event>
<event>
 6    1  0.9988873E-007  0.2544144E+04  0.7818608E-02  0.8387426E-01
         -2   -1    0    0    0  501 -0.00000000000E+00  0.00000000000E+00  0.45742969200E+03  0.45742969200E+03  0.00000000000E+00 0.  1.
          2   -1    0    0  501    0  0.00000000000E+00 -0.00000000000E+00 -0.35375211781E+04  0.35375211781E+04  0.00000000000E+00 0. -1.
         23    2    1    2    0    0  0.64695396909E+03 -0.10703768233E+04 -0.11936112398E+04  0.17315322827E+04  0.96126335990E+02 0.  0.
         11    1    3    3    0    0  0.32387042444E+03 -0.46565141456E+03 -0.49751791528E+03  0.75448483598E+03  0.00000000000E+00 0. -1.
        -11    1    3    3    0    0  0.32308354466E+03 -0.60472540871E+03 -0.69609332451E+03  0.97704744675E+03  0.00000000000E+00 0.  1.
         22    1    1    2    0    0 -0.64695396909E+03  0.10703768233E+04 -0.18864802464E+04  0.22634185874E+04  0.00000000000E+00 0. -1.
<mgrwt>
<rscale>  0 0.25441440E+04</rscale>
<asrwt>0</asrwt>
<pdfrwt beam="1">  1        2 0.54423404E+00 0.25441440E+04</pdfrwt>
<pdfrwt beam="2">  1       -2 0.70373797E-01 0.25441440E+04</pdfrwt>
<totfact> 0.12505152E+00</totfact>
</mgrwt>
</event>
<event>
 6    1  0.9988873E-007  0.9999612E+03  0.7818608E-02  0.9308587E-01
         -2   -1    0    0    0  501 -0.00000000000E+00  0.00000000000E+00  0.16678116725E+04  0.16678116725E+04  0.00000000000E+00 0.  1.
          2   -1    0    0  501    0  0.00000000000E+00 -0.00000000000E+00 -0.14988537445E+03  0.14988537445E+03  0.00000000000E+00 0. -1.
         23    2    1    2    0    0 -0.32872551969E+03 -0.13122558382E+03  0.13966903114E+04  0.14435596583E+04  0.88544000010E+02 0.  0.
         13    1    3    3    0    0 -0.22728335428E+03 -0.12571428934E+03  0.10883810470E+04  0.11189437471E+04  0.00000000000E+00 0.  1.
        -13    1    3    3    0    0 -0.10144216541E+03 -0.55112944767E+01  0.30830926435E+03  0.32461591116E+03  0.00000000000E+00 0. -1.
         22    1    1    2    0    0  0.32872551969E+03  0.13122558382E+03  0.12123598668E+03  0.37413738868E+03  0.00000000000E+00 0. -1.
<mgrwt>
<rscale>  0 0.99996115E+03</rscale>
<asrwt>0</asrwt>
<pdfrwt beam="1">  1        2 0.23059290E-01 0.99996115E+03</pdfrwt>
<pdfrwt beam="2">  1       -2 0.25658640E+00 0.99996115E+03</pdfrwt>
<totfact> 0.14190360E+01</totfact>
</mgrwt>
</event>
<event>
 6    1  0.9988873E-007  0.1588312E+04  0.7818608E-02  0.8827761E-01
         -1   -1    0    0    0  501 -0.00000000000E+00  0.00000000000E+00  0.50029577587E+03  0.50029577587E+03  0.00000000000E+00 0.  1.
          1   -1    0    0  501    0  0.00000000000E+00 -0.00000000000E+00 -0.12606222839E+04  0.12606222839E+04  0.00000000000E+00 0. -1.
         23    2    1    2    0    0 -0.12357054185E+03  0.49184566729E+03 -0.10552186012E+04  0.11742808756E+04  0.90925460747E+02 0.  0.
         11    1    3    3    0    0 -0.86325652137E+02  0.41919633610E+03 -0.81461847543E+03  0.92020701309E+03  0.00000000000E+00 0.  1.
        -11    1    3    3    0    0 -0.37244889717E+02  0.72649331190E+02 -0.24060012574E+03  0.25407386256E+03  0.00000000000E+00 0. -1.
         22    1    1    2    0    0  0.12357054185E+03 -0.49184566729E+03  0.29489209310E+03  0.58663718415E+03  0.00000000000E+00 0.  1.
<mgrwt>
<rscale>  0 0.15883123E+04</rscale>
<asrwt>0</asrwt>
<pdfrwt beam="1">  1        1 0.19394189E+00 0.15883123E+04</pdfrwt>
<pdfrwt beam="2">  1       -1 0.76968581E-01 0.15883123E+04</pdfrwt>
<totfact> 0.15700744E+01</totfact>
</mgrwt>
</event>
<event>
 6    1  0.9988873E-007  0.4067596E+04  0.7818608E-02  0.7991047E-01
          2   -1    0    0  501    0  0.00000000000E+00  0.00000000000E+00  0.23096931271E+04  0.23096931271E+04  0.00000000000E+00 0. -1.
         -2   -1    0    0    0  501 -0.00000000000E+00 -0.00000000000E+00 -0.17908590660E+04  0.17908590660E+04  0.00000000000E+00 0.  1.
         23    2    1    2    0    0 -0.10109585755E+04 -0.14409757295E+03  0.20314360759E+04  0.22755135067E+04  0.91803250282E+02 0.  0.
         11    1    3    3    0    0 -0.84048786704E+03 -0.12918828674E+03  0.16126557058E+04  0.18231203727E+04  0.00000000000E+00 0. -1.
        -11    1    3    3    0    0 -0.17047070842E+03 -0.14909286211E+02  0.41878037009E+03  0.45239313392E+03  0.00000000000E+00 0.  1.
         22    1    1    2    0    0  0.10109585755E+04  0.14409757295E+03 -0.15126020147E+04  0.18250386864E+04  0.00000000000E+00 0.  1.
<mgrwt>
<rscale>  0 0.40675963E+04</rscale>
<asrwt>0</asrwt>
<pdfrwt beam="1">  1        2 0.35533741E+00 0.40675963E+04</pdfrwt>
<pdfrwt beam="2">  1       -2 0.27551678E+00 0.40675963E+04</pdfrwt>
<totfact> 0.15753356E-01</totfact>
</mgrwt>
</event>
<event>
 6    1  0.9988873E-007  0.5413253E+03  0.7818608E-02  0.1003522E+00
          2   -1    0    0  501    0  0.00000000000E+00  0.00000000000E+00  0.32852533885E+03  0.32852533885E+03  0.00000000000E+00 0. -1.
         -2   -1    0    0    0  501 -0.00000000000E+00 -0.00000000000E+00 -0.22299119960E+03  0.22299119960E+03  0.00000000000E+00 0.  1.
         23    2    1    2    0    0 -0.16066092755E+03  0.20541721573E+03  0.90152502763E+02  0.29027955620E+03  0.90147550375E+02 0.  0.
         11    1    3    3    0    0 -0.32503408660E+02  0.48202922152E+02 -0.17414755467E+02  0.60689924917E+02  0.00000000000E+00 0.  1.
        -11    1    3    3    0    0 -0.12815751889E+03  0.15721429357E+03  0.10756725823E+03  0.22958963129E+03  0.00000000000E+00 0. -1.
         22    1    1    2    0    0  0.16066092755E+03 -0.20541721573E+03  0.15381636486E+02  0.26123698225E+03  0.00000000000E+00 0. -1.
<mgrwt>
<rscale>  0 0.54132526E+03</rscale>
<asrwt>0</asrwt>
<pdfrwt beam="1">  1        2 0.50542360E-01 0.54132526E+03</pdfrwt>
<pdfrwt beam="2">  1       -2 0.34306339E-01 0.54132526E+03</pdfrwt>
<totfact> 0.79306223E+02</totfact>
</mgrwt>
</event>
<event>
 6    1  0.9988873E-007  0.2076347E+04  0.7818608E-02  0.8571735E-01
         -2   -1    0    0    0  501 -0.00000000000E+00  0.00000000000E+00  0.36322325003E+03  0.36322325003E+03  0.00000000000E+00 0.  1.
          2   -1    0    0  501    0  0.00000000000E+00 -0.00000000000E+00 -0.29673336955E+04  0.29673336955E+04  0.00000000000E+00 0. -1.
         23    2    1    2    0    0  0.23197560213E+03  0.26056374324E+03 -0.28696220333E+04  0.28921478357E+04  0.89901864452E+02 0.  0.
         13    1    3    3    0    0  0.27984538199E+01  0.65874880602E+01 -0.27234807814E+03  0.27244210763E+03  0.00000000000E+00 0. -1.
        -13    1    3    3    0    0  0.22917714831E+03  0.25397625518E+03 -0.25972739551E+04  0.26197057280E+04  0.00000000000E+00 0.  1.
         22    1    1    2    0    0 -0.23197560213E+03 -0.26056374324E+03  0.26551158786E+03  0.43840910981E+03  0.00000000000E+00 0.  1.
<mgrwt>
<rscale>  0 0.20763474E+04</rscale>
<asrwt>0</asrwt>
<pdfrwt beam="1">  1        2 0.45651288E+00 0.20763474E+04</pdfrwt>
<pdfrwt beam="2">  1       -2 0.55880500E-01 0.20763474E+04</pdfrwt>
<totfact> 0.50773163E+00</totfact>
</mgrwt>
</event>
<event>
 6    1  0.9988873E-007  0.2178878E+04  0.7818608E-02  0.8527271E-01
         -2   -1    0    0    0  501 -0.00000000000E+00  0.00000000000E+00  0.44376575252E+03  0.44376575252E+03  0.00000000000E+00 0.  1.
          2   -1    0    0  501    0  0.00000000000E+00 -0.00000000000E+00 -0.26745576105E+04  0.26745576105E+04  0.00000000000E+00 0. -1.
         23    2    1    2    0    0  0.33675207268E+03 -0.97692479691E+03 -0.16052544827E+04  0.19103991000E+04  0.70701837919E+02 0.  0.
         13    1    3    3    0    0  0.19412430385E+03 -0.66149786396E+03 -0.10515608474E+04  0.12573956757E+04  0.00000000000E+00 0.  1.
        -13    1    3    3    0    0  0.14262776884E+03 -0.31542693295E+03 -0.55369363527E+03  0.65300342435E+03  0.00000000000E+00 0. -1.
         22    1    1    2    0    0 -0.33675207268E+03  0.97692479691E+03 -0.62553737527E+03  0.12079242630E+04  0.00000000000E+00 0. -1.
<mgrwt>
<rscale>  0 0.21788778E+04</rscale>
<asrwt>0</asrwt>
<pdfrwt beam="1">  1        2 0.41147040E+00 0.21788778E+04</pdfrwt>
<pdfrwt beam="2">  1       -2 0.68271655E-01 0.21788778E+04</pdfrwt>
<totfact> 0.49446552E+00</totfact>
</mgrwt>
</event>
<event>
 6    1  0.9988873E-007  0.3259691E+04  0.7818608E-02  0.8173228E-01
          2   -1    0    0  501    0  0.00000000000E+00  0.00000000000E+00  0.13502980043E+04  0.13502980043E+04  0.00000000000E+00 0. -1.
         -2   -1    0    0    0  501 -0.00000000000E+00 -0.00000000000E+00 -0.19672669042E+04  0.19672669042E+04  0.00000000000E+00 0.  1.
         23    2    1    2    0    0  0.14836965072E+04  0.56656063590E+03 -0.67560523118E+03  0.17282932203E+04  0.90602137881E+02 0.  0.
         11    1    3    3    0    0  0.11315190381E+04  0.39119905718E+03 -0.51744559149E+03  0.13042706683E+04  0.00000000000E+00 0.  1.
        -11    1    3    3    0    0  0.35217746904E+03  0.17536157872E+03 -0.15815963969E+03  0.42402255202E+03  0.00000000000E+00 0. -1.
         22    1    1    2    0    0 -0.14836965072E+04 -0.56656063590E+03  0.58636331184E+02  0.15892716882E+04  0.00000000000E+00 0. -1.
<mgrwt>
<rscale>  0 0.32596911E+04</rscale>
<asrwt>0</asrwt>
<pdfrwt beam="1">  1        2 0.20773816E+00 0.32596911E+04</pdfrwt>
<pdfrwt beam="2">  1       -2 0.30265644E+00 0.32596911E+04</pdfrwt>
<totfact> 0.39644683E-01</totfact>
</mgrwt>
</event>
<event>
 6    1  0.9988873E-007  0.1380302E+04  0.7818608E-02  0.8968202E-01
          2   -1    0    0  501    0  0.00000000000E+00  0.00000000000E+00  0.15292983026E+04  0.15292983026E+04  0.00000000000E+00 0. -1.
         -2   -1    0    0    0  501 -0.00000000000E+00 -0.00000000000E+00 -0.31145540204E+03  0.31145540204E+03  0.00000000000E+00 0.  1.
         23    2    1    2    0    0 -0.25044292765E+03  0.39376835684E+03  0.12840470404E+04  0.13694171296E+04  0.93548351238E+02 0.  0.
         13    1    3    3    0    0 -0.48530333788E+02  0.15546499197E+03  0.40439555565E+03  0.43595908347E+03  0.00000000000E+00 0.  1.
        -13    1    3    3    0    0 -0.20191259386E+03  0.23830336487E+03  0.87965148476E+03  0.93345804615E+03  0.00000000000E+00 0. -1.
         22    1    1    2    0    0  0.25044292765E+03 -0.39376835684E+03 -0.66204139831E+02  0.47133657506E+03  0.00000000000E+00 0.  1.
<mgrwt>
<rscale>  0 0.13803017E+04</rscale>
<asrwt>0</asrwt>
<pdfrwt beam="1">  1        2 0.23527666E+00 0.13803017E+04</pdfrwt>
<pdfrwt beam="2">  1       -2 0.47916217E-01 0.13803017E+04</pdfrwt>
<totfact> 0.49137370E+01</totfact>
</mgrwt>
</event>
<event>
 6    1  0.9988873E-007  0.1959315E+04  0.7818608E-02  0.8625882E-01
          2   -1    0    0  501    0  0.00000000000E+00  0.00000000000E+00  0.16594090232E+04  0.16594090232E+04  0.00000000000E+00 0. -1.
         -2   -1    0    0    0  501 -0.00000000000E+00 -0.00000000000E+00 -0.57835595858E+03  0.57835595858E+03  0.00000000000E+00 0.  1.
         23    2    1    2    0    0  0.25645992281E+03 -0.63828512159E+03 -0.25114589915E+03  0.73845391747E+03  0.95185803150E+02 0.  0.
         11    1    3    3    0    0  0.10406250987E+03 -0.28372406591E+03 -0.61297188149E+02  0.30835968740E+03  0.00000000000E+00 0.  1.
        -11    1    3    3    0    0  0.15239741294E+03 -0.35456105568E+03 -0.18984871100E+03  0.43009423007E+03  0.00000000000E+00 0. -1.
         22    1    1    2    0    0 -0.25645992281E+03  0.63828512159E+03  0.13321989637E+04  0.14993110643E+04  0.00000000000E+00 0. -1.
<mgrwt>
<rscale>  0 0.19593153E+04</rscale>
<asrwt>0</asrwt>
<pdfrwt beam="1">  1        2 0.25529369E+00 0.19593153E+04</pdfrwt>
<pdfrwt beam="2">  1       -2 0.88977840E-01 0.19593153E+04</pdfrwt>
<totfact> 0.10448608E+01</totfact>
</mgrwt>
</event>
<event>
 6    1  0.9988873E-007  0.1255659E+04  0.7818608E-02  0.9065486E-01
         -1   -1    0    0    0  501 -0.00000000000E+00  0.00000000000E+00  0.29257589976E+03  0.29257589976E+03  0.00000000000E+00 0.  1.
          1   -1    0    0  501    0  0.00000000000E+00 -0.00000000000E+00 -0.13472401790E+04  0.13472401790E+04  0.00000000000E+00 0. -1.
         23    2    1    2    0    0 -0.46644947739E+03 -0.32914838796E+03 -0.19518261675E+03  0.60801062015E+03  0.75278709266E+02 0.  0.
         13    1    3    3    0    0 -0.37390337200E+03 -0.29101698370E+03 -0.17962609126E+03  0.50671505707E+03  0.00000000000E+00 0. -1.
        -13    1    3    3    0    0 -0.92546105389E+02 -0.38131404263E+02 -0.15556525489E+02  0.10129556308E+03  0.00000000000E+00 0.  1.
         22    1    1    2    0    0  0.46644947739E+03  0.32914838796E+03 -0.85948166249E+03  0.10318054586E+04  0.00000000000E+00 0. -1.
<mgrwt>
<rscale>  0 0.12556592E+04</rscale>
<asrwt>0</asrwt>
<pdfrwt beam="1">  1        1 0.20726772E+00 0.12556592E+04</pdfrwt>
<pdfrwt beam="2">  1       -1 0.45011677E-01 0.12556592E+04</pdfrwt>
<totfact> 0.40380910E+01</totfact>
</mgrwt>
</event>
<event>
 6    1  0.9988873E-007  0.2575045E+04  0.7818608E-02  0.8376728E-01
          1   -1    0    0  501    0  0.00000000000E+00  0.00000000000E+00  0.51985683655E+03  0.51985683655E+03  0.00000000000E+00 0. -1.
         -1   -1    0    0    0  501 -0.00000000000E+00 -0.00000000000E+00 -0.31887886596E+04  0.31887886596E+04  0.00000000000E+00 0.  1.
         23    2    1    2    0    0 -0.38569322485E+03 -0.63593905255E+03  0.17487695798E+03  0.76918532032E+03  0.88805204301E+02 0.  0.
         13    1    3    3    0    0 -0.26501602244E+03 -0.40536666984E+03  0.73319195474E+02  0.48982786119E+03  0.00000000000E+00 0. -1.
        -13    1    3    3    0    0 -0.12067720241E+03 -0.23057238270E+03  0.10155776250E+03  0.27935745913E+03  0.00000000000E+00 0.  1.
         22    1    1    2    0    0  0.38569322485E+03  0.63593905255E+03 -0.28438087810E+04  0.29394601758E+04  0.00000000000E+00 0.  1.
<mgrwt>
<rscale>  0 0.25750445E+04</rscale>
<asrwt>0</asrwt>
<pdfrwt beam="1">  1        1 0.79977975E-01 0.25750445E+04</pdfrwt>
<pdfrwt beam="2">  1       -1 0.49058287E+00 0.25750445E+04</pdfrwt>
<totfact> 0.63434640E-02</totfact>
</mgrwt>
</event>
<event>
 6    1  0.9988873E-007  0.5571780E+04  0.7818608E-02  0.7745889E-01
          2   -1    0    0  501    0  0.00000000000E+00  0.00000000000E+00  0.44877770579E+04  0.44877770579E+04  0.00000000000E+00 0. -1.
         -2   -1    0    0    0  501 -0.00000000000E+00 -0.00000000000E+00 -0.17294049459E+04  0.17294049459E+04  0.00000000000E+00 0.  1.
         23    2    1    2    0    0  0.94931961578E+03 -0.14329165549E+04  0.38248389911E+04  0.41943599181E+04  0.93830848678E+02 0.  0.
         11    1    3    3    0    0  0.15330938678E+03 -0.29346403574E+03  0.70259929442E+03  0.77670501278E+03  0.00000000000E+00 0.  1.
        -11    1    3    3    0    0  0.79601022900E+03 -0.11394525191E+04  0.31222396967E+04  0.34176549053E+04  0.00000000000E+00 0. -1.
         22    1    1    2    0    0 -0.94931961578E+03  0.14329165549E+04 -0.10664668792E+04  0.20228220857E+04  0.00000000000E+00 0.  1.
<mgrwt>
<rscale>  0 0.55717803E+04</rscale>
<asrwt>0</asrwt>
<pdfrwt beam="1">  1        2 0.69042723E+00 0.55717803E+04</pdfrwt>
<pdfrwt beam="2">  1       -2 0.26606230E+00 0.55717803E+04</pdfrwt>
<totfact> 0.44611907E-03</totfact>
</mgrwt>
</event>
<event>
 6    1  0.9988873E-007  0.8444385E+03  0.7818608E-02  0.9497832E-01
          3   -1    0    0  501    0  0.00000000000E+00  0.00000000000E+00  0.13261226248E+04  0.13261226248E+04  0.00000000000E+00 0. -1.
         -3   -1    0    0    0  501 -0.00000000000E+00 -0.00000000000E+00 -0.13442880134E+03  0.13442880134E+03  0.00000000000E+00 0.  1.
         23    2    1    2    0    0  0.13509985748E+03  0.10228793015E+03  0.12628091070E+04  0.12767793508E+04  0.82242797788E+02 0.  0.
         13    1    3    3    0    0  0.32097100817E+02  0.70008521879E+02  0.64871250851E+03  0.65326819585E+03  0.00000000000E+00 0. -1.
        -13    1    3    3    0    0  0.10300275666E+03  0.32279408273E+02  0.61409659845E+03  0.62351115492E+03  0.00000000000E+00 0.  1.
         22    1    1    2    0    0 -0.13509985748E+03 -0.10228793015E+03 -0.71115283493E+02  0.18377207539E+03  0.00000000000E+00 0.  1.
<mgrwt>
<rscale>  0 0.84443845E+03</rscale>
<asrwt>0</asrwt>
<pdfrwt beam="1">  1        3 0.20401886E+00 0.84443845E+03</pdfrwt>
<pdfrwt beam="2">  1       -3 0.20681355E-01 0.84443845E+03</pdfrwt>
<totfact> 0.79577063E+00</totfact>
</mgrwt>
</event>
<event>
 6    1  0.9988873E-007  0.3103515E+04  0.7818608E-02  0.8214774E-01
         -2   -1    0    0    0  501 -0.00000000000E+00  0.00000000000E+00  0.85784581632E+03  0.85784581632E+03  0.00000000000E+00 0.  1.
          2   -1    0    0  501    0  0.00000000000E+00 -0.00000000000E+00 -0.28069741721E+04  0.28069741721E+04  0.00000000000E+00 0. -1.
         23    2    1    2    0    0 -0.12579581018E+04  0.46510162517E+03 -0.18937129915E+04  0.23224903083E+04  0.95048567638E+02 0.  0.
         11    1    3    3    0    0 -0.26890175887E+03  0.13571590234E+03 -0.39019092015E+03  0.49292587297E+03  0.00000000000E+00 0.  1.
        -11    1    3    3    0    0 -0.98905634293E+03  0.32938572284E+03 -0.15035220714E+04  0.18295644353E+04  0.00000000000E+00 0. -1.
         22    1    1    2    0    0  0.12579581018E+04 -0.46510162517E+03 -0.55415364290E+02  0.13423296802E+04  0.00000000000E+00 0. -1.
<mgrwt>
<rscale>  0 0.31035148E+04</rscale>
<asrwt>0</asrwt>
<pdfrwt beam="1">  1        2 0.43184217E+00 0.31035148E+04</pdfrwt>
<pdfrwt beam="2">  1       -2 0.13197628E+00 0.31035148E+04</pdfrwt>
<totfact> 0.81203745E-01</totfact>
</mgrwt>
</event>
<event>
 6    1  0.9988873E-007  0.1192684E+04  0.7818608E-02  0.9119285E-01
         -2   -1    0    0    0  501 -0.00000000000E+00  0.00000000000E+00  0.46864823193E+03  0.46864823193E+03  0.00000000000E+00 0.  1.
          2   -1    0    0  501    0  0.00000000000E+00 -0.00000000000E+00 -0.75882855056E+03  0.75882855056E+03  0.00000000000E+00 0. -1.
         23    2    1    2    0    0  0.41103498476E+03 -0.78600464164E+02  0.28648626049E+03  0.51496563511E+03  0.89372457885E+02 0.  0.
         11    1    3    3    0    0  0.28934975816E+03 -0.39454873237E+02  0.15122512864E+03  0.32886016649E+03  0.00000000000E+00 0.  1.
        -11    1    3    3    0    0  0.12168522660E+03 -0.39145590927E+02  0.13526113185E+03  0.18610546862E+03  0.00000000000E+00 0. -1.
         22    1    1    2    0    0 -0.41103498476E+03  0.78600464164E+02 -0.57666657912E+03  0.71251114738E+03  0.00000000000E+00 0. -1.
<mgrwt>
<rscale>  0 0.11926838E+04</rscale>
<asrwt>0</asrwt>
<pdfrwt beam="1">  1        2 0.11674285E+00 0.11926838E+04</pdfrwt>
<pdfrwt beam="2">  1       -2 0.72099728E-01 0.11926838E+04</pdfrwt>
<totfact> 0.63553194E+01</totfact>
</mgrwt>
</event>
<event>
 6    1  0.9988873E-007  0.1221561E+04  0.7818608E-02  0.9094191E-01
         -1   -1    0    0    0  501 -0.00000000000E+00  0.00000000000E+00  0.42940126759E+03  0.42940126759E+03  0.00000000000E+00 0.  1.
          1   -1    0    0  501    0  0.00000000000E+00 -0.00000000000E+00 -0.86877384942E+03  0.86877384942E+03  0.00000000000E+00 0. -1.
         23    2    1    2    0    0 -0.32617635889E+03 -0.54859214799E+02  0.32041071450E+03  0.46951885055E+03  0.91566230217E+02 0.  0.
         11    1    3    3    0    0 -0.13429768427E+03 -0.65034256237E+02  0.16431919581E+03  0.22195972742E+03  0.00000000000E+00 0. -1.
        -11    1    3    3    0    0 -0.19187867462E+03  0.10175041438E+02  0.15609151869E+03  0.24755912313E+03  0.00000000000E+00 0.  1.
         22    1    1    2    0    0  0.32617635889E+03  0.54859214799E+02 -0.75978329633E+03  0.82865626645E+03  0.00000000000E+00 0. -1.
<mgrwt>
<rscale>  0 0.12215606E+04</rscale>
<asrwt>0</asrwt>
<pdfrwt beam="1">  1        1 0.13365751E+00 0.12215606E+04</pdfrwt>
<pdfrwt beam="2">  1       -1 0.66061735E-01 0.12215606E+04</pdfrwt>
<totfact> 0.44330049E+01</totfact>
</mgrwt>
</event>
<event>
 6    1  0.9988873E-007  0.2744349E+04  0.7818608E-02  0.8320757E-01
         -1   -1    0    0    0  501 -0.00000000000E+00  0.00000000000E+00  0.11043249949E+04  0.11043249949E+04  0.00000000000E+00 0.  1.
          1   -1    0    0  501    0  0.00000000000E+00 -0.00000000000E+00 -0.17049900597E+04  0.17049900597E+04  0.00000000000E+00 0. -1.
         23    2    1    2    0    0 -0.45522948877E+02 -0.19619567924E+03 -0.16884601364E+04  0.17030315460E+04  0.94094266786E+02 0.  0.
         13    1    3    3    0    0 -0.45048790436E+02 -0.13326796413E+03 -0.79441327308E+03  0.80677270172E+03  0.00000000000E+00 0. -1.
        -13    1    3    3    0    0 -0.47415844112E+00 -0.62927715105E+02 -0.89404686332E+03  0.89625884429E+03  0.00000000000E+00 0.  1.
         22    1    1    2    0    0  0.45522948877E+02  0.19619567924E+03  0.10877950716E+04  0.11062835085E+04  0.00000000000E+00 0.  1.
<mgrwt>
<rscale>  0 0.27443492E+04</rscale>
<asrwt>0</asrwt>
<pdfrwt beam="1">  1        1 0.26230616E+00 0.27443492E+04</pdfrwt>
<pdfrwt beam="2">  1       -1 0.16989615E+00 0.27443492E+04</pdfrwt>
<totfact> 0.10139466E+00</totfact>
</mgrwt>
</event>
<event>
 6    1  0.9988873E-007  0.2500735E+04  0.7818608E-02  0.8402724E-01
         -2   -1    0    0    0  501 -0.00000000000E+00  0.00000000000E+00  0.16060806407E+04  0.16060806407E+04  0.00000000000E+00 0.  1.
          2   -1    0    0  501    0  0.00000000000E+00 -0.00000000000E+00 -0.97343696750E+03  0.97343696750E+03  0.00000000000E+00 0. -1.
         23    2    1    2    0    0 -0.11932158853E+04 -0.33755231489E+03  0.46851168290E+03  0.13286598926E+04  0.90156524451E+02 0.  0.
         11    1    3    3    0    0 -0.82256995214E+03 -0.21356502988E+03  0.36076516374E+03  0.92324582399E+03  0.00000000000E+00 0.  1.
        -11    1    3    3    0    0 -0.37064593321E+03 -0.12398728501E+03  0.10774651916E+03  0.40541406863E+03  0.00000000000E+00 0. -1.
         22    1    1    2    0    0  0.11932158853E+04  0.33755231489E+03  0.16413199027E+03  0.12508577156E+04  0.00000000000E+00 0. -1.
<mgrwt>
<rscale>  0 0.25007345E+04</rscale>
<asrwt>0</asrwt>
<pdfrwt beam="1">  1        2 0.14975953E+00 0.25007345E+04</pdfrwt>
<pdfrwt beam="2">  1       -2 0.24708933E+00 0.25007345E+04</pdfrwt>
<totfact> 0.15650043E+00</totfact>
</mgrwt>
</event>
<event>
 6    1  0.9988873E-007  0.2290531E+04  0.7818608E-02  0.8481664E-01
          2   -1    0    0  501    0  0.00000000000E+00  0.00000000000E+00  0.63901485015E+03  0.63901485015E+03  0.00000000000E+00 0. -1.
         -2   -1    0    0    0  501 -0.00000000000E+00 -0.00000000000E+00 -0.20525856380E+04  0.20525856380E+04  0.00000000000E+00 0.  1.
         23    2    1    2    0    0  0.70139914465E+03  0.11391757320E+03  0.34471393648E+03  0.79515561802E+03  0.92232235504E+02 0.  0.
         13    1    3    3    0    0  0.32570064471E+03  0.37731766132E+02  0.20735520009E+03  0.38794429387E+03  0.00000000000E+00 0. -1.
        -13    1    3    3    0    0  0.37569849994E+03  0.76185807070E+02  0.13735873639E+03  0.40721132416E+03  0.00000000000E+00 0.  1.
         22    1    1    2    0    0 -0.70139914465E+03 -0.11391757320E+03 -0.17582847244E+04  0.18964448702E+04  0.00000000000E+00 0.  1.
<mgrwt>
<rscale>  0 0.22905307E+04</rscale>
<asrwt>0</asrwt>
<pdfrwt beam="1">  1        2 0.98309978E-01 0.22905307E+04</pdfrwt>
<pdfrwt beam="2">  1       -2 0.31578240E+00 0.22905307E+04</pdfrwt>
<totfact> 0.10599128E+00</totfact>
</mgrwt>
</event>
<event>
 6    1  0.9988873E-007  0.1755393E+04  0.7818608E-02  0.8730387E-01
         -2   -1    0    0    0  501 -0.00000000000E+00  0.00000000000E+00  0.74373577404E+03  0.74373577404E+03  0.00000000000E+00 0.  1.
          2   -1    0    0  501    0  0.00000000000E+00 -0.00000000000E+00 -0.10357861274E+04  0.10357861274E+04  0.00000000000E+00 0. -1.
         23    2    1    2    0    0  0.56707688491E+03 -0.41525324164E+03  0.38204634235E+03  0.80565445497E+03  0.95437126040E+02 0.  0.
         11    1    3    3    0    0  0.25109410699E+03 -0.18089288396E+03  0.22237257416E+03  0.38107748264E+03  0.00000000000E+00 0. -1.
        -11    1    3    3    0    0  0.31598277792E+03 -0.23436035768E+03  0.15967376819E+03  0.42457697234E+03  0.00000000000E+00 0.  1.
         22    1    1    2    0    0 -0.56707688491E+03  0.41525324164E+03 -0.67409669566E+03  0.97386744642E+03  0.00000000000E+00 0.  1.
<mgrwt>
<rscale>  0 0.17553931E+04</rscale>
<asrwt>0</asrwt>
<pdfrwt beam="1">  1        2 0.15935171E+00 0.17553931E+04</pdfrwt>
<pdfrwt beam="2">  1       -2 0.11442089E+00 0.17553931E+04</pdfrwt>
<totfact> 0.13517364E+01</totfact>
</mgrwt>
</event>
<event>
 6    1  0.9988873E-007  0.3486053E+04  0.7818608E-02  0.8117103E-01
          1   -1    0    0  501    0  0.00000000000E+00  0.00000000000E+00  0.29887828120E+04  0.29887828120E+04  0.00000000000E+00 0. -1.
         -1   -1    0    0    0  501 -0.00000000000E+00 -0.00000000000E+00 -0.10165144983E+04  0.10165144983E+04  0.00000000000E+00 0.  1.
         23    2    1    2    0    0  0.14184115877E+03  0.23320931568E+03  0.29633561016E+04  0.29773087392E+04  0.91555691886E+02 0.  0.
         13    1    3    3    0    0  0.13982251684E+02  0.10255897281E+02  0.55629676143E+03  0.55656695336E+03  0.00000000000E+00 0. -1.
        -13    1    3    3    0    0  0.12785890709E+03  0.22295341840E+03  0.24070593401E+04  0.24207417859E+04  0.00000000000E+00 0.  1.
         22    1    1    2    0    0 -0.14184115877E+03 -0.23320931568E+03 -0.99108778778E+03  0.10279885711E+04  0.00000000000E+00 0.  1.
<mgrwt>
<rscale>  0 0.34860528E+04</rscale>
<asrwt>0</asrwt>
<pdfrwt beam="1">  1        1 0.45981274E+00 0.34860528E+04</pdfrwt>
<pdfrwt beam="2">  1       -1 0.15638685E+00 0.34860528E+04</pdfrwt>
<totfact> 0.15480659E-01</totfact>
</mgrwt>
</event>
<event>
 6    1  0.9988873E-007  0.1393230E+04  0.7818608E-02  0.8958734E-01
         -3   -1    0    0    0  501 -0.00000000000E+00  0.00000000000E+00  0.21260463798E+04  0.21260463798E+04  0.00000000000E+00 0.  1.
          3   -1    0    0  501    0  0.00000000000E+00 -0.00000000000E+00 -0.22825104867E+03  0.22825104867E+03  0.00000000000E+00 0. -1.
         23    2    1    2    0    0 -0.61257027490E+03  0.31476437946E+03  0.81600747858E+03  0.10718841120E+04  0.93532819113E+02 0.  0.
         13    1    3    3    0    0 -0.18691160508E+03  0.13173371533E+03  0.31781343803E+03  0.39152918315E+03  0.00000000000E+00 0. -1.
        -13    1    3    3    0    0 -0.42565866982E+03  0.18303066412E+03  0.49819404055E+03  0.68035492887E+03  0.00000000000E+00 0.  1.
         22    1    1    2    0    0  0.61257027490E+03 -0.31476437946E+03  0.10817878526E+04  0.12824133165E+04  0.00000000000E+00 0.  1.
<mgrwt>
<rscale>  0 0.13932298E+04</rscale>
<asrwt>0</asrwt>
<pdfrwt beam="1">  1        3 0.35115547E-01 0.13932298E+04</pdfrwt>
<pdfrwt beam="2">  1       -3 0.32708405E+00 0.13932298E+04</pdfrwt>
<totfact> 0.55352098E-01</totfact>
</mgrwt>
</event>
<event>
 6    1  0.9988873E-007  0.1177569E+04  0.7818608E-02  0.9132720E-01
          2   -1    0    0  501    0  0.00000000000E+00  0.00000000000E+00  0.18204122007E+04  0.18204122007E+04  0.00000000000E+00 0. -1.
         -2   -1    0    0    0  501 -0.00000000000E+00 -0.00000000000E+00 -0.19043322436E+03  0.19043322436E+03  0.00000000000E+00 0.  1.
         23    2    1    2    0    0  0.25354088300E+03 -0.30779860200E+03  0.15514559763E+04  0.16044111496E+04  0.89980729803E+02 0.  0.
         13    1    3    3    0    0  0.18625473001E+03 -0.16051495935E+03  0.98950063364E+03  0.10195917715E+04  0.00000000000E+00 0. -1.
        -13    1    3    3    0    0  0.67286152987E+02 -0.14728364264E+03  0.56195534270E+03  0.58481937806E+03  0.00000000000E+00 0.  1.
         22    1    1    2    0    0 -0.25354088300E+03  0.30779860200E+03  0.78523000026E+02  0.40643427547E+03  0.00000000000E+00 0.  1.
<mgrwt>
<rscale>  0 0.11775686E+04</rscale>
<asrwt>0</asrwt>
<pdfrwt beam="1">  1        2 0.28006340E+00 0.11775686E+04</pdfrwt>
<pdfrwt beam="2">  1       -2 0.29297420E-01 0.11775686E+04</pdfrwt>
<totfact> 0.89067313E+01</totfact>
</mgrwt>
</event>
<event>
 6    1  0.9988873E-007  0.8728209E+03  0.7818608E-02  0.9460209E-01
          1   -1    0    0  501    0  0.00000000000E+00  0.00000000000E+00  0.13935460522E+04  0.13935460522E+04  0.00000000000E+00 0. -1.
         -1   -1    0    0    0  501 -0.00000000000E+00 -0.00000000000E+00 -0.13666866752E+03  0.13666866752E+03  0.00000000000E+00 0.  1.
         23    2    1    2    0    0  0.33573988094E+03 -0.10499395625E+03  0.10737279274E+04  0.11336182974E+04  0.91944459603E+02 0.  0.
         11    1    3    3    0    0  0.21655206751E+03 -0.11169306832E+03  0.69065760719E+03  0.73237836520E+03  0.00000000000E+00 0. -1.
        -11    1    3    3    0    0  0.11918781343E+03  0.66991120677E+01  0.38307032020E+03  0.40123993220E+03  0.00000000000E+00 0.  1.
         22    1    1    2    0    0 -0.33573988094E+03  0.10499395625E+03  0.18314945730E+03  0.39659642233E+03  0.00000000000E+00 0. -1.
<mgrwt>
<rscale>  0 0.87282090E+03</rscale>
<asrwt>0</asrwt>
<pdfrwt beam="1">  1        1 0.21439169E+00 0.87282090E+03</pdfrwt>
<pdfrwt beam="2">  1       -1 0.21025950E-01 0.87282090E+03</pdfrwt>
<totfact> 0.14734985E+02</totfact>
</mgrwt>
</event>
<event>
 6    1  0.9988873E-007  0.2918716E+04  0.7818608E-02  0.8267331E-01
         -1   -1    0    0    0  501 -0.00000000000E+00  0.00000000000E+00  0.76145799665E+03  0.76145799665E+03  0.00000000000E+00 0.  1.
          1   -1    0    0  501    0  0.00000000000E+00 -0.00000000000E+00 -0.27969056927E+04  0.27969056927E+04  0.00000000000E+00 0. -1.
         23    2    1    2    0    0  0.57051032090E+03  0.44636237996E+03 -0.25611347483E+04  0.26633395124E+04  0.96149669227E+02 0.  0.
         13    1    3    3    0    0  0.39662766394E+02  0.68417154183E+02 -0.27525352551E+03  0.28638880098E+03  0.00000000000E+00 0.  1.
        -13    1    3    3    0    0  0.53084755450E+03  0.37794522577E+03 -0.22858812228E+04  0.23769507114E+04  0.00000000000E+00 0. -1.
         22    1    1    2    0    0 -0.57051032090E+03 -0.44636237996E+03  0.52568705222E+03  0.89502417697E+03  0.00000000000E+00 0.  1.
<mgrwt>
<rscale>  0 0.29187163E+04</rscale>
<asrwt>0</asrwt>
<pdfrwt beam="1">  1        1 0.43029319E+00 0.29187163E+04</pdfrwt>
<pdfrwt beam="2">  1       -1 0.11714738E+00 0.29187163E+04</pdfrwt>
<totfact> 0.47095637E-01</totfact>
</mgrwt>
</event>
<event>
 6    1  0.9988873E-007  0.8979501E+03  0.7818608E-02  0.9428147E-01
          2   -1    0    0  501    0  0.00000000000E+00  0.00000000000E+00  0.15080986594E+04  0.15080986594E+04  0.00000000000E+00 0. -1.
         -2   -1    0    0    0  501 -0.00000000000E+00 -0.00000000000E+00 -0.13366407441E+03  0.13366407441E+03  0.00000000000E+00 0.  1.
         23    2    1    2    0    0 -0.26327767139E+03  0.49867959847E+02  0.46738720780E+02  0.28729669380E+03  0.92482087859E+02 0.  0.
         11    1    3    3    0    0 -0.17418860315E+03  0.46089652385E+02  0.72896024350E+02  0.19437015175E+03  0.00000000000E+00 0.  1.
        -11    1    3    3    0    0 -0.89089068247E+02  0.37783074617E+01 -0.26157303570E+02  0.92926542056E+02  0.00000000000E+00 0. -1.
         22    1    1    2    0    0  0.26327767139E+03 -0.49867959847E+02  0.13276958642E+04  0.13544660400E+04  0.00000000000E+00 0. -1.
<mgrwt>
<rscale>  0 0.89795014E+03</rscale>
<asrwt>0</asrwt>
<pdfrwt beam="1">  1        2 0.23201517E+00 0.89795014E+03</pdfrwt>
<pdfrwt beam="2">  1       -2 0.20563705E-01 0.89795014E+03</pdfrwt>
<totfact> 0.25636389E+02</totfact>
</mgrwt>
</event>
<event>
 6    1  0.9988873E-007  0.1486187E+04  0.7818608E-02  0.8893691E-01
         -2   -1    0    0    0  501 -0.00000000000E+00  0.00000000000E+00  0.20252524435E+03  0.20252524435E+03  0.00000000000E+00 0.  1.
          2   -1    0    0  501    0  0.00000000000E+00 -0.00000000000E+00 -0.27265140938E+04  0.27265140938E+04  0.00000000000E+00 0. -1.
         23    2    1    2    0    0  0.22248325386E+03 -0.46694677342E+03 -0.23107350803E+04  0.23695616732E+04  0.88248651788E+02 0.  0.
         11    1    3    3    0    0  0.17745985435E+03 -0.27339782771E+03 -0.14186587139E+04  0.14556204583E+04  0.00000000000E+00 0.  1.
        -11    1    3    3    0    0  0.45023399515E+02 -0.19354894571E+03 -0.89207636641E+03  0.91394121495E+03  0.00000000000E+00 0. -1.
         22    1    1    2    0    0 -0.22248325386E+03  0.46694677342E+03 -0.21325376913E+03  0.55947766488E+03  0.00000000000E+00 0.  1.
<mgrwt>
<rscale>  0 0.14861870E+04</rscale>
<asrwt>0</asrwt>
<pdfrwt beam="1">  1        2 0.41946368E+00 0.14861870E+04</pdfrwt>
<pdfrwt beam="2">  1       -2 0.31157732E-01 0.14861870E+04</pdfrwt>
<totfact> 0.23767348E+01</totfact>
</mgrwt>
</event>
<event>
 6    1  0.9988873E-007  0.2586791E+04  0.7818608E-02  0.8372702E-01
         -1   -1    0    0    0  501 -0.00000000000E+00  0.00000000000E+00  0.88001858216E+03  0.88001858216E+03  0.00000000000E+00 0.  1.
          1   -1    0    0  501    0  0.00000000000E+00 -0.00000000000E+00 -0.19009500990E+04  0.19009500990E+04  0.00000000000E+00 0. -1.
         23    2    1    2    0    0  0.12195263270E+04 -0.23881797375E+03 -0.89027629742E+03  0.15314290567E+04  0.91676513465E+02 0.  0.
         13    1    3    3    0    0  0.63134695483E+03 -0.93404473266E+02 -0.49958938956E+03  0.81050165401E+03  0.00000000000E+00 0. -1.
        -13    1    3    3    0    0  0.58817937215E+03 -0.14541350048E+03 -0.39068690787E+03  0.72092740267E+03  0.00000000000E+00 0.  1.
         22    1    1    2    0    0 -0.12195263270E+04  0.23881797375E+03 -0.13065521942E+03  0.12495396245E+04  0.00000000000E+00 0.  1.
<mgrwt>
<rscale>  0 0.25867906E+04</rscale>
<asrwt>0</asrwt>
<pdfrwt beam="1">  1        1 0.29245386E+00 0.25867906E+04</pdfrwt>
<pdfrwt beam="2">  1       -1 0.13538747E+00 0.25867906E+04</pdfrwt>
<totfact> 0.14025316E+00</totfact>
</mgrwt>
</event>
<event>
 6    1  0.9988873E-007  0.2331533E+04  0.7818608E-02  0.8465591E-01
         -1   -1    0    0    0  501 -0.00000000000E+00  0.00000000000E+00  0.81703548349E+03  0.81703548349E+03  0.00000000000E+00 0.  1.
          1   -1    0    0  501    0  0.00000000000E+00 -0.00000000000E+00 -0.16633451998E+04  0.16633451998E+04  0.00000000000E+00 0. -1.
         23    2    1    2    0    0  0.76273937757E+03  0.52916853106E+03  0.32338714831E+03  0.98706844285E+03  0.89073962608E+02 0.  0.
         11    1    3    3    0    0  0.30372575318E+03  0.23709608496E+03  0.17465376909E+03  0.42304589078E+03  0.00000000000E+00 0.  1.
        -11    1    3    3    0    0  0.45901362440E+03  0.29207244609E+03  0.14873337921E+03  0.56402255207E+03  0.00000000000E+00 0. -1.
         22    1    1    2    0    0 -0.76273937757E+03 -0.52916853106E+03 -0.11696968646E+04  0.14933122404E+04  0.00000000000E+00 0. -1.
<mgrwt>
<rscale>  0 0.23315334E+04</rscale>
<asrwt>0</asrwt>
<pdfrwt beam="1">  1        1 0.25589926E+00 0.23315334E+04</pdfrwt>
<pdfrwt beam="2">  1       -1 0.12569777E+00 0.23315334E+04</pdfrwt>
<totfact> 0.25118191E+00</totfact>
</mgrwt>
</event>
<event>
 6    1  0.9988873E-007  0.1410756E+04  0.7818608E-02  0.8946069E-01
          1   -1    0    0  501    0  0.00000000000E+00  0.00000000000E+00  0.16811314402E+04  0.16811314402E+04  0.00000000000E+00 0. -1.
         -1   -1    0    0    0  501 -0.00000000000E+00 -0.00000000000E+00 -0.29596626480E+03  0.29596626480E+03  0.00000000000E+00 0.  1.
         23    2    1    2    0    0  0.19774781169E+03  0.15824860250E+03  0.16134212878E+04  0.16361465794E+04  0.98491420834E+02 0.  0.
         13    1    3    3    0    0  0.85094577419E+02  0.65846355258E+02  0.99464895217E+03  0.10004515819E+04  0.00000000000E+00 0. -1.
        -13    1    3    3    0    0  0.11265323427E+03  0.92402247242E+02  0.61877233566E+03  0.63569499752E+03  0.00000000000E+00 0.  1.
         22    1    1    2    0    0 -0.19774781169E+03 -0.15824860250E+03 -0.22825611240E+03  0.34095112564E+03  0.00000000000E+00 0.  1.
<mgrwt>
<rscale>  0 0.14107561E+04</rscale>
<asrwt>0</asrwt>
<pdfrwt beam="1">  1        1 0.25863560E+00 0.14107561E+04</pdfrwt>
<pdfrwt beam="2">  1       -1 0.45533272E-01 0.14107561E+04</pdfrwt>
<totfact> 0.22916202E+01</totfact>
</mgrwt>
</event>
<event>
 6    1  0.9988873E-007  0.3809367E+04  0.7818608E-02  0.8044148E-01
          1   -1    0    0  501    0  0.00000000000E+00  0.00000000000E+00  0.20432048937E+04  0.20432048937E+04  0.00000000000E+00 0. -1.
         -1   -1    0    0    0  501 -0.00000000000E+00 -0.00000000000E+00 -0.17755535569E+04  0.17755535569E+04  0.00000000000E+00 0.  1.
         23    2    1    2    0    0  0.28227860555E+03  0.10659750409E+04 -0.14215914011E+04  0.18014520716E+04  0.91232975886E+02 0.  0.
         11    1    3    3    0    0  0.18467993629E+03  0.70369263039E+03 -0.86600299640E+03  0.11310398696E+04  0.00000000000E+00 0. -1.
        -11    1    3    3    0    0  0.97598669252E+02  0.36228241049E+03 -0.55558840467E+03  0.67041220200E+03  0.00000000000E+00 0.  1.
         22    1    1    2    0    0 -0.28227860555E+03 -0.10659750409E+04  0.16892427379E+04  0.20173063790E+04  0.00000000000E+00 0.  1.
<mgrwt>
<rscale>  0 0.38093673E+04</rscale>
<asrwt>0</asrwt>
<pdfrwt beam="1">  1        1 0.31433921E+00 0.38093673E+04</pdfrwt>
<pdfrwt beam="2">  1       -1 0.27316209E+00 0.38093673E+04</pdfrwt>
<totfact> 0.10914821E-01</totfact>
</mgrwt>
</event>
<event>
 6    1  0.9988873E-007  0.1571337E+04  0.7818608E-02  0.8838353E-01
          2   -1    0    0  501    0  0.00000000000E+00  0.00000000000E+00  0.17394129225E+04  0.17394129225E+04  0.00000000000E+00 0. -1.
         -2   -1    0    0    0  501 -0.00000000000E+00 -0.00000000000E+00 -0.35487539864E+03  0.35487539864E+03  0.00000000000E+00 0.  1.
         23    2    1    2    0    0 -0.49563009744E+03 -0.63597347983E+02 -0.10900389967E+03  0.51937251388E+03  0.90399899729E+02 0.  0.
         11    1    3    3    0    0 -0.41127622625E+03 -0.86675435635E+02 -0.92712562278E+02  0.43041420123E+03  0.00000000000E+00 0.  1.
        -11    1    3    3    0    0 -0.84353871192E+02  0.23078087652E+02 -0.16291337389E+02  0.88958312645E+02  0.00000000000E+00 0. -1.
         22    1    1    2    0    0  0.49563009744E+03  0.63597347983E+02  0.14935414235E+04  0.15749158073E+04  0.00000000000E+00 0. -1.
<mgrwt>
<rscale>  0 0.15713368E+04</rscale>
<asrwt>0</asrwt>
<pdfrwt beam="1">  1        2 0.26760198E+00 0.15713368E+04</pdfrwt>
<pdfrwt beam="2">  1       -2 0.54596216E-01 0.15713368E+04</pdfrwt>
<totfact> 0.28286026E+01</totfact>
</mgrwt>
</event>
<event>
 6    1  0.9988873E-007  0.3665671E+04  0.7818608E-02  0.8075612E-01
          2   -1    0    0  501    0  0.00000000000E+00  0.00000000000E+00  0.40441559539E+04  0.40441559539E+04  0.00000000000E+00 0. -1.
         -2   -1    0    0    0  501 -0.00000000000E+00 -0.00000000000E+00 -0.83065208116E+03  0.83065208116E+03  0.00000000000E+00 0.  1.
         23    2    1    2    0    0 -0.83182548216E+03 -0.81020167184E+03  0.34916856643E+04  0.36807621855E+04  0.88210577341E+02 0.  0.
         11    1    3    3    0    0 -0.49725486287E+03 -0.49665099772E+03  0.22444484666E+04  0.23519084870E+04  0.00000000000E+00 0. -1.
        -11    1    3    3    0    0 -0.33457061929E+03 -0.31355067412E+03  0.12472371977E+04  0.13288536985E+04  0.00000000000E+00 0.  1.
         22    1    1    2    0    0  0.83182548216E+03  0.81020167184E+03 -0.27818179153E+03  0.11940458496E+04  0.00000000000E+00 0.  1.
<mgrwt>
<rscale>  0 0.36656713E+04</rscale>
<asrwt>0</asrwt>
<pdfrwt beam="1">  1        2 0.62217783E+00 0.36656713E+04</pdfrwt>
<pdfrwt beam="2">  1       -2 0.12779263E+00 0.36656713E+04</pdfrwt>
<totfact> 0.11539224E-01</totfact>
</mgrwt>
</event>
<event>
 6    1  0.9988873E-007  0.2226952E+04  0.7818608E-02  0.8507293E-01
          2   -1    0    0  501    0  0.00000000000E+00  0.00000000000E+00  0.34440514756E+03  0.34440514756E+03  0.00000000000E+00 0. -1.
         -2   -1    0    0    0  501 -0.00000000000E+00 -0.00000000000E+00 -0.35999128531E+04  0.35999128531E+04  0.00000000000E+00 0.  1.
         23    2    1    2    0    0 -0.44261190929E+03  0.57147508668E+03 -0.31263472912E+04  0.32100350242E+04  0.88251881804E+02 0.  0.
         11    1    3    3    0    0 -0.21702365634E+03  0.21040267387E+03 -0.12631197451E+04  0.12987840633E+04  0.00000000000E+00 0. -1.
        -11    1    3    3    0    0 -0.22558825295E+03  0.36107241280E+03 -0.18632275461E+04  0.19112509609E+04  0.00000000000E+00 0.  1.
         22    1    1    2    0    0  0.44261190929E+03 -0.57147508668E+03 -0.12916041441E+03  0.73428297651E+03  0.00000000000E+00 0. -1.
<mgrwt>
<rscale>  0 0.22269517E+04</rscale>
<asrwt>0</asrwt>
<pdfrwt beam="1">  1        2 0.52985406E-01 0.22269517E+04</pdfrwt>
<pdfrwt beam="2">  1       -2 0.55383276E+00 0.22269517E+04</pdfrwt>
<totfact> 0.69123856E-02</totfact>
</mgrwt>
</event>
<event>
 6    1  0.9988873E-007  0.1985833E+04  0.7818608E-02  0.8613273E-01
          2   -1    0    0  501    0  0.00000000000E+00  0.00000000000E+00  0.12847590119E+04  0.12847590119E+04  0.00000000000E+00 0. -1.
         -2   -1    0    0    0  501 -0.00000000000E+00 -0.00000000000E+00 -0.76736833453E+03  0.76736833453E+03  0.00000000000E+00 0.  1.
         23    2    1    2    0    0  0.49621527022E+03 -0.85202262865E+03  0.15862427690E+03  0.10028964451E+04  0.92018825819E+02 0.  0.
         13    1    3    3    0    0  0.21820509758E+03 -0.46191483440E+03  0.68022851061E+02  0.51536966064E+03  0.00000000000E+00 0. -1.
        -13    1    3    3    0    0  0.27801017264E+03 -0.39010779425E+03  0.90601425842E+02  0.48752678449E+03  0.00000000000E+00 0.  1.
         22    1    1    2    0    0 -0.49621527022E+03  0.85202262865E+03  0.35876640045E+03  0.10492309013E+04  0.00000000000E+00 0.  1.
<mgrwt>
<rscale>  0 0.19858332E+04</rscale>
<asrwt>0</asrwt>
<pdfrwt beam="1">  1        2 0.19765523E+00 0.19858332E+04</pdfrwt>
<pdfrwt beam="2">  1       -2 0.11805667E+00 0.19858332E+04</pdfrwt>
<totfact> 0.86800124E+00</totfact>
</mgrwt>
</event>
<event>
 6    1  0.9988873E-007  0.1968085E+04  0.7818608E-02  0.8621689E-01
          2   -1    0    0  501    0  0.00000000000E+00  0.00000000000E+00  0.13590654026E+04  0.13590654026E+04  0.00000000000E+00 0. -1.
         -2   -1    0    0    0  501 -0.00000000000E+00 -0.00000000000E+00 -0.71250384265E+03  0.71250384265E+03  0.00000000000E+00 0.  1.
         23    2    1    2    0    0 -0.55528139119E+03 -0.73252020849E+03  0.68749001122E+03  0.11514614160E+04  0.91091151423E+02 0.  0.
         13    1    3    3    0    0 -0.25378433023E+03 -0.27585153243E+03  0.24593447455E+03  0.44831274796E+03  0.00000000000E+00 0.  1.
        -13    1    3    3    0    0 -0.30149706096E+03 -0.45666867607E+03  0.44155553667E+03  0.70314866808E+03  0.00000000000E+00 0. -1.
         22    1    1    2    0    0  0.55528139119E+03  0.73252020849E+03 -0.40928451264E+02  0.92010782921E+03  0.00000000000E+00 0.  1.
<mgrwt>
<rscale>  0 0.19680847E+04</rscale>
<asrwt>0</asrwt>
<pdfrwt beam="1">  1        2 0.20908699E+00 0.19680847E+04</pdfrwt>
<pdfrwt beam="2">  1       -2 0.10961598E+00 0.19680847E+04</pdfrwt>
<totfact> 0.94302117E+00</totfact>
</mgrwt>
</event>
<event>
 6    1  0.9988873E-007  0.2254482E+04  0.7818608E-02  0.8496087E-01
          1   -1    0    0  501    0  0.00000000000E+00  0.00000000000E+00  0.66200035453E+03  0.66200035453E+03  0.00000000000E+00 0. -1.
         -1   -1    0    0    0  501 -0.00000000000E+00 -0.00000000000E+00 -0.19194439059E+04  0.19194439059E+04  0.00000000000E+00 0.  1.
         23    2    1    2    0    0  0.57471790407E+03  0.90271323685E+03 -0.23015618914E+03  0.10980322537E+04  0.86666610983E+02 0.  0.
         11    1    3    3    0    0  0.17839912680E+02  0.65142957386E+02 -0.82643220185E+01  0.68045326069E+02  0.00000000000E+00 0. -1.
        -11    1    3    3    0    0  0.55687799139E+03  0.83757027946E+03 -0.22189186713E+03  0.10299869276E+04  0.00000000000E+00 0.  1.
         22    1    1    2    0    0 -0.57471790407E+03 -0.90271323685E+03 -0.10272873623E+04  0.14834120068E+04  0.00000000000E+00 0.  1.
<mgrwt>
<rscale>  0 0.22544822E+04</rscale>
<asrwt>0</asrwt>
<pdfrwt beam="1">  1        1 0.10184621E+00 0.22544822E+04</pdfrwt>
<pdfrwt beam="2">  1       -1 0.29529906E+00 0.22544822E+04</pdfrwt>
<totfact> 0.95299312E-01</totfact>
</mgrwt>
</event>
<event>
 6    1  0.9988873E-007  0.3514783E+04  0.7818608E-02  0.8110295E-01
          2   -1    0    0  501    0  0.00000000000E+00  0.00000000000E+00  0.13483986420E+04  0.13483986420E+04  0.00000000000E+00 0. -1.
         -2   -1    0    0    0  501 -0.00000000000E+00 -0.00000000000E+00 -0.22904393218E+04  0.22904393218E+04  0.00000000000E+00 0.  1.
         23    2    1    2    0    0 -0.22211854694E+03 -0.34493731919E+03  0.12964611498E+04  0.13630504420E+04  0.93683464478E+02 0.  0.
         13    1    3    3    0    0 -0.19325764348E+03 -0.24243141314E+03  0.10436191198E+04  0.10886975586E+04  0.00000000000E+00 0. -1.
        -13    1    3    3    0    0 -0.28860903460E+02 -0.10250590605E+03  0.25284202993E+03  0.27435288339E+03  0.00000000000E+00 0.  1.
         22    1    1    2    0    0  0.22211854694E+03  0.34493731919E+03 -0.22385018296E+04  0.22757875217E+04  0.00000000000E+00 0.  1.
<mgrwt>
<rscale>  0 0.35147832E+04</rscale>
<asrwt>0</asrwt>
<pdfrwt beam="1">  1        2 0.20744595E+00 0.35147832E+04</pdfrwt>
<pdfrwt beam="2">  1       -2 0.35237527E+00 0.35147832E+04</pdfrwt>
<totfact> 0.19105339E-01</totfact>
</mgrwt>
</event>
<event>
 6    1  0.9988873E-007  0.1976949E+04  0.7818608E-02  0.8617474E-01
         -2   -1    0    0    0  501 -0.00000000000E+00  0.00000000000E+00  0.91524709861E+03  0.91524709861E+03  0.00000000000E+00 0.  1.
          2   -1    0    0  501    0  0.00000000000E+00 -0.00000000000E+00 -0.10675602269E+04  0.10675602269E+04  0.00000000000E+00 0. -1.
         23    2    1    2    0    0 -0.88234759211E+03 -0.46931835803E+02 -0.51603542987E+03  0.10272793127E+04  0.90941469950E+02 0.  0.
         13    1    3    3    0    0 -0.42184078216E+03  0.14416279561E+02 -0.27648051942E+03  0.50457799419E+03  0.00000000000E+00 0. -1.
        -13    1    3    3    0    0 -0.46050680995E+03 -0.61348115365E+02 -0.23955491045E+03  0.52270131853E+03  0.00000000000E+00 0.  1.
         22    1    1    2    0    0  0.88234759211E+03  0.46931835803E+02  0.36372230160E+03  0.95552801277E+03  0.00000000000E+00 0.  1.
<mgrwt>
<rscale>  0 0.19769486E+04</rscale>
<asrwt>0</asrwt>
<pdfrwt beam="1">  1        2 0.16424003E+00 0.19769486E+04</pdfrwt>
<pdfrwt beam="2">  1       -2 0.14080725E+00 0.19769486E+04</pdfrwt>
<totfact> 0.75161091E+00</totfact>
</mgrwt>
</event>
<event>
 6    1  0.9988873E-007  0.4081730E+03  0.7818608E-02  0.1040986E+00
         -1   -1    0    0    0  501 -0.00000000000E+00  0.00000000000E+00  0.39349755376E+03  0.39349755376E+03  0.00000000000E+00 0.  1.
          1   -1    0    0  501    0  0.00000000000E+00 -0.00000000000E+00 -0.10584894019E+03  0.10584894019E+03  0.00000000000E+00 0. -1.
         23    2    1    2    0    0  0.41028074382E+02  0.57420152368E+02  0.37198859931E+03  0.38937554332E+03  0.90870341330E+02 0.  0.
         11    1    3    3    0    0  0.32221988794E+02 -0.67684712220E+01  0.24100851712E+03  0.24324714610E+03  0.00000000000E+00 0. -1.
        -11    1    3    3    0    0  0.88060855884E+01  0.64188623590E+02  0.13098008220E+03  0.14612839722E+03  0.00000000000E+00 0.  1.
         22    1    1    2    0    0 -0.41028074382E+02 -0.57420152368E+02 -0.84339985746E+02  0.10997095062E+03  0.00000000000E+00 0. -1.
<mgrwt>
<rscale>  0 0.40817300E+03</rscale>
<asrwt>0</asrwt>
<pdfrwt beam="1">  1        1 0.16284452E-01 0.40817300E+03</pdfrwt>
<pdfrwt beam="2">  1       -1 0.60538085E-01 0.40817300E+03</pdfrwt>
<totfact> 0.95847640E+02</totfact>
</mgrwt>
</event>
<event>
 6    1  0.9988873E-007  0.1946542E+04  0.7818608E-02  0.8632030E-01
         -1   -1    0    0    0  501 -0.00000000000E+00  0.00000000000E+00  0.92135105933E+03  0.92135105933E+03  0.00000000000E+00 0.  1.
          1   -1    0    0  501    0  0.00000000000E+00 -0.00000000000E+00 -0.10281162791E+04  0.10281162791E+04  0.00000000000E+00 0. -1.
         23    2    1    2    0    0 -0.56120056206E+03 -0.18885055968E+03 -0.82445354098E+03  0.10190442458E+04  0.90094000405E+02 0.  0.
         13    1    3    3    0    0 -0.45924867299E+03 -0.11808167167E+03 -0.67210833299E+03  0.82254619086E+03  0.00000000000E+00 0. -1.
        -13    1    3    3    0    0 -0.10195188908E+03 -0.70768888015E+02 -0.15234520799E+03  0.19649805494E+03  0.00000000000E+00 0.  1.
         22    1    1    2    0    0  0.56120056206E+03  0.18885055968E+03  0.71768832126E+03  0.93042309259E+03  0.00000000000E+00 0.  1.
<mgrwt>
<rscale>  0 0.19465416E+04</rscale>
<asrwt>0</asrwt>
<pdfrwt beam="1">  1        1 0.15817174E+00 0.19465416E+04</pdfrwt>
<pdfrwt beam="2">  1       -1 0.14174632E+00 0.19465416E+04</pdfrwt>
<totfact> 0.54405066E+00</totfact>
</mgrwt>
</event>
<event>
 6    1  0.9988873E-007  0.4377761E+04  0.7818608E-02  0.7932394E-01
         -2   -1    0    0    0  501 -0.00000000000E+00  0.00000000000E+00  0.22873383024E+04  0.22873383024E+04  0.00000000000E+00 0.  1.
          2   -1    0    0  501    0  0.00000000000E+00 -0.00000000000E+00 -0.20946607382E+04  0.20946607382E+04  0.00000000000E+00 0. -1.
         23    2    1    2    0    0 -0.14098289477E+04  0.61286797667E+03 -0.14617323365E+04  0.21236153403E+04  0.99276740937E+02 0.  0.
         13    1    3    3    0    0 -0.74883598167E+03  0.37559861621E+03 -0.82039344339E+03  0.11725506598E+04  0.00000000000E+00 0. -1.
        -13    1    3    3    0    0 -0.66099296601E+03  0.23726936046E+03 -0.64133889313E+03  0.95106468043E+03  0.00000000000E+00 0.  1.
         22    1    1    2    0    0  0.14098289477E+04 -0.61286797667E+03  0.16544099007E+04  0.22583837004E+04  0.00000000000E+00 0.  1.
<mgrwt>
<rscale>  0 0.43777610E+04</rscale>
<asrwt>0</asrwt>
<pdfrwt beam="1">  1        2 0.32225550E+00 0.43777610E+04</pdfrwt>
<pdfrwt beam="2">  1       -2 0.35189820E+00 0.43777610E+04</pdfrwt>
<totfact> 0.68515261E-02</totfact>
</mgrwt>
</event>
<event>
 6    1  0.9988873E-007  0.2549976E+04  0.7818608E-02  0.8385395E-01
         -2   -1    0    0    0  501 -0.00000000000E+00  0.00000000000E+00  0.13638871464E+04  0.13638871464E+04  0.00000000000E+00 0.  1.
          2   -1    0    0  501    0  0.00000000000E+00 -0.00000000000E+00 -0.11918829840E+04  0.11918829840E+04  0.00000000000E+00 0. -1.
         23    2    1    2    0    0  0.98408572307E+03 -0.67427082801E+03  0.53234155816E+03  0.13096124764E+04  0.92905564062E+02 0.  0.
         11    1    3    3    0    0  0.61854772607E+03 -0.47046539016E+03  0.36991760501E+03  0.86068461545E+03  0.00000000000E+00 0. -1.
        -11    1    3    3    0    0  0.36553799700E+03 -0.20380543784E+03  0.16242395315E+03  0.44892786091E+03  0.00000000000E+00 0.  1.
         22    1    1    2    0    0 -0.98408572307E+03  0.67427082801E+03 -0.36033739575E+03  0.12461576540E+04  0.00000000000E+00 0. -1.
<mgrwt>
<rscale>  0 0.25499756E+04</rscale>
<asrwt>0</asrwt>
<pdfrwt beam="1">  1        2 0.18336661E+00 0.25499756E+04</pdfrwt>
<pdfrwt beam="2">  1       -2 0.20982879E+00 0.25499756E+04</pdfrwt>
<totfact> 0.19530299E+00</totfact>
</mgrwt>
</event>
<event>
 6    1  0.9988873E-007  0.4520180E+04  0.7818608E-02  0.7907113E-01
          2   -1    0    0  501    0  0.00000000000E+00  0.00000000000E+00  0.12996515859E+04  0.12996515859E+04  0.00000000000E+00 0. -1.
         -2   -1    0    0    0  501 -0.00000000000E+00 -0.00000000000E+00 -0.39302893161E+04  0.39302893161E+04  0.00000000000E+00 0.  1.
         23    2    1    2    0    0 -0.38398375188E+03 -0.16823100024E+04 -0.30030254208E+04  0.34646411943E+04  0.89255035495E+02 0.  0.
         11    1    3    3    0    0 -0.33907761836E+03 -0.15289010714E+04 -0.26738345913E+04  0.30986938440E+04  0.00000000000E+00 0. -1.
        -11    1    3    3    0    0 -0.44906133526E+02 -0.15340893098E+03 -0.32919082951E+03  0.36594735027E+03  0.00000000000E+00 0.  1.
         22    1    1    2    0    0  0.38398375188E+03  0.16823100024E+04  0.37238769063E+03  0.17652997077E+04  0.00000000000E+00 0. -1.
<mgrwt>
<rscale>  0 0.45201800E+04</rscale>
<asrwt>0</asrwt>
<pdfrwt beam="1">  1        2 0.19994640E+00 0.45201800E+04</pdfrwt>
<pdfrwt beam="2">  1       -2 0.60465989E+00 0.45201800E+04</pdfrwt>
<totfact> 0.61208120E-03</totfact>
</mgrwt>
</event>
<event>
 6    1  0.9988873E-007  0.1737526E+04  0.7818608E-02  0.8740247E-01
         -1   -1    0    0    0  501 -0.00000000000E+00  0.00000000000E+00  0.73509736275E+03  0.73509736275E+03  0.00000000000E+00 0.  1.
          1   -1    0    0  501    0  0.00000000000E+00 -0.00000000000E+00 -0.10267331214E+04  0.10267331214E+04  0.00000000000E+00 0. -1.
         23    2    1    2    0    0 -0.65431180841E+03 -0.56010343597E+03 -0.24179124589E+03  0.89908818368E+03  0.89759422020E+02 0.  0.
         13    1    3    3    0    0 -0.49345738063E+03 -0.40490228801E+03 -0.14003414416E+03  0.65349492030E+03  0.00000000000E+00 0. -1.
        -13    1    3    3    0    0 -0.16085442777E+03 -0.15520114796E+03 -0.10175710173E+03  0.24559326337E+03  0.00000000000E+00 0.  1.
         22    1    1    2    0    0  0.65431180841E+03  0.56010343597E+03 -0.49844512787E+02  0.86274230049E+03  0.00000000000E+00 0. -1.
<mgrwt>
<rscale>  0 0.17375256E+04</rscale>
<asrwt>0</asrwt>
<pdfrwt beam="1">  1        1 0.15795894E+00 0.17375256E+04</pdfrwt>
<pdfrwt beam="2">  1       -1 0.11309190E+00 0.17375256E+04</pdfrwt>
<totfact> 0.97771845E+00</totfact>
</mgrwt>
</event>
<event>
 6    1  0.1222948E-006  0.4381579E+04  0.7818608E-02  0.7931703E-01
          1   -1    0    0  501    0  0.00000000000E+00  0.00000000000E+00  0.28078833407E+04  0.28078833407E+04  0.00000000000E+00 0. -1.
         -1   -1    0    0    0  501 -0.00000000000E+00 -0.00000000000E+00 -0.17093158250E+04  0.17093158250E+04  0.00000000000E+00 0.  1.
         23    2    1    2    0    0 -0.41615804545E+03  0.30750398353E+03 -0.16441911823E+04  0.17260575544E+04  0.90353851353E+02 0.  0.
         11    1    3    3    0    0 -0.21419928582E+03  0.20272558579E+03 -0.10157148343E+04  0.10576651747E+04  0.00000000000E+00 0. -1.
        -11    1    3    3    0    0 -0.20195875963E+03  0.10477839774E+03 -0.62847634799E+03  0.66839237967E+03  0.00000000000E+00 0.  1.
         22    1    1    2    0    0  0.41615804545E+03 -0.30750398353E+03  0.27427586980E+04  0.27911416113E+04  0.00000000000E+00 0. -1.
<mgrwt>
<rscale>  0 0.43815794E+04</rscale>
<asrwt>0</asrwt>
<pdfrwt beam="1">  1        1 0.43198205E+00 0.43815794E+04</pdfrwt>
<pdfrwt beam="2">  1       -1 0.26297167E+00 0.43815794E+04</pdfrwt>
<totfact> 0.35818260E-02</totfact>
</mgrwt>
</event>
<event>
 6    1  0.9988873E-007  0.4602682E+04  0.7818608E-02  0.7892903E-01
          1   -1    0    0  501    0  0.00000000000E+00  0.00000000000E+00  0.21828032086E+04  0.21828032086E+04  0.00000000000E+00 0. -1.
         -1   -1    0    0    0  501 -0.00000000000E+00 -0.00000000000E+00 -0.24263156595E+04  0.24263156595E+04  0.00000000000E+00 0.  1.
         23    2    1    2    0    0 -0.18034241528E+02  0.96798371742E+03 -0.22118396166E+04  0.24155761760E+04  0.73865158205E+02 0.  0.
         11    1    3    3    0    0 -0.45348491296E+02  0.60918804116E+03 -0.14186659880E+04  0.15445969509E+04  0.00000000000E+00 0. -1.
        -11    1    3    3    0    0  0.27314249768E+02  0.35879567626E+03 -0.79317362857E+03  0.87097922513E+03  0.00000000000E+00 0.  1.
         22    1    1    2    0    0  0.18034241528E+02 -0.96798371742E+03  0.19683271657E+04  0.21935426921E+04  0.00000000000E+00 0. -1.
<mgrwt>
<rscale>  0 0.46026817E+04</rscale>
<asrwt>0</asrwt>
<pdfrwt beam="1">  1        1 0.33581588E+00 0.46026817E+04</pdfrwt>
<pdfrwt beam="2">  1       -1 0.37327933E+00 0.46026817E+04</pdfrwt>
<totfact> 0.18112961E-02</totfact>
</mgrwt>
</event>
<event>
 6    1  0.9988873E-007  0.3172848E+04  0.7818608E-02  0.8196025E-01
          2   -1    0    0  501    0  0.00000000000E+00  0.00000000000E+00  0.22058580510E+04  0.22058580510E+04  0.00000000000E+00 0. -1.
         -2   -1    0    0    0  501 -0.00000000000E+00 -0.00000000000E+00 -0.11409355382E+04  0.11409355382E+04  0.00000000000E+00 0.  1.
         23    2    1    2    0    0 -0.12907032924E+04  0.17391695245E+03 -0.42020656545E+03  0.13715036170E+04  0.91030315245E+02 0.  0.
         13    1    3    3    0    0 -0.63085316940E+02 -0.86629826860E+01 -0.10704324729E+02  0.64570790999E+02  0.00000000000E+00 0.  1.
        -13    1    3    3    0    0 -0.12276179755E+04  0.18257993514E+03 -0.40950224072E+03  0.13069328260E+04  0.00000000000E+00 0. -1.
         22    1    1    2    0    0  0.12907032924E+04 -0.17391695245E+03  0.14851290782E+04  0.19752899722E+04  0.00000000000E+00 0. -1.
<mgrwt>
<rscale>  0 0.31728485E+04</rscale>
<asrwt>0</asrwt>
<pdfrwt beam="1">  1        2 0.33936278E+00 0.31728485E+04</pdfrwt>
<pdfrwt beam="2">  1       -2 0.17552854E+00 0.31728485E+04</pdfrwt>
<totfact> 0.84254031E-01</totfact>
</mgrwt>
</event>
<event>
 6    1  0.9988873E-007  0.3139160E+04  0.7818608E-02  0.8205072E-01
          2   -1    0    0  501    0  0.00000000000E+00  0.00000000000E+00  0.29074654716E+04  0.29074654716E+04  0.00000000000E+00 0. -1.
         -2   -1    0    0    0  501 -0.00000000000E+00 -0.00000000000E+00 -0.84732931259E+03  0.84732931259E+03  0.00000000000E+00 0.  1.
         23    2    1    2    0    0 -0.80653076809E+03 -0.87175672100E+01 -0.57784926986E+03  0.99625622205E+03  0.89715134979E+02 0.  0.
         11    1    3    3    0    0 -0.45468848276E+03  0.30873747927E+02 -0.29257105110E+03  0.54156497727E+03  0.00000000000E+00 0.  1.
        -11    1    3    3    0    0 -0.35184228534E+03 -0.39591315137E+02 -0.28527821876E+03  0.45469124478E+03  0.00000000000E+00 0. -1.
         22    1    1    2    0    0  0.80653076809E+03  0.87175672100E+01  0.26379854289E+04  0.27585385622E+04  0.00000000000E+00 0. -1.
<mgrwt>
<rscale>  0 0.31391596E+04</rscale>
<asrwt>0</asrwt>
<pdfrwt beam="1">  1        2 0.44730237E+00 0.31391596E+04</pdfrwt>
<pdfrwt beam="2">  1       -2 0.13035836E+00 0.31391596E+04</pdfrwt>
<totfact> 0.72512684E-01</totfact>
</mgrwt>
</event>
<event>
 6    1  0.9988873E-007  0.3769581E+04  0.7818608E-02  0.8052714E-01
          2   -1    0    0  501    0  0.00000000000E+00  0.00000000000E+00  0.18037952683E+04  0.18037952683E+04  0.00000000000E+00 0. -1.
         -2   -1    0    0    0  501 -0.00000000000E+00 -0.00000000000E+00 -0.19694225882E+04  0.19694225882E+04  0.00000000000E+00 0.  1.
         23    2    1    2    0    0  0.17972498593E+04  0.99378570072E+02  0.47300123303E+03  0.18632886469E+04  0.90173489444E+02 0.  0.
         13    1    3    3    0    0  0.14787274572E+04  0.47252938537E+02  0.38579604596E+03  0.15289559582E+04  0.00000000000E+00 0. -1.
        -13    1    3    3    0    0  0.31852240210E+03  0.52125631535E+02  0.87205187065E+02  0.33433268873E+03  0.00000000000E+00 0.  1.
         22    1    1    2    0    0 -0.17972498593E+04 -0.99378570072E+02 -0.63862855296E+03  0.19099292096E+04  0.00000000000E+00 0. -1.
<mgrwt>
<rscale>  0 0.37695810E+04</rscale>
<asrwt>0</asrwt>
<pdfrwt beam="1">  1        2 0.27750697E+00 0.37695810E+04</pdfrwt>
<pdfrwt beam="2">  1       -2 0.30298809E+00 0.37695810E+04</pdfrwt>
<totfact> 0.21031724E-01</totfact>
</mgrwt>
</event>
<event>
 6    1  0.9988873E-007  0.1610489E+04  0.7818608E-02  0.8814130E-01
         -1   -1    0    0    0  501 -0.00000000000E+00  0.00000000000E+00  0.10131167807E+04  0.10131167807E+04  0.00000000000E+00 0.  1.
          1   -1    0    0  501    0  0.00000000000E+00 -0.00000000000E+00 -0.64002371913E+03  0.64002371913E+03  0.00000000000E+00 0. -1.
         23    2    1    2    0    0  0.24518306753E+03  0.34916872586E+03  0.88466444949E+03  0.98700326123E+03  0.97522888431E+02 0.  0.
         11    1    3    3    0    0  0.66383013335E+02  0.14290988360E+03  0.24212320160E+03  0.28888333985E+03  0.00000000000E+00 0. -1.
        -11    1    3    3    0    0  0.17880005419E+03  0.20625884227E+03  0.64254124788E+03  0.69811992138E+03  0.00000000000E+00 0.  1.
         22    1    1    2    0    0 -0.24518306753E+03 -0.34916872586E+03 -0.51157138792E+03  0.66613723861E+03  0.00000000000E+00 0. -1.
<mgrwt>
<rscale>  0 0.16104891E+04</rscale>
<asrwt>0</asrwt>
<pdfrwt beam="1">  1        1 0.98465188E-01 0.16104891E+04</pdfrwt>
<pdfrwt beam="2">  1       -1 0.15586412E+00 0.16104891E+04</pdfrwt>
<totfact> 0.93894081E+00</totfact>
</mgrwt>
</event>
<event>
 6    1  0.9988873E-007  0.3067532E+04  0.7818608E-02  0.8224705E-01
          2   -1    0    0  501    0  0.00000000000E+00  0.00000000000E+00  0.22931921333E+04  0.22931921333E+04  0.00000000000E+00 0. -1.
         -2   -1    0    0    0  501 -0.00000000000E+00 -0.00000000000E+00 -0.10258354158E+04  0.10258354158E+04  0.00000000000E+00 0.  1.
         23    2    1    2    0    0 -0.10336730771E+04  0.10186163771E+04  0.11670084135E+04  0.18643354387E+04  0.88196578638E+02 0.  0.
         11    1    3    3    0    0 -0.46466280440E+02  0.73418351003E+02  0.61304981249E+02  0.10633752963E+03  0.00000000000E+00 0.  1.
        -11    1    3    3    0    0 -0.98720679664E+03  0.94519802614E+03  0.11057034323E+04  0.17579979090E+04  0.00000000000E+00 0. -1.
         22    1    1    2    0    0  0.10336730771E+04 -0.10186163771E+04  0.10034830392E+03  0.14546921104E+04  0.00000000000E+00 0.  1.
<mgrwt>
<rscale>  0 0.30675317E+04</rscale>
<asrwt>0</asrwt>
<pdfrwt beam="1">  1        2 0.35279879E+00 0.30675317E+04</pdfrwt>
<pdfrwt beam="2">  1       -2 0.15782083E+00 0.30675317E+04</pdfrwt>
<totfact> 0.10180349E+00</totfact>
</mgrwt>
</event>
<event>
 6    1  0.9988873E-007  0.1925334E+04  0.7818608E-02  0.8642348E-01
         -1   -1    0    0    0  501 -0.00000000000E+00  0.00000000000E+00  0.19735739585E+04  0.19735739585E+04  0.00000000000E+00 0.  1.
          1   -1    0    0  501    0  0.00000000000E+00 -0.00000000000E+00 -0.46956829768E+03  0.46956829768E+03  0.00000000000E+00 0. -1.
         23    2    1    2    0    0 -0.12590193111E+03  0.17188204088E+03  0.19424402858E+04  0.19556797934E+04  0.78831835694E+02 0.  0.
         11    1    3    3    0    0 -0.11858414333E+03  0.10058511580E+03  0.13368583311E+04  0.13458713765E+04  0.00000000000E+00 0.  1.
        -11    1    3    3    0    0 -0.73177877837E+01  0.71296925082E+02  0.60558195461E+03  0.60980841688E+03  0.00000000000E+00 0. -1.
         22    1    1    2    0    0  0.12590193111E+03 -0.17188204088E+03 -0.43843462496E+03  0.48746246276E+03  0.00000000000E+00 0. -1.
<mgrwt>
<rscale>  0 0.19253340E+04</rscale>
<asrwt>0</asrwt>
<pdfrwt beam="1">  1        1 0.72241278E-01 0.19253340E+04</pdfrwt>
<pdfrwt beam="2">  1       -1 0.30362676E+00 0.19253340E+04</pdfrwt>
<totfact> 0.14124946E+00</totfact>
</mgrwt>
</event>
<event>
 6    1  0.9988873E-007  0.3590461E+04  0.7818608E-02  0.8092680E-01
          1   -1    0    0  501    0  0.00000000000E+00  0.00000000000E+00  0.17181696902E+04  0.17181696902E+04  0.00000000000E+00 0. -1.
         -1   -1    0    0    0  501 -0.00000000000E+00 -0.00000000000E+00 -0.18757476012E+04  0.18757476012E+04  0.00000000000E+00 0.  1.
         23    2    1    2    0    0  0.10611234247E+04 -0.14401009115E+04 -0.21617987041E+03  0.18041386047E+04  0.91152679073E+02 0.  0.
         13    1    3    3    0    0  0.86669111458E+03 -0.11942280216E+04 -0.21137070778E+03  0.14906413491E+04  0.00000000000E+00 0.  1.
        -13    1    3    3    0    0  0.19443231012E+03 -0.24587288993E+03 -0.48091626293E+01  0.31349725560E+03  0.00000000000E+00 0. -1.
         22    1    1    2    0    0 -0.10611234247E+04  0.14401009115E+04  0.58601959395E+02  0.17897786867E+04  0.00000000000E+00 0. -1.
<mgrwt>
<rscale>  0 0.35904611E+04</rscale>
<asrwt>0</asrwt>
<pdfrwt beam="1">  1        1 0.26433380E+00 0.35904611E+04</pdfrwt>
<pdfrwt beam="2">  1       -1 0.28857655E+00 0.35904611E+04</pdfrwt>
<totfact> 0.14686931E-01</totfact>
</mgrwt>
</event>
<event>
 6    1  0.9988873E-007  0.1831296E+04  0.7818608E-02  0.8689832E-01
         -2   -1    0    0    0  501 -0.00000000000E+00  0.00000000000E+00  0.78047198960E+03  0.78047198960E+03  0.00000000000E+00 0.  1.
          2   -1    0    0  501    0  0.00000000000E+00 -0.00000000000E+00 -0.10742358181E+04  0.10742358181E+04  0.00000000000E+00 0. -1.
         23    2    1    2    0    0 -0.28439738963E+03 -0.51407768461E+03  0.56099137213E+03  0.81751727840E+03  0.92007824900E+02 0.  0.
         11    1    3    3    0    0 -0.92596098863E+02 -0.14962423154E+03  0.22735113392E+03  0.28748910637E+03  0.00000000000E+00 0. -1.
        -11    1    3    3    0    0 -0.19180129077E+03 -0.36445345307E+03  0.33364023822E+03  0.53002817203E+03  0.00000000000E+00 0.  1.
         22    1    1    2    0    0  0.28439738963E+03  0.51407768461E+03 -0.85475520061E+03  0.10371905293E+04  0.00000000000E+00 0. -1.
<mgrwt>
<rscale>  0 0.18312957E+04</rscale>
<asrwt>0</asrwt>
<pdfrwt beam="1">  1        2 0.16526705E+00 0.18312957E+04</pdfrwt>
<pdfrwt beam="2">  1       -2 0.12007261E+00 0.18312957E+04</pdfrwt>
<totfact> 0.11287198E+01</totfact>
</mgrwt>
</event>
<event>
 6    1  0.9988873E-007  0.1538419E+04  0.7818608E-02  0.8859299E-01
          1   -1    0    0  501    0  0.00000000000E+00  0.00000000000E+00  0.26406517784E+04  0.26406517784E+04  0.00000000000E+00 0. -1.
         -1   -1    0    0    0  501 -0.00000000000E+00 -0.00000000000E+00 -0.22406707210E+03  0.22406707210E+03  0.00000000000E+00 0.  1.
         23    2    1    2    0    0 -0.65261603113E+03 -0.30944961242E+03  0.16901328414E+04  0.18403170451E+04  0.92471933634E+02 0.  0.
         13    1    3    3    0    0 -0.89673224101E+02 -0.13369399847E+02  0.25167972538E+03  0.26751207850E+03  0.00000000000E+00 0. -1.
        -13    1    3    3    0    0 -0.56294280702E+03 -0.29608021258E+03  0.14384531160E+04  0.15728049666E+04  0.00000000000E+00 0.  1.
         22    1    1    2    0    0  0.65261603113E+03  0.30944961242E+03  0.72645186493E+03  0.10244018053E+04  0.00000000000E+00 0.  1.
<mgrwt>
<rscale>  0 0.15384188E+04</rscale>
<asrwt>0</asrwt>
<pdfrwt beam="1">  1        1 0.40625410E+00 0.15384188E+04</pdfrwt>
<pdfrwt beam="2">  1       -1 0.34471859E-01 0.15384188E+04</pdfrwt>
<totfact> 0.83355677E+00</totfact>
</mgrwt>
</event>
<event>
 6    1  0.9988873E-007  0.2285388E+04  0.7818608E-02  0.8483705E-01
         -2   -1    0    0    0  501 -0.00000000000E+00  0.00000000000E+00  0.46119993330E+03  0.46119993330E+03  0.00000000000E+00 0.  1.
          2   -1    0    0  501    0  0.00000000000E+00 -0.00000000000E+00 -0.28312002012E+04  0.28312002012E+04  0.00000000000E+00 0. -1.
         23    2    1    2    0    0  0.38411017228E+03 -0.50715607150E+03  0.17888014114E+03  0.66532205326E+03  0.76859770754E+02 0.  0.
         13    1    3    3    0    0  0.29324540671E+03 -0.41665363377E+03  0.16855882515E+03  0.53666115625E+03  0.00000000000E+00 0. -1.
        -13    1    3    3    0    0  0.90864765576E+02 -0.90502437724E+02  0.10321315986E+02  0.12866089701E+03  0.00000000000E+00 0.  1.
         22    1    1    2    0    0 -0.38411017228E+03  0.50715607150E+03 -0.25488804091E+04  0.26270780813E+04  0.00000000000E+00 0. -1.
<mgrwt>
<rscale>  0 0.22853878E+04</rscale>
<asrwt>0</asrwt>
<pdfrwt beam="1">  1        2 0.43556926E+00 0.22853878E+04</pdfrwt>
<pdfrwt beam="2">  1       -2 0.70953836E-01 0.22853878E+04</pdfrwt>
<totfact> 0.36278738E+00</totfact>
</mgrwt>
</event>
<event>
 6    1  0.9988873E-007  0.6332690E+04  0.7818608E-02  0.7650467E-01
          2   -1    0    0  501    0  0.00000000000E+00  0.00000000000E+00  0.30053567543E+04  0.30053567543E+04  0.00000000000E+00 0. -1.
         -2   -1    0    0    0  501 -0.00000000000E+00 -0.00000000000E+00 -0.33359570952E+04  0.33359570952E+04  0.00000000000E+00 0.  1.
         23    2    1    2    0    0 -0.12853980644E+04 -0.23237509219E+04  0.15602290538E+04  0.30813595046E+04  0.91625135553E+02 0.  0.
         11    1    3    3    0    0 -0.79599697445E+03 -0.13485202901E+04  0.90715852583E+03  0.18097112331E+04  0.00000000000E+00 0.  1.
        -11    1    3    3    0    0 -0.48940108999E+03 -0.97523063176E+03  0.65307052797E+03  0.12716482715E+04  0.00000000000E+00 0. -1.
         22    1    1    2    0    0  0.12853980644E+04  0.23237509219E+04 -0.18908293946E+04  0.32599543449E+04  0.00000000000E+00 0.  1.
<mgrwt>
<rscale>  0 0.63326902E+04</rscale>
<asrwt>0</asrwt>
<pdfrwt beam="1">  1        2 0.46236258E+00 0.63326902E+04</pdfrwt>
<pdfrwt beam="2">  1       -2 0.51322417E+00 0.63326902E+04</pdfrwt>
<totfact> 0.15757169E-03</totfact>
</mgrwt>
</event>
<event>
 6    1  0.9988873E-007  0.2347462E+04  0.7818608E-02  0.8459439E-01
         -1   -1    0    0    0  501 -0.00000000000E+00  0.00000000000E+00  0.12971965708E+04  0.12971965708E+04  0.00000000000E+00 0.  1.
          1   -1    0    0  501    0  0.00000000000E+00 -0.00000000000E+00 -0.10620162814E+04  0.10620162814E+04  0.00000000000E+00 0. -1.
         23    2    1    2    0    0 -0.10622215244E+04  0.16081341554E+03 -0.35294917682E+03  0.11344386727E+04  0.90567428957E+02 0.  0.
         11    1    3    3    0    0 -0.67551867366E+03  0.68755465747E+02 -0.19249427384E+03  0.70576684393E+03  0.00000000000E+00 0.  1.
        -11    1    3    3    0    0 -0.38670285076E+03  0.92057949788E+02 -0.16045490299E+03  0.42867182879E+03  0.00000000000E+00 0. -1.
         22    1    1    2    0    0  0.10622215244E+04 -0.16081341554E+03  0.58812946630E+03  0.12247741795E+04  0.00000000000E+00 0.  1.
<mgrwt>
<rscale>  0 0.23474615E+04</rscale>
<asrwt>0</asrwt>
<pdfrwt beam="1">  1        1 0.16338712E+00 0.23474615E+04</pdfrwt>
<pdfrwt beam="2">  1       -1 0.19956870E+00 0.23474615E+04</pdfrwt>
<totfact> 0.18482875E+00</totfact>
</mgrwt>
</event>
<event>
 6    1  0.9988873E-007  0.1804159E+04  0.7818608E-02  0.8704091E-01
         -1   -1    0    0    0  501 -0.00000000000E+00  0.00000000000E+00  0.86466878385E+03  0.86466878385E+03  0.00000000000E+00 0.  1.
          1   -1    0    0  501    0  0.00000000000E+00 -0.00000000000E+00 -0.94110836300E+03  0.94110836300E+03  0.00000000000E+00 0. -1.
         23    2    1    2    0    0  0.72870309094E+03 -0.21257658321E+03 -0.52088635720E+03  0.92615794685E+03  0.10123708273E+03 0.  0.
         11    1    3    3    0    0  0.13453777786E+03 -0.60549759535E+02 -0.61311333362E+02  0.15976785237E+03  0.00000000000E+00 0. -1.
        -11    1    3    3    0    0  0.59416531308E+03 -0.15202682367E+03 -0.45957502384E+03  0.76639009448E+03  0.00000000000E+00 0.  1.
         22    1    1    2    0    0 -0.72870309094E+03  0.21257658321E+03  0.44444677805E+03  0.87961919999E+03  0.00000000000E+00 0.  1.
<mgrwt>
<rscale>  0 0.18041586E+04</rscale>
<asrwt>0</asrwt>
<pdfrwt beam="1">  1        1 0.14478590E+00 0.18041586E+04</pdfrwt>
<pdfrwt beam="2">  1       -1 0.13302597E+00 0.18041586E+04</pdfrwt>
<totfact> 0.76037192E+00</totfact>
</mgrwt>
</event>
<event>
 6    1  0.9988873E-007  0.2020712E+04  0.7818608E-02  0.8596998E-01
          2   -1    0    0  501    0  0.00000000000E+00  0.00000000000E+00  0.26932538204E+04  0.26932538204E+04  0.00000000000E+00 0. -1.
         -2   -1    0    0    0  501 -0.00000000000E+00 -0.00000000000E+00 -0.37902837372E+03  0.37902837372E+03  0.00000000000E+00 0.  1.
         23    2    1    2    0    0  0.58022623236E+03  0.26612766478E+03  0.23461928410E+04  0.24331356312E+04  0.89675737879E+02 0.  0.
         11    1    3    3    0    0  0.21224531281E+03  0.14564031060E+03  0.93401662928E+03  0.96883756980E+03  0.00000000000E+00 0.  1.
        -11    1    3    3    0    0  0.36798091956E+03  0.12048735419E+03  0.14121762117E+04  0.14642980614E+04  0.00000000000E+00 0. -1.
         22    1    1    2    0    0 -0.58022623236E+03 -0.26612766478E+03 -0.31967394255E+02  0.63914656299E+03  0.00000000000E+00 0.  1.
<mgrwt>
<rscale>  0 0.20207124E+04</rscale>
<asrwt>0</asrwt>
<pdfrwt beam="1">  1        2 0.41434673E+00 0.20207124E+04</pdfrwt>
<pdfrwt beam="2">  1       -2 0.58312059E-01 0.20207124E+04</pdfrwt>
<totfact> 0.68451929E+00</totfact>
</mgrwt>
</event>
<event>
 6    1  0.9988873E-007  0.1558197E+04  0.7818608E-02  0.8846649E-01
         -1   -1    0    0    0  501 -0.00000000000E+00  0.00000000000E+00  0.28150496445E+03  0.28150496445E+03  0.00000000000E+00 0.  1.
          1   -1    0    0  501    0  0.00000000000E+00 -0.00000000000E+00 -0.21562489141E+04  0.21562489141E+04  0.00000000000E+00 0. -1.
         23    2    1    2    0    0 -0.48622763407E+03  0.48526996579E+03 -0.37231121918E+03  0.78572229247E+03  0.82702026171E+02 0.  0.
         13    1    3    3    0    0 -0.37641327784E+03  0.34524239043E+03 -0.24220706364E+03  0.56528181075E+03  0.00000000000E+00 0. -1.
        -13    1    3    3    0    0 -0.10981435622E+03  0.14002757537E+03 -0.13010415553E+03  0.22044048172E+03  0.00000000000E+00 0.  1.
         22    1    1    2    0    0  0.48622763407E+03 -0.48526996579E+03 -0.15024327305E+04  0.16520315861E+04  0.00000000000E+00 0. -1.
<mgrwt>
<rscale>  0 0.15581974E+04</rscale>
<asrwt>0</asrwt>
<pdfrwt beam="1">  1        1 0.33173059E+00 0.15581974E+04</pdfrwt>
<pdfrwt beam="2">  1       -1 0.43308458E-01 0.15581974E+04</pdfrwt>
<totfact> 0.11828084E+01</totfact>
</mgrwt>
</event>
<event>
 6    1  0.9988873E-007  0.2154972E+04  0.7818608E-02  0.8537407E-01
          2   -1    0    0  501    0  0.00000000000E+00  0.00000000000E+00  0.21652999297E+04  0.21652999297E+04  0.00000000000E+00 0. -1.
         -2   -1    0    0    0  501 -0.00000000000E+00 -0.00000000000E+00 -0.53617355352E+03  0.53617355352E+03  0.00000000000E+00 0.  1.
         23    2    1    2    0    0  0.31341617800E+03  0.24465979396E+03  0.20688344937E+04  0.21086570327E+04  0.90940662140E+02 0.  0.
         11    1    3    3    0    0  0.16895836145E+03  0.98502129981E+02  0.12012695284E+04  0.12170858957E+04  0.00000000000E+00 0. -1.
        -11    1    3    3    0    0  0.14445781655E+03  0.14615766398E+03  0.86756496523E+03  0.89157113704E+03  0.00000000000E+00 0.  1.
         22    1    1    2    0    0 -0.31341617800E+03 -0.24465979396E+03 -0.43970811748E+03  0.59281645051E+03  0.00000000000E+00 0.  1.
<mgrwt>
<rscale>  0 0.21549724E+04</rscale>
<asrwt>0</asrwt>
<pdfrwt beam="1">  1        2 0.33312306E+00 0.21549724E+04</pdfrwt>
<pdfrwt beam="2">  1       -2 0.82488240E-01 0.21549724E+04</pdfrwt>
<totfact> 0.63908953E+00</totfact>
</mgrwt>
</event>
<event>
 6    1  0.9988873E-007  0.1170710E+04  0.7818608E-02  0.9138887E-01
          1   -1    0    0  501    0  0.00000000000E+00  0.00000000000E+00  0.42995695394E+03  0.42995695394E+03  0.00000000000E+00 0. -1.
         -1   -1    0    0    0  501 -0.00000000000E+00 -0.00000000000E+00 -0.79691867416E+03  0.79691867416E+03  0.00000000000E+00 0.  1.
         23    2    1    2    0    0  0.81590557607E+02 -0.53415554913E+03 -0.41067738434E+03  0.68475919314E+03  0.90884920802E+02 0.  0.
         13    1    3    3    0    0  0.91583470368E+01 -0.14918477573E+03 -0.16372471427E+03  0.22168841804E+03  0.00000000000E+00 0. -1.
        -13    1    3    3    0    0  0.72432210570E+02 -0.38497077341E+03 -0.24695267007E+03  0.46307077511E+03  0.00000000000E+00 0.  1.
         22    1    1    2    0    0 -0.81590557607E+02  0.53415554913E+03  0.43715664125E+02  0.54211643496E+03  0.00000000000E+00 0. -1.
<mgrwt>
<rscale>  0 0.11707104E+04</rscale>
<asrwt>0</asrwt>
<pdfrwt beam="1">  1        1 0.66147224E-01 0.11707104E+04</pdfrwt>
<pdfrwt beam="2">  1       -1 0.12260287E+00 0.11707104E+04</pdfrwt>
<totfact> 0.31725350E+01</totfact>
</mgrwt>
</event>
<event>
 6    1  0.9988873E-007  0.1130800E+04  0.7818608E-02  0.9175682E-01
          2   -1    0    0  501    0  0.00000000000E+00  0.00000000000E+00  0.16966685349E+04  0.16966685349E+04  0.00000000000E+00 0. -1.
         -2   -1    0    0    0  501 -0.00000000000E+00 -0.00000000000E+00 -0.18841449525E+03  0.18841449525E+03  0.00000000000E+00 0.  1.
         23    2    1    2    0    0  0.54073887344E+03  0.24961541517E+02  0.50707284596E+03  0.74693304425E+03  0.88116364425E+02 0.  0.
         11    1    3    3    0    0  0.40612094938E+02 -0.67256052214E+01  0.12920846303E+02  0.43145385501E+02  0.00000000000E+00 0.  1.
        -11    1    3    3    0    0  0.50012677850E+03  0.31687146739E+02  0.49415199966E+03  0.70378765875E+03  0.00000000000E+00 0. -1.
         22    1    1    2    0    0 -0.54073887344E+03 -0.24961541517E+02  0.10011811937E+04  0.11381499859E+04  0.00000000000E+00 0. -1.
<mgrwt>
<rscale>  0 0.11307996E+04</rscale>
<asrwt>0</asrwt>
<pdfrwt beam="1">  1        2 0.26102592E+00 0.11307996E+04</pdfrwt>
<pdfrwt beam="2">  1       -2 0.28986846E-01 0.11307996E+04</pdfrwt>
<totfact> 0.10669528E+02</totfact>
</mgrwt>
</event>
<event>
 6    1  0.9988873E-007  0.2001872E+04  0.7818608E-02  0.8605746E-01
         -2   -1    0    0    0  501 -0.00000000000E+00  0.00000000000E+00  0.51593195514E+03  0.51593195514E+03  0.00000000000E+00 0.  1.
          2   -1    0    0  501    0  0.00000000000E+00 -0.00000000000E+00 -0.19418704028E+04  0.19418704028E+04  0.00000000000E+00 0. -1.
         23    2    1    2    0    0 -0.37295448280E+03 -0.86941980706E+03 -0.11079954835E+04  0.14597675011E+04  0.91001750109E+02 0.  0.
         13    1    3    3    0    0 -0.81731856853E+02 -0.17948376018E+03 -0.17737343722E+03  0.26524677722E+03  0.00000000000E+00 0. -1.
        -13    1    3    3    0    0 -0.29122262594E+03 -0.68993604687E+03 -0.93062204628E+03  0.11945207238E+04  0.00000000000E+00 0.  1.
         22    1    1    2    0    0  0.37295448280E+03  0.86941980706E+03 -0.31794296418E+03  0.99803485691E+03  0.00000000000E+00 0. -1.
<mgrwt>
<rscale>  0 0.20018721E+04</rscale>
<asrwt>0</asrwt>
<pdfrwt beam="1">  1        2 0.29874930E+00 0.20018721E+04</pdfrwt>
<pdfrwt beam="2">  1       -2 0.79374146E-01 0.20018721E+04</pdfrwt>
<totfact> 0.94058119E+00</totfact>
</mgrwt>
</event>
<event>
 6    1  0.9988873E-007  0.4254797E+04  0.7818608E-02  0.7955030E-01
          1   -1    0    0  501    0  0.00000000000E+00  0.00000000000E+00  0.26465072274E+04  0.26465072274E+04  0.00000000000E+00 0. -1.
         -1   -1    0    0    0  501 -0.00000000000E+00 -0.00000000000E+00 -0.17101119453E+04  0.17101119453E+04  0.00000000000E+00 0.  1.
         23    2    1    2    0    0 -0.16573745093E+04 -0.58363480548E+03 -0.75767437387E+03  0.19158422780E+04  0.94134620966E+02 0.  0.
         11    1    3    3    0    0 -0.22526691168E+03 -0.60024169842E+02 -0.72435538017E+02  0.24412085046E+03  0.00000000000E+00 0.  1.
        -11    1    3    3    0    0 -0.14321075977E+04 -0.52361063564E+03 -0.68523883585E+03  0.16717214275E+04  0.00000000000E+00 0. -1.
         22    1    1    2    0    0  0.16573745093E+04  0.58363480548E+03  0.16940696560E+04  0.24407768947E+04  0.00000000000E+00 0.  1.
<mgrwt>
<rscale>  0 0.42547966E+04</rscale>
<asrwt>0</asrwt>
<pdfrwt beam="1">  1        1 0.40715496E+00 0.42547966E+04</pdfrwt>
<pdfrwt beam="2">  1       -1 0.26309415E+00 0.42547966E+04</pdfrwt>
<totfact> 0.47003259E-02</totfact>
</mgrwt>
</event>
<event>
 6    1  0.9988873E-007  0.1193386E+04  0.7818608E-02  0.9118666E-01
         -1   -1    0    0    0  501 -0.00000000000E+00  0.00000000000E+00  0.18847871172E+03  0.18847871172E+03  0.00000000000E+00 0.  1.
          1   -1    0    0  501    0  0.00000000000E+00 -0.00000000000E+00 -0.18890320861E+04  0.18890320861E+04  0.00000000000E+00 0. -1.
         23    2    1    2    0    0  0.48526324658E+03 -0.49217182251E+02 -0.26745889882E+03  0.56368698859E+03  0.91137308742E+02 0.  0.
         13    1    3    3    0    0  0.19328203198E+03 -0.47622457813E+02 -0.69174738902E+02  0.21073914415E+03  0.00000000000E+00 0.  1.
        -13    1    3    3    0    0  0.29198121459E+03 -0.15947244382E+01 -0.19828415992E+03  0.35294784444E+03  0.00000000000E+00 0. -1.
         22    1    1    2    0    0 -0.48526324658E+03  0.49217182251E+02 -0.14330944756E+04  0.15138238093E+04  0.00000000000E+00 0. -1.
<mgrwt>
<rscale>  0 0.11933857E+04</rscale>
<asrwt>0</asrwt>
<pdfrwt beam="1">  1        1 0.29062032E+00 0.11933857E+04</pdfrwt>
<pdfrwt beam="2">  1       -1 0.28996725E-01 0.11933857E+04</pdfrwt>
<totfact> 0.38060749E+01</totfact>
</mgrwt>
</event>
<event>
 6    1  0.9988873E-007  0.3027377E+04  0.7818608E-02  0.8235956E-01
         -2   -1    0    0    0  501 -0.00000000000E+00  0.00000000000E+00  0.15065560149E+04  0.15065560149E+04  0.00000000000E+00 0.  1.
          2   -1    0    0  501    0  0.00000000000E+00 -0.00000000000E+00 -0.15208552366E+04  0.15208552366E+04  0.00000000000E+00 0. -1.
         23    2    1    2    0    0  0.12377919842E+03  0.97083317426E+03 -0.11599765490E+04  0.15206216575E+04  0.94373136496E+02 0.  0.
         13    1    3    3    0    0  0.77047576902E+02  0.30189839245E+03 -0.33511776106E+03  0.45758374342E+03  0.00000000000E+00 0. -1.
        -13    1    3    3    0    0  0.46731621513E+02  0.66893478181E+03 -0.82485878790E+03  0.10630379141E+04  0.00000000000E+00 0.  1.
         22    1    1    2    0    0 -0.12377919842E+03 -0.97083317426E+03  0.11456773273E+04  0.15067895940E+04  0.00000000000E+00 0.  1.
<mgrwt>
<rscale>  0 0.30273775E+04</rscale>
<asrwt>0</asrwt>
<pdfrwt beam="1">  1        2 0.23397773E+00 0.30273775E+04</pdfrwt>
<pdfrwt beam="2">  1       -2 0.23177785E+00 0.30273775E+04</pdfrwt>
<totfact> 0.87939543E-01</totfact>
</mgrwt>
</event>
<event>
 6    1  0.9988873E-007  0.2569306E+04  0.7818608E-02  0.8378703E-01
          1   -1    0    0  501    0  0.00000000000E+00  0.00000000000E+00  0.28786648844E+04  0.28786648844E+04  0.00000000000E+00 0. -1.
         -1   -1    0    0    0  501 -0.00000000000E+00 -0.00000000000E+00 -0.57329813534E+03  0.57329813534E+03  0.00000000000E+00 0.  1.
         23    2    1    2    0    0 -0.70120879513E+03  0.57712636963E+03 -0.63509069312E+02  0.91496848610E+03  0.91462056476E+02 0.  0.
         13    1    3    3    0    0 -0.24804143980E+03  0.26177795338E+03 -0.20782749295E+02  0.36122593400E+03  0.00000000000E+00 0. -1.
        -13    1    3    3    0    0 -0.45316735533E+03  0.31534841626E+03 -0.42726320017E+02  0.55374255209E+03  0.00000000000E+00 0.  1.
         22    1    1    2    0    0  0.70120879513E+03 -0.57712636963E+03  0.23688758184E+04  0.25369945337E+04  0.00000000000E+00 0. -1.
<mgrwt>
<rscale>  0 0.25693059E+04</rscale>
<asrwt>0</asrwt>
<pdfrwt beam="1">  1        1 0.44287151E+00 0.25693059E+04</pdfrwt>
<pdfrwt beam="2">  1       -1 0.88199715E-01 0.25693059E+04</pdfrwt>
<totfact> 0.81609512E-01</totfact>
</mgrwt>
</event>
<event>
 6    1  0.9988873E-007  0.3286127E+04  0.7818608E-02  0.8166434E-01
         -1   -1    0    0    0  501 -0.00000000000E+00  0.00000000000E+00  0.15935341177E+04  0.15935341177E+04  0.00000000000E+00 0.  1.
          1   -1    0    0  501    0  0.00000000000E+00 -0.00000000000E+00 -0.16941321375E+04  0.16941321375E+04  0.00000000000E+00 0. -1.
         23    2    1    2    0    0 -0.11285042586E+04 -0.54388410141E+03  0.10113269067E+04  0.16126412345E+04  0.92183847388E+02 0.  0.
         11    1    3    3    0    0 -0.50789704435E+03 -0.27513345771E+03  0.41860235114E+03  0.71336228915E+03  0.00000000000E+00 0. -1.
        -11    1    3    3    0    0 -0.62060721423E+03 -0.26875064370E+03  0.59272455557E+03  0.89927894539E+03  0.00000000000E+00 0.  1.
         22    1    1    2    0    0  0.11285042586E+04  0.54388410141E+03 -0.11119249265E+04  0.16750250206E+04  0.00000000000E+00 0. -1.
<mgrwt>
<rscale>  0 0.32861268E+04</rscale>
<asrwt>0</asrwt>
<pdfrwt beam="1">  1        1 0.26063571E+00 0.32861268E+04</pdfrwt>
<pdfrwt beam="2">  1       -1 0.24515910E+00 0.32861268E+04</pdfrwt>
<totfact> 0.29963324E-01</totfact>
</mgrwt>
</event>
<event>
 6    1  0.9988873E-007  0.1212361E+04  0.7818608E-02  0.9102105E-01
          1   -1    0    0  501    0  0.00000000000E+00  0.00000000000E+00  0.68754016317E+03  0.68754016317E+03  0.00000000000E+00 0. -1.
         -1   -1    0    0    0  501 -0.00000000000E+00 -0.00000000000E+00 -0.53444831106E+03  0.53444831106E+03  0.00000000000E+00 0.  1.
         23    2    1    2    0    0 -0.21488645835E+03 -0.83277818883E+02  0.63832341472E+03  0.68480968235E+03  0.91630421555E+02 0.  0.
         13    1    3    3    0    0 -0.17080914212E+03 -0.44061390948E+02  0.55751173538E+03  0.58475337048E+03  0.00000000000E+00 0. -1.
        -13    1    3    3    0    0 -0.44077316228E+02 -0.39216427936E+02  0.80811679343E+02  0.10005631187E+03  0.00000000000E+00 0.  1.
         22    1    1    2    0    0  0.21488645835E+03  0.83277818883E+02 -0.48523156261E+03  0.53717879189E+03  0.00000000000E+00 0.  1.
<mgrwt>
<rscale>  0 0.12123608E+04</rscale>
<asrwt>0</asrwt>
<pdfrwt beam="1">  1        1 0.10577541E+00 0.12123608E+04</pdfrwt>
<pdfrwt beam="2">  1       -1 0.82222817E-01 0.12123608E+04</pdfrwt>
<totfact> 0.40745109E+01</totfact>
</mgrwt>
</event>
<event>
 6    1  0.9988873E-007  0.1795498E+04  0.7818608E-02  0.8708697E-01
          1   -1    0    0  501    0  0.00000000000E+00  0.00000000000E+00  0.12920520914E+04  0.12920520914E+04  0.00000000000E+00 0. -1.
         -1   -1    0    0    0  501 -0.00000000000E+00 -0.00000000000E+00 -0.62377757263E+03  0.62377757263E+03  0.00000000000E+00 0.  1.
         23    2    1    2    0    0 -0.68985426028E+02 -0.77368101023E+03  0.81034631182E+03  0.11261932357E+04  0.91152423859E+02 0.  0.
         13    1    3    3    0    0 -0.17612711961E+02 -0.59630332423E+03  0.64064300514E+03  0.87539209623E+03  0.00000000000E+00 0. -1.
        -13    1    3    3    0    0 -0.51372714068E+02 -0.17737768600E+03  0.16970330668E+03  0.25080113943E+03  0.00000000000E+00 0.  1.
         22    1    1    2    0    0  0.68985426028E+02  0.77368101023E+03 -0.14207179307E+03  0.78963642835E+03  0.00000000000E+00 0.  1.
<mgrwt>
<rscale>  0 0.17954978E+04</rscale>
<asrwt>0</asrwt>
<pdfrwt beam="1">  1        1 0.19877724E+00 0.17954978E+04</pdfrwt>
<pdfrwt beam="2">  1       -1 0.95965780E-01 0.17954978E+04</pdfrwt>
<totfact> 0.90554405E+00</totfact>
</mgrwt>
</event>
<event>
 6    1  0.9988873E-007  0.9020681E+03  0.7818608E-02  0.9423000E-01
         -2   -1    0    0    0  501 -0.00000000000E+00  0.00000000000E+00  0.36853994129E+03  0.36853994129E+03  0.00000000000E+00 0.  1.
          2   -1    0    0  501    0  0.00000000000E+00 -0.00000000000E+00 -0.55199367627E+03  0.55199367627E+03  0.00000000000E+00 0. -1.
         23    2    1    2    0    0  0.24106099934E+03 -0.58163511448E+02  0.28790441194E+03  0.38792503507E+03  0.78124790881E+02 0.  0.
         11    1    3    3    0    0  0.31249569181E+02  0.18248775618E+02  0.49021126311E+02  0.60931307309E+02  0.00000000000E+00 0. -1.
        -11    1    3    3    0    0  0.20981143016E+03 -0.76412287066E+02  0.23888328563E+03  0.32699372776E+03  0.00000000000E+00 0.  1.
         22    1    1    2    0    0 -0.24106099934E+03  0.58163511448E+02 -0.47135814692E+03  0.53260858249E+03  0.00000000000E+00 0. -1.
<mgrwt>
<rscale>  0 0.90206811E+03</rscale>
<asrwt>0</asrwt>
<pdfrwt beam="1">  1        2 0.84922104E-01 0.90206811E+03</pdfrwt>
<pdfrwt beam="2">  1       -2 0.56698453E-01 0.90206811E+03</pdfrwt>
<totfact> 0.16051823E+02</totfact>
</mgrwt>
</event>
<event>
 6    1  0.9988873E-007  0.2942380E+04  0.7818608E-02  0.8260379E-01
         -1   -1    0    0    0  501 -0.00000000000E+00  0.00000000000E+00  0.10477032341E+04  0.10477032341E+04  0.00000000000E+00 0.  1.
          1   -1    0    0  501    0  0.00000000000E+00 -0.00000000000E+00 -0.20658515906E+04  0.20658515906E+04  0.00000000000E+00 0. -1.
         23    2    1    2    0    0  0.61167900534E+03 -0.97109268639E+03 -0.14811562750E+04  0.18759973336E+04  0.91487013693E+02 0.  0.
         11    1    3    3    0    0  0.22940124145E+03 -0.32566756494E+03 -0.45226578223E+03  0.60268451964E+03  0.00000000000E+00 0. -1.
        -11    1    3    3    0    0  0.38227776388E+03 -0.64542512144E+03 -0.10288904928E+04  0.12733128140E+04  0.00000000000E+00 0.  1.
         22    1    1    2    0    0 -0.61167900534E+03  0.97109268639E+03  0.46300791848E+03  0.12375574911E+04  0.00000000000E+00 0.  1.
<mgrwt>
<rscale>  0 0.29423796E+04</rscale>
<asrwt>0</asrwt>
<pdfrwt beam="1">  1        1 0.31782332E+00 0.29423796E+04</pdfrwt>
<pdfrwt beam="2">  1       -1 0.16118512E+00 0.29423796E+04</pdfrwt>
<totfact> 0.65814422E-01</totfact>
</mgrwt>
</event>
<event>
 6    1  0.9988873E-007  0.1200930E+04  0.7818608E-02  0.9112042E-01
         -1   -1    0    0    0  501 -0.00000000000E+00  0.00000000000E+00  0.23216568406E+03  0.23216568406E+03  0.00000000000E+00 0.  1.
          1   -1    0    0  501    0  0.00000000000E+00 -0.00000000000E+00 -0.15530224168E+04  0.15530224168E+04  0.00000000000E+00 0. -1.
         23    2    1    2    0    0  0.34506698650E+03  0.31898973807E+03 -0.11656749754E+03  0.49246297920E+03  0.90034028194E+02 0.  0.
         13    1    3    3    0    0  0.11088422841E+03  0.15798738984E+03 -0.29656098153E+02  0.19528136526E+03  0.00000000000E+00 0. -1.
        -13    1    3    3    0    0  0.23418275809E+03  0.16100234823E+03 -0.86911399387E+02  0.29718161394E+03  0.00000000000E+00 0.  1.
         22    1    1    2    0    0 -0.34506698650E+03 -0.31898973807E+03 -0.12042892352E+04  0.12927251217E+04  0.00000000000E+00 0. -1.
<mgrwt>
<rscale>  0 0.12009305E+04</rscale>
<asrwt>0</asrwt>
<pdfrwt beam="1">  1        1 0.23892652E+00 0.12009305E+04</pdfrwt>
<pdfrwt beam="2">  1       -1 0.35717798E-01 0.12009305E+04</pdfrwt>
<totfact> 0.44507302E+01</totfact>
</mgrwt>
</event>
<event>
 6    1  0.9988873E-007  0.1775789E+04  0.7818608E-02  0.8719282E-01
         -1   -1    0    0    0  501 -0.00000000000E+00  0.00000000000E+00  0.42793685951E+03  0.42793685951E+03  0.00000000000E+00 0.  1.
          1   -1    0    0  501    0  0.00000000000E+00 -0.00000000000E+00 -0.18422259735E+04  0.18422259735E+04  0.00000000000E+00 0. -1.
         23    2    1    2    0    0  0.33682457399E+03 -0.78136222535E+03 -0.10227702941E+04  0.13335387317E+04  0.91042591911E+02 0.  0.
         11    1    3    3    0    0  0.10816737597E+03 -0.20493805946E+03 -0.22386697607E+03  0.32220523338E+03  0.00000000000E+00 0.  1.
        -11    1    3    3    0    0  0.22865719802E+03 -0.57642416589E+03 -0.79890331802E+03  0.10113334983E+04  0.00000000000E+00 0. -1.
         22    1    1    2    0    0 -0.33682457399E+03  0.78136222535E+03 -0.39151881987E+03  0.93662410131E+03  0.00000000000E+00 0.  1.
<mgrwt>
<rscale>  0 0.17757887E+04</rscale>
<asrwt>0</asrwt>
<pdfrwt beam="1">  1        1 0.28341938E+00 0.17757887E+04</pdfrwt>
<pdfrwt beam="2">  1       -1 0.65836440E-01 0.17757887E+04</pdfrwt>
<totfact> 0.84319945E+00</totfact>
</mgrwt>
</event>
<event>
 6    1  0.9988873E-007  0.9805419E+03  0.7818608E-02  0.9330147E-01
          2   -1    0    0  501    0  0.00000000000E+00  0.00000000000E+00  0.71303323222E+03  0.71303323222E+03  0.00000000000E+00 0. -1.
         -2   -1    0    0    0  501 -0.00000000000E+00 -0.00000000000E+00 -0.33710293218E+03  0.33710293218E+03  0.00000000000E+00 0.  1.
         23    2    1    2    0    0 -0.21405912895E+03 -0.34186936683E+03 -0.10129261896E+03  0.42528603110E+03  0.88949642686E+02 0.  0.
         13    1    3    3    0    0 -0.12649898759E+03 -0.18958989803E+03 -0.10182003132E+03  0.24962700590E+03  0.00000000000E+00 0. -1.
        -13    1    3    3    0    0 -0.87560141357E+02 -0.15227946880E+03  0.52741235762E+00  0.17565902520E+03  0.00000000000E+00 0.  1.
         22    1    1    2    0    0  0.21405912895E+03  0.34186936683E+03  0.47722291900E+03  0.62485013329E+03  0.00000000000E+00 0. -1.
<mgrwt>
<rscale>  0 0.98054188E+03</rscale>
<asrwt>0</asrwt>
<pdfrwt beam="1">  1        2 0.10969742E+00 0.98054188E+03</pdfrwt>
<pdfrwt beam="2">  1       -2 0.51861990E-01 0.98054188E+03</pdfrwt>
<totfact> 0.14045511E+02</totfact>
</mgrwt>
</event>
<event>
 6    1  0.9988873E-007  0.6165651E+04  0.7818608E-02  0.7670196E-01
          2   -1    0    0  501    0  0.00000000000E+00  0.00000000000E+00  0.34584810292E+04  0.34584810292E+04  0.00000000000E+00 0. -1.
         -2   -1    0    0    0  501 -0.00000000000E+00 -0.00000000000E+00 -0.27479731359E+04  0.27479731359E+04  0.00000000000E+00 0.  1.
         23    2    1    2    0    0  0.20047564536E+04 -0.22937431598E+04 -0.11626813977E+03  0.30498951636E+04  0.89644338065E+02 0.  0.
         11    1    3    3    0    0  0.10717291031E+04 -0.12837800790E+04 -0.87381383168E+02  0.16746134085E+04  0.00000000000E+00 0. -1.
        -11    1    3    3    0    0  0.93302735050E+03 -0.10099630808E+04 -0.28886756605E+02  0.13752817551E+04  0.00000000000E+00 0.  1.
         22    1    1    2    0    0 -0.20047564536E+04  0.22937431598E+04  0.82677603310E+03  0.31565590015E+04  0.00000000000E+00 0. -1.
<mgrwt>
<rscale>  0 0.61656510E+04</rscale>
<asrwt>0</asrwt>
<pdfrwt beam="1">  1        2 0.53207400E+00 0.61656510E+04</pdfrwt>
<pdfrwt beam="2">  1       -2 0.42276510E+00 0.61656510E+04</pdfrwt>
<totfact> 0.30381735E-03</totfact>
</mgrwt>
</event>
<event>
 6    1  0.9988873E-007  0.2684289E+04  0.7818608E-02  0.8340121E-01
         -1   -1    0    0    0  501 -0.00000000000E+00  0.00000000000E+00  0.56775683822E+03  0.56775683822E+03  0.00000000000E+00 0.  1.
          1   -1    0    0  501    0  0.00000000000E+00 -0.00000000000E+00 -0.31727519906E+04  0.31727519906E+04  0.00000000000E+00 0. -1.
         23    2    1    2    0    0  0.62391005947E+03  0.30478938010E+03 -0.29019563745E+04  0.29852960800E+04  0.92095371585E+02 0.  0.
         13    1    3    3    0    0  0.12812719207E+03  0.10018782748E+03 -0.59677886962E+03  0.61854603495E+03  0.00000000000E+00 0.  1.
        -13    1    3    3    0    0  0.49578286740E+03  0.20460155262E+03 -0.23051775048E+04  0.23667500451E+04  0.00000000000E+00 0. -1.
         22    1    1    2    0    0 -0.62391005947E+03 -0.30478938010E+03  0.29696122209E+03  0.75521274880E+03  0.00000000000E+00 0.  1.
<mgrwt>
<rscale>  0 0.26842888E+04</rscale>
<asrwt>0</asrwt>
<pdfrwt beam="1">  1        1 0.48811569E+00 0.26842888E+04</pdfrwt>
<pdfrwt beam="2">  1       -1 0.87347206E-01 0.26842888E+04</pdfrwt>
<totfact> 0.50239478E-01</totfact>
</mgrwt>
</event>
<event>
 6    1  0.9988873E-007  0.3454078E+04  0.7818608E-02  0.8124760E-01
         -1   -1    0    0    0  501 -0.00000000000E+00  0.00000000000E+00  0.61808518676E+03  0.61808518676E+03  0.00000000000E+00 0.  1.
          1   -1    0    0  501    0  0.00000000000E+00 -0.00000000000E+00 -0.48256520928E+04  0.48256520928E+04  0.00000000000E+00 0. -1.
         23    2    1    2    0    0 -0.75380460562E+03 -0.93046820292E+03 -0.14655262655E+03  0.12098467002E+04  0.90878520311E+02 0.  0.
         11    1    3    3    0    0 -0.49250685545E+03 -0.66272155089E+03 -0.12511053735E+03  0.83511406600E+03  0.00000000000E+00 0. -1.
        -11    1    3    3    0    0 -0.26129775017E+03 -0.26774665204E+03 -0.21442089194E+02  0.37473263417E+03  0.00000000000E+00 0.  1.
         22    1    1    2    0    0  0.75380460562E+03  0.93046820292E+03 -0.40610142794E+04  0.42338905794E+04  0.00000000000E+00 0. -1.
<mgrwt>
<rscale>  0 0.34540782E+04</rscale>
<asrwt>0</asrwt>
<pdfrwt beam="1">  1        1 0.74240800E+00 0.34540782E+04</pdfrwt>
<pdfrwt beam="2">  1       -1 0.95090030E-01 0.34540782E+04</pdfrwt>
<totfact> 0.12320930E-02</totfact>
</mgrwt>
</event>
<event>
 6    1  0.9988873E-007  0.3451498E+04  0.7818608E-02  0.8125381E-01
         -2   -1    0    0    0  501 -0.00000000000E+00  0.00000000000E+00  0.95433877891E+03  0.95433877891E+03  0.00000000000E+00 0.  1.
          2   -1    0    0  501    0  0.00000000000E+00 -0.00000000000E+00 -0.31207051086E+04  0.31207051086E+04  0.00000000000E+00 0. -1.
         23    2    1    2    0    0 -0.14142994405E+04  0.34211115197E+03 -0.21768041060E+04  0.26199178123E+04  0.90610593303E+02 0.  0.
         11    1    3    3    0    0 -0.17101156368E+03  0.39288940859E+02 -0.31870907723E+03  0.36381870719E+03  0.00000000000E+00 0. -1.
        -11    1    3    3    0    0 -0.12432878768E+04  0.30282221111E+03 -0.18580950288E+04  0.22560991051E+04  0.00000000000E+00 0.  1.
         22    1    1    2    0    0  0.14142994405E+04 -0.34211115197E+03  0.10437776340E+02  0.14551260752E+04  0.00000000000E+00 0.  1.
<mgrwt>
<rscale>  0 0.34514982E+04</rscale>
<asrwt>0</asrwt>
<pdfrwt beam="1">  1        2 0.48010847E+00 0.34514982E+04</pdfrwt>
<pdfrwt beam="2">  1       -2 0.14682135E+00 0.34514982E+04</pdfrwt>
<totfact> 0.38145146E-01</totfact>
</mgrwt>
</event>
<event>
 6    1  0.9988873E-007  0.8724990E+03  0.7818608E-02  0.9460627E-01
         -2   -1    0    0    0  501 -0.00000000000E+00  0.00000000000E+00  0.11473727164E+03  0.11473727164E+03  0.00000000000E+00 0.  1.
          2   -1    0    0  501    0  0.00000000000E+00 -0.00000000000E+00 -0.16586903655E+04  0.16586903655E+04  0.00000000000E+00 0. -1.
         23    2    1    2    0    0  0.32374007813E+03 -0.27742022873E+03 -0.64625926300E+03  0.77963498499E+03  0.91706342862E+02 0.  0.
         11    1    3    3    0    0  0.16081003528E+03 -0.11677936741E+03 -0.37792625277E+03  0.42699594920E+03  0.00000000000E+00 0. -1.
        -11    1    3    3    0    0  0.16293004285E+03 -0.16064086132E+03 -0.26833301023E+03  0.35263903579E+03  0.00000000000E+00 0.  1.
         22    1    1    2    0    0 -0.32374007813E+03  0.27742022873E+03 -0.89769383084E+03  0.99379265213E+03  0.00000000000E+00 0. -1.
<mgrwt>
<rscale>  0 0.87249896E+03</rscale>
<asrwt>0</asrwt>
<pdfrwt beam="1">  1        2 0.25518311E+00 0.87249896E+03</pdfrwt>
<pdfrwt beam="2">  1       -2 0.17651890E-01 0.87249896E+03</pdfrwt>
<totfact> 0.27642395E+02</totfact>
</mgrwt>
</event>
<event>
 6    1  0.9988873E-007  0.9782246E+03  0.7818608E-02  0.9332755E-01
          3   -1    0    0  501    0  0.00000000000E+00  0.00000000000E+00  0.21927293713E+03  0.21927293713E+03  0.00000000000E+00 0. -1.
         -3   -1    0    0    0  501 -0.00000000000E+00 -0.00000000000E+00 -0.10910186010E+04  0.10910186010E+04  0.00000000000E+00 0.  1.
         23    2    1    2    0    0  0.36177596970E+02  0.13110512721E+03 -0.10631233558E+04  0.10755090987E+04  0.89393393137E+02 0.  0.
         13    1    3    3    0    0  0.23904243596E+02  0.19035533667E+02 -0.51530681738E+03  0.51621204988E+03  0.00000000000E+00 0.  1.
        -13    1    3    3    0    0  0.12273353374E+02  0.11206959354E+03 -0.54781653844E+03  0.55929704879E+03  0.00000000000E+00 0. -1.
         22    1    1    2    0    0 -0.36177596970E+02 -0.13110512721E+03  0.19137769195E+03  0.23478243946E+03  0.00000000000E+00 0. -1.
<mgrwt>
<rscale>  0 0.97822462E+03</rscale>
<asrwt>0</asrwt>
<pdfrwt beam="1">  1        3 0.33734298E-01 0.97822462E+03</pdfrwt>
<pdfrwt beam="2">  1       -3 0.16784902E+00 0.97822462E+03</pdfrwt>
<totfact> 0.54389677E+00</totfact>
</mgrwt>
</event>
<event>
 6    1  0.9988873E-007  0.2268799E+04  0.7818608E-02  0.8490326E-01
         -1   -1    0    0    0  501 -0.00000000000E+00  0.00000000000E+00  0.62159317337E+03  0.62159317337E+03  0.00000000000E+00 0.  1.
          1   -1    0    0  501    0  0.00000000000E+00 -0.00000000000E+00 -0.20702643036E+04  0.20702643036E+04  0.00000000000E+00 0. -1.
         23    2    1    2    0    0  0.75620803328E+03  0.14788006103E+03  0.25940956691E+03  0.81802216670E+03  0.90265385217E+02 0.  0.
         13    1    3    3    0    0  0.39155069620E+03  0.11192291807E+03  0.10617736578E+03  0.42084714599E+03  0.00000000000E+00 0.  1.
        -13    1    3    3    0    0  0.36465733708E+03  0.35957142958E+02  0.15323220113E+03  0.39717502071E+03  0.00000000000E+00 0. -1.
         22    1    1    2    0    0 -0.75620803328E+03 -0.14788006103E+03 -0.17080806972E+04  0.18738353103E+04  0.00000000000E+00 0. -1.
<mgrwt>
<rscale>  0 0.22687989E+04</rscale>
<asrwt>0</asrwt>
<pdfrwt beam="1">  1        1 0.31850220E+00 0.22687989E+04</pdfrwt>
<pdfrwt beam="2">  1       -1 0.95629718E-01 0.22687989E+04</pdfrwt>
<totfact> 0.25522272E+00</totfact>
</mgrwt>
</event>
<event>
 6    1  0.9988873E-007  0.1656598E+04  0.7818608E-02  0.8786513E-01
          1   -1    0    0  501    0  0.00000000000E+00  0.00000000000E+00  0.72576050970E+03  0.72576050970E+03  0.00000000000E+00 0. -1.
         -1   -1    0    0    0  501 -0.00000000000E+00 -0.00000000000E+00 -0.94532446060E+03  0.94532446060E+03  0.00000000000E+00 0.  1.
         23    2    1    2    0    0 -0.63360188464E+03 -0.27877081605E+03  0.34453197162E+03  0.77812991773E+03  0.87289021665E+02 0.  0.
         13    1    3    3    0    0 -0.22990228099E+03 -0.66758741509E+02  0.88863640191E+02  0.25535961881E+03  0.00000000000E+00 0. -1.
        -13    1    3    3    0    0 -0.40369960365E+03 -0.21201207454E+03  0.25566833143E+03  0.52277029892E+03  0.00000000000E+00 0.  1.
         22    1    1    2    0    0  0.63360188464E+03  0.27877081605E+03 -0.56409592253E+03  0.89295505257E+03  0.00000000000E+00 0.  1.
<mgrwt>
<rscale>  0 0.16565979E+04</rscale>
<asrwt>0</asrwt>
<pdfrwt beam="1">  1        1 0.11165546E+00 0.16565979E+04</pdfrwt>
<pdfrwt beam="2">  1       -1 0.14543453E+00 0.16565979E+04</pdfrwt>
<totfact> 0.93320716E+00</totfact>
</mgrwt>
</event>
<event>
 6    1  0.9988873E-007  0.2142862E+04  0.7818608E-02  0.8542594E-01
          1   -1    0    0  501    0  0.00000000000E+00  0.00000000000E+00  0.86075956151E+03  0.86075956151E+03  0.00000000000E+00 0. -1.
         -1   -1    0    0    0  501 -0.00000000000E+00 -0.00000000000E+00 -0.13336640340E+04  0.13336640340E+04  0.00000000000E+00 0.  1.
         23    2    1    2    0    0 -0.56167265339E+03 -0.72390878815E+03  0.32805749774E+03  0.97743543579E+03  0.90764564540E+02 0.  0.
         11    1    3    3    0    0 -0.27774604413E+03 -0.37503359499E+03  0.21389255290E+03  0.51336447733E+03  0.00000000000E+00 0. -1.
        -11    1    3    3    0    0 -0.28392660926E+03 -0.34887519317E+03  0.11416494484E+03  0.46407095846E+03  0.00000000000E+00 0.  1.
         22    1    1    2    0    0  0.56167265339E+03  0.72390878815E+03 -0.80096197022E+03  0.12169881597E+04  0.00000000000E+00 0.  1.
<mgrwt>
<rscale>  0 0.21428617E+04</rscale>
<asrwt>0</asrwt>
<pdfrwt beam="1">  1        1 0.13242455E+00 0.21428617E+04</pdfrwt>
<pdfrwt beam="2">  1       -1 0.20517908E+00 0.21428617E+04</pdfrwt>
<totfact> 0.24917850E+00</totfact>
</mgrwt>
</event>
<event>
 6    1  0.9988873E-007  0.1916296E+04  0.7818608E-02  0.8646787E-01
          1   -1    0    0  501    0  0.00000000000E+00  0.00000000000E+00  0.15258931029E+04  0.15258931029E+04  0.00000000000E+00 0. -1.
         -1   -1    0    0    0  501 -0.00000000000E+00 -0.00000000000E+00 -0.60164635875E+03  0.60164635875E+03  0.00000000000E+00 0.  1.
         23    2    1    2    0    0  0.20575796602E+03 -0.17540743094E+03  0.14813236798E+04  0.15083150924E+04  0.87123281660E+02 0.  0.
         11    1    3    3    0    0  0.86292545713E+02 -0.99046244897E+02  0.92147445328E+03  0.93079091643E+03  0.00000000000E+00 0.  1.
        -11    1    3    3    0    0  0.11946542031E+03 -0.76361186041E+02  0.55984922648E+03  0.57752417592E+03  0.00000000000E+00 0. -1.
         22    1    1    2    0    0 -0.20575796602E+03  0.17540743094E+03 -0.55707693558E+03  0.61922436932E+03  0.00000000000E+00 0.  1.
<mgrwt>
<rscale>  0 0.19162965E+04</rscale>
<asrwt>0</asrwt>
<pdfrwt beam="1">  1        1 0.23475278E+00 0.19162965E+04</pdfrwt>
<pdfrwt beam="2">  1       -1 0.92560979E-01 0.19162965E+04</pdfrwt>
<totfact> 0.66559431E+00</totfact>
</mgrwt>
</event>
<event>
 6    1  0.9988873E-007  0.5592761E+03  0.7818608E-02  0.9993694E-01
         -2   -1    0    0    0  501 -0.00000000000E+00  0.00000000000E+00  0.45658854678E+02  0.45658854678E+02  0.00000000000E+00 0.  1.
          2   -1    0    0  501    0  0.00000000000E+00 -0.00000000000E+00 -0.17126459393E+04  0.17126459393E+04  0.00000000000E+00 0. -1.
         23    2    1    2    0    0  0.10289294274E+03  0.17008557146E+03 -0.14426034331E+04  0.14585314090E+04  0.81811652669E+02 0.  0.
         11    1    3    3    0    0  0.23411926850E+02  0.25089444848E+01 -0.80958583017E+02  0.84313138273E+02  0.00000000000E+00 0. -1.
        -11    1    3    3    0    0  0.79481015885E+02  0.16757662698E+03 -0.13616448501E+04  0.13742182707E+04  0.00000000000E+00 0.  1.
         22    1    1    2    0    0 -0.10289294274E+03 -0.17008557146E+03 -0.22438365155E+03  0.29977338502E+03  0.00000000000E+00 0.  1.
<mgrwt>
<rscale>  0 0.55927615E+03</rscale>
<asrwt>0</asrwt>
<pdfrwt beam="1">  1        2 0.26348397E+00 0.55927615E+03</pdfrwt>
<pdfrwt beam="2">  1       -2 0.70244398E-02 0.55927615E+03</pdfrwt>
<totfact> 0.11980229E+03</totfact>
</mgrwt>
</event>
<event>
 6    1  0.9988873E-007  0.5441609E+04  0.7818608E-02  0.7763775E-01
          2   -1    0    0  501    0  0.00000000000E+00  0.00000000000E+00  0.53291484806E+04  0.53291484806E+04  0.00000000000E+00 0. -1.
         -2   -1    0    0    0  501 -0.00000000000E+00 -0.00000000000E+00 -0.13891105255E+04  0.13891105255E+04  0.00000000000E+00 0.  1.
         23    2    1    2    0    0  0.26235802194E+04 -0.52039312831E+03  0.13598580923E+04  0.30019018785E+04  0.90656942702E+02 0.  0.
         11    1    3    3    0    0  0.20464938200E+04 -0.38171673821E+03  0.10251136189E+04  0.23204961873E+04  0.00000000000E+00 0. -1.
        -11    1    3    3    0    0  0.57708639944E+03 -0.13867639010E+03  0.33474447336E+03  0.68140569122E+03  0.00000000000E+00 0.  1.
         22    1    1    2    0    0 -0.26235802194E+04  0.52039312831E+03  0.25801798627E+04  0.37163571276E+04  0.00000000000E+00 0.  1.
<mgrwt>
<rscale>  0 0.54416087E+04</rscale>
<asrwt>0</asrwt>
<pdfrwt beam="1">  1        2 0.81986898E+00 0.54416087E+04</pdfrwt>
<pdfrwt beam="2">  1       -2 0.21370931E+00 0.54416087E+04</pdfrwt>
<totfact> 0.87021150E-04</totfact>
</mgrwt>
</event>
<event>
 6    1  0.9988873E-007  0.5883446E+04  0.7818608E-02  0.7705023E-01
         -2   -1    0    0    0  501 -0.00000000000E+00  0.00000000000E+00  0.26026773448E+04  0.26026773448E+04  0.00000000000E+00 0.  1.
          2   -1    0    0  501    0  0.00000000000E+00 -0.00000000000E+00 -0.33249356283E+04  0.33249356283E+04  0.00000000000E+00 0. -1.
         23    2    1    2    0    0 -0.13932928261E+04 -0.14034372644E+04 -0.25547777866E+04  0.32314993286E+04  0.69262667884E+02 0.  0.
         13    1    3    3    0    0 -0.69520073061E+03 -0.65525302341E+03 -0.12108795906E+04  0.15423650552E+04  0.00000000000E+00 0. -1.
        -13    1    3    3    0    0 -0.69809209554E+03 -0.74818424100E+03 -0.13438981960E+04  0.16891342734E+04  0.00000000000E+00 0.  1.
         22    1    1    2    0    0  0.13932928261E+04  0.14034372644E+04  0.18325195032E+04  0.26961136445E+04  0.00000000000E+00 0.  1.
<mgrwt>
<rscale>  0 0.58834461E+04</rscale>
<asrwt>0</asrwt>
<pdfrwt beam="1">  1        2 0.51152856E+00 0.58834461E+04</pdfrwt>
<pdfrwt beam="2">  1       -2 0.40041190E+00 0.58834461E+04</pdfrwt>
<totfact> 0.53692346E-03</totfact>
</mgrwt>
</event>
<event>
 6    1  0.9988873E-007  0.1916537E+04  0.7818608E-02  0.8646669E-01
         -1   -1    0    0    0  501 -0.00000000000E+00  0.00000000000E+00  0.11358281100E+04  0.11358281100E+04  0.00000000000E+00 0.  1.
          1   -1    0    0  501    0  0.00000000000E+00 -0.00000000000E+00 -0.80846581601E+03  0.80846581601E+03  0.00000000000E+00 0. -1.
         23    2    1    2    0    0 -0.65440391127E+03  0.60100832287E+03 -0.19396444381E+03  0.91413032212E+03  0.92501660055E+02 0.  0.
         11    1    3    3    0    0 -0.22778216140E+03  0.23329455761E+03 -0.11320702481E+03  0.34514764106E+03  0.00000000000E+00 0. -1.
        -11    1    3    3    0    0 -0.42662174987E+03  0.36771376526E+03 -0.80757418999E+02  0.56898268106E+03  0.00000000000E+00 0.  1.
         22    1    1    2    0    0  0.65440391127E+03 -0.60100832287E+03  0.52132673782E+03  0.10301636039E+04  0.00000000000E+00 0.  1.
<mgrwt>
<rscale>  0 0.19165367E+04</rscale>
<asrwt>0</asrwt>
<pdfrwt beam="1">  1        1 0.12437936E+00 0.19165367E+04</pdfrwt>
<pdfrwt beam="2">  1       -1 0.17474279E+00 0.19165367E+04</pdfrwt>
<totfact> 0.46133735E+00</totfact>
</mgrwt>
</event>
<event>
 6    1  0.9988873E-007  0.2545407E+04  0.7818608E-02  0.8386985E-01
          2   -1    0    0  501    0  0.00000000000E+00  0.00000000000E+00  0.11450496127E+04  0.11450496127E+04  0.00000000000E+00 0. -1.
         -2   -1    0    0    0  501 -0.00000000000E+00 -0.00000000000E+00 -0.14145889226E+04  0.14145889226E+04  0.00000000000E+00 0.  1.
         23    2    1    2    0    0 -0.77509705250E+03  0.62527946443E+03  0.65932368547E+03  0.11978249233E+04  0.91252261923E+02 0.  0.
         13    1    3    3    0    0 -0.55704666203E+03  0.41496427093E+03  0.41975534823E+03  0.81159773423E+03  0.00000000000E+00 0.  1.
        -13    1    3    3    0    0 -0.21805039046E+03  0.21031519350E+03  0.23956833723E+03  0.38622718910E+03  0.00000000000E+00 0. -1.
         22    1    1    2    0    0  0.77509705250E+03 -0.62527946443E+03 -0.92886299540E+03  0.13618136119E+04  0.00000000000E+00 0.  1.
<mgrwt>
<rscale>  0 0.25454072E+04</rscale>
<asrwt>0</asrwt>
<pdfrwt beam="1">  1        2 0.17616148E+00 0.25454072E+04</pdfrwt>
<pdfrwt beam="2">  1       -2 0.21762906E+00 0.25454072E+04</pdfrwt>
<totfact> 0.18585750E+00</totfact>
</mgrwt>
</event>
<event>
 6    1  0.1167080E-006  0.3616626E+04  0.7818608E-02  0.8086694E-01
          2   -1    0    0  501    0  0.00000000000E+00  0.00000000000E+00  0.20811479419E+04  0.20811479419E+04  0.00000000000E+00 0. -1.
         -2   -1    0    0    0  501 -0.00000000000E+00 -0.00000000000E+00 -0.15712466249E+04  0.15712466249E+04  0.00000000000E+00 0.  1.
         23    2    1    2    0    0  0.13619076599E+04  0.58224895566E+03 -0.79052939958E+03  0.16813729106E+04  0.90949504810E+02 0.  0.
         13    1    3    3    0    0  0.79395714771E+03  0.35216484454E+03 -0.51226312806E+03  0.10083657781E+04  0.00000000000E+00 0. -1.
        -13    1    3    3    0    0  0.56795051220E+03  0.23008411111E+03 -0.27826627151E+03  0.67300713247E+03  0.00000000000E+00 0.  1.
         22    1    1    2    0    0 -0.13619076599E+04 -0.58224895566E+03  0.13004307166E+04  0.19710216562E+04  0.00000000000E+00 0. -1.
<mgrwt>
<rscale>  0 0.36166264E+04</rscale>
<asrwt>0</asrwt>
<pdfrwt beam="1">  1        2 0.32017661E+00 0.36166264E+04</pdfrwt>
<pdfrwt beam="2">  1       -2 0.24173025E+00 0.36166264E+04</pdfrwt>
<totfact> 0.35414823E-01</totfact>
</mgrwt>
</event>
<event>
 6    1  0.9988873E-007  0.1862377E+04  0.7818608E-02  0.8673813E-01
         -2   -1    0    0    0  501 -0.00000000000E+00  0.00000000000E+00  0.86934052734E+03  0.86934052734E+03  0.00000000000E+00 0.  1.
          2   -1    0    0  501    0  0.00000000000E+00 -0.00000000000E+00 -0.99743707668E+03  0.99743707668E+03  0.00000000000E+00 0. -1.
         23    2    1    2    0    0 -0.41003510478E+03 -0.87214191161E+02  0.76670212812E+03  0.87864817146E+03  0.91952996986E+02 0.  0.
         11    1    3    3    0    0 -0.20066397546E+03  0.41721387355E+01  0.35429310568E+03  0.40719410914E+03  0.00000000000E+00 0. -1.
        -11    1    3    3    0    0 -0.20937112932E+03 -0.91386329897E+02  0.41240902244E+03  0.47145406232E+03  0.00000000000E+00 0.  1.
         22    1    1    2    0    0  0.41003510478E+03  0.87214191161E+02 -0.89479867747E+03  0.98812943256E+03  0.00000000000E+00 0. -1.
<mgrwt>
<rscale>  0 0.18623775E+04</rscale>
<asrwt>0</asrwt>
<pdfrwt beam="1">  1        2 0.15345186E+00 0.18623775E+04</pdfrwt>
<pdfrwt beam="2">  1       -2 0.13374470E+00 0.18623775E+04</pdfrwt>
<totfact> 0.95965032E+00</totfact>
</mgrwt>
</event>
<event>
 6    1  0.9988873E-007  0.1455122E+04  0.7818608E-02  0.8914857E-01
          2   -1    0    0  501    0  0.00000000000E+00  0.00000000000E+00  0.22464055242E+04  0.22464055242E+04  0.00000000000E+00 0. -1.
         -2   -1    0    0    0  501 -0.00000000000E+00 -0.00000000000E+00 -0.23564105059E+03  0.23564105059E+03  0.00000000000E+00 0.  1.
         23    2    1    2    0    0  0.37026042076E+03 -0.40032985999E+03  0.18235304639E+04  0.19054935847E+04  0.91025670559E+02 0.  0.
         13    1    3    3    0    0  0.33629880761E+03 -0.33302164880E+03  0.14819210630E+04  0.15556639559E+04  0.00000000000E+00 0. -1.
        -13    1    3    3    0    0  0.33961613153E+02 -0.67308211192E+02  0.34160940082E+03  0.34982962881E+03  0.00000000000E+00 0.  1.
         22    1    1    2    0    0 -0.37026042076E+03  0.40032985999E+03  0.18723400974E+03  0.57655299009E+03  0.00000000000E+00 0.  1.
<mgrwt>
<rscale>  0 0.14551225E+04</rscale>
<asrwt>0</asrwt>
<pdfrwt beam="1">  1        2 0.34560083E+00 0.14551225E+04</pdfrwt>
<pdfrwt beam="2">  1       -2 0.36252471E-01 0.14551225E+04</pdfrwt>
<totfact> 0.33798951E+01</totfact>
</mgrwt>
</event>
<event>
 6    1  0.9988873E-007  0.6406762E+03  0.7818608E-02  0.9824434E-01
          2   -1    0    0  501    0  0.00000000000E+00  0.00000000000E+00  0.38949662048E+03  0.38949662048E+03  0.00000000000E+00 0. -1.
         -2   -1    0    0    0  501 -0.00000000000E+00 -0.00000000000E+00 -0.26345929993E+03  0.26345929993E+03  0.00000000000E+00 0.  1.
         23    2    1    2    0    0 -0.13005287721E+03 -0.91341291153E+02  0.34004700940E+03  0.38639048894E+03  0.91698740452E+02 0.  0.
         13    1    3    3    0    0 -0.15587479883E+02 -0.48649125666E+02  0.16646526542E+03  0.17412751520E+03  0.00000000000E+00 0. -1.
        -13    1    3    3    0    0 -0.11446539732E+03 -0.42692165487E+02  0.17358174398E+03  0.21226297374E+03  0.00000000000E+00 0.  1.
         22    1    1    2    0    0  0.13005287721E+03  0.91341291153E+02 -0.21400968884E+03  0.26656543148E+03  0.00000000000E+00 0.  1.
<mgrwt>
<rscale>  0 0.64067623E+03</rscale>
<asrwt>0</asrwt>
<pdfrwt beam="1">  1        2 0.59922557E-01 0.64067623E+03</pdfrwt>
<pdfrwt beam="2">  1       -2 0.40532200E-01 0.64067623E+03</pdfrwt>
<totfact> 0.47608023E+02</totfact>
</mgrwt>
</event>
<event>
 6    1  0.9988873E-007  0.1089515E+04  0.7818608E-02  0.9215472E-01
         -2   -1    0    0    0  501 -0.00000000000E+00  0.00000000000E+00  0.94086841829E+03  0.94086841829E+03  0.00000000000E+00 0.  1.
          2   -1    0    0  501    0  0.00000000000E+00 -0.00000000000E+00 -0.31541171307E+03  0.31541171307E+03  0.00000000000E+00 0. -1.
         23    2    1    2    0    0  0.42942531226E+03 -0.26743129761E+03  0.95053002401E+02  0.52330422063E+03  0.94268957297E+02 0.  0.
         13    1    3    3    0    0  0.18537363120E+03 -0.96049833713E+02 -0.47417571558E+01  0.20883351733E+03  0.00000000000E+00 0. -1.
        -13    1    3    3    0    0  0.24405168106E+03 -0.17138146390E+03  0.99794759556E+02  0.31447070330E+03  0.00000000000E+00 0.  1.
         22    1    1    2    0    0 -0.42942531226E+03  0.26743129761E+03  0.53040370282E+03  0.73297591074E+03  0.00000000000E+00 0.  1.
<mgrwt>
<rscale>  0 0.10895153E+04</rscale>
<asrwt>0</asrwt>
<pdfrwt beam="1">  1        2 0.48524879E-01 0.10895153E+04</pdfrwt>
<pdfrwt beam="2">  1       -2 0.14474899E+00 0.10895153E+04</pdfrwt>
<totfact> 0.33917052E+01</totfact>
</mgrwt>
</event>
<event>
 6    1  0.9988873E-007  0.2473056E+04  0.7818608E-02  0.8412648E-01
          2   -1    0    0  501    0  0.00000000000E+00  0.00000000000E+00  0.27933998589E+04  0.27933998589E+04  0.00000000000E+00 0. -1.
         -2   -1    0    0    0  501 -0.00000000000E+00 -0.00000000000E+00 -0.54736198546E+03  0.54736198546E+03  0.00000000000E+00 0.  1.
         23    2    1    2    0    0  0.88636136378E+03  0.13477227324E+03 -0.23117023872E+02  0.90091267262E+03  0.85493941705E+02 0.  0.
         13    1    3    3    0    0  0.18432611229E+02  0.15601806465E+02  0.36977239577E+01  0.24430527709E+02  0.00000000000E+00 0.  1.
        -13    1    3    3    0    0  0.86792875255E+03  0.11917046677E+03 -0.26814747830E+02  0.87648214491E+03  0.00000000000E+00 0. -1.
         22    1    1    2    0    0 -0.88636136378E+03 -0.13477227324E+03  0.22691548973E+04  0.24398491718E+04  0.00000000000E+00 0. -1.
<mgrwt>
<rscale>  0 0.24730555E+04</rscale>
<asrwt>0</asrwt>
<pdfrwt beam="1">  1        2 0.42975382E+00 0.24730555E+04</pdfrwt>
<pdfrwt beam="2">  1       -2 0.84209538E-01 0.24730555E+04</pdfrwt>
<totfact> 0.25675521E+00</totfact>
</mgrwt>
</event>
<event>
 6    1  0.9988873E-007  0.3823809E+04  0.7818608E-02  0.8041065E-01
          2   -1    0    0  501    0  0.00000000000E+00  0.00000000000E+00  0.26160053071E+04  0.26160053071E+04  0.00000000000E+00 0. -1.
         -2   -1    0    0    0  501 -0.00000000000E+00 -0.00000000000E+00 -0.13973133612E+04  0.13973133612E+04  0.00000000000E+00 0.  1.
         23    2    1    2    0    0 -0.10890377269E+04 -0.17154423226E+02 -0.10387673910E+04  0.15068430345E+04  0.72393323077E+02 0.  0.
         11    1    3    3    0    0 -0.10914498608E+03 -0.20170077498E+02 -0.90048965415E+02  0.14292752074E+03  0.00000000000E+00 0.  1.
        -11    1    3    3    0    0 -0.97989274086E+03  0.30156542723E+01 -0.94871842555E+03  0.13639155138E+04  0.00000000000E+00 0. -1.
         22    1    1    2    0    0  0.10890377269E+04  0.17154423226E+02  0.22574593369E+04  0.25064756338E+04  0.00000000000E+00 0. -1.
<mgrwt>
<rscale>  0 0.38238092E+04</rscale>
<asrwt>0</asrwt>
<pdfrwt beam="1">  1        2 0.40246235E+00 0.38238092E+04</pdfrwt>
<pdfrwt beam="2">  1       -2 0.21497129E+00 0.38238092E+04</pdfrwt>
<totfact> 0.25352335E-01</totfact>
</mgrwt>
</event>
<event>
 6    1  0.9988873E-007  0.1394880E+04  0.7818608E-02  0.8957533E-01
          2   -1    0    0  501    0  0.00000000000E+00  0.00000000000E+00  0.89712625385E+03  0.89712625385E+03  0.00000000000E+00 0. -1.
         -2   -1    0    0    0  501 -0.00000000000E+00 -0.00000000000E+00 -0.54220095916E+03  0.54220095916E+03  0.00000000000E+00 0.  1.
         23    2    1    2    0    0 -0.67293659193E+03  0.11646148534E+03  0.30780209885E+03  0.75476346147E+03  0.92297434333E+02 0.  0.
         11    1    3    3    0    0 -0.37211602368E+03  0.54546067176E+02  0.21832156937E+03  0.43486769962E+03  0.00000000000E+00 0. -1.
        -11    1    3    3    0    0 -0.30082056826E+03  0.61915418162E+02  0.89480529472E+02  0.31989576185E+03  0.00000000000E+00 0.  1.
         22    1    1    2    0    0  0.67293659193E+03 -0.11646148534E+03  0.47123195843E+02  0.68456375153E+03  0.00000000000E+00 0.  1.
<mgrwt>
<rscale>  0 0.13948802E+04</rscale>
<asrwt>0</asrwt>
<pdfrwt beam="1">  1        2 0.13801942E+00 0.13948802E+04</pdfrwt>
<pdfrwt beam="2">  1       -2 0.83415532E-01 0.13948802E+04</pdfrwt>
<totfact> 0.36076865E+01</totfact>
</mgrwt>
</event>
<event>
 6    1  0.9988873E-007  0.1108858E+04  0.7818608E-02  0.9196601E-01
          2   -1    0    0  501    0  0.00000000000E+00  0.00000000000E+00  0.17805858564E+04  0.17805858564E+04  0.00000000000E+00 0. -1.
         -2   -1    0    0    0  501 -0.00000000000E+00 -0.00000000000E+00 -0.17263489223E+03  0.17263489223E+03  0.00000000000E+00 0.  1.
         23    2    1    2    0    0  0.43308849526E+03  0.97227374092E+02  0.23602361512E+03  0.51127641612E+03  0.93153742725E+02 0.  0.
         13    1    3    3    0    0  0.34470145666E+03  0.11055153870E+03  0.16870883638E+03  0.39937877811E+03  0.00000000000E+00 0.  1.
        -13    1    3    3    0    0  0.88387038603E+02 -0.13324164603E+02  0.67314778742E+02  0.11189763801E+03  0.00000000000E+00 0. -1.
         22    1    1    2    0    0 -0.43308849526E+03 -0.97227374092E+02  0.13719273491E+04  0.14419443325E+04  0.00000000000E+00 0. -1.
<mgrwt>
<rscale>  0 0.11088575E+04</rscale>
<asrwt>0</asrwt>
<pdfrwt beam="1">  1        2 0.27393627E+00 0.11088575E+04</pdfrwt>
<pdfrwt beam="2">  1       -2 0.26559215E-01 0.11088575E+04</pdfrwt>
<totfact> 0.11281695E+02</totfact>
</mgrwt>
</event>
<event>
 6    1  0.9988873E-007  0.1269791E+04  0.7818608E-02  0.9053870E-01
         -2   -1    0    0    0  501 -0.00000000000E+00  0.00000000000E+00  0.24621468247E+03  0.24621468247E+03  0.00000000000E+00 0.  1.
          2   -1    0    0  501    0  0.00000000000E+00 -0.00000000000E+00 -0.16371580515E+04  0.16371580515E+04  0.00000000000E+00 0. -1.
         23    2    1    2    0    0  0.51747928552E+03  0.35850142033E+03 -0.76206766724E+03  0.99354537563E+03  0.10038528117E+03 0.  0.
         11    1    3    3    0    0  0.37264398925E+03  0.30787234347E+03 -0.59768798358E+03  0.76868709389E+03  0.00000000000E+00 0. -1.
        -11    1    3    3    0    0  0.14483529627E+03  0.50629076858E+02 -0.16437968365E+03  0.22485828174E+03  0.00000000000E+00 0.  1.
         22    1    1    2    0    0 -0.51747928552E+03 -0.35850142033E+03 -0.62887570176E+03  0.88982735831E+03  0.00000000000E+00 0. -1.
<mgrwt>
<rscale>  0 0.12697911E+04</rscale>
<asrwt>0</asrwt>
<pdfrwt beam="1">  1        2 0.25187047E+00 0.12697911E+04</pdfrwt>
<pdfrwt beam="2">  1       -2 0.37879181E-01 0.12697911E+04</pdfrwt>
<totfact> 0.68659145E+01</totfact>
</mgrwt>
</event>
<event>
 6    1  0.9988873E-007  0.8728754E+03  0.7818608E-02  0.9460138E-01
         -1   -1    0    0    0  501 -0.00000000000E+00  0.00000000000E+00  0.22936492421E+03  0.22936492421E+03  0.00000000000E+00 0.  1.
          1   -1    0    0  501    0  0.00000000000E+00 -0.00000000000E+00 -0.83045771527E+03  0.83045771527E+03  0.00000000000E+00 0. -1.
         23    2    1    2    0    0  0.22250351575E+02  0.19577706217E+03 -0.77017363840E+03  0.80018429648E+03  0.91124852966E+02 0.  0.
         13    1    3    3    0    0  0.71022074529E+01  0.10416327965E+03 -0.57050421037E+03  0.57997886532E+03  0.00000000000E+00 0.  1.
        -13    1    3    3    0    0  0.15148144122E+02  0.91613782523E+02 -0.19966942803E+03  0.22020543115E+03  0.00000000000E+00 0. -1.
         22    1    1    2    0    0 -0.22250351575E+02 -0.19577706217E+03  0.16908084735E+03  0.25963834300E+03  0.00000000000E+00 0.  1.
<mgrwt>
<rscale>  0 0.87287541E+03</rscale>
<asrwt>0</asrwt>
<pdfrwt beam="1">  1        1 0.12776272E+00 0.87287541E+03</pdfrwt>
<pdfrwt beam="2">  1       -1 0.35286912E-01 0.87287541E+03</pdfrwt>
<totfact> 0.16032267E+02</totfact>
</mgrwt>
</event>
<event>
 6    1  0.9988873E-007  0.1967477E+04  0.7818608E-02  0.8621979E-01
          2   -1    0    0  501    0  0.00000000000E+00  0.00000000000E+00  0.15432224386E+04  0.15432224386E+04  0.00000000000E+00 0. -1.
         -2   -1    0    0    0  501 -0.00000000000E+00 -0.00000000000E+00 -0.62709136618E+03  0.62709136618E+03  0.00000000000E+00 0.  1.
         23    2    1    2    0    0 -0.53321862929E+03  0.76651428004E+03  0.79328280645E+03  0.12285293578E+04  0.90113949023E+02 0.  0.
         11    1    3    3    0    0 -0.15088508545E+03  0.15974726418E+03  0.21243932153E+03  0.30564025055E+03  0.00000000000E+00 0.  1.
        -11    1    3    3    0    0 -0.38233354384E+03  0.60676701586E+03  0.58084348491E+03  0.92288910723E+03  0.00000000000E+00 0. -1.
         22    1    1    2    0    0  0.53321862929E+03 -0.76651428004E+03  0.12284826595E+03  0.94178444698E+03  0.00000000000E+00 0. -1.
<mgrwt>
<rscale>  0 0.19674770E+04</rscale>
<asrwt>0</asrwt>
<pdfrwt beam="1">  1        2 0.23741883E+00 0.19674770E+04</pdfrwt>
<pdfrwt beam="2">  1       -2 0.96475596E-01 0.19674770E+04</pdfrwt>
<totfact> 0.10050035E+01</totfact>
</mgrwt>
</event>
<event>
 6    1  0.9988873E-007  0.4826388E+03  0.7818608E-02  0.1018412E+00
          1   -1    0    0  501    0  0.00000000000E+00  0.00000000000E+00  0.11561977817E+04  0.11561977817E+04  0.00000000000E+00 0. -1.
         -1   -1    0    0    0  501 -0.00000000000E+00 -0.00000000000E+00 -0.50367726929E+02  0.50367726929E+02  0.00000000000E+00 0.  1.
         23    2    1    2    0    0 -0.15877834039E+03  0.10264421144E+03  0.91142398947E+03  0.93538270360E+03  0.92199338824E+02 0.  0.
         13    1    3    3    0    0 -0.50783395578E+02  0.83536931342E+02  0.35278724223E+03  0.36608224547E+03  0.00000000000E+00 0. -1.
        -13    1    3    3    0    0 -0.10799494481E+03  0.19107280100E+02  0.55863674724E+03  0.56930045813E+03  0.00000000000E+00 0.  1.
         22    1    1    2    0    0  0.15877834039E+03 -0.10264421144E+03  0.19440606528E+03  0.27118280502E+03  0.00000000000E+00 0.  1.
<mgrwt>
<rscale>  0 0.48263881E+03</rscale>
<asrwt>0</asrwt>
<pdfrwt beam="1">  1        1 0.17787656E+00 0.48263881E+03</pdfrwt>
<pdfrwt beam="2">  1       -1 0.77488819E-02 0.48263881E+03</pdfrwt>
<totfact> 0.11047551E+03</totfact>
</mgrwt>
</event>
<event>
 6    1  0.9988873E-007  0.2611032E+04  0.7818608E-02  0.8364464E-01
          1   -1    0    0  501    0  0.00000000000E+00  0.00000000000E+00  0.12988593120E+04  0.12988593120E+04  0.00000000000E+00 0. -1.
         -1   -1    0    0    0  501 -0.00000000000E+00 -0.00000000000E+00 -0.13122066087E+04  0.13122066087E+04  0.00000000000E+00 0.  1.
         23    2    1    2    0    0 -0.11170133297E+04  0.20260052159E+03 -0.64812106205E+03  0.13104108998E+04  0.91378691246E+02 0.  0.
         11    1    3    3    0    0 -0.76111829391E+03  0.16926212534E+03 -0.47769484707E+03  0.91440860195E+03  0.00000000000E+00 0.  1.
        -11    1    3    3    0    0 -0.35589503582E+03  0.33338396244E+02 -0.17042621498E+03  0.39600229789E+03  0.00000000000E+00 0. -1.
         22    1    1    2    0    0  0.11170133297E+04 -0.20260052159E+03  0.63477376527E+03  0.13006550208E+04  0.00000000000E+00 0.  1.
<mgrwt>
<rscale>  0 0.26110318E+04</rscale>
<asrwt>0</asrwt>
<pdfrwt beam="1">  1        1 0.19982451E+00 0.26110318E+04</pdfrwt>
<pdfrwt beam="2">  1       -1 0.20187794E+00 0.26110318E+04</pdfrwt>
<totfact> 0.11649508E+00</totfact>
</mgrwt>
</event>
<event>
 6    1  0.1542662E-006  0.3910454E+04  0.7818608E-02  0.8022858E-01
         -2   -1    0    0    0  501 -0.00000000000E+00  0.00000000000E+00  0.17239032459E+04  0.17239032459E+04  0.00000000000E+00 0.  1.
          2   -1    0    0  501    0  0.00000000000E+00 -0.00000000000E+00 -0.22175913178E+04  0.22175913178E+04  0.00000000000E+00 0. -1.
         23    2    1    2    0    0 -0.10271810100E+04 -0.16284145850E+04  0.90280435058E+02  0.19295666065E+04  0.90784604260E+02 0.  0.
         13    1    3    3    0    0 -0.51700142515E+03 -0.74090500081E+03  0.59344476571E+02  0.90540182281E+03  0.00000000000E+00 0. -1.
        -13    1    3    3    0    0 -0.51017958482E+03 -0.88750958415E+03  0.30935958487E+02  0.10241647837E+04  0.00000000000E+00 0.  1.
         22    1    1    2    0    0  0.10271810100E+04  0.16284145850E+04 -0.58396850696E+03  0.20119279572E+04  0.00000000000E+00 0. -1.
<mgrwt>
<rscale>  0 0.39104541E+04</rscale>
<asrwt>0</asrwt>
<pdfrwt beam="1">  1        2 0.34116789E+00 0.39104541E+04</pdfrwt>
<pdfrwt beam="2">  1       -2 0.26521589E+00 0.39104541E+04</pdfrwt>
<totfact> 0.20793480E-01</totfact>
</mgrwt>
</event>
<event>
 6    1  0.9988873E-007  0.9788596E+03  0.7818608E-02  0.9332040E-01
         -1   -1    0    0    0  501 -0.00000000000E+00  0.00000000000E+00  0.16093250245E+03  0.16093250245E+03  0.00000000000E+00 0.  1.
          1   -1    0    0  501    0  0.00000000000E+00 -0.00000000000E+00 -0.14884596760E+04  0.14884596760E+04  0.00000000000E+00 0. -1.
         23    2    1    2    0    0 -0.13260514126E+03  0.45776601045E+03 -0.51689729188E+03  0.70904402543E+03  0.91797471847E+02 0.  0.
         13    1    3    3    0    0 -0.67083979932E+02  0.36675364505E+03 -0.38559472776E+03  0.53636908057E+03  0.00000000000E+00 0.  1.
        -13    1    3    3    0    0 -0.65521161325E+02  0.91012365405E+02 -0.13130256413E+03  0.17267494486E+03  0.00000000000E+00 0. -1.
         22    1    1    2    0    0  0.13260514126E+03 -0.45776601045E+03 -0.81062988164E+03  0.94034815298E+03  0.00000000000E+00 0. -1.
<mgrwt>
<rscale>  0 0.97885962E+03</rscale>
<asrwt>0</asrwt>
<pdfrwt beam="1">  1        1 0.22899380E+00 0.97885962E+03</pdfrwt>
<pdfrwt beam="2">  1       -1 0.24758846E-01 0.97885962E+03</pdfrwt>
<totfact> 0.95268674E+01</totfact>
</mgrwt>
</event>
<event>
 6    1  0.9988873E-007  0.4607221E+04  0.7818608E-02  0.7892130E-01
          1   -1    0    0  501    0  0.00000000000E+00  0.00000000000E+00  0.24995834246E+04  0.24995834246E+04  0.00000000000E+00 0. -1.
         -1   -1    0    0    0  501 -0.00000000000E+00 -0.00000000000E+00 -0.21230026063E+04  0.21230026063E+04  0.00000000000E+00 0.  1.
         23    2    1    2    0    0  0.17128630982E+04  0.94011218939E+03 -0.10340529111E+04  0.22126900911E+04  0.94979442621E+02 0.  0.
         13    1    3    3    0    0  0.45901547022E+03  0.29412181455E+03 -0.26452026725E+03  0.60594869047E+03  0.00000000000E+00 0. -1.
        -13    1    3    3    0    0  0.12538476280E+04  0.64599037484E+03 -0.76953264386E+03  0.16067414007E+04  0.00000000000E+00 0.  1.
         22    1    1    2    0    0 -0.17128630982E+04 -0.94011218939E+03  0.14106337294E+04  0.24098959397E+04  0.00000000000E+00 0. -1.
<mgrwt>
<rscale>  0 0.46072213E+04</rscale>
<asrwt>0</asrwt>
<pdfrwt beam="1">  1        1 0.38455130E+00 0.46072213E+04</pdfrwt>
<pdfrwt beam="2">  1       -1 0.32661578E+00 0.46072213E+04</pdfrwt>
<totfact> 0.22373997E-02</totfact>
</mgrwt>
</event>
<event>
 6    1  0.1621702E-006  0.5348253E+04  0.7818608E-02  0.7776922E-01
          2   -1    0    0  501    0  0.00000000000E+00  0.00000000000E+00  0.18479032922E+04  0.18479032922E+04  0.00000000000E+00 0. -1.
         -2   -1    0    0    0  501 -0.00000000000E+00 -0.00000000000E+00 -0.38697652160E+04  0.38697652160E+04  0.00000000000E+00 0.  1.
         23    2    1    2    0    0  0.24890781267E+03 -0.56076216053E+03 -0.37929444257E+04  0.38433306174E+04  0.91397583875E+02 0.  0.
         11    1    3    3    0    0  0.44239365760E+02 -0.17573874712E+03 -0.12941418178E+04  0.13067686380E+04  0.00000000000E+00 0.  1.
        -11    1    3    3    0    0  0.20466844691E+03 -0.38502341341E+03 -0.24988026080E+04  0.25365619795E+04  0.00000000000E+00 0. -1.
         22    1    1    2    0    0 -0.24890781267E+03  0.56076216053E+03  0.17710825019E+04  0.18743378907E+04  0.00000000000E+00 0. -1.
<mgrwt>
<rscale>  0 0.53482528E+04</rscale>
<asrwt>0</asrwt>
<pdfrwt beam="1">  1        2 0.28429281E+00 0.53482528E+04</pdfrwt>
<pdfrwt beam="2">  1       -2 0.59534849E+00 0.53482528E+04</pdfrwt>
<totfact> 0.30894520E-03</totfact>
</mgrwt>
</event>
<event>
 6    1  0.9988873E-007  0.2343176E+04  0.7818608E-02  0.8461089E-01
          1   -1    0    0  501    0  0.00000000000E+00  0.00000000000E+00  0.22089554652E+04  0.22089554652E+04  0.00000000000E+00 0. -1.
         -1   -1    0    0    0  501 -0.00000000000E+00 -0.00000000000E+00 -0.62138815296E+03  0.62138815296E+03  0.00000000000E+00 0.  1.
         23    2    1    2    0    0  0.46419686011E+03  0.83402514089E+03  0.16118676347E+04  0.18755309840E+04  0.91774395527E+02 0.  0.
         13    1    3    3    0    0  0.42651437049E+03  0.70019010585E+03  0.13785185818E+04  0.16038996767E+04  0.00000000000E+00 0.  1.
        -13    1    3    3    0    0  0.37682489625E+02  0.13383503504E+03  0.23334905289E+03  0.27163130731E+03  0.00000000000E+00 0. -1.
         22    1    1    2    0    0 -0.46419686011E+03 -0.83402514089E+03 -0.24300322491E+02  0.95481263411E+03  0.00000000000E+00 0.  1.
<mgrwt>
<rscale>  0 0.23431763E+04</rscale>
<asrwt>0</asrwt>
<pdfrwt beam="1">  1        1 0.33983930E+00 0.23431763E+04</pdfrwt>
<pdfrwt beam="2">  1       -1 0.95598178E-01 0.23431763E+04</pdfrwt>
<totfact> 0.20417668E+00</totfact>
</mgrwt>
</event>
<event>
 6    1  0.9988873E-007  0.2285382E+04  0.7818608E-02  0.8483707E-01
         -1   -1    0    0    0  501 -0.00000000000E+00  0.00000000000E+00  0.65902039807E+03  0.65902039807E+03  0.00000000000E+00 0.  1.
          1   -1    0    0  501    0  0.00000000000E+00 -0.00000000000E+00 -0.19813396679E+04  0.19813396679E+04  0.00000000000E+00 0. -1.
         23    2    1    2    0    0 -0.42235368072E+03  0.35719635162E+03  0.49056466545E+03  0.74496564052E+03  0.91368754704E+02 0.  0.
         13    1    3    3    0    0 -0.13454485347E+03  0.71321259492E+02  0.16756415821E+03  0.22642170119E+03  0.00000000000E+00 0. -1.
        -13    1    3    3    0    0 -0.28780882725E+03  0.28587509213E+03  0.32300050724E+03  0.51854393933E+03  0.00000000000E+00 0.  1.
         22    1    1    2    0    0  0.42235368072E+03 -0.35719635162E+03 -0.18128839353E+04  0.18953944254E+04  0.00000000000E+00 0. -1.
<mgrwt>
<rscale>  0 0.22853825E+04</rscale>
<asrwt>0</asrwt>
<pdfrwt beam="1">  1        1 0.30482148E+00 0.22853825E+04</pdfrwt>
<pdfrwt beam="2">  1       -1 0.10138776E+00 0.22853825E+04</pdfrwt>
<totfact> 0.25635654E+00</totfact>
</mgrwt>
</event>
<event>
 6    1  0.9988873E-007  0.4627819E+04  0.7818608E-02  0.7888634E-01
         -2   -1    0    0    0  501 -0.00000000000E+00  0.00000000000E+00  0.30527764116E+04  0.30527764116E+04  0.00000000000E+00 0.  1.
          2   -1    0    0  501    0  0.00000000000E+00 -0.00000000000E+00 -0.17538713539E+04  0.17538713539E+04  0.00000000000E+00 0. -1.
         23    2    1    2    0    0  0.91320237310E+03 -0.15867016696E+04 -0.81852878762E+03  0.20075252509E+04  0.92776583451E+02 0.  0.
         11    1    3    3    0    0  0.48207962812E+03 -0.90437004461E+03 -0.42298911044E+03  0.11086955096E+04  0.00000000000E+00 0.  1.
        -11    1    3    3    0    0  0.43112274498E+03 -0.68233162495E+03 -0.39553967718E+03  0.89882974131E+03  0.00000000000E+00 0. -1.
         22    1    1    2    0    0 -0.91320237310E+03  0.15867016696E+04  0.21174338454E+04  0.27991225146E+04  0.00000000000E+00 0.  1.
<mgrwt>
<rscale>  0 0.46278190E+04</rscale>
<asrwt>0</asrwt>
<pdfrwt beam="1">  1        2 0.26982636E+00 0.46278190E+04</pdfrwt>
<pdfrwt beam="2">  1       -2 0.46965791E+00 0.46278190E+04</pdfrwt>
<totfact> 0.17739094E-02</totfact>
</mgrwt>
</event>
<event>
 6    1  0.9988873E-007  0.1020622E+04  0.7818608E-02  0.9286212E-01
          1   -1    0    0  501    0  0.00000000000E+00  0.00000000000E+00  0.79545698951E+03  0.79545698951E+03  0.00000000000E+00 0. -1.
         -1   -1    0    0    0  501 -0.00000000000E+00 -0.00000000000E+00 -0.32738061057E+03  0.32738061057E+03  0.00000000000E+00 0.  1.
         23    2    1    2    0    0  0.17666909282E+03  0.29204553466E+03  0.64723959972E+03  0.73734827162E+03  0.90889006737E+02 0.  0.
         13    1    3    3    0    0  0.24500740494E+02  0.10029553914E+03  0.13819208374E+03  0.17250082163E+03  0.00000000000E+00 0.  1.
        -13    1    3    3    0    0  0.15216835233E+03  0.19174999552E+03  0.50904751599E+03  0.56484744999E+03  0.00000000000E+00 0. -1.
         22    1    1    2    0    0 -0.17666909282E+03 -0.29204553466E+03 -0.17916322079E+03  0.38548932846E+03  0.00000000000E+00 0.  1.
<mgrwt>
<rscale>  0 0.10206218E+04</rscale>
<asrwt>0</asrwt>
<pdfrwt beam="1">  1        1 0.12237800E+00 0.10206218E+04</pdfrwt>
<pdfrwt beam="2">  1       -1 0.50366248E-01 0.10206218E+04</pdfrwt>
<totfact> 0.88417518E+01</totfact>
</mgrwt>
</event>
<event>
 6    1  0.9988873E-007  0.1448680E+04  0.7818608E-02  0.8919316E-01
          1   -1    0    0  501    0  0.00000000000E+00  0.00000000000E+00  0.60827345252E+03  0.60827345252E+03  0.00000000000E+00 0. -1.
         -1   -1    0    0    0  501 -0.00000000000E+00 -0.00000000000E+00 -0.86255386830E+03  0.86255386830E+03  0.00000000000E+00 0.  1.
         23    2    1    2    0    0  0.39850422286E+03 -0.81497672607E+01 -0.73825900393E+03  0.84384461919E+03  0.90417642659E+02 0.  0.
         13    1    3    3    0    0  0.24178741465E+03 -0.49123395762E+02 -0.44715072116E+03  0.51070346516E+03  0.00000000000E+00 0. -1.
        -13    1    3    3    0    0  0.15671680821E+03  0.40973628502E+02 -0.29110828278E+03  0.33314115403E+03  0.00000000000E+00 0.  1.
         22    1    1    2    0    0 -0.39850422286E+03  0.81497672607E+01  0.48397858815E+03  0.62698270162E+03  0.00000000000E+00 0. -1.
<mgrwt>
<rscale>  0 0.14486803E+04</rscale>
<asrwt>0</asrwt>
<pdfrwt beam="1">  1        1 0.93580531E-01 0.14486803E+04</pdfrwt>
<pdfrwt beam="2">  1       -1 0.13270060E+00 0.14486803E+04</pdfrwt>
<totfact> 0.15701225E+01</totfact>
</mgrwt>
</event>
<event>
 6    1  0.9988873E-007  0.1202728E+04  0.7818608E-02  0.9110472E-01
         -1   -1    0    0    0  501 -0.00000000000E+00  0.00000000000E+00  0.16316716020E+03  0.16316716020E+03  0.00000000000E+00 0.  1.
          1   -1    0    0  501    0  0.00000000000E+00 -0.00000000000E+00 -0.22163695054E+04  0.22163695054E+04  0.00000000000E+00 0. -1.
         23    2    1    2    0    0  0.41831740508E+03  0.19925811242E+03 -0.17800974228E+04  0.18416895262E+04  0.91543591898E+02 0.  0.
         11    1    3    3    0    0  0.49727460327E+02  0.60331805397E+02 -0.31627133054E+03  0.32579180710E+03  0.00000000000E+00 0. -1.
        -11    1    3    3    0    0  0.36858994475E+03  0.13892630703E+03 -0.14638260923E+04  0.15158977191E+04  0.00000000000E+00 0.  1.
         22    1    1    2    0    0 -0.41831740508E+03 -0.19925811242E+03 -0.27310492232E+03  0.53784713940E+03  0.00000000000E+00 0.  1.
<mgrwt>
<rscale>  0 0.12027281E+04</rscale>
<asrwt>0</asrwt>
<pdfrwt beam="1">  1        1 0.34097990E+00 0.12027281E+04</pdfrwt>
<pdfrwt beam="2">  1       -1 0.25102642E-01 0.12027281E+04</pdfrwt>
<totfact> 0.29325013E+01</totfact>
</mgrwt>
</event>
<event>
 6    1  0.9988873E-007  0.1902907E+04  0.7818608E-02  0.8653411E-01
          1   -1    0    0  501    0  0.00000000000E+00  0.00000000000E+00  0.64438392181E+03  0.64438392181E+03  0.00000000000E+00 0. -1.
         -1   -1    0    0    0  501 -0.00000000000E+00 -0.00000000000E+00 -0.14048510149E+04  0.14048510149E+04  0.00000000000E+00 0.  1.
         23    2    1    2    0    0  0.53600710417E+03  0.74236583836E+03 -0.11180861253E+03  0.92710817108E+03  0.92831790691E+02 0.  0.
         13    1    3    3    0    0  0.18660601733E+03  0.24911921433E+03 -0.82161566492E+02  0.32192034987E+03  0.00000000000E+00 0.  1.
        -13    1    3    3    0    0  0.34940108684E+03  0.49324662404E+03 -0.29647046041E+02  0.60518782122E+03  0.00000000000E+00 0. -1.
         22    1    1    2    0    0 -0.53600710417E+03 -0.74236583836E+03 -0.64865848052E+03  0.11221267656E+04  0.00000000000E+00 0.  1.
<mgrwt>
<rscale>  0 0.19029066E+04</rscale>
<asrwt>0</asrwt>
<pdfrwt beam="1">  1        1 0.99135989E-01 0.19029066E+04</pdfrwt>
<pdfrwt beam="2">  1       -1 0.21613092E+00 0.19029066E+04</pdfrwt>
<totfact> 0.33712425E+00</totfact>
</mgrwt>
</event>
<event>
 6    1  0.9988873E-007  0.2017718E+04  0.7818608E-02  0.8598382E-01
          2   -1    0    0  501    0  0.00000000000E+00  0.00000000000E+00  0.18371660452E+04  0.18371660452E+04  0.00000000000E+00 0. -1.
         -2   -1    0    0    0  501 -0.00000000000E+00 -0.00000000000E+00 -0.55400339061E+03  0.55400339061E+03  0.00000000000E+00 0.  1.
         23    2    1    2    0    0  0.83690080544E+03  0.17219010628E+03  0.11601321900E+02  0.85920317847E+03  0.89683445385E+02 0.  0.
         13    1    3    3    0    0  0.55696833070E+03  0.74115991020E+02  0.23253083893E+02  0.56235896671E+03  0.00000000000E+00 0.  1.
        -13    1    3    3    0    0  0.27993247473E+03  0.98074115261E+02 -0.11651761993E+02  0.29684421175E+03  0.00000000000E+00 0. -1.
         22    1    1    2    0    0 -0.83690080544E+03 -0.17219010628E+03  0.12715613327E+04  0.15319662574E+04  0.00000000000E+00 0. -1.
<mgrwt>
<rscale>  0 0.20177177E+04</rscale>
<asrwt>0</asrwt>
<pdfrwt beam="1">  1        2 0.28264093E+00 0.20177177E+04</pdfrwt>
<pdfrwt beam="2">  1       -2 0.85231291E-01 0.20177177E+04</pdfrwt>
<totfact> 0.91406201E+00</totfact>
</mgrwt>
</event>
<event>
 6    1  0.9988873E-007  0.3289253E+04  0.7818608E-02  0.8165635E-01
         -2   -1    0    0    0  501 -0.00000000000E+00  0.00000000000E+00  0.11588525584E+04  0.11588525584E+04  0.00000000000E+00 0.  1.
          2   -1    0    0  501    0  0.00000000000E+00 -0.00000000000E+00 -0.23340301277E+04  0.23340301277E+04  0.00000000000E+00 0. -1.
         23    2    1    2    0    0  0.14607973566E+04  0.69249617781E+03 -0.27437098064E+03  0.16422254018E+04  0.90249442734E+02 0.  0.
         11    1    3    3    0    0  0.11788922302E+04  0.52735504666E+03 -0.19616242763E+03  0.13062809551E+04  0.00000000000E+00 0. -1.
        -11    1    3    3    0    0  0.28190512641E+03  0.16514113115E+03 -0.78208553005E+02  0.33594444668E+03  0.00000000000E+00 0.  1.
         22    1    1    2    0    0 -0.14607973566E+04 -0.69249617781E+03 -0.90080658868E+03  0.18506572842E+04  0.00000000000E+00 0.  1.
<mgrwt>
<rscale>  0 0.32892533E+04</rscale>
<asrwt>0</asrwt>
<pdfrwt beam="1">  1        2 0.35908155E+00 0.32892533E+04</pdfrwt>
<pdfrwt beam="2">  1       -2 0.17828501E+00 0.32892533E+04</pdfrwt>
<totfact> 0.67545764E-01</totfact>
</mgrwt>
</event>
<event>
 6    1  0.9988873E-007  0.3390978E+04  0.7818608E-02  0.8140124E-01
          2   -1    0    0  501    0  0.00000000000E+00  0.00000000000E+00  0.37746897708E+04  0.37746897708E+04  0.00000000000E+00 0. -1.
         -2   -1    0    0    0  501 -0.00000000000E+00 -0.00000000000E+00 -0.76156807898E+03  0.76156807898E+03  0.00000000000E+00 0.  1.
         23    2    1    2    0    0  0.19785390546E+02  0.15352670904E+04  0.54851193247E+03  0.16325123778E+04  0.82430716773E+02 0.  0.
         11    1    3    3    0    0  0.77698909989E+01  0.55223459868E+03  0.15552272504E+03  0.57376889179E+03  0.00000000000E+00 0. -1.
        -11    1    3    3    0    0  0.12015499547E+02  0.98303249168E+03  0.39298920744E+03  0.10587434860E+04  0.00000000000E+00 0.  1.
         22    1    1    2    0    0 -0.19785390546E+02 -0.15352670904E+04  0.24646097593E+04  0.29037454720E+04  0.00000000000E+00 0. -1.
<mgrwt>
<rscale>  0 0.33909782E+04</rscale>
<asrwt>0</asrwt>
<pdfrwt beam="1">  1        2 0.58072149E+00 0.33909782E+04</pdfrwt>
<pdfrwt beam="2">  1       -2 0.11716432E+00 0.33909782E+04</pdfrwt>
<totfact> 0.23926083E-01</totfact>
</mgrwt>
</event>
<event>
 6    1  0.9988873E-007  0.1282934E+04  0.7818608E-02  0.9043209E-01
         -2   -1    0    0    0  501 -0.00000000000E+00  0.00000000000E+00  0.44656513354E+03  0.44656513354E+03  0.00000000000E+00 0.  1.
          2   -1    0    0  501    0  0.00000000000E+00 -0.00000000000E+00 -0.92143297802E+03  0.92143297802E+03  0.00000000000E+00 0. -1.
         23    2    1    2    0    0 -0.18010023735E+03  0.60514781494E+03 -0.13922411484E+03  0.65294798278E+03  0.91201648238E+02 0.  0.
         11    1    3    3    0    0 -0.13644643447E+03  0.34101346700E+03 -0.11123146980E+03  0.38377109588E+03  0.00000000000E+00 0.  1.
        -11    1    3    3    0    0 -0.43653802883E+02  0.26413434794E+03 -0.27992645043E+02  0.26917688690E+03  0.00000000000E+00 0. -1.
         22    1    1    2    0    0  0.18010023735E+03 -0.60514781494E+03 -0.33564372964E+03  0.71505012878E+03  0.00000000000E+00 0.  1.
<mgrwt>
<rscale>  0 0.12829339E+04</rscale>
<asrwt>0</asrwt>
<pdfrwt beam="1">  1        2 0.14175892E+00 0.12829339E+04</pdfrwt>
<pdfrwt beam="2">  1       -2 0.68702328E-01 0.12829339E+04</pdfrwt>
<totfact> 0.53912127E+01</totfact>
</mgrwt>
</event>
<event>
 6    1  0.9988873E-007  0.2115520E+04  0.7818608E-02  0.8554437E-01
         -2   -1    0    0    0  501 -0.00000000000E+00  0.00000000000E+00  0.50184877167E+03  0.50184877167E+03  0.00000000000E+00 0.  1.
          2   -1    0    0  501    0  0.00000000000E+00 -0.00000000000E+00 -0.22294686115E+04  0.22294686115E+04  0.00000000000E+00 0. -1.
         23    2    1    2    0    0 -0.70611673498E+03  0.27844880396E+03  0.82484370095E+02  0.76851025290E+03  0.87577152579E+02 0.  0.
         11    1    3    3    0    0 -0.32373033697E+03  0.16830823011E+03  0.17336344938E+02  0.36528008466E+03  0.00000000000E+00 0.  1.
        -11    1    3    3    0    0 -0.38238639801E+03  0.11014057385E+03  0.65148025157E+02  0.40323016824E+03  0.00000000000E+00 0. -1.
         22    1    1    2    0    0  0.70611673498E+03 -0.27844880396E+03 -0.18101042099E+04  0.19628071303E+04  0.00000000000E+00 0. -1.
<mgrwt>
<rscale>  0 0.21155199E+04</rscale>
<asrwt>0</asrwt>
<pdfrwt beam="1">  1        2 0.34299517E+00 0.21155199E+04</pdfrwt>
<pdfrwt beam="2">  1       -2 0.77207505E-01 0.21155199E+04</pdfrwt>
<totfact> 0.68471679E+00</totfact>
</mgrwt>
</event>
<event>
 6    1  0.9988873E-007  0.2755193E+04  0.7818608E-02  0.8317316E-01
          2   -1    0    0  501    0  0.00000000000E+00  0.00000000000E+00  0.19495805450E+04  0.19495805450E+04  0.00000000000E+00 0. -1.
         -2   -1    0    0    0  501 -0.00000000000E+00 -0.00000000000E+00 -0.97342559770E+03  0.97342559770E+03  0.00000000000E+00 0.  1.
         23    2    1    2    0    0 -0.65650917924E+02 -0.97371647155E+03 -0.54065855493E+03  0.11193551203E+04  0.90611270555E+02 0.  0.
         11    1    3    3    0    0  0.55205329703E+01 -0.54110683726E+03 -0.31753116265E+03  0.62741782320E+03  0.00000000000E+00 0.  1.
        -11    1    3    3    0    0 -0.71171450894E+02 -0.43260963430E+03 -0.22312739229E+03  0.49193729712E+03  0.00000000000E+00 0. -1.
         22    1    1    2    0    0  0.65650917924E+02  0.97371647155E+03  0.15168135022E+04  0.18036510224E+04  0.00000000000E+00 0. -1.
<mgrwt>
<rscale>  0 0.27551926E+04</rscale>
<asrwt>0</asrwt>
<pdfrwt beam="1">  1        2 0.29993547E+00 0.27551926E+04</pdfrwt>
<pdfrwt beam="2">  1       -2 0.14975779E+00 0.27551926E+04</pdfrwt>
<totfact> 0.18730758E+00</totfact>
</mgrwt>
</event>
<event>
 6    1  0.9988873E-007  0.1577807E+04  0.7818608E-02  0.8834299E-01
         -2   -1    0    0    0  501 -0.00000000000E+00  0.00000000000E+00  0.36478412549E+03  0.36478412549E+03  0.00000000000E+00 0.  1.
          2   -1    0    0  501    0  0.00000000000E+00 -0.00000000000E+00 -0.17061294877E+04  0.17061294877E+04  0.00000000000E+00 0. -1.
         23    2    1    2    0    0 -0.41354450072E+03  0.22773947590E+03 -0.14981413379E+04  0.15734507493E+04  0.91844810481E+02 0.  0.
         11    1    3    3    0    0 -0.29120165164E+03  0.14365000842E+03 -0.11503930059E+04  0.11953400331E+04  0.00000000000E+00 0.  1.
        -11    1    3    3    0    0 -0.12234284908E+03  0.84089467478E+02 -0.34774833201E+03  0.37811071616E+03  0.00000000000E+00 0. -1.
         22    1    1    2    0    0  0.41354450072E+03 -0.22773947590E+03  0.15679597568E+03  0.49746286389E+03  0.00000000000E+00 0.  1.
<mgrwt>
<rscale>  0 0.15778073E+04</rscale>
<asrwt>0</asrwt>
<pdfrwt beam="1">  1        2 0.26248147E+00 0.15778073E+04</pdfrwt>
<pdfrwt beam="2">  1       -2 0.56120633E-01 0.15778073E+04</pdfrwt>
<totfact> 0.27857130E+01</totfact>
</mgrwt>
</event>
<event>
 6    1  0.9988873E-007  0.2506000E+04  0.7818608E-02  0.8400851E-01
          1   -1    0    0  501    0  0.00000000000E+00  0.00000000000E+00  0.18358099596E+04  0.18358099596E+04  0.00000000000E+00 0. -1.
         -1   -1    0    0    0  501 -0.00000000000E+00 -0.00000000000E+00 -0.85521310184E+03  0.85521310184E+03  0.00000000000E+00 0.  1.
         23    2    1    2    0    0  0.62649206313E+03 -0.10654383044E+04  0.70076308969E+03  0.14237590702E+04  0.91487139107E+02 0.  0.
         13    1    3    3    0    0  0.75421897219E+02 -0.78768456251E+02  0.68583287508E+02  0.12882779050E+03  0.00000000000E+00 0.  1.
        -13    1    3    3    0    0  0.55107016591E+03 -0.98666984812E+03  0.63217980218E+03  0.12949312797E+04  0.00000000000E+00 0. -1.
         22    1    1    2    0    0 -0.62649206313E+03  0.10654383044E+04  0.27983376803E+03  0.12672639912E+04  0.00000000000E+00 0. -1.
<mgrwt>
<rscale>  0 0.25059998E+04</rscale>
<asrwt>0</asrwt>
<pdfrwt beam="1">  1        1 0.28243230E+00 0.25059998E+04</pdfrwt>
<pdfrwt beam="2">  1       -1 0.13157125E+00 0.25059998E+04</pdfrwt>
<totfact> 0.16824013E+00</totfact>
</mgrwt>
</event>
<event>
 6    1  0.9988873E-007  0.2617329E+04  0.7818608E-02  0.8362339E-01
          1   -1    0    0  501    0  0.00000000000E+00  0.00000000000E+00  0.14181543789E+04  0.14181543789E+04  0.00000000000E+00 0. -1.
         -1   -1    0    0    0  501 -0.00000000000E+00 -0.00000000000E+00 -0.12076276054E+04  0.12076276054E+04  0.00000000000E+00 0.  1.
         23    2    1    2    0    0  0.10315167625E+04  0.89598630531E+02 -0.69482967619E+03  0.12503820255E+04  0.92801858141E+02 0.  0.
         13    1    3    3    0    0  0.46741314717E+03  0.82179147208E+02 -0.29282242077E+03  0.55764991930E+03  0.00000000000E+00 0.  1.
        -13    1    3    3    0    0  0.56410361528E+03  0.74194833225E+01 -0.40200725541E+03  0.69273210617E+03  0.00000000000E+00 0. -1.
         22    1    1    2    0    0 -0.10315167625E+04 -0.89598630531E+02  0.90535644967E+03  0.13753999588E+04  0.00000000000E+00 0.  1.
<mgrwt>
<rscale>  0 0.26173287E+04</rscale>
<asrwt>0</asrwt>
<pdfrwt beam="1">  1        1 0.21817760E+00 0.26173287E+04</pdfrwt>
<pdfrwt beam="2">  1       -1 0.18578886E+00 0.26173287E+04</pdfrwt>
<totfact> 0.12415182E+00</totfact>
</mgrwt>
</event>
<event>
 6    1  0.9988873E-007  0.2131458E+03  0.7818608E-02  0.1139099E+00
         -2   -1    0    0    0  501 -0.00000000000E+00  0.00000000000E+00  0.78009989961E+02  0.78009989961E+02  0.00000000000E+00 0.  1.
          2   -1    0    0  501    0  0.00000000000E+00 -0.00000000000E+00 -0.14559394753E+03  0.14559394753E+03  0.00000000000E+00 0. -1.
         23    2    1    2    0    0 -0.50577227825E+01  0.84872677954E+02 -0.54383224566E+02  0.13756202111E+03  0.93470971510E+02 0.  0.
         13    1    3    3    0    0 -0.25911763318E+02  0.93326588595E+02 -0.24058372263E+02  0.99800184834E+02  0.00000000000E+00 0.  1.
        -13    1    3    3    0    0  0.20854040535E+02 -0.84539106409E+01 -0.30324852303E+02  0.37761836277E+02  0.00000000000E+00 0. -1.
         22    1    1    2    0    0  0.50577227825E+01 -0.84872677954E+02 -0.13200733005E+02  0.86041916382E+02  0.00000000000E+00 0.  1.
<mgrwt>
<rscale>  0 0.21314579E+03</rscale>
<asrwt>0</asrwt>
<pdfrwt beam="1">  1        2 0.22399069E-01 0.21314579E+03</pdfrwt>
<pdfrwt beam="2">  1       -2 0.12001537E-01 0.21314579E+03</pdfrwt>
<totfact> 0.11711697E+04</totfact>
</mgrwt>
</event>
<event>
 6    1  0.9988873E-007  0.2441316E+04  0.7818608E-02  0.8424195E-01
         -2   -1    0    0    0  501 -0.00000000000E+00  0.00000000000E+00  0.68613306394E+03  0.68613306394E+03  0.00000000000E+00 0.  1.
          2   -1    0    0  501    0  0.00000000000E+00 -0.00000000000E+00 -0.21715995509E+04  0.21715995509E+04  0.00000000000E+00 0. -1.
         23    2    1    2    0    0 -0.69830989501E+03  0.53412747998E+03 -0.17321647394E+04  0.19446121945E+04  0.90515346949E+02 0.  0.
         11    1    3    3    0    0 -0.35899656208E+03  0.30758416018E+03 -0.10101736890E+04  0.11153194292E+04  0.00000000000E+00 0. -1.
        -11    1    3    3    0    0 -0.33931333293E+03  0.22654331980E+03 -0.72199105039E+03  0.82929276525E+03  0.00000000000E+00 0.  1.
         22    1    1    2    0    0  0.69830989501E+03 -0.53412747998E+03  0.24669825246E+03  0.91312042037E+03  0.00000000000E+00 0.  1.
<mgrwt>
<rscale>  0 0.24413162E+04</rscale>
<asrwt>0</asrwt>
<pdfrwt beam="1">  1        2 0.33409224E+00 0.24413162E+04</pdfrwt>
<pdfrwt beam="2">  1       -2 0.10555893E+00 0.24413162E+04</pdfrwt>
<totfact> 0.34840704E+00</totfact>
</mgrwt>
</event>
<event>
 6    1  0.9988873E-007  0.2197975E+04  0.7818608E-02  0.8519272E-01
          2   -1    0    0  501    0  0.00000000000E+00  0.00000000000E+00  0.11256403235E+04  0.11256403235E+04  0.00000000000E+00 0. -1.
         -2   -1    0    0    0  501 -0.00000000000E+00 -0.00000000000E+00 -0.10729655552E+04  0.10729655552E+04  0.00000000000E+00 0.  1.
         23    2    1    2    0    0  0.40062337401E+03 -0.79864332676E+03  0.66334906144E+03  0.11163612929E+04  0.88883675143E+02 0.  0.
         13    1    3    3    0    0  0.32210832160E+02 -0.39757490111E+02  0.18023158114E+02  0.54249700061E+02  0.00000000000E+00 0. -1.
        -13    1    3    3    0    0  0.36841254185E+03 -0.75888583665E+03  0.64532590332E+03  0.10621115928E+04  0.00000000000E+00 0.  1.
         22    1    1    2    0    0 -0.40062337401E+03  0.79864332676E+03 -0.61067429315E+03  0.10822445858E+04  0.00000000000E+00 0.  1.
<mgrwt>
<rscale>  0 0.21979748E+04</rscale>
<asrwt>0</asrwt>
<pdfrwt beam="1">  1        2 0.17317543E+00 0.21979748E+04</pdfrwt>
<pdfrwt beam="2">  1       -2 0.16507162E+00 0.21979748E+04</pdfrwt>
<totfact> 0.44411975E+00</totfact>
</mgrwt>
</event>
<event>
 6    1  0.9988873E-007  0.1998927E+04  0.7818608E-02  0.8607122E-01
          2   -1    0    0  501    0  0.00000000000E+00  0.00000000000E+00  0.21083073122E+04  0.21083073122E+04  0.00000000000E+00 0. -1.
         -2   -1    0    0    0  501 -0.00000000000E+00 -0.00000000000E+00 -0.47380553761E+03  0.47380553761E+03  0.00000000000E+00 0.  1.
         23    2    1    2    0    0  0.62992999652E+02 -0.93295740052E+03  0.37062785301E+03  0.10099312703E+04  0.90656142541E+02 0.  0.
         13    1    3    3    0    0 -0.68496500530E+01 -0.42759940848E+03  0.19886858318E+03  0.47163215032E+03  0.00000000000E+00 0. -1.
        -13    1    3    3    0    0  0.69842649705E+02 -0.50535799204E+03  0.17175926983E+03  0.53829912001E+03  0.00000000000E+00 0.  1.
         22    1    1    2    0    0 -0.62992999652E+02  0.93295740052E+03  0.12638739216E+04  0.15721815795E+04  0.00000000000E+00 0. -1.
<mgrwt>
<rscale>  0 0.19989274E+04</rscale>
<asrwt>0</asrwt>
<pdfrwt beam="1">  1        2 0.32435497E+00 0.19989274E+04</pdfrwt>
<pdfrwt beam="2">  1       -2 0.72893161E-01 0.19989274E+04</pdfrwt>
<totfact> 0.91858821E+00</totfact>
</mgrwt>
</event>
<event>
 6    1  0.9988873E-007  0.1380970E+04  0.7818608E-02  0.8967710E-01
         -2   -1    0    0    0  501 -0.00000000000E+00  0.00000000000E+00  0.66994686769E+03  0.66994686769E+03  0.00000000000E+00 0.  1.
          2   -1    0    0  501    0  0.00000000000E+00 -0.00000000000E+00 -0.71165309511E+03  0.71165309511E+03  0.00000000000E+00 0. -1.
         23    2    1    2    0    0  0.34284115357E+03  0.10766379742E+03 -0.60691714261E+03  0.71182766679E+03  0.96013849816E+02 0.  0.
         13    1    3    3    0    0  0.13371001945E+03  0.91420746898E+02 -0.27657630487E+03  0.32051610674E+03  0.00000000000E+00 0.  1.
        -13    1    3    3    0    0  0.20913113413E+03  0.16243050526E+02 -0.33034083774E+03  0.39131156005E+03  0.00000000000E+00 0. -1.
         22    1    1    2    0    0 -0.34284115357E+03 -0.10766379742E+03  0.56521091518E+03  0.66977229601E+03  0.00000000000E+00 0.  1.
<mgrwt>
<rscale>  0 0.13809703E+04</rscale>
<asrwt>0</asrwt>
<pdfrwt beam="1">  1        2 0.10948509E+00 0.13809703E+04</pdfrwt>
<pdfrwt beam="2">  1       -2 0.10306875E+00 0.13809703E+04</pdfrwt>
<totfact> 0.30058702E+01</totfact>
</mgrwt>
</event>
<event>
 6    1  0.9988873E-007  0.1372549E+04  0.7818608E-02  0.8973932E-01
          1   -1    0    0  501    0  0.00000000000E+00  0.00000000000E+00  0.13313082412E+04  0.13313082412E+04  0.00000000000E+00 0. -1.
         -1   -1    0    0    0  501 -0.00000000000E+00 -0.00000000000E+00 -0.35376667693E+03  0.35376667693E+03  0.00000000000E+00 0.  1.
         23    2    1    2    0    0  0.45222560323E+03 -0.31188872003E+03 -0.76770106400E+01  0.55705088903E+03  0.92001014008E+02 0.  0.
         11    1    3    3    0    0  0.18871487812E+03 -0.17361635140E+03 -0.32265909214E+02  0.25845121705E+03  0.00000000000E+00 0. -1.
        -11    1    3    3    0    0  0.26351072510E+03 -0.13827236864E+03  0.24588898574E+02  0.29859967198E+03  0.00000000000E+00 0.  1.
         22    1    1    2    0    0 -0.45222560323E+03  0.31188872003E+03  0.98521857491E+03  0.11280240291E+04  0.00000000000E+00 0. -1.
<mgrwt>
<rscale>  0 0.13725487E+04</rscale>
<asrwt>0</asrwt>
<pdfrwt beam="1">  1        1 0.20481665E+00 0.13725487E+04</pdfrwt>
<pdfrwt beam="2">  1       -1 0.54425643E-01 0.13725487E+04</pdfrwt>
<totfact> 0.28624812E+01</totfact>
</mgrwt>
</event>
<event>
 6    1  0.9988873E-007  0.3248575E+04  0.7818608E-02  0.8176105E-01
         -1   -1    0    0    0  501 -0.00000000000E+00  0.00000000000E+00  0.91260433960E+03  0.91260433960E+03  0.00000000000E+00 0.  1.
          1   -1    0    0  501    0  0.00000000000E+00 -0.00000000000E+00 -0.28909683563E+04  0.28909683563E+04  0.00000000000E+00 0. -1.
         23    2    1    2    0    0  0.83943913164E+03 -0.19543408807E+03  0.62028604216E+03  0.10657204963E+04  0.90293209068E+02 0.  0.
         11    1    3    3    0    0  0.40034547316E+03 -0.60136494447E+02  0.32939021905E+03  0.52191073207E+03  0.00000000000E+00 0. -1.
        -11    1    3    3    0    0  0.43909365848E+03 -0.13529759362E+03  0.29089582311E+03  0.54380976422E+03  0.00000000000E+00 0.  1.
         22    1    1    2    0    0 -0.83943913164E+03  0.19543408807E+03 -0.25986500588E+04  0.27378521996E+04  0.00000000000E+00 0. -1.
<mgrwt>
<rscale>  0 0.32485752E+04</rscale>
<asrwt>0</asrwt>
<pdfrwt beam="1">  1        1 0.44476436E+00 0.32485752E+04</pdfrwt>
<pdfrwt beam="2">  1       -1 0.14040067E+00 0.32485752E+04</pdfrwt>
<totfact> 0.24841833E-01</totfact>
</mgrwt>
</event>
<event>
 6    1  0.9988873E-007  0.2083950E+04  0.7818608E-02  0.8568347E-01
         -1   -1    0    0    0  501 -0.00000000000E+00  0.00000000000E+00  0.17539413743E+04  0.17539413743E+04  0.00000000000E+00 0.  1.
          1   -1    0    0  501    0  0.00000000000E+00 -0.00000000000E+00 -0.61901251485E+03  0.61901251485E+03  0.00000000000E+00 0. -1.
         23    2    1    2    0    0  0.97586144277E+03 -0.15582548708E+03  0.20041206029E+03  0.10128403697E+04  0.95359754003E+02 0.  0.
         13    1    3    3    0    0  0.94147558917E+03 -0.14323776956E+03  0.17496496409E+03  0.96824897742E+03  0.00000000000E+00 0.  1.
        -13    1    3    3    0    0  0.34385853600E+02 -0.12587717525E+02  0.25447096196E+02  0.44591392276E+02  0.00000000000E+00 0. -1.
         22    1    1    2    0    0 -0.97586144277E+03  0.15582548708E+03  0.93451679918E+03  0.13601135195E+04  0.00000000000E+00 0.  1.
<mgrwt>
<rscale>  0 0.20839498E+04</rscale>
<asrwt>0</asrwt>
<pdfrwt beam="1">  1        1 0.95232696E-01 0.20839498E+04</pdfrwt>
<pdfrwt beam="2">  1       -1 0.26983713E+00 0.20839498E+04</pdfrwt>
<totfact> 0.15614030E+00</totfact>
</mgrwt>
</event>
<event>
 6    1  0.9988873E-007  0.9503709E+03  0.7818608E-02  0.9364717E-01
         -2   -1    0    0    0  501 -0.00000000000E+00  0.00000000000E+00  0.42783323310E+03  0.42783323310E+03  0.00000000000E+00 0.  1.
          2   -1    0    0  501    0  0.00000000000E+00 -0.00000000000E+00 -0.52777861840E+03  0.52777861840E+03  0.00000000000E+00 0. -1.
         23    2    1    2    0    0  0.12631949171E+03 -0.98822598874E+02  0.39458296931E+03  0.43572646649E+03  0.91865738400E+02 0.  0.
         13    1    3    3    0    0  0.81846128301E+02 -0.56607712724E+02  0.12773641202E+03  0.16192533098E+03  0.00000000000E+00 0. -1.
        -13    1    3    3    0    0  0.44473363408E+02 -0.42214886150E+02  0.26684655729E+03  0.27380113550E+03  0.00000000000E+00 0.  1.
         22    1    1    2    0    0 -0.12631949171E+03  0.98822598874E+02 -0.49452835462E+03  0.51988538502E+03  0.00000000000E+00 0. -1.
<mgrwt>
<rscale>  0 0.95037094E+03</rscale>
<asrwt>0</asrwt>
<pdfrwt beam="1">  1        2 0.81196710E-01 0.95037094E+03</pdfrwt>
<pdfrwt beam="2">  1       -2 0.65820498E-01 0.95037094E+03</pdfrwt>
<totfact> 0.12302862E+02</totfact>
</mgrwt>
</event>
<event>
 6    1  0.9988873E-007  0.1351574E+04  0.7818608E-02  0.8989638E-01
          2   -1    0    0  501    0  0.00000000000E+00  0.00000000000E+00  0.87309715385E+03  0.87309715385E+03  0.00000000000E+00 0. -1.
         -2   -1    0    0    0  501 -0.00000000000E+00 -0.00000000000E+00 -0.52306654395E+03  0.52306654395E+03  0.00000000000E+00 0.  1.
         23    2    1    2    0    0  0.48935013927E+03  0.45674828237E+03  0.23926199241E+03  0.71767107524E+03  0.98604862846E+02 0.  0.
         13    1    3    3    0    0  0.34591582490E+03  0.27741249342E+03  0.12235351709E+03  0.45998460036E+03  0.00000000000E+00 0.  1.
        -13    1    3    3    0    0  0.14343431436E+03  0.17933578895E+03  0.11690847532E+03  0.25768647488E+03  0.00000000000E+00 0. -1.
         22    1    1    2    0    0 -0.48935013927E+03 -0.45674828237E+03  0.11076861749E+03  0.67849262256E+03  0.00000000000E+00 0. -1.
<mgrwt>
<rscale>  0 0.13515738E+04</rscale>
<asrwt>0</asrwt>
<pdfrwt beam="1">  1        2 0.13432264E+00 0.13515738E+04</pdfrwt>
<pdfrwt beam="2">  1       -2 0.80471776E-01 0.13515738E+04</pdfrwt>
<totfact> 0.40767650E+01</totfact>
</mgrwt>
</event>
<event>
 6    1  0.9988873E-007  0.3242712E+03  0.7818608E-02  0.1073700E+00
         -3   -1    0    0    0  501 -0.00000000000E+00  0.00000000000E+00  0.24601181369E+03  0.24601181369E+03  0.00000000000E+00 0.  1.
          3   -1    0    0  501    0  0.00000000000E+00 -0.00000000000E+00 -0.10685645567E+03  0.10685645567E+03  0.00000000000E+00 0. -1.
         23    2    1    2    0    0 -0.12036654731E+02 -0.14992385282E+03  0.50719577978E+02  0.17838924514E+03  0.81413785610E+02 0.  0.
         13    1    3    3    0    0 -0.46497783473E+02 -0.89133251912E+02  0.22450092624E+02  0.10300867499E+03  0.00000000000E+00 0. -1.
        -13    1    3    3    0    0  0.34461128742E+02 -0.60790600911E+02  0.28269485354E+02  0.75380570145E+02  0.00000000000E+00 0.  1.
         22    1    1    2    0    0  0.12036654731E+02  0.14992385282E+03  0.88435780049E+02  0.17447902423E+03  0.00000000000E+00 0.  1.
<mgrwt>
<rscale>  0 0.32427119E+03</rscale>
<asrwt>0</asrwt>
<pdfrwt beam="1">  1        3 0.16439455E-01 0.32427119E+03</pdfrwt>
<pdfrwt beam="2">  1       -3 0.37847971E-01 0.32427119E+03</pdfrwt>
<totfact> 0.56437061E+02</totfact>
</mgrwt>
</event>
<event>
 6    1  0.9988873E-007  0.1742450E+04  0.7818608E-02  0.8737517E-01
          1   -1    0    0  501    0  0.00000000000E+00  0.00000000000E+00  0.17647683807E+04  0.17647683807E+04  0.00000000000E+00 0. -1.
         -1   -1    0    0    0  501 -0.00000000000E+00 -0.00000000000E+00 -0.43010359786E+03  0.43010359786E+03  0.00000000000E+00 0.  1.
         23    2    1    2    0    0  0.80294177966E+02  0.76789483853E+03  0.11711232665E+04  0.14056600516E+04  0.90779057498E+02 0.  0.
         13    1    3    3    0    0  0.82224626861E+02  0.61360255085E+03  0.99098197278E+03  0.11684666234E+04  0.00000000000E+00 0. -1.
        -13    1    3    3    0    0 -0.19304488948E+01  0.15429228768E+03  0.18014129372E+03  0.23719342819E+03  0.00000000000E+00 0.  1.
         22    1    1    2    0    0 -0.80294177966E+02 -0.76789483853E+03  0.16354151632E+03  0.78921192694E+03  0.00000000000E+00 0.  1.
<mgrwt>
<rscale>  0 0.17424503E+04</rscale>
<asrwt>0</asrwt>
<pdfrwt beam="1">  1        1 0.27150282E+00 0.17424503E+04</pdfrwt>
<pdfrwt beam="2">  1       -1 0.66169785E-01 0.17424503E+04</pdfrwt>
<totfact> 0.94487313E+00</totfact>
</mgrwt>
</event>
<event>
 6    1  0.9988873E-007  0.3245029E+04  0.7818608E-02  0.8177025E-01
         -2   -1    0    0    0  501 -0.00000000000E+00  0.00000000000E+00  0.22830916420E+04  0.22830916420E+04  0.00000000000E+00 0.  1.
          2   -1    0    0  501    0  0.00000000000E+00 -0.00000000000E+00 -0.11530652355E+04  0.11530652355E+04  0.00000000000E+00 0. -1.
         23    2    1    2    0    0  0.11973531990E+04 -0.89667339501E+03 -0.96507567118E+02  0.15017154985E+04  0.90320913593E+02 0.  0.
         13    1    3    3    0    0  0.84277337290E+03 -0.57955701952E+03 -0.73773002165E+02  0.10254734286E+04  0.00000000000E+00 0. -1.
        -13    1    3    3    0    0  0.35457982611E+03 -0.31711637549E+03 -0.22734564953E+02  0.47624206989E+03  0.00000000000E+00 0.  1.
         22    1    1    2    0    0 -0.11973531990E+04  0.89667339501E+03  0.12265339735E+04  0.19344413790E+04  0.00000000000E+00 0.  1.
<mgrwt>
<rscale>  0 0.32450292E+04</rscale>
<asrwt>0</asrwt>
<pdfrwt beam="1">  1        2 0.17739465E+00 0.32450292E+04</pdfrwt>
<pdfrwt beam="2">  1       -2 0.35124487E+00 0.32450292E+04</pdfrwt>
<totfact> 0.25902381E-01</totfact>
</mgrwt>
</event>
<event>
 6    1  0.9988873E-007  0.8106208E+03  0.7818608E-02  0.9544770E-01
         -1   -1    0    0    0  501 -0.00000000000E+00  0.00000000000E+00  0.15642698786E+03  0.15642698786E+03  0.00000000000E+00 0.  1.
          1   -1    0    0  501    0  0.00000000000E+00 -0.00000000000E+00 -0.10501800504E+04  0.10501800504E+04  0.00000000000E+00 0. -1.
         23    2    1    2    0    0 -0.22347672355E+03  0.24884168878E+03 -0.77922072775E+03  0.85307954604E+03  0.93250937135E+02 0.  0.
         13    1    3    3    0    0 -0.16683153092E+03  0.20188906017E+03 -0.68618660343E+03  0.73446852012E+03  0.00000000000E+00 0. -1.
        -13    1    3    3    0    0 -0.56645192627E+02  0.46952628618E+02 -0.93034124321E+02  0.11861102592E+03  0.00000000000E+00 0.  1.
         22    1    1    2    0    0  0.22347672355E+03 -0.24884168878E+03 -0.11453233481E+03  0.35352749223E+03  0.00000000000E+00 0.  1.
<mgrwt>
<rscale>  0 0.81062075E+03</rscale>
<asrwt>0</asrwt>
<pdfrwt beam="1">  1        1 0.16156616E+00 0.81062075E+03</pdfrwt>
<pdfrwt beam="2">  1       -1 0.24065691E-01 0.81062075E+03</pdfrwt>
<totfact> 0.20885903E+02</totfact>
</mgrwt>
</event>
<event>
 6    1  0.9988873E-007  0.6377521E+03  0.7818608E-02  0.9830037E-01
         -1   -1    0    0    0  501 -0.00000000000E+00  0.00000000000E+00  0.60159515546E+02  0.60159515546E+02  0.00000000000E+00 0.  1.
          1   -1    0    0  501    0  0.00000000000E+00 -0.00000000000E+00 -0.16902052533E+04  0.16902052533E+04  0.00000000000E+00 0. -1.
         23    2    1    2    0    0 -0.70069946442E+02  0.27254595236E+03 -0.46985601924E+03  0.55653426308E+03  0.98866645674E+02 0.  0.
         13    1    3    3    0    0 -0.38309343938E+02  0.16870840420E+03 -0.37241749318E+03  0.41063964824E+03  0.00000000000E+00 0.  1.
        -13    1    3    3    0    0 -0.31760602504E+02  0.10383754816E+03 -0.97438526064E+02  0.14589461485E+03  0.00000000000E+00 0. -1.
         22    1    1    2    0    0  0.70069946442E+02 -0.27254595236E+03 -0.11601897185E+04  0.11938305058E+04  0.00000000000E+00 0. -1.
<mgrwt>
<rscale>  0 0.63775208E+03</rscale>
<asrwt>0</asrwt>
<pdfrwt beam="1">  1        1 0.26003159E+00 0.63775208E+03</pdfrwt>
<pdfrwt beam="2">  1       -1 0.92553095E-02 0.63775208E+03</pdfrwt>
<totfact> 0.35544359E+02</totfact>
</mgrwt>
</event>
<event>
 6    1  0.1030979E-006  0.2969724E+04  0.7818608E-02  0.8252429E-01
         -2   -1    0    0    0  501 -0.00000000000E+00  0.00000000000E+00  0.10505394894E+04  0.10505394894E+04  0.00000000000E+00 0.  1.
          2   -1    0    0  501    0  0.00000000000E+00 -0.00000000000E+00 -0.20987462155E+04  0.20987462155E+04  0.00000000000E+00 0. -1.
         23    2    1    2    0    0 -0.13957217299E+04 -0.49464332253E+02  0.58944545253E+01  0.13995385328E+04  0.90484764014E+02 0.  0.
         13    1    3    3    0    0 -0.85994569763E+03  0.58982826335E+01  0.28467119696E+02  0.86043696429E+03  0.00000000000E+00 0. -1.
        -13    1    3    3    0    0 -0.53577603230E+03 -0.55362614887E+02 -0.22572665170E+02  0.53910156847E+03  0.00000000000E+00 0.  1.
         22    1    1    2    0    0  0.13957217299E+04  0.49464332253E+02 -0.10541011805E+04  0.17497471721E+04  0.00000000000E+00 0. -1.
<mgrwt>
<rscale>  0 0.29697244E+04</rscale>
<asrwt>0</asrwt>
<pdfrwt beam="1">  1        2 0.32288403E+00 0.29697244E+04</pdfrwt>
<pdfrwt beam="2">  1       -2 0.16162146E+00 0.29697244E+04</pdfrwt>
<totfact> 0.12376729E+00</totfact>
</mgrwt>
</event>
<event>
 6    1  0.9988873E-007  0.1463182E+04  0.7818608E-02  0.8909312E-01
          2   -1    0    0  501    0  0.00000000000E+00  0.00000000000E+00  0.13833160186E+04  0.13833160186E+04  0.00000000000E+00 0. -1.
         -2   -1    0    0    0  501 -0.00000000000E+00 -0.00000000000E+00 -0.38691492522E+03  0.38691492522E+03  0.00000000000E+00 0.  1.
         23    2    1    2    0    0 -0.17192034890E+03  0.61116412947E+02  0.13538938562E+04  0.13688671465E+04  0.86468887825E+02 0.  0.
         13    1    3    3    0    0 -0.11497446356E+03  0.17102759219E+01  0.92791286768E+03  0.93501034343E+03  0.00000000000E+00 0. -1.
        -13    1    3    3    0    0 -0.56945885341E+02  0.59406137025E+02  0.42598098853E+03  0.43385680306E+03  0.00000000000E+00 0.  1.
         22    1    1    2    0    0  0.17192034890E+03 -0.61116412947E+02 -0.35749276285E+03  0.40136379731E+03  0.00000000000E+00 0.  1.
<mgrwt>
<rscale>  0 0.14631823E+04</rscale>
<asrwt>0</asrwt>
<pdfrwt beam="1">  1        2 0.21281785E+00 0.14631823E+04</pdfrwt>
<pdfrwt beam="2">  1       -2 0.59525374E-01 0.14631823E+04</pdfrwt>
<totfact> 0.37744505E+01</totfact>
</mgrwt>
</event>
<event>
 6    1  0.9988873E-007  0.1296914E+04  0.7818608E-02  0.9032016E-01
         -2   -1    0    0    0  501 -0.00000000000E+00  0.00000000000E+00  0.37308966278E+03  0.37308966278E+03  0.00000000000E+00 0.  1.
          2   -1    0    0  501    0  0.00000000000E+00 -0.00000000000E+00 -0.11270646149E+04  0.11270646149E+04  0.00000000000E+00 0. -1.
         23    2    1    2    0    0 -0.28382943404E+03 -0.35333701525E+03 -0.91003791062E+03  0.10208194875E+04  0.92180439386E+02 0.  0.
         13    1    3    3    0    0 -0.16515747160E+03 -0.25906864417E+03 -0.66766327090E+03  0.73496108477E+03  0.00000000000E+00 0. -1.
        -13    1    3    3    0    0 -0.11867196244E+03 -0.94268371083E+02 -0.24237463972E+03  0.28585840277E+03  0.00000000000E+00 0.  1.
         22    1    1    2    0    0  0.28382943404E+03  0.35333701525E+03  0.15606295854E+03  0.47933479010E+03  0.00000000000E+00 0.  1.
<mgrwt>
<rscale>  0 0.12969135E+04</rscale>
<asrwt>0</asrwt>
<pdfrwt beam="1">  1        2 0.17339456E+00 0.12969135E+04</pdfrwt>
<pdfrwt beam="2">  1       -2 0.57398410E-01 0.12969135E+04</pdfrwt>
<totfact> 0.58450255E+01</totfact>
</mgrwt>
</event>
<event>
 6    1  0.9988873E-007  0.3904936E+04  0.7818608E-02  0.8024003E-01
         -1   -1    0    0    0  501 -0.00000000000E+00  0.00000000000E+00  0.15520312596E+04  0.15520312596E+04  0.00000000000E+00 0.  1.
          1   -1    0    0  501    0  0.00000000000E+00 -0.00000000000E+00 -0.24562209223E+04  0.24562209223E+04  0.00000000000E+00 0. -1.
         23    2    1    2    0    0 -0.12914142909E+04 -0.91451670900E+03  0.72049646995E+03  0.17402802440E+04  0.73269931803E+02 0.  0.
         11    1    3    3    0    0 -0.63133404472E+03 -0.42625560830E+03  0.31115669071E+03  0.82285782842E+03  0.00000000000E+00 0. -1.
        -11    1    3    3    0    0 -0.66008024614E+03 -0.48826110070E+03  0.40933977923E+03  0.91742241561E+03  0.00000000000E+00 0.  1.
         22    1    1    2    0    0  0.12914142909E+04  0.91451670900E+03 -0.16246861326E+04  0.22679719379E+04  0.00000000000E+00 0. -1.
<mgrwt>
<rscale>  0 0.39049362E+04</rscale>
<asrwt>0</asrwt>
<pdfrwt beam="1">  1        1 0.37788014E+00 0.39049362E+04</pdfrwt>
<pdfrwt beam="2">  1       -1 0.23877404E+00 0.39049362E+04</pdfrwt>
<totfact> 0.94644816E-02</totfact>
</mgrwt>
</event>
<event>
 6    1  0.9988873E-007  0.2537897E+04  0.7818608E-02  0.8389608E-01
          1   -1    0    0  501    0  0.00000000000E+00  0.00000000000E+00  0.11314313520E+04  0.11314313520E+04  0.00000000000E+00 0. -1.
         -1   -1    0    0    0  501 -0.00000000000E+00 -0.00000000000E+00 -0.14231794965E+04  0.14231794965E+04  0.00000000000E+00 0.  1.
         23    2    1    2    0    0  0.24329635007E+03 -0.33767403764E+03  0.10588273072E+04  0.11413624909E+04  0.91521579472E+02 0.  0.
         11    1    3    3    0    0  0.12970261255E+03 -0.22062734626E+03  0.74408413585E+03  0.78686745697E+03  0.00000000000E+00 0.  1.
        -11    1    3    3    0    0  0.11359373752E+03 -0.11704669138E+03  0.31474317132E+03  0.35449503390E+03  0.00000000000E+00 0. -1.
         22    1    1    2    0    0 -0.24329635007E+03  0.33767403764E+03 -0.13505754517E+04  0.14132483576E+04  0.00000000000E+00 0.  1.
<mgrwt>
<rscale>  0 0.25378967E+04</rscale>
<asrwt>0</asrwt>
<pdfrwt beam="1">  1        1 0.17406636E+00 0.25378967E+04</pdfrwt>
<pdfrwt beam="2">  1       -1 0.21895069E+00 0.25378967E+04</pdfrwt>
<totfact> 0.11893367E+00</totfact>
</mgrwt>
</event>
<event>
 6    1  0.9988873E-007  0.2934699E+04  0.7818608E-02  0.8262628E-01
         -1   -1    0    0    0  501 -0.00000000000E+00  0.00000000000E+00  0.73585610231E+03  0.73585610231E+03  0.00000000000E+00 0.  1.
          1   -1    0    0  501    0  0.00000000000E+00 -0.00000000000E+00 -0.29259997404E+04  0.29259997404E+04  0.00000000000E+00 0. -1.
         23    2    1    2    0    0 -0.29684354058E+00 -0.12614371062E+03 -0.29185658681E+04  0.29225918377E+04  0.87200916031E+02 0.  0.
         11    1    3    3    0    0  0.89851829996E+01 -0.96842746782E+02 -0.12624737877E+04  0.12662145615E+04  0.00000000000E+00 0. -1.
        -11    1    3    3    0    0 -0.92820265401E+01 -0.29300963834E+02 -0.16560920804E+04  0.16563772763E+04  0.00000000000E+00 0.  1.
         22    1    1    2    0    0  0.29684354058E+00  0.12614371062E+03  0.72842223002E+03  0.73926400496E+03  0.00000000000E+00 0.  1.
<mgrwt>
<rscale>  0 0.29346991E+04</rscale>
<asrwt>0</asrwt>
<pdfrwt beam="1">  1        1 0.45015381E+00 0.29346991E+04</pdfrwt>
<pdfrwt beam="2">  1       -1 0.11320863E+00 0.29346991E+04</pdfrwt>
<totfact> 0.41239933E-01</totfact>
</mgrwt>
</event>
<event>
 6    1  0.9988873E-007  0.1540598E+04  0.7818608E-02  0.8857896E-01
         -2   -1    0    0    0  501 -0.00000000000E+00  0.00000000000E+00  0.29690281416E+03  0.29690281416E+03  0.00000000000E+00 0.  1.
          2   -1    0    0  501    0  0.00000000000E+00 -0.00000000000E+00 -0.19985010944E+04  0.19985010944E+04  0.00000000000E+00 0. -1.
         23    2    1    2    0    0 -0.76047218015E+03 -0.12411037719E+02 -0.10087756279E+04  0.12665816702E+04  0.90160352040E+02 0.  0.
         11    1    3    3    0    0 -0.52029135232E+03  0.28877021375E+02 -0.71846731228E+03  0.88754281726E+03  0.00000000000E+00 0. -1.
        -11    1    3    3    0    0 -0.24018082783E+03 -0.41288059095E+02 -0.29030831565E+03  0.37903885292E+03  0.00000000000E+00 0.  1.
         22    1    1    2    0    0  0.76047218015E+03  0.12411037719E+02 -0.69282265227E+03  0.10288222384E+04  0.00000000000E+00 0.  1.
<mgrwt>
<rscale>  0 0.15405981E+04</rscale>
<asrwt>0</asrwt>
<pdfrwt beam="1">  1        2 0.30746170E+00 0.15405981E+04</pdfrwt>
<pdfrwt beam="2">  1       -2 0.45677357E-01 0.15405981E+04</pdfrwt>
<totfact> 0.29314920E+01</totfact>
</mgrwt>
</event>
<event>
 6    1  0.9988873E-007  0.1240372E+04  0.7818608E-02  0.9078235E-01
         -2   -1    0    0    0  501 -0.00000000000E+00  0.00000000000E+00  0.44715399123E+03  0.44715399123E+03  0.00000000000E+00 0.  1.
          2   -1    0    0  501    0  0.00000000000E+00 -0.00000000000E+00 -0.86017476170E+03  0.86017476170E+03  0.00000000000E+00 0. -1.
         23    2    1    2    0    0 -0.48797845371E+03  0.30044442571E+03  0.32727075059E+02  0.58132533281E+03  0.92077450536E+02 0.  0.
         11    1    3    3    0    0 -0.86107239989E+02  0.97827283135E+02  0.54350095057E+01  0.13043838941E+03  0.00000000000E+00 0. -1.
        -11    1    3    3    0    0 -0.40187121372E+03  0.20261714258E+03  0.27292065553E+02  0.45088694340E+03  0.00000000000E+00 0.  1.
         22    1    1    2    0    0  0.48797845371E+03 -0.30044442571E+03 -0.44574784553E+03  0.72600342012E+03  0.00000000000E+00 0. -1.
<mgrwt>
<rscale>  0 0.12403718E+04</rscale>
<asrwt>0</asrwt>
<pdfrwt beam="1">  1        2 0.13233458E+00 0.12403718E+04</pdfrwt>
<pdfrwt beam="2">  1       -2 0.68792922E-01 0.12403718E+04</pdfrwt>
<totfact> 0.59355926E+01</totfact>
</mgrwt>
</event>
<event>
 6    1  0.9988873E-007  0.1375197E+04  0.7818608E-02  0.8971971E-01
         -1   -1    0    0    0  501 -0.00000000000E+00  0.00000000000E+00  0.46818238441E+03  0.46818238441E+03  0.00000000000E+00 0.  1.
          1   -1    0    0  501    0  0.00000000000E+00 -0.00000000000E+00 -0.10098449852E+04  0.10098449852E+04  0.00000000000E+00 0. -1.
         23    2    1    2    0    0 -0.49908516181E+03 -0.36035330219E+03 -0.59397666817E+03  0.86022702743E+03  0.90784113459E+02 0.  0.
         13    1    3    3    0    0 -0.45613591584E+02 -0.59771709851E+02 -0.46527469055E+02  0.88419807805E+02  0.00000000000E+00 0. -1.
        -13    1    3    3    0    0 -0.45347157023E+03 -0.30058159233E+03 -0.54744919911E+03  0.77180721962E+03  0.00000000000E+00 0.  1.
         22    1    1    2    0    0  0.49908516181E+03  0.36035330219E+03  0.52314067398E+02  0.61780034217E+03  0.00000000000E+00 0.  1.
<mgrwt>
<rscale>  0 0.13751969E+04</rscale>
<asrwt>0</asrwt>
<pdfrwt beam="1">  1        1 0.15536077E+00 0.13751969E+04</pdfrwt>
<pdfrwt beam="2">  1       -1 0.72028059E-01 0.13751969E+04</pdfrwt>
<totfact> 0.28252429E+01</totfact>
</mgrwt>
</event>
<event>
 6    1  0.9988873E-007  0.2449483E+04  0.7818608E-02  0.8421207E-01
          2   -1    0    0  501    0  0.00000000000E+00  0.00000000000E+00  0.19611833866E+04  0.19611833866E+04  0.00000000000E+00 0. -1.
         -2   -1    0    0    0  501 -0.00000000000E+00 -0.00000000000E+00 -0.76483998198E+03  0.76483998198E+03  0.00000000000E+00 0.  1.
         23    2    1    2    0    0 -0.79427857415E+03 -0.38493931279E+03  0.15412131874E+04  0.17783990258E+04  0.91149756973E+02 0.  0.
         11    1    3    3    0    0 -0.17351539436E+03 -0.75100635282E+02  0.26114645748E+03  0.32240528804E+03  0.00000000000E+00 0. -1.
        -11    1    3    3    0    0 -0.62076317979E+03 -0.30983867751E+03  0.12800667299E+04  0.14559937378E+04  0.00000000000E+00 0.  1.
         22    1    1    2    0    0  0.79427857415E+03  0.38493931279E+03 -0.34486978278E+03  0.94762434275E+03  0.00000000000E+00 0.  1.
<mgrwt>
<rscale>  0 0.24494828E+04</rscale>
<asrwt>0</asrwt>
<pdfrwt beam="1">  1        2 0.30172052E+00 0.24494828E+04</pdfrwt>
<pdfrwt beam="2">  1       -2 0.11766769E+00 0.24494828E+04</pdfrwt>
<totfact> 0.35055813E+00</totfact>
</mgrwt>
</event>
<event>
 6    1  0.9988873E-007  0.2201296E+04  0.7818608E-02  0.8517889E-01
         -2   -1    0    0    0  501 -0.00000000000E+00  0.00000000000E+00  0.53670617240E+03  0.53670617240E+03  0.00000000000E+00 0.  1.
          2   -1    0    0  501    0  0.00000000000E+00 -0.00000000000E+00 -0.22571497010E+04  0.22571497010E+04  0.00000000000E+00 0. -1.
         23    2    1    2    0    0 -0.10956337903E+04 -0.47229018979E+02 -0.77457724084E+03  0.13456476643E+04  0.90298126238E+02 0.  0.
         11    1    3    3    0    0 -0.68161879276E+03  0.10547436475E+02 -0.45784663930E+03  0.82118144900E+03  0.00000000000E+00 0. -1.
        -11    1    3    3    0    0 -0.41401499755E+03 -0.57776455454E+02 -0.31673060153E+03  0.52446621526E+03  0.00000000000E+00 0.  1.
         22    1    1    2    0    0  0.10956337903E+04  0.47229018979E+02 -0.94586628776E+03  0.14482082091E+04  0.00000000000E+00 0. -1.
<mgrwt>
<rscale>  0 0.22012961E+04</rscale>
<asrwt>0</asrwt>
<pdfrwt beam="1">  1        2 0.34725379E+00 0.22012961E+04</pdfrwt>
<pdfrwt beam="2">  1       -2 0.82570182E-01 0.22012961E+04</pdfrwt>
<totfact> 0.56386971E+00</totfact>
</mgrwt>
</event>
<event>
 6    1  0.9988873E-007  0.3139540E+04  0.7818608E-02  0.8204970E-01
          1   -1    0    0  501    0  0.00000000000E+00  0.00000000000E+00  0.25286749196E+04  0.25286749196E+04  0.00000000000E+00 0. -1.
         -1   -1    0    0    0  501 -0.00000000000E+00 -0.00000000000E+00 -0.97449362356E+03  0.97449362356E+03  0.00000000000E+00 0.  1.
         23    2    1    2    0    0 -0.11585794327E+04 -0.95507098900E+03  0.27184930446E+03  0.15286199283E+04  0.91158899666E+02 0.  0.
         13    1    3    3    0    0 -0.46026257020E+03 -0.34336551188E+03  0.68930700522E+02  0.57835365457E+03  0.00000000000E+00 0.  1.
        -13    1    3    3    0    0 -0.69831686247E+03 -0.61170547712E+03  0.20291860393E+03  0.95026627372E+03  0.00000000000E+00 0. -1.
         22    1    1    2    0    0  0.11585794327E+04  0.95507098900E+03  0.12823319916E+04  0.19745486149E+04  0.00000000000E+00 0.  1.
<mgrwt>
<rscale>  0 0.31395398E+04</rscale>
<asrwt>0</asrwt>
<pdfrwt beam="1">  1        1 0.38902691E+00 0.31395398E+04</pdfrwt>
<pdfrwt beam="2">  1       -1 0.14992210E+00 0.31395398E+04</pdfrwt>
<totfact> 0.38006436E-01</totfact>
</mgrwt>
</event>
<event>
 6    1  0.9988873E-007  0.4027310E+04  0.7818608E-02  0.7999060E-01
          1   -1    0    0  501    0  0.00000000000E+00  0.00000000000E+00  0.24096845932E+04  0.24096845932E+04  0.00000000000E+00 0. -1.
         -1   -1    0    0    0  501 -0.00000000000E+00 -0.00000000000E+00 -0.16827127528E+04  0.16827127528E+04  0.00000000000E+00 0.  1.
         23    2    1    2    0    0 -0.51629291983E+03 -0.19390816255E+04  0.20855061676E+03  0.20198731617E+04  0.98986363406E+02 0.  0.
         11    1    3    3    0    0 -0.22658090676E+03 -0.10351579078E+04  0.12410965132E+03  0.10669086216E+04  0.00000000000E+00 0.  1.
        -11    1    3    3    0    0 -0.28971201307E+03 -0.90392371773E+03  0.84440965439E+02  0.95296454007E+03  0.00000000000E+00 0. -1.
         22    1    1    2    0    0  0.51629291983E+03  0.19390816255E+04  0.51842122360E+03  0.20725241843E+04  0.00000000000E+00 0.  1.
<mgrwt>
<rscale>  0 0.40273103E+04</rscale>
<asrwt>0</asrwt>
<pdfrwt beam="1">  1        1 0.37072070E+00 0.40273103E+04</pdfrwt>
<pdfrwt beam="2">  1       -1 0.25887889E+00 0.40273103E+04</pdfrwt>
<totfact> 0.74547632E-02</totfact>
</mgrwt>
</event>
<event>
 6    1  0.9988873E-007  0.2790792E+04  0.7818608E-02  0.8306133E-01
         -1   -1    0    0    0  501 -0.00000000000E+00  0.00000000000E+00  0.43534719727E+03  0.43534719727E+03  0.00000000000E+00 0.  1.
          1   -1    0    0  501    0  0.00000000000E+00 -0.00000000000E+00 -0.44725911600E+04  0.44725911600E+04  0.00000000000E+00 0. -1.
         23    2    1    2    0    0 -0.93867749911E+03 -0.10294649105E+04 -0.19289798553E+04  0.23809458769E+04  0.83824443571E+02 0.  0.
         11    1    3    3    0    0 -0.29643833536E+03 -0.29038789365E+03 -0.62686266546E+03  0.75176965674E+03  0.00000000000E+00 0. -1.
        -11    1    3    3    0    0 -0.64223916375E+03 -0.73907701682E+03 -0.13021171898E+04  0.16291762201E+04  0.00000000000E+00 0.  1.
         22    1    1    2    0    0  0.93867749911E+03  0.10294649105E+04 -0.21082641075E+04  0.25269924804E+04  0.00000000000E+00 0. -1.
<mgrwt>
<rscale>  0 0.27907920E+04</rscale>
<asrwt>0</asrwt>
<pdfrwt beam="1">  1        1 0.68809097E+00 0.27907920E+04</pdfrwt>
<pdfrwt beam="2">  1       -1 0.66976490E-01 0.27907920E+04</pdfrwt>
<totfact> 0.67330861E-02</totfact>
</mgrwt>
</event>
<event>
 6    1  0.9988873E-007  0.1586208E+04  0.7818608E-02  0.8829066E-01
          2   -1    0    0  501    0  0.00000000000E+00  0.00000000000E+00  0.21969540097E+04  0.21969540097E+04  0.00000000000E+00 0. -1.
         -2   -1    0    0    0  501 -0.00000000000E+00 -0.00000000000E+00 -0.28631191168E+03  0.28631191168E+03  0.00000000000E+00 0.  1.
         23    2    1    2    0    0 -0.32589341349E+03 -0.71932421034E+03  0.90076305200E+03  0.12012793676E+04  0.89800927587E+02 0.  0.
         11    1    3    3    0    0 -0.67115211831E+02 -0.12860206479E+03  0.11752314740E+03  0.18669395518E+03  0.00000000000E+00 0. -1.
        -11    1    3    3    0    0 -0.25877820166E+03 -0.59072214555E+03  0.78323990460E+03  0.10145854124E+04  0.00000000000E+00 0.  1.
         22    1    1    2    0    0  0.32589341349E+03  0.71932421034E+03  0.10098790460E+04  0.12819865538E+04  0.00000000000E+00 0. -1.
<mgrwt>
<rscale>  0 0.15862082E+04</rscale>
<asrwt>0</asrwt>
<pdfrwt beam="1">  1        2 0.33799291E+00 0.15862082E+04</pdfrwt>
<pdfrwt beam="2">  1       -2 0.44047988E-01 0.15862082E+04</pdfrwt>
<totfact> 0.24343326E+01</totfact>
</mgrwt>
</event>
<event>
 6    1  0.9988873E-007  0.6600060E+03  0.7818608E-02  0.9788183E-01
          2   -1    0    0  501    0  0.00000000000E+00  0.00000000000E+00  0.12065430233E+04  0.12065430233E+04  0.00000000000E+00 0. -1.
         -2   -1    0    0    0  501 -0.00000000000E+00 -0.00000000000E+00 -0.90259514726E+02  0.90259514726E+02  0.00000000000E+00 0.  1.
         23    2    1    2    0    0 -0.26620259700E+03 -0.16421918113E+03  0.73211555915E+03  0.80140696330E+03  0.91805047607E+02 0.  0.
         13    1    3    3    0    0 -0.14004978970E+03 -0.55986124640E+02  0.25619920347E+03  0.29729853953E+03  0.00000000000E+00 0. -1.
        -13    1    3    3    0    0 -0.12615280729E+03 -0.10823305649E+03  0.47591635568E+03  0.50410842376E+03  0.00000000000E+00 0.  1.
         22    1    1    2    0    0  0.26620259700E+03  0.16421918113E+03  0.38416794942E+03  0.49539557473E+03  0.00000000000E+00 0.  1.
<mgrwt>
<rscale>  0 0.66000602E+03</rscale>
<asrwt>0</asrwt>
<pdfrwt beam="1">  1        2 0.18562199E+00 0.66000602E+03</pdfrwt>
<pdfrwt beam="2">  1       -2 0.13886080E-01 0.66000602E+03</pdfrwt>
<totfact> 0.75704892E+02</totfact>
</mgrwt>
</event>
<event>
 6    1  0.9988873E-007  0.5942196E+03  0.7818608E-02  0.9917472E-01
         -2   -1    0    0    0  501 -0.00000000000E+00  0.00000000000E+00  0.10557036516E+03  0.10557036516E+03  0.00000000000E+00 0.  1.
          2   -1    0    0  501    0  0.00000000000E+00 -0.00000000000E+00 -0.83616485274E+03  0.83616485274E+03  0.00000000000E+00 0. -1.
         23    2    1    2    0    0 -0.48490071148E+02  0.11583494834E+03 -0.78948229769E+03  0.80303843915E+03  0.76285084586E+02 0.  0.
         13    1    3    3    0    0 -0.61295063659E+02  0.52512635367E+02 -0.49651130853E+03  0.50302896656E+03  0.00000000000E+00 0. -1.
        -13    1    3    3    0    0  0.12804992511E+02  0.63322312973E+02 -0.29297098916E+03  0.30000947259E+03  0.00000000000E+00 0.  1.
         22    1    1    2    0    0  0.48490071148E+02 -0.11583494834E+03  0.58887810113E+02  0.13869677875E+03  0.00000000000E+00 0.  1.
<mgrwt>
<rscale>  0 0.59421959E+03</rscale>
<asrwt>0</asrwt>
<pdfrwt beam="1">  1        2 0.12864074E+00 0.59421959E+03</pdfrwt>
<pdfrwt beam="2">  1       -2 0.16241595E-01 0.59421959E+03</pdfrwt>
<totfact> 0.99891247E+02</totfact>
</mgrwt>
</event>
<event>
 6    1  0.9988873E-007  0.1170814E+04  0.7818608E-02  0.9138794E-01
         -1   -1    0    0    0  501 -0.00000000000E+00  0.00000000000E+00  0.16241063348E+03  0.16241063348E+03  0.00000000000E+00 0.  1.
          1   -1    0    0  501    0  0.00000000000E+00 -0.00000000000E+00 -0.21100901940E+04  0.21100901940E+04  0.00000000000E+00 0. -1.
         23    2    1    2    0    0 -0.57536458504E+03 -0.65679333626E+02 -0.10861308520E+04  0.12344139536E+04  0.93484761092E+02 0.  0.
         11    1    3    3    0    0 -0.53359183833E+02  0.80671402220E+01 -0.59453152912E+02  0.80292955119E+02  0.00000000000E+00 0. -1.
        -11    1    3    3    0    0 -0.52200540120E+03 -0.73746473848E+02 -0.10266776991E+04  0.11541209985E+04  0.00000000000E+00 0.  1.
         22    1    1    2    0    0  0.57536458504E+03  0.65679333626E+02 -0.86154870849E+03  0.10380868739E+04  0.00000000000E+00 0. -1.
<mgrwt>
<rscale>  0 0.11708135E+04</rscale>
<asrwt>0</asrwt>
<pdfrwt beam="1">  1        1 0.32462924E+00 0.11708135E+04</pdfrwt>
<pdfrwt beam="2">  1       -1 0.24986253E-01 0.11708135E+04</pdfrwt>
<totfact> 0.34985188E+01</totfact>
</mgrwt>
</event>
<event>
 6    1  0.9988873E-007  0.3606676E+03  0.7818608E-02  0.1058320E+00
         -1   -1    0    0    0  501 -0.00000000000E+00  0.00000000000E+00  0.46978914850E+02  0.46978914850E+02  0.00000000000E+00 0.  1.
          1   -1    0    0  501    0  0.00000000000E+00 -0.00000000000E+00 -0.69223147673E+03  0.69223147673E+03  0.00000000000E+00 0. -1.
         23    2    1    2    0    0  0.14385467925E+03  0.42988528798E+02 -0.18644045476E+03  0.25645710884E+03  0.92021862382E+02 0.  0.
         11    1    3    3    0    0  0.13541292575E+03  0.36312751625E+02 -0.19672564287E+03  0.24157039337E+03  0.00000000000E+00 0. -1.
        -11    1    3    3    0    0  0.84417535031E+01  0.66757771726E+01  0.10285188114E+02  0.14886715474E+02  0.00000000000E+00 0.  1.
         22    1    1    2    0    0 -0.14385467925E+03 -0.42988528798E+02 -0.45881210712E+03  0.48275328274E+03  0.00000000000E+00 0. -1.
<mgrwt>
<rscale>  0 0.36066762E+03</rscale>
<asrwt>0</asrwt>
<pdfrwt beam="1">  1        1 0.10649714E+00 0.36066762E+03</pdfrwt>
<pdfrwt beam="2">  1       -1 0.72275261E-02 0.36066762E+03</pdfrwt>
<totfact> 0.28924124E+03</totfact>
</mgrwt>
</event>
<event>
 6    1  0.9988873E-007  0.2910147E+04  0.7818608E-02  0.8269865E-01
         -2   -1    0    0    0  501 -0.00000000000E+00  0.00000000000E+00  0.10655872064E+04  0.10655872064E+04  0.00000000000E+00 0.  1.
          2   -1    0    0  501    0  0.00000000000E+00 -0.00000000000E+00 -0.19869223560E+04  0.19869223560E+04  0.00000000000E+00 0. -1.
         23    2    1    2    0    0  0.66993456584E+02  0.41132346770E+03 -0.19219528121E+04  0.19685765272E+04  0.87839702729E+02 0.  0.
         11    1    3    3    0    0 -0.71928109685E+01  0.10890353693E+03 -0.37323731408E+03  0.38886734178E+03  0.00000000000E+00 0. -1.
        -11    1    3    3    0    0  0.74186267553E+02  0.30241993077E+03 -0.15487154980E+04  0.15797091854E+04  0.00000000000E+00 0.  1.
         22    1    1    2    0    0 -0.66993456584E+02 -0.41132346770E+03  0.10006176625E+04  0.10839330352E+04  0.00000000000E+00 0.  1.
<mgrwt>
<rscale>  0 0.29101471E+04</rscale>
<asrwt>0</asrwt>
<pdfrwt beam="1">  1        2 0.30568036E+00 0.29101471E+04</pdfrwt>
<pdfrwt beam="2">  1       -2 0.16393649E+00 0.29101471E+04</pdfrwt>
<totfact> 0.13809181E+00</totfact>
</mgrwt>
</event>
<event>
 6    1  0.9988873E-007  0.1202535E+04  0.7818608E-02  0.9110640E-01
         -1   -1    0    0    0  501 -0.00000000000E+00  0.00000000000E+00  0.36339937255E+03  0.36339937255E+03  0.00000000000E+00 0.  1.
          1   -1    0    0  501    0  0.00000000000E+00 -0.00000000000E+00 -0.99483563655E+03  0.99483563655E+03  0.00000000000E+00 0. -1.
         23    2    1    2    0    0  0.94373357686E+02  0.29779687961E+03  0.25808277578E+03  0.41545537722E+03  0.91690452939E+02 0.  0.
         13    1    3    3    0    0  0.76107560211E+02  0.26586486639E+03  0.25866893558E+03  0.37866357910E+03  0.00000000000E+00 0.  1.
        -13    1    3    3    0    0  0.18265797475E+02  0.31932013221E+02 -0.58615979960E+00  0.36791798122E+02  0.00000000000E+00 0. -1.
         22    1    1    2    0    0 -0.94373357686E+02 -0.29779687961E+03 -0.88951903978E+03  0.94277963187E+03  0.00000000000E+00 0. -1.
<mgrwt>
<rscale>  0 0.12025351E+04</rscale>
<asrwt>0</asrwt>
<pdfrwt beam="1">  1        1 0.15305164E+00 0.12025351E+04</pdfrwt>
<pdfrwt beam="2">  1       -1 0.55907595E-01 0.12025351E+04</pdfrwt>
<totfact> 0.48904906E+01</totfact>
</mgrwt>
</event>
<event>
 6    1  0.9988873E-007  0.1751826E+04  0.7818608E-02  0.8732346E-01
          2   -1    0    0  501    0  0.00000000000E+00  0.00000000000E+00  0.46657505231E+03  0.46657505231E+03  0.00000000000E+00 0. -1.
         -2   -1    0    0    0  501 -0.00000000000E+00 -0.00000000000E+00 -0.16443737218E+04  0.16443737218E+04  0.00000000000E+00 0.  1.
         23    2    1    2    0    0 -0.36632598654E+03  0.79272545755E+03 -0.56007844220E+03  0.10412821631E+04  0.89287750116E+02 0.  0.
         13    1    3    3    0    0 -0.24072262388E+03  0.44974536115E+03 -0.28773843353E+03  0.58567198811E+03  0.00000000000E+00 0. -1.
        -13    1    3    3    0    0 -0.12560336266E+03  0.34298009640E+03 -0.27234000867E+03  0.45561017499E+03  0.00000000000E+00 0.  1.
         22    1    1    2    0    0  0.36632598654E+03 -0.79272545755E+03 -0.61772022724E+03  0.10696666110E+04  0.00000000000E+00 0.  1.
<mgrwt>
<rscale>  0 0.17518262E+04</rscale>
<asrwt>0</asrwt>
<pdfrwt beam="1">  1        2 0.71780777E-01 0.17518262E+04</pdfrwt>
<pdfrwt beam="2">  1       -2 0.25298057E+00 0.17518262E+04</pdfrwt>
<totfact> 0.38954868E+00</totfact>
</mgrwt>
</event>
<event>
 6    1  0.9988873E-007  0.4379196E+04  0.7818608E-02  0.7932134E-01
         -2   -1    0    0    0  501 -0.00000000000E+00  0.00000000000E+00  0.13206401469E+04  0.13206401469E+04  0.00000000000E+00 0.  1.
          2   -1    0    0  501    0  0.00000000000E+00 -0.00000000000E+00 -0.36303155534E+04  0.36303155534E+04  0.00000000000E+00 0. -1.
         23    2    1    2    0    0 -0.19960452462E+04  0.69942538837E+03 -0.17917284220E+04  0.27734200341E+04  0.90418187160E+02 0.  0.
         11    1    3    3    0    0 -0.16470723242E+04  0.54028191635E+03 -0.14685155183E+04  0.22718471819E+04  0.00000000000E+00 0. -1.
        -11    1    3    3    0    0 -0.34897292199E+03  0.15914347202E+03 -0.32321290361E+03  0.50157285217E+03  0.00000000000E+00 0.  1.
         22    1    1    2    0    0  0.19960452462E+04 -0.69942538837E+03 -0.51794698461E+03  0.21775356662E+04  0.00000000000E+00 0. -1.
<mgrwt>
<rscale>  0 0.43791965E+04</rscale>
<asrwt>0</asrwt>
<pdfrwt beam="1">  1        2 0.55851008E+00 0.43791965E+04</pdfrwt>
<pdfrwt beam="2">  1       -2 0.20317541E+00 0.43791965E+04</pdfrwt>
<totfact> 0.63528624E-02</totfact>
</mgrwt>
</event>
<event>
 6    1  0.9988873E-007  0.4297172E+04  0.7818608E-02  0.7947141E-01
         -1   -1    0    0    0  501 -0.00000000000E+00  0.00000000000E+00  0.24141458886E+04  0.24141458886E+04  0.00000000000E+00 0.  1.
          1   -1    0    0  501    0  0.00000000000E+00 -0.00000000000E+00 -0.19122380768E+04  0.19122380768E+04  0.00000000000E+00 0. -1.
         23    2    1    2    0    0 -0.95943631309E+03  0.13255000183E+04 -0.11494179302E+04  0.20016592411E+04  0.89497496610E+02 0.  0.
         11    1    3    3    0    0 -0.73806377226E+03  0.10710355622E+04 -0.88795300573E+03  0.15749018534E+04  0.00000000000E+00 0.  1.
        -11    1    3    3    0    0 -0.22137254083E+03  0.25446445609E+03 -0.26146492452E+03  0.42675738775E+03  0.00000000000E+00 0. -1.
         22    1    1    2    0    0  0.95943631309E+03 -0.13255000183E+04  0.16513257420E+04  0.23247247243E+04  0.00000000000E+00 0.  1.
<mgrwt>
<rscale>  0 0.42971719E+04</rscale>
<asrwt>0</asrwt>
<pdfrwt beam="1">  1        1 0.29419047E+00 0.42971719E+04</pdfrwt>
<pdfrwt beam="2">  1       -1 0.37140706E+00 0.42971719E+04</pdfrwt>
<totfact> 0.29183244E-02</totfact>
</mgrwt>
</event>
<event>
 6    1  0.9988873E-007  0.4039414E+04  0.7818608E-02  0.7996642E-01
         -1   -1    0    0    0  501 -0.00000000000E+00  0.00000000000E+00  0.18387620186E+04  0.18387620186E+04  0.00000000000E+00 0.  1.
          1   -1    0    0  501    0  0.00000000000E+00 -0.00000000000E+00 -0.22184578063E+04  0.22184578063E+04  0.00000000000E+00 0. -1.
         23    2    1    2    0    0 -0.28820484776E+03  0.97875982638E+03  0.15595790059E+04  0.18659143791E+04  0.91197381917E+02 0.  0.
         13    1    3    3    0    0 -0.19725861605E+03  0.78958715319E+03  0.12129481804E+04  0.14606854974E+04  0.00000000000E+00 0. -1.
        -13    1    3    3    0    0 -0.90946231704E+02  0.18917267319E+03  0.34663082551E+03  0.40522888166E+03  0.00000000000E+00 0.  1.
         22    1    1    2    0    0  0.28820484776E+03 -0.97875982638E+03 -0.19392747935E+04  0.21913054458E+04  0.00000000000E+00 0. -1.
<mgrwt>
<rscale>  0 0.40394138E+04</rscale>
<asrwt>0</asrwt>
<pdfrwt beam="1">  1        1 0.34130120E+00 0.40394138E+04</pdfrwt>
<pdfrwt beam="2">  1       -1 0.28288646E+00 0.40394138E+04</pdfrwt>
<totfact> 0.70388222E-02</totfact>
</mgrwt>
</event>
<event>
 6    1  0.9988873E-007  0.9163449E+03  0.7818608E-02  0.9405377E-01
         -2   -1    0    0    0  501 -0.00000000000E+00  0.00000000000E+00  0.26643715928E+03  0.26643715928E+03  0.00000000000E+00 0.  1.
          2   -1    0    0  501    0  0.00000000000E+00 -0.00000000000E+00 -0.78788557715E+03  0.78788557715E+03  0.00000000000E+00 0. -1.
         23    2    1    2    0    0  0.38998248304E+03  0.18241001168E+03 -0.42859722448E+03  0.61388988847E+03  0.88348542079E+02 0.  0.
         13    1    3    3    0    0  0.25029205036E+03  0.10355259971E+03 -0.20993562112E+03  0.34269843361E+03  0.00000000000E+00 0.  1.
        -13    1    3    3    0    0  0.13969043268E+03  0.78857411974E+02 -0.21866160336E+03  0.27119145486E+03  0.00000000000E+00 0. -1.
         22    1    1    2    0    0 -0.38998248304E+03 -0.18241001168E+03 -0.92851193389E+02  0.44043284795E+03  0.00000000000E+00 0.  1.
<mgrwt>
<rscale>  0 0.91634490E+03</rscale>
<asrwt>0</asrwt>
<pdfrwt beam="1">  1        2 0.12121317E+00 0.91634490E+03</pdfrwt>
<pdfrwt beam="2">  1       -2 0.40990332E-01 0.91634490E+03</pdfrwt>
<totfact> 0.19847513E+02</totfact>
</mgrwt>
</event>
<event>
 6    1  0.9988873E-007  0.2139717E+04  0.7818608E-02  0.8543947E-01
         -2   -1    0    0    0  501 -0.00000000000E+00  0.00000000000E+00  0.57323072939E+03  0.57323072939E+03  0.00000000000E+00 0.  1.
          2   -1    0    0  501    0  0.00000000000E+00 -0.00000000000E+00 -0.19967475260E+04  0.19967475260E+04  0.00000000000E+00 0. -1.
         23    2    1    2    0    0 -0.73937095427E+03  0.73124671740E+03 -0.10049797241E+04  0.14490123992E+04  0.90892889550E+02 0.  0.
         11    1    3    3    0    0 -0.49319576807E+03  0.45033972955E+03 -0.59591934029E+03  0.89507977174E+03  0.00000000000E+00 0.  1.
        -11    1    3    3    0    0 -0.24617518620E+03  0.28090698785E+03 -0.40906038384E+03  0.55393262745E+03  0.00000000000E+00 0. -1.
         22    1    1    2    0    0  0.73937095427E+03 -0.73124671740E+03 -0.41853707247E+03  0.11209658562E+04  0.00000000000E+00 0.  1.
<mgrwt>
<rscale>  0 0.21397168E+04</rscale>
<asrwt>0</asrwt>
<pdfrwt beam="1">  1        2 0.30719193E+00 0.21397168E+04</pdfrwt>
<pdfrwt beam="2">  1       -2 0.88189343E-01 0.21397168E+04</pdfrwt>
<totfact> 0.68245208E+00</totfact>
</mgrwt>
</event>
<event>
 6    1  0.9988873E-007  0.3969855E+04  0.7818608E-02  0.8010655E-01
          2   -1    0    0  501    0  0.00000000000E+00  0.00000000000E+00  0.39201769106E+04  0.39201769106E+04  0.00000000000E+00 0. -1.
         -2   -1    0    0    0  501 -0.00000000000E+00 -0.00000000000E+00 -0.10050407980E+04  0.10050407980E+04  0.00000000000E+00 0.  1.
         23    2    1    2    0    0 -0.10236827134E+04 -0.15048496035E+04  0.47899858740E+03  0.18842861623E+04  0.92714981794E+02 0.  0.
         13    1    3    3    0    0 -0.73471749998E+03 -0.10525053020E+04  0.29685802514E+03  0.13174603989E+04  0.00000000000E+00 0. -1.
        -13    1    3    3    0    0 -0.28896521346E+03 -0.45234430146E+03  0.18214056226E+03  0.56682576342E+03  0.00000000000E+00 0.  1.
         22    1    1    2    0    0  0.10236827134E+04  0.15048496035E+04  0.24361375253E+04  0.30409315463E+04  0.00000000000E+00 0.  1.
<mgrwt>
<rscale>  0 0.39698553E+04</rscale>
<asrwt>0</asrwt>
<pdfrwt beam="1">  1        2 0.60310413E+00 0.39698553E+04</pdfrwt>
<pdfrwt beam="2">  1       -2 0.15462166E+00 0.39698553E+04</pdfrwt>
<totfact> 0.86317207E-02</totfact>
</mgrwt>
</event>
<event>
 6    1  0.9988873E-007  0.3321734E+04  0.7818608E-02  0.8157387E-01
          1   -1    0    0  501    0  0.00000000000E+00  0.00000000000E+00  0.24538639265E+04  0.24538639265E+04  0.00000000000E+00 0. -1.
         -1   -1    0    0    0  501 -0.00000000000E+00 -0.00000000000E+00 -0.11241371840E+04  0.11241371840E+04  0.00000000000E+00 0.  1.
         23    2    1    2    0    0  0.26237248780E+03  0.14250917277E+04 -0.20624122964E+03  0.14663848182E+04  0.89572514933E+02 0.  0.
         11    1    3    3    0    0  0.88325538493E+02  0.29809379010E+03 -0.60739940715E+02  0.31678170535E+03  0.00000000000E+00 0. -1.
        -11    1    3    3    0    0  0.17404694931E+03  0.11269979376E+04 -0.14550128892E+03  0.11496031129E+04  0.00000000000E+00 0.  1.
         22    1    1    2    0    0 -0.26237248780E+03 -0.14250917277E+04  0.15359679721E+04  0.21116162924E+04  0.00000000000E+00 0. -1.
<mgrwt>
<rscale>  0 0.33217343E+04</rscale>
<asrwt>0</asrwt>
<pdfrwt beam="1">  1        1 0.37751752E+00 0.33217343E+04</pdfrwt>
<pdfrwt beam="2">  1       -1 0.17294418E+00 0.33217343E+04</pdfrwt>
<totfact> 0.28268127E-01</totfact>
</mgrwt>
</event>
<event>
 6    1  0.9988873E-007  0.1277009E+04  0.7818608E-02  0.9047998E-01
         -2   -1    0    0    0  501 -0.00000000000E+00  0.00000000000E+00  0.45685789242E+03  0.45685789242E+03  0.00000000000E+00 0.  1.
          2   -1    0    0  501    0  0.00000000000E+00 -0.00000000000E+00 -0.89237413194E+03  0.89237413194E+03  0.00000000000E+00 0. -1.
         23    2    1    2    0    0 -0.26616030170E+03  0.57623067943E+03 -0.24465686598E+03  0.68642707372E+03  0.91880592930E+02 0.  0.
         13    1    3    3    0    0 -0.11490475608E+03  0.35660419742E+03 -0.14062492605E+03  0.40018124195E+03  0.00000000000E+00 0.  1.
        -13    1    3    3    0    0 -0.15125554562E+03  0.21962648201E+03 -0.10403193993E+03  0.28624583177E+03  0.00000000000E+00 0. -1.
         22    1    1    2    0    0  0.26616030170E+03 -0.57623067943E+03 -0.19085937355E+03  0.66280495063E+03  0.00000000000E+00 0. -1.
<mgrwt>
<rscale>  0 0.12770093E+04</rscale>
<asrwt>0</asrwt>
<pdfrwt beam="1">  1        2 0.13728833E+00 0.12770093E+04</pdfrwt>
<pdfrwt beam="2">  1       -2 0.70285830E-01 0.12770093E+04</pdfrwt>
<totfact> 0.53689520E+01</totfact>
</mgrwt>
</event>
<event>
 6    1  0.9988873E-007  0.2626512E+04  0.7818608E-02  0.8359251E-01
          1   -1    0    0  501    0  0.00000000000E+00  0.00000000000E+00  0.32531611977E+04  0.32531611977E+04  0.00000000000E+00 0. -1.
         -1   -1    0    0    0  501 -0.00000000000E+00 -0.00000000000E+00 -0.53014338496E+03  0.53014338496E+03  0.00000000000E+00 0.  1.
         23    2    1    2    0    0 -0.24463257368E+03  0.11061161282E+04  0.40822661723E+03  0.12061751207E+04  0.69795885312E+02 0.  0.
         13    1    3    3    0    0 -0.16165948770E+03  0.59818403085E+03  0.24384490341E+03  0.66589658480E+03  0.00000000000E+00 0.  1.
        -13    1    3    3    0    0 -0.82973085975E+02  0.50793209732E+03  0.16438171382E+03  0.54027853587E+03  0.00000000000E+00 0. -1.
         22    1    1    2    0    0  0.24463257368E+03 -0.11061161282E+04  0.23147911955E+04  0.25771294620E+04  0.00000000000E+00 0. -1.
<mgrwt>
<rscale>  0 0.26265124E+04</rscale>
<asrwt>0</asrwt>
<pdfrwt beam="1">  1        1 0.50048632E+00 0.26265124E+04</pdfrwt>
<pdfrwt beam="2">  1       -1 0.81560523E-01 0.26265124E+04</pdfrwt>
<totfact> 0.50975875E-01</totfact>
</mgrwt>
</event>
<event>
 6    1  0.9988873E-007  0.1348404E+04  0.7818608E-02  0.8992037E-01
         -2   -1    0    0    0  501 -0.00000000000E+00  0.00000000000E+00  0.32862135906E+03  0.32862135906E+03  0.00000000000E+00 0.  1.
          2   -1    0    0  501    0  0.00000000000E+00 -0.00000000000E+00 -0.13831979712E+04  0.13831979712E+04  0.00000000000E+00 0. -1.
         23    2    1    2    0    0  0.19193117319E+02 -0.20439297946E+03 -0.13408578500E+04  0.13595384581E+04  0.91105319826E+02 0.  0.
         13    1    3    3    0    0 -0.28979214642E+02 -0.75610883882E+02 -0.35367280986E+03  0.36282400290E+03  0.00000000000E+00 0. -1.
        -13    1    3    3    0    0  0.48172331961E+02 -0.12878209558E+03 -0.98718504012E+03  0.99671445517E+03  0.00000000000E+00 0.  1.
         22    1    1    2    0    0 -0.19193117319E+02  0.20439297946E+03  0.28628123781E+03  0.35228087222E+03  0.00000000000E+00 0.  1.
<mgrwt>
<rscale>  0 0.13484041E+04</rscale>
<asrwt>0</asrwt>
<pdfrwt beam="1">  1        2 0.21279969E+00 0.13484041E+04</pdfrwt>
<pdfrwt beam="2">  1       -2 0.50557133E-01 0.13484041E+04</pdfrwt>
<totfact> 0.53456711E+01</totfact>
</mgrwt>
</event>
<event>
 6    1  0.9988873E-007  0.1541821E+04  0.7818608E-02  0.8857109E-01
         -2   -1    0    0    0  501 -0.00000000000E+00  0.00000000000E+00  0.57671798843E+03  0.57671798843E+03  0.00000000000E+00 0.  1.
          2   -1    0    0  501    0  0.00000000000E+00 -0.00000000000E+00 -0.10304909370E+04  0.10304909370E+04  0.00000000000E+00 0. -1.
         23    2    1    2    0    0 -0.92016896211E+02  0.76173563591E+03 -0.20041883460E+03  0.79918875536E+03  0.99129557785E+02 0.  0.
         13    1    3    3    0    0 -0.11050767907E+03  0.54308269822E+03 -0.14225511529E+03  0.57217766652E+03  0.00000000000E+00 0. -1.
        -13    1    3    3    0    0  0.18490782861E+02  0.21865293769E+03 -0.58163719310E+02  0.22701108884E+03  0.00000000000E+00 0.  1.
         22    1    1    2    0    0  0.92016896211E+02 -0.76173563591E+03 -0.25335411401E+03  0.80802017011E+03  0.00000000000E+00 0.  1.
<mgrwt>
<rscale>  0 0.15418206E+04</rscale>
<asrwt>0</asrwt>
<pdfrwt beam="1">  1        2 0.15853707E+00 0.15418206E+04</pdfrwt>
<pdfrwt beam="2">  1       -2 0.88725845E-01 0.15418206E+04</pdfrwt>
<totfact> 0.25338727E+01</totfact>
</mgrwt>
</event>
<event>
 6    1  0.9988873E-007  0.2295770E+04  0.7818608E-02  0.8479591E-01
          1   -1    0    0  501    0  0.00000000000E+00  0.00000000000E+00  0.11351619531E+04  0.11351619531E+04  0.00000000000E+00 0. -1.
         -1   -1    0    0    0  501 -0.00000000000E+00 -0.00000000000E+00 -0.11607503981E+04  0.11607503981E+04  0.00000000000E+00 0.  1.
         23    2    1    2    0    0 -0.85208495219E+03 -0.75400101069E+03 -0.15155780417E+03  0.11511702103E+04  0.87503114796E+02 0.  0.
         13    1    3    3    0    0 -0.61490602175E+03 -0.55452735184E+03 -0.14861679860E+03  0.84124725993E+03  0.00000000000E+00 0. -1.
        -13    1    3    3    0    0 -0.23717893044E+03 -0.19947365886E+03 -0.29410055695E+01  0.30992295032E+03  0.00000000000E+00 0.  1.
         22    1    1    2    0    0  0.85208495219E+03  0.75400101069E+03  0.12596935921E+03  0.11447421410E+04  0.00000000000E+00 0.  1.
<mgrwt>
<rscale>  0 0.22957698E+04</rscale>
<asrwt>0</asrwt>
<pdfrwt beam="1">  1        1 0.17464030E+00 0.22957698E+04</pdfrwt>
<pdfrwt beam="2">  1       -1 0.17857698E+00 0.22957698E+04</pdfrwt>
<totfact> 0.22990228E+00</totfact>
</mgrwt>
</event>
<event>
 6    1  0.9988873E-007  0.5719702E+03  0.7818608E-02  0.9965328E-01
          1   -1    0    0  501    0  0.00000000000E+00  0.00000000000E+00  0.55414747672E+02  0.55414747672E+02  0.00000000000E+00 0. -1.
         -1   -1    0    0    0  501 -0.00000000000E+00 -0.00000000000E+00 -0.14759153998E+04  0.14759153998E+04  0.00000000000E+00 0.  1.
         23    2    1    2    0    0 -0.19252867988E+03  0.76939082335E+02 -0.12199625790E+04  0.12428818267E+04  0.11601562876E+03 0.  0.
         13    1    3    3    0    0 -0.91654508033E+02  0.14329789960E+02 -0.26921540680E+03  0.28475046441E+03  0.00000000000E+00 0. -1.
        -13    1    3    3    0    0 -0.10087417185E+03  0.62609292375E+02 -0.95074717219E+03  0.95813136232E+03  0.00000000000E+00 0.  1.
         22    1    1    2    0    0  0.19252867988E+03 -0.76939082335E+02 -0.20053807319E+03  0.28844832079E+03  0.00000000000E+00 0.  1.
<mgrwt>
<rscale>  0 0.57197021E+03</rscale>
<asrwt>0</asrwt>
<pdfrwt beam="1">  1        1 0.85253465E-02 0.57197021E+03</pdfrwt>
<pdfrwt beam="2">  1       -1 0.22706389E+00 0.57197021E+03</pdfrwt>
<totfact> 0.85933815E+01</totfact>
</mgrwt>
</event>
<event>
 6    1  0.9988873E-007  0.2251971E+04  0.7818608E-02  0.8497103E-01
          1   -1    0    0  501    0  0.00000000000E+00  0.00000000000E+00  0.22280935600E+04  0.22280935600E+04  0.00000000000E+00 0. -1.
         -1   -1    0    0    0  501 -0.00000000000E+00 -0.00000000000E+00 -0.56902595940E+03  0.56902595940E+03  0.00000000000E+00 0.  1.
         23    2    1    2    0    0 -0.68082259234E+03 -0.64446494752E+03  0.16015074419E+04  0.18578817206E+04  0.89687961436E+02 0.  0.
         11    1    3    3    0    0 -0.33944863803E+03 -0.36505611018E+03  0.78718645673E+03  0.93174774434E+03  0.00000000000E+00 0.  1.
        -11    1    3    3    0    0 -0.34137395431E+03 -0.27940883734E+03  0.81432098514E+03  0.92613397622E+03  0.00000000000E+00 0. -1.
         22    1    1    2    0    0  0.68082259234E+03  0.64446494752E+03  0.57560158693E+02  0.93923779880E+03  0.00000000000E+00 0.  1.
<mgrwt>
<rscale>  0 0.22519708E+04</rscale>
<asrwt>0</asrwt>
<pdfrwt beam="1">  1        1 0.34278362E+00 0.22519708E+04</pdfrwt>
<pdfrwt beam="2">  1       -1 0.87542456E-01 0.22519708E+04</pdfrwt>
<totfact> 0.24284218E+00</totfact>
</mgrwt>
</event>
<event>
 6    1  0.9988873E-007  0.3209583E+04  0.7818608E-02  0.8186291E-01
         -1   -1    0    0    0  501 -0.00000000000E+00  0.00000000000E+00  0.83464046709E+03  0.83464046709E+03  0.00000000000E+00 0.  1.
          1   -1    0    0  501    0  0.00000000000E+00 -0.00000000000E+00 -0.30855863915E+04  0.30855863915E+04  0.00000000000E+00 0. -1.
         23    2    1    2    0    0  0.94483487420E+03  0.34731396975E+03 -0.26508046956E+04  0.28370708356E+04  0.94156565631E+02 0.  0.
         11    1    3    3    0    0  0.29406132016E+03  0.77385671264E+02 -0.89203412830E+03  0.94243593320E+03  0.00000000000E+00 0.  1.
        -11    1    3    3    0    0  0.65077355404E+03  0.26992829848E+03 -0.17587705673E+04  0.18946349024E+04  0.00000000000E+00 0. -1.
         22    1    1    2    0    0 -0.94483487420E+03 -0.34731396975E+03  0.39985877125E+03  0.10831560229E+04  0.00000000000E+00 0.  1.
<mgrwt>
<rscale>  0 0.32095827E+04</rscale>
<asrwt>0</asrwt>
<pdfrwt beam="1">  1        1 0.47470559E+00 0.32095827E+04</pdfrwt>
<pdfrwt beam="2">  1       -1 0.12840623E+00 0.32095827E+04</pdfrwt>
<totfact> 0.22599338E-01</totfact>
</mgrwt>
</event>
<event>
 6    1  0.9988873E-007  0.1324607E+04  0.7818608E-02  0.9010276E-01
          2   -1    0    0  501    0  0.00000000000E+00  0.00000000000E+00  0.82778437960E+03  0.82778437960E+03  0.00000000000E+00 0. -1.
         -2   -1    0    0    0  501 -0.00000000000E+00 -0.00000000000E+00 -0.52990378110E+03  0.52990378110E+03  0.00000000000E+00 0.  1.
         23    2    1    2    0    0  0.32161323409E+03  0.57156178189E+03  0.10329027017E+03  0.67359508316E+03  0.11376956215E+03 0.  0.
         11    1    3    3    0    0  0.26656625256E+03  0.37116696099E+03  0.55268819857E+02  0.46030112142E+03  0.00000000000E+00 0. -1.
        -11    1    3    3    0    0  0.55046981534E+02  0.20039482091E+03  0.48021450316E+02  0.21329396174E+03  0.00000000000E+00 0.  1.
         22    1    1    2    0    0 -0.32161323409E+03 -0.57156178189E+03  0.19459032833E+03  0.68409307754E+03  0.00000000000E+00 0.  1.
<mgrwt>
<rscale>  0 0.13246072E+04</rscale>
<asrwt>0</asrwt>
<pdfrwt beam="1">  1        2 0.12735144E+00 0.13246072E+04</pdfrwt>
<pdfrwt beam="2">  1       -2 0.81523658E-01 0.13246072E+04</pdfrwt>
<totfact> 0.42666297E+01</totfact>
</mgrwt>
</event>
<event>
 6    1  0.9988873E-007  0.2598123E+04  0.7818608E-02  0.8368839E-01
          2   -1    0    0  501    0  0.00000000000E+00  0.00000000000E+00  0.22505551985E+04  0.22505551985E+04  0.00000000000E+00 0. -1.
         -2   -1    0    0    0  501 -0.00000000000E+00 -0.00000000000E+00 -0.74984169894E+03  0.74984169894E+03  0.00000000000E+00 0.  1.
         23    2    1    2    0    0  0.16003862768E+03  0.41973818735E+03 -0.65445681878E+03  0.79890839888E+03  0.90268454561E+02 0.  0.
         11    1    3    3    0    0  0.10873136318E+03  0.36576795757E+03 -0.51692594017E+03  0.64251158413E+03  0.00000000000E+00 0.  1.
        -11    1    3    3    0    0  0.51307264493E+02  0.53970229778E+02 -0.13753087861E+03  0.15639681475E+03  0.00000000000E+00 0. -1.
         22    1    1    2    0    0 -0.16003862768E+03 -0.41973818735E+03  0.21551703184E+04  0.22014884986E+04  0.00000000000E+00 0. -1.
<mgrwt>
<rscale>  0 0.25981225E+04</rscale>
<asrwt>0</asrwt>
<pdfrwt beam="1">  1        2 0.34623926E+00 0.25981225E+04</pdfrwt>
<pdfrwt beam="2">  1       -2 0.11536026E+00 0.25981225E+04</pdfrwt>
<totfact> 0.25030337E+00</totfact>
</mgrwt>
</event>
<event>
 6    1  0.9988873E-007  0.1091355E+04  0.7818608E-02  0.9213659E-01
         -1   -1    0    0    0  501 -0.00000000000E+00  0.00000000000E+00  0.16989232649E+03  0.16989232649E+03  0.00000000000E+00 0.  1.
          1   -1    0    0  501    0  0.00000000000E+00 -0.00000000000E+00 -0.17526635164E+04  0.17526635164E+04  0.00000000000E+00 0. -1.
         23    2    1    2    0    0  0.33417312670E+03  0.22498570244E+03 -0.15924579144E+03  0.44312527507E+03  0.93330286638E+02 0.  0.
         11    1    3    3    0    0  0.78710681553E+02  0.88448541415E+02 -0.14414167749E+02  0.11927398753E+03  0.00000000000E+00 0.  1.
        -11    1    3    3    0    0  0.25546244515E+03  0.13653716102E+03 -0.14483162369E+03  0.32385128754E+03  0.00000000000E+00 0. -1.
         22    1    1    2    0    0 -0.33417312670E+03 -0.22498570244E+03 -0.14235253984E+04  0.14794305678E+04  0.00000000000E+00 0. -1.
<mgrwt>
<rscale>  0 0.10913553E+04</rscale>
<asrwt>0</asrwt>
<pdfrwt beam="1">  1        1 0.26964055E+00 0.10913553E+04</pdfrwt>
<pdfrwt beam="2">  1       -1 0.26137280E-01 0.10913553E+04</pdfrwt>
<totfact> 0.56816716E+01</totfact>
</mgrwt>
</event>
<event>
 6    1  0.9988873E-007  0.1973607E+04  0.7818608E-02  0.8619061E-01
          2   -1    0    0  501    0  0.00000000000E+00  0.00000000000E+00  0.23318742463E+04  0.23318742463E+04  0.00000000000E+00 0. -1.
         -2   -1    0    0    0  501 -0.00000000000E+00 -0.00000000000E+00 -0.41759586970E+03  0.41759586970E+03  0.00000000000E+00 0.  1.
         23    2    1    2    0    0 -0.40704912378E+03  0.79743846143E+03  0.38835627157E+03  0.98027952153E+03  0.92359394295E+02 0.  0.
         13    1    3    3    0    0 -0.11292920390E+03  0.30365428872E+03  0.16597227584E+03  0.36401336308E+03  0.00000000000E+00 0.  1.
        -13    1    3    3    0    0 -0.29411991988E+03  0.49378417271E+03  0.22238399573E+03  0.61626615845E+03  0.00000000000E+00 0. -1.
         22    1    1    2    0    0  0.40704912378E+03 -0.79743846143E+03  0.15259221050E+04  0.17691905944E+04  0.00000000000E+00 0. -1.
<mgrwt>
<rscale>  0 0.19736069E+04</rscale>
<asrwt>0</asrwt>
<pdfrwt beam="1">  1        2 0.35874987E+00 0.19736069E+04</pdfrwt>
<pdfrwt beam="2">  1       -2 0.64245520E-01 0.19736069E+04</pdfrwt>
<totfact> 0.90652873E+00</totfact>
</mgrwt>
</event>
<event>
 6    1  0.9988873E-007  0.1738797E+04  0.7818608E-02  0.8739541E-01
          2   -1    0    0  501    0  0.00000000000E+00  0.00000000000E+00  0.29742396429E+04  0.29742396429E+04  0.00000000000E+00 0. -1.
         -2   -1    0    0    0  501 -0.00000000000E+00 -0.00000000000E+00 -0.25413331382E+03  0.25413331382E+03  0.00000000000E+00 0.  1.
         23    2    1    2    0    0  0.32477927982E+02  0.13166964020E+03  0.29536986384E+04  0.29582672794E+04  0.92832857306E+02 0.  0.
         13    1    3    3    0    0 -0.10538168786E+02  0.22445868332E+02  0.13698328243E+04  0.13700572385E+04  0.00000000000E+00 0.  1.
        -13    1    3    3    0    0  0.43016096768E+02  0.10922377187E+03  0.15838658141E+04  0.15882100409E+04  0.00000000000E+00 0. -1.
         22    1    1    2    0    0 -0.32477927982E+02 -0.13166964020E+03 -0.23359230936E+03  0.27010567737E+03  0.00000000000E+00 0.  1.
<mgrwt>
<rscale>  0 0.17387966E+04</rscale>
<asrwt>0</asrwt>
<pdfrwt beam="1">  1        2 0.45757531E+00 0.17387966E+04</pdfrwt>
<pdfrwt beam="2">  1       -2 0.39097435E-01 0.17387966E+04</pdfrwt>
<totfact> 0.10646545E+01</totfact>
</mgrwt>
</event>
<event>
 6    1  0.9988873E-007  0.2729931E+04  0.7818608E-02  0.8325358E-01
         -2   -1    0    0    0  501 -0.00000000000E+00  0.00000000000E+00  0.55345138368E+03  0.55345138368E+03  0.00000000000E+00 0.  1.
          2   -1    0    0  501    0  0.00000000000E+00 -0.00000000000E+00 -0.33663848545E+04  0.33663848545E+04  0.00000000000E+00 0. -1.
         23    2    1    2    0    0  0.11747921124E+04 -0.51134345626E+03 -0.20775055607E+04  0.24425201418E+04  0.90921122477E+02 0.  0.
         13    1    3    3    0    0  0.67802599883E+03 -0.24895552783E+03 -0.11388790575E+04  0.13486080296E+04  0.00000000000E+00 0. -1.
        -13    1    3    3    0    0  0.49676611361E+03 -0.26238792843E+03 -0.93862650320E+03  0.10939121122E+04  0.00000000000E+00 0.  1.
         22    1    1    2    0    0 -0.11747921124E+04  0.51134345626E+03 -0.73542791012E+03  0.14773160964E+04  0.00000000000E+00 0.  1.
<mgrwt>
<rscale>  0 0.27299307E+04</rscale>
<asrwt>0</asrwt>
<pdfrwt beam="1">  1        2 0.51790537E+00 0.27299307E+04</pdfrwt>
<pdfrwt beam="2">  1       -2 0.85146366E-01 0.27299307E+04</pdfrwt>
<totfact> 0.10555070E+00</totfact>
</mgrwt>
</event>
<event>
 6    1  0.9988873E-007  0.3788535E+04  0.7818608E-02  0.8048620E-01
          2   -1    0    0  501    0  0.00000000000E+00  0.00000000000E+00  0.27828447581E+04  0.27828447581E+04  0.00000000000E+00 0. -1.
         -2   -1    0    0    0  501 -0.00000000000E+00 -0.00000000000E+00 -0.12894178180E+04  0.12894178180E+04  0.00000000000E+00 0.  1.
         23    2    1    2    0    0  0.15622370764E+04  0.62765352095E+02 -0.40034722401E+03  0.16164725287E+04  0.90450892239E+02 0.  0.
         11    1    3    3    0    0  0.95854889890E+03 -0.54336239725E+01 -0.24115120405E+03  0.98843280959E+03  0.00000000000E+00 0.  1.
        -11    1    3    3    0    0  0.60368817749E+03  0.68198976068E+02 -0.15919601996E+03  0.62803971908E+03  0.00000000000E+00 0. -1.
         22    1    1    2    0    0 -0.15622370764E+04 -0.62765352095E+02  0.18937741642E+04  0.24557900474E+04  0.00000000000E+00 0. -1.
<mgrwt>
<rscale>  0 0.37885351E+04</rscale>
<asrwt>0</asrwt>
<pdfrwt beam="1">  1        2 0.42812996E+00 0.37885351E+04</pdfrwt>
<pdfrwt beam="2">  1       -2 0.19837197E+00 0.37885351E+04</pdfrwt>
<totfact> 0.25903330E-01</totfact>
</mgrwt>
</event>
<event>
 6    1  0.9988873E-007  0.2521137E+04  0.7818608E-02  0.8395494E-01
         -1   -1    0    0    0  501 -0.00000000000E+00  0.00000000000E+00  0.55581265414E+03  0.55581265414E+03  0.00000000000E+00 0.  1.
          1   -1    0    0  501    0  0.00000000000E+00 -0.00000000000E+00 -0.28589371696E+04  0.28589371696E+04  0.00000000000E+00 0. -1.
         23    2    1    2    0    0 -0.66169945273E+03 -0.77031288141E+03 -0.14533209182E+03  0.10299445393E+04  0.91848985795E+02 0.  0.
         11    1    3    3    0    0 -0.52755878836E+03 -0.66475267959E+03 -0.13014405129E+03  0.85857549132E+03  0.00000000000E+00 0. -1.
        -11    1    3    3    0    0 -0.13414066437E+03 -0.10556020181E+03 -0.15188040537E+02  0.17136904802E+03  0.00000000000E+00 0.  1.
         22    1    1    2    0    0  0.66169945273E+03  0.77031288141E+03 -0.21577924236E+04  0.23848052844E+04  0.00000000000E+00 0. -1.
<mgrwt>
<rscale>  0 0.25211374E+04</rscale>
<asrwt>0</asrwt>
<pdfrwt beam="1">  1        1 0.43983649E+00 0.25211374E+04</pdfrwt>
<pdfrwt beam="2">  1       -1 0.85509640E-01 0.25211374E+04</pdfrwt>
<totfact> 0.90610193E-01</totfact>
</mgrwt>
</event>
<event>
 6    1  0.9988873E-007  0.1614904E+04  0.7818608E-02  0.8811444E-01
         -1   -1    0    0    0  501 -0.00000000000E+00  0.00000000000E+00  0.34995175565E+03  0.34995175565E+03  0.00000000000E+00 0.  1.
          1   -1    0    0  501    0  0.00000000000E+00 -0.00000000000E+00 -0.18630520497E+04  0.18630520497E+04  0.00000000000E+00 0. -1.
         23    2    1    2    0    0  0.56338014034E+03 -0.56598809021E+03 -0.89614947926E+03  0.12038615911E+04  0.91973585720E+02 0.  0.
         11    1    3    3    0    0  0.28311780290E+03 -0.34699889293E+03 -0.51703040666E+03  0.68402073318E+03  0.00000000000E+00 0. -1.
        -11    1    3    3    0    0  0.28026233744E+03 -0.21898919729E+03 -0.37911907260E+03  0.51984085788E+03  0.00000000000E+00 0.  1.
         22    1    1    2    0    0 -0.56338014034E+03  0.56598809021E+03 -0.61695081478E+03  0.10091422143E+04  0.00000000000E+00 0.  1.
<mgrwt>
<rscale>  0 0.16149035E+04</rscale>
<asrwt>0</asrwt>
<pdfrwt beam="1">  1        1 0.28662340E+00 0.16149035E+04</pdfrwt>
<pdfrwt beam="2">  1       -1 0.53838730E-01 0.16149035E+04</pdfrwt>
<totfact> 0.12320898E+01</totfact>
</mgrwt>
</event>
<event>
 6    1  0.9988873E-007  0.2838073E+04  0.7818608E-02  0.8291545E-01
          1   -1    0    0  501    0  0.00000000000E+00  0.00000000000E+00  0.14321133043E+04  0.14321133043E+04  0.00000000000E+00 0. -1.
         -1   -1    0    0    0  501 -0.00000000000E+00 -0.00000000000E+00 -0.14060793855E+04  0.14060793855E+04  0.00000000000E+00 0.  1.
         23    2    1    2    0    0  0.83222173146E+03  0.95117571894E+02 -0.11303397566E+04  0.14103129890E+04  0.98358522433E+02 0.  0.
         11    1    3    3    0    0  0.11697227723E+03 -0.20675347084E+02 -0.16446371746E+03  0.20287507973E+03  0.00000000000E+00 0.  1.
        -11    1    3    3    0    0  0.71524945423E+03  0.11579291898E+03 -0.96587603910E+03  0.12074379093E+04  0.00000000000E+00 0. -1.
         22    1    1    2    0    0 -0.83222173146E+03 -0.95117571894E+02  0.11563736754E+04  0.14278797008E+04  0.00000000000E+00 0. -1.
<mgrwt>
<rscale>  0 0.28380733E+04</rscale>
<asrwt>0</asrwt>
<pdfrwt beam="1">  1        1 0.22032512E+00 0.28380733E+04</pdfrwt>
<pdfrwt beam="2">  1       -1 0.21631991E+00 0.28380733E+04</pdfrwt>
<totfact> 0.73333785E-01</totfact>
</mgrwt>
</event>
<event>
 6    1  0.9988873E-007  0.3983077E+04  0.7818608E-02  0.8007969E-01
         -2   -1    0    0    0  501 -0.00000000000E+00  0.00000000000E+00  0.11172295032E+04  0.11172295032E+04  0.00000000000E+00 0.  1.
          2   -1    0    0  501    0  0.00000000000E+00 -0.00000000000E+00 -0.35500547577E+04  0.35500547577E+04  0.00000000000E+00 0. -1.
         23    2    1    2    0    0  0.15298274138E+04 -0.23877193528E+03  0.24887542328E+03  0.15706889567E+04  0.87982209788E+02 0.  0.
         13    1    3    3    0    0  0.99967686219E+03 -0.11373860048E+03  0.15721906262E+03  0.10183359621E+04  0.00000000000E+00 0.  1.
        -13    1    3    3    0    0  0.53015055158E+03 -0.12503333480E+03  0.91656360661E+02  0.55235299456E+03  0.00000000000E+00 0. -1.
         22    1    1    2    0    0 -0.15298274138E+04  0.23877193528E+03 -0.26817006778E+04  0.30965953042E+04  0.00000000000E+00 0. -1.
<mgrwt>
<rscale>  0 0.39830772E+04</rscale>
<asrwt>0</asrwt>
<pdfrwt beam="1">  1        2 0.54616227E+00 0.39830772E+04</pdfrwt>
<pdfrwt beam="2">  1       -2 0.17188146E+00 0.39830772E+04</pdfrwt>
<totfact> 0.12213115E-01</totfact>
</mgrwt>
</event>
<event>
 6    1  0.9988873E-007  0.2002424E+04  0.7818608E-02  0.8605488E-01
         -1   -1    0    0    0  501 -0.00000000000E+00  0.00000000000E+00  0.41385163119E+03  0.41385163119E+03  0.00000000000E+00 0.  1.
          1   -1    0    0  501    0  0.00000000000E+00 -0.00000000000E+00 -0.24221857045E+04  0.24221857045E+04  0.00000000000E+00 0. -1.
         23    2    1    2    0    0 -0.31844163498E+03  0.43949308844E+03  0.18303557562E+03  0.57845894548E+03  0.80953566821E+02 0.  0.
         13    1    3    3    0    0 -0.21103584822E+03  0.23363960249E+03  0.12781166268E+03  0.33979319328E+03  0.00000000000E+00 0.  1.
        -13    1    3    3    0    0 -0.10740578676E+03  0.20585348596E+03  0.55223912940E+02  0.23866575219E+03  0.00000000000E+00 0. -1.
         22    1    1    2    0    0  0.31844163498E+03 -0.43949308844E+03 -0.21913696489E+04  0.22575783902E+04  0.00000000000E+00 0. -1.
<mgrwt>
<rscale>  0 0.20024240E+04</rscale>
<asrwt>0</asrwt>
<pdfrwt beam="1">  1        1 0.37264396E+00 0.20024240E+04</pdfrwt>
<pdfrwt beam="2">  1       -1 0.63669481E-01 0.20024240E+04</pdfrwt>
<totfact> 0.35598147E+00</totfact>
</mgrwt>
</event>
<event>
 6    1  0.9988873E-007  0.2088693E+04  0.7818608E-02  0.8566241E-01
          1   -1    0    0  501    0  0.00000000000E+00  0.00000000000E+00  0.15882973009E+04  0.15882973009E+04  0.00000000000E+00 0. -1.
         -1   -1    0    0    0  501 -0.00000000000E+00 -0.00000000000E+00 -0.68668478622E+03  0.68668478622E+03  0.00000000000E+00 0.  1.
         23    2    1    2    0    0  0.38364302877E+03  0.79413051211E+03 -0.15337080092E+03  0.89991298341E+03  0.92171206718E+02 0.  0.
         13    1    3    3    0    0  0.14688480266E+03  0.21803641773E+03 -0.65141053332E+02  0.27084752452E+03  0.00000000000E+00 0. -1.
        -13    1    3    3    0    0  0.23675822611E+03  0.57609409438E+03 -0.88229747588E+02  0.62906545889E+03  0.00000000000E+00 0.  1.
         22    1    1    2    0    0 -0.38364302877E+03 -0.79413051211E+03  0.10549833156E+04  0.13750691037E+04  0.00000000000E+00 0. -1.
<mgrwt>
<rscale>  0 0.20886930E+04</rscale>
<asrwt>0</asrwt>
<pdfrwt beam="1">  1        1 0.24435343E+00 0.20886930E+04</pdfrwt>
<pdfrwt beam="2">  1       -1 0.10564381E+00 0.20886930E+04</pdfrwt>
<totfact> 0.43917704E+00</totfact>
</mgrwt>
</event>
<event>
 6    1  0.9988873E-007  0.6627216E+03  0.7818608E-02  0.9783197E-01
          2   -1    0    0  501    0  0.00000000000E+00  0.00000000000E+00  0.94140297082E+03  0.94140297082E+03  0.00000000000E+00 0. -1.
         -2   -1    0    0    0  501 -0.00000000000E+00 -0.00000000000E+00 -0.11663439342E+03  0.11663439342E+03  0.00000000000E+00 0.  1.
         23    2    1    2    0    0  0.11125542127E+03  0.11520618046E+03  0.87183610985E+03  0.89110748259E+03  0.91236562342E+02 0.  0.
         11    1    3    3    0    0  0.67656949035E+02  0.10241542688E+02  0.26319194463E+03  0.27194181669E+03  0.00000000000E+00 0.  1.
        -11    1    3    3    0    0  0.43598472231E+02  0.10496463778E+03  0.60864416522E+03  0.61916566590E+03  0.00000000000E+00 0. -1.
         22    1    1    2    0    0 -0.11125542127E+03 -0.11520618046E+03 -0.47067532447E+02  0.16692988165E+03  0.00000000000E+00 0.  1.
<mgrwt>
<rscale>  0 0.66272155E+03</rscale>
<asrwt>0</asrwt>
<pdfrwt beam="1">  1        2 0.14483122E+00 0.66272155E+03</pdfrwt>
<pdfrwt beam="2">  1       -2 0.17943753E-01 0.66272155E+03</pdfrwt>
<totfact> 0.71410824E+02</totfact>
</mgrwt>
</event>
<event>
 6    1  0.9988873E-007  0.1068233E+04  0.7818608E-02  0.9236719E-01
          1   -1    0    0  501    0  0.00000000000E+00  0.00000000000E+00  0.22757286956E+04  0.22757286956E+04  0.00000000000E+00 0. -1.
         -1   -1    0    0    0  501 -0.00000000000E+00 -0.00000000000E+00 -0.12535795043E+03  0.12535795043E+03  0.00000000000E+00 0.  1.
         23    2    1    2    0    0  0.14328059181E+03  0.29037775990E+03  0.20268485464E+04  0.20545230804E+04  0.90008256574E+02 0.  0.
         11    1    3    3    0    0  0.27420616707E+02  0.10613002968E+03  0.91755833116E+03  0.92408266108E+03  0.00000000000E+00 0.  1.
        -11    1    3    3    0    0  0.11585997511E+03  0.18424773022E+03  0.11092902153E+04  0.11304404193E+04  0.00000000000E+00 0. -1.
         22    1    1    2    0    0 -0.14328059181E+03 -0.29037775990E+03  0.12352219872E+03  0.34656356562E+03  0.00000000000E+00 0.  1.
<mgrwt>
<rscale>  0 0.10682335E+04</rscale>
<asrwt>0</asrwt>
<pdfrwt beam="1">  1        1 0.35011208E+00 0.10682335E+04</pdfrwt>
<pdfrwt beam="2">  1       -1 0.19285840E-01 0.10682335E+04</pdfrwt>
<totfact> 0.42253985E+01</totfact>
</mgrwt>
</event>
<event>
 6    1  0.9988873E-007  0.9424340E+03  0.7818608E-02  0.9374038E-01
         -1   -1    0    0    0  501 -0.00000000000E+00  0.00000000000E+00  0.15911847890E+03  0.15911847890E+03  0.00000000000E+00 0.  1.
          1   -1    0    0  501    0  0.00000000000E+00 -0.00000000000E+00 -0.13954725569E+04  0.13954725569E+04  0.00000000000E+00 0. -1.
         23    2    1    2    0    0  0.12184936167E+03  0.36077812432E+03 -0.18141065649E+03  0.43302349682E+03  0.97935696145E+02 0.  0.
         13    1    3    3    0    0  0.87577273982E+02  0.11683014273E+03 -0.81263685716E+02  0.16710130994E+03  0.00000000000E+00 0.  1.
        -13    1    3    3    0    0  0.34272087689E+02  0.24394798159E+03 -0.10014697078E+03  0.26592218688E+03  0.00000000000E+00 0. -1.
         22    1    1    2    0    0 -0.12184936167E+03 -0.36077812432E+03 -0.10549434215E+04  0.11215675390E+04  0.00000000000E+00 0. -1.
<mgrwt>
<rscale>  0 0.94243402E+03</rscale>
<asrwt>0</asrwt>
<pdfrwt beam="1">  1        1 0.21468808E+00 0.94243402E+03</pdfrwt>
<pdfrwt beam="2">  1       -1 0.24479767E-01 0.94243402E+03</pdfrwt>
<totfact> 0.11299915E+02</totfact>
</mgrwt>
</event>
<event>
 6    1  0.9988873E-007  0.4595650E+04  0.7818608E-02  0.7894102E-01
          1   -1    0    0  501    0  0.00000000000E+00  0.00000000000E+00  0.29424814584E+04  0.29424814584E+04  0.00000000000E+00 0. -1.
         -1   -1    0    0    0  501 -0.00000000000E+00 -0.00000000000E+00 -0.17944038437E+04  0.17944038437E+04  0.00000000000E+00 0.  1.
         23    2    1    2    0    0 -0.67356405126E+03  0.19226537674E+04  0.16674450455E+04  0.26344989036E+04  0.99626566410E+02 0.  0.
         11    1    3    3    0    0 -0.24464716883E+03  0.56367079219E+03  0.51572460508E+03  0.80221497584E+03  0.00000000000E+00 0. -1.
        -11    1    3    3    0    0 -0.42891688243E+03  0.13589829752E+04  0.11517204405E+04  0.18322839277E+04  0.00000000000E+00 0.  1.
         22    1    1    2    0    0  0.67356405126E+03 -0.19226537674E+04 -0.51936743079E+03  0.21023863985E+04  0.00000000000E+00 0.  1.
<mgrwt>
<rscale>  0 0.45956501E+04</rscale>
<asrwt>0</asrwt>
<pdfrwt beam="1">  1        1 0.45268945E+00 0.45956501E+04</pdfrwt>
<pdfrwt beam="2">  1       -1 0.27606213E+00 0.45956501E+04</pdfrwt>
<totfact> 0.23161075E-02</totfact>
</mgrwt>
</event>
<event>
 6    1  0.9988873E-007  0.1165329E+04  0.7818608E-02  0.9143757E-01
          1   -1    0    0  501    0  0.00000000000E+00  0.00000000000E+00  0.10354423484E+04  0.10354423484E+04  0.00000000000E+00 0. -1.
         -1   -1    0    0    0  501 -0.00000000000E+00 -0.00000000000E+00 -0.32787732545E+03  0.32787732545E+03  0.00000000000E+00 0.  1.
         23    2    1    2    0    0  0.19860244499E+03  0.53704416629E+03  0.25515822809E+03  0.63357226843E+03  0.91916974798E+02 0.  0.
         13    1    3    3    0    0  0.12046669139E+03  0.43514691553E+03  0.19872408277E+03  0.49331158805E+03  0.00000000000E+00 0.  1.
        -13    1    3    3    0    0  0.78135753595E+02  0.10189725076E+03  0.56434145321E+02  0.14026068038E+03  0.00000000000E+00 0. -1.
         22    1    1    2    0    0 -0.19860244499E+03 -0.53704416629E+03  0.45240679487E+03  0.72974740544E+03  0.00000000000E+00 0. -1.
<mgrwt>
<rscale>  0 0.11653293E+04</rscale>
<asrwt>0</asrwt>
<pdfrwt beam="1">  1        1 0.15929882E+00 0.11653293E+04</pdfrwt>
<pdfrwt beam="2">  1       -1 0.50442666E-01 0.11653293E+04</pdfrwt>
<totfact> 0.55592071E+01</totfact>
</mgrwt>
</event>
<event>
 6    1  0.9988873E-007  0.1464656E+04  0.7818608E-02  0.8908303E-01
          1   -1    0    0  501    0  0.00000000000E+00  0.00000000000E+00  0.88326093784E+03  0.88326093784E+03  0.00000000000E+00 0. -1.
         -1   -1    0    0    0  501 -0.00000000000E+00 -0.00000000000E+00 -0.60718656119E+03  0.60718656119E+03  0.00000000000E+00 0.  1.
         23    2    1    2    0    0  0.75915034999E+02 -0.21416150665E+03 -0.56733931452E+03  0.61696315576E+03  0.84506770710E+02 0.  0.
         11    1    3    3    0    0  0.65920766021E+02 -0.67393193022E+02 -0.19420938406E+03  0.21588115877E+03  0.00000000000E+00 0.  1.
        -11    1    3    3    0    0  0.99942689784E+01 -0.14676831363E+03 -0.37312993047E+03  0.40108199699E+03  0.00000000000E+00 0. -1.
         22    1    1    2    0    0 -0.75915034999E+02  0.21416150665E+03  0.84341369118E+03  0.87348434327E+03  0.00000000000E+00 0. -1.
<mgrwt>
<rscale>  0 0.14646558E+04</rscale>
<asrwt>0</asrwt>
<pdfrwt beam="1">  1        1 0.13588630E+00 0.14646558E+04</pdfrwt>
<pdfrwt beam="2">  1       -1 0.93413317E-01 0.14646558E+04</pdfrwt>
<totfact> 0.20270578E+01</totfact>
</mgrwt>
</event>
<event>
 6    1  0.9988873E-007  0.1329217E+04  0.7818608E-02  0.9006712E-01
          2   -1    0    0  501    0  0.00000000000E+00  0.00000000000E+00  0.44845395072E+03  0.44845395072E+03  0.00000000000E+00 0. -1.
         -2   -1    0    0    0  501 -0.00000000000E+00 -0.00000000000E+00 -0.98494871639E+03  0.98494871639E+03  0.00000000000E+00 0.  1.
         23    2    1    2    0    0 -0.12943373174E+03 -0.23855101864E+03 -0.92001644504E+03  0.96356380328E+03  0.91461819572E+02 0.  0.
         13    1    3    3    0    0 -0.10394312037E+03 -0.22816455782E+03 -0.73680294460E+03  0.77829417118E+03  0.00000000000E+00 0. -1.
        -13    1    3    3    0    0 -0.25490611377E+02 -0.10386460829E+02 -0.18321350044E+03  0.18526963211E+03  0.00000000000E+00 0.  1.
         22    1    1    2    0    0  0.12943373174E+03  0.23855101864E+03  0.38352167937E+03  0.46983886382E+03  0.00000000000E+00 0. -1.
<mgrwt>
<rscale>  0 0.13292165E+04</rscale>
<asrwt>0</asrwt>
<pdfrwt beam="1">  1        2 0.68992917E-01 0.13292165E+04</pdfrwt>
<pdfrwt beam="2">  1       -2 0.15153057E+00 0.13292165E+04</pdfrwt>
<totfact> 0.19899482E+01</totfact>
</mgrwt>
</event>
<event>
 6    1  0.9988873E-007  0.2691763E+04  0.7818608E-02  0.8337682E-01
          2   -1    0    0  501    0  0.00000000000E+00  0.00000000000E+00  0.25809929893E+04  0.25809929893E+04  0.00000000000E+00 0. -1.
         -2   -1    0    0    0  501 -0.00000000000E+00 -0.00000000000E+00 -0.70182181447E+03  0.70182181447E+03  0.00000000000E+00 0.  1.
         23    2    1    2    0    0 -0.70231205229E+03  0.51138040929E+03 -0.31026087802E+03  0.92731807147E+03  0.94365520439E+02 0.  0.
         11    1    3    3    0    0 -0.24571339752E+03  0.19627411198E+03 -0.66924850198E+02  0.32152377257E+03  0.00000000000E+00 0. -1.
        -11    1    3    3    0    0 -0.45659865477E+03  0.31510629731E+03 -0.24333602783E+03  0.60579429890E+03  0.00000000000E+00 0.  1.
         22    1    1    2    0    0  0.70231205229E+03 -0.51138040929E+03  0.21894320528E+04  0.23554967323E+04  0.00000000000E+00 0. -1.
<mgrwt>
<rscale>  0 0.26917631E+04</rscale>
<asrwt>0</asrwt>
<pdfrwt beam="1">  1        2 0.39707584E+00 0.26917631E+04</pdfrwt>
<pdfrwt beam="2">  1       -2 0.10797259E+00 0.26917631E+04</pdfrwt>
<totfact> 0.18833797E+00</totfact>
</mgrwt>
</event>
<event>
 6    1  0.9988873E-007  0.1264950E+04  0.7818608E-02  0.9057831E-01
          2   -1    0    0  501    0  0.00000000000E+00  0.00000000000E+00  0.81592973291E+03  0.81592973291E+03  0.00000000000E+00 0. -1.
         -2   -1    0    0    0  501 -0.00000000000E+00 -0.00000000000E+00 -0.49026862765E+03  0.49026862765E+03  0.00000000000E+00 0.  1.
         23    2    1    2    0    0  0.44491077121E+03  0.29978556180E+03 -0.17742679757E+03  0.57072952003E+03  0.80218072384E+02 0.  0.
         11    1    3    3    0    0  0.13972117521E+03  0.94107431805E+02 -0.17194010846E+02  0.16933354521E+03  0.00000000000E+00 0.  1.
        -11    1    3    3    0    0  0.30518959600E+03  0.20567812999E+03 -0.16023278672E+03  0.40139597483E+03  0.00000000000E+00 0. -1.
         22    1    1    2    0    0 -0.44491077121E+03 -0.29978556180E+03  0.50308790283E+03  0.73546884052E+03  0.00000000000E+00 0. -1.
<mgrwt>
<rscale>  0 0.12649502E+04</rscale>
<asrwt>0</asrwt>
<pdfrwt beam="1">  1        2 0.12552765E+00 0.12649502E+04</pdfrwt>
<pdfrwt beam="2">  1       -2 0.75425943E-01 0.12649502E+04</pdfrwt>
<totfact> 0.51998688E+01</totfact>
</mgrwt>
</event>
<event>
 6    1  0.9988873E-007  0.8025439E+03  0.7818608E-02  0.9556342E-01
         -1   -1    0    0    0  501 -0.00000000000E+00  0.00000000000E+00  0.24347315022E+03  0.24347315022E+03  0.00000000000E+00 0.  1.
          1   -1    0    0  501    0  0.00000000000E+00 -0.00000000000E+00 -0.66134264419E+03  0.66134264419E+03  0.00000000000E+00 0. -1.
         23    2    1    2    0    0  0.29333624524E+03  0.13713273875E+03 -0.46859965060E+03  0.57705812539E+03  0.92514359554E+02 0.  0.
         13    1    3    3    0    0  0.25588717419E+03  0.10402044018E+03 -0.33367796219E+03  0.43317372997E+03  0.00000000000E+00 0. -1.
        -13    1    3    3    0    0  0.37449071051E+02  0.33112298575E+02 -0.13492168842E+03  0.14388439542E+03  0.00000000000E+00 0.  1.
         22    1    1    2    0    0 -0.29333624524E+03 -0.13713273875E+03  0.50730156636E+02  0.32775766902E+03  0.00000000000E+00 0.  1.
<mgrwt>
<rscale>  0 0.80254390E+03</rscale>
<asrwt>0</asrwt>
<pdfrwt beam="1">  1        1 0.10174502E+00 0.80254390E+03</pdfrwt>
<pdfrwt beam="2">  1       -1 0.37457408E-01 0.80254390E+03</pdfrwt>
<totfact> 0.20587618E+02</totfact>
</mgrwt>
</event>
<event>
 6    1  0.9988873E-007  0.1638240E+04  0.7818608E-02  0.8797394E-01
          2   -1    0    0  501    0  0.00000000000E+00  0.00000000000E+00  0.31829475767E+04  0.31829475767E+04  0.00000000000E+00 0. -1.
         -2   -1    0    0    0  501 -0.00000000000E+00 -0.00000000000E+00 -0.21079750603E+03  0.21079750603E+03  0.00000000000E+00 0.  1.
         23    2    1    2    0    0 -0.65473128426E+03 -0.24171192841E+03  0.23689416398E+04  0.24712711688E+04  0.90548250487E+02 0.  0.
         11    1    3    3    0    0 -0.35213956139E+03 -0.93358753757E+02  0.11269885689E+04  0.11844075996E+04  0.00000000000E+00 0.  1.
        -11    1    3    3    0    0 -0.30259172287E+03 -0.14835317465E+03  0.12419530709E+04  0.12868635691E+04  0.00000000000E+00 0. -1.
         22    1    1    2    0    0  0.65473128426E+03  0.24171192841E+03  0.60320843086E+03  0.92247391399E+03  0.00000000000E+00 0.  1.
<mgrwt>
<rscale>  0 0.16382398E+04</rscale>
<asrwt>0</asrwt>
<pdfrwt beam="1">  1        2 0.48968421E+00 0.16382398E+04</pdfrwt>
<pdfrwt beam="2">  1       -2 0.32430388E-01 0.16382398E+04</pdfrwt>
<totfact> 0.11349777E+01</totfact>
</mgrwt>
</event>
<event>
 6    1  0.9988873E-007  0.3542345E+04  0.7818608E-02  0.8103828E-01
         -2   -1    0    0    0  501 -0.00000000000E+00  0.00000000000E+00  0.11348751619E+04  0.11348751619E+04  0.00000000000E+00 0.  1.
          2   -1    0    0  501    0  0.00000000000E+00 -0.00000000000E+00 -0.27642259150E+04  0.27642259150E+04  0.00000000000E+00 0. -1.
         23    2    1    2    0    0  0.13240728894E+04  0.11630845458E+04 -0.63437832965E+03  0.18752668939E+04  0.90859127766E+02 0.  0.
         11    1    3    3    0    0  0.12384293872E+04  0.11141669766E+04 -0.59201559084E+03  0.17679247322E+04  0.00000000000E+00 0.  1.
        -11    1    3    3    0    0  0.85643502145E+02  0.48917569194E+02 -0.42362738805E+02  0.10734216168E+03  0.00000000000E+00 0. -1.
         22    1    1    2    0    0 -0.13240728894E+04 -0.11630845458E+04 -0.99497242344E+03  0.20238341831E+04  0.00000000000E+00 0. -1.
<mgrwt>
<rscale>  0 0.35423446E+04</rscale>
<asrwt>0</asrwt>
<pdfrwt beam="1">  1        2 0.42526552E+00 0.35423446E+04</pdfrwt>
<pdfrwt beam="2">  1       -2 0.17459618E+00 0.35423446E+04</pdfrwt>
<totfact> 0.39344431E-01</totfact>
</mgrwt>
</event>
<event>
 6    1  0.9988873E-007  0.1401505E+04  0.7818608E-02  0.8952730E-01
         -2   -1    0    0    0  501 -0.00000000000E+00  0.00000000000E+00  0.19776254011E+03  0.19776254011E+03  0.00000000000E+00 0.  1.
          2   -1    0    0  501    0  0.00000000000E+00 -0.00000000000E+00 -0.24830498065E+04  0.24830498065E+04  0.00000000000E+00 0. -1.
         23    2    1    2    0    0 -0.27642766356E+03  0.28580445602E+03 -0.50341358330E+02  0.41077277599E+03  0.90019891540E+02 0.  0.
         13    1    3    3    0    0 -0.15074440451E+03  0.11098662705E+03  0.90819776481E+01  0.18741501859E+03  0.00000000000E+00 0.  1.
        -13    1    3    3    0    0 -0.12568325905E+03  0.17481782897E+03 -0.59423335978E+02  0.22335775740E+03  0.00000000000E+00 0. -1.
         22    1    1    2    0    0  0.27642766356E+03 -0.28580445602E+03 -0.22349459080E+04  0.22700395706E+04  0.00000000000E+00 0. -1.
<mgrwt>
<rscale>  0 0.14015052E+04</rscale>
<asrwt>0</asrwt>
<pdfrwt beam="1">  1        2 0.38200767E+00 0.14015052E+04</pdfrwt>
<pdfrwt beam="2">  1       -2 0.30425006E-01 0.14015052E+04</pdfrwt>
<totfact> 0.34734393E+01</totfact>
</mgrwt>
</event>
<event>
 6    1  0.9988873E-007  0.2229252E+04  0.7818608E-02  0.8506350E-01
         -2   -1    0    0    0  501 -0.00000000000E+00  0.00000000000E+00  0.49600443511E+03  0.49600443511E+03  0.00000000000E+00 0.  1.
          2   -1    0    0  501    0  0.00000000000E+00 -0.00000000000E+00 -0.25047988080E+04  0.25047988080E+04  0.00000000000E+00 0. -1.
         23    2    1    2    0    0  0.28997962946E+03  0.60602407681E+03  0.18798406943E+03  0.70358995485E+03  0.91364364089E+02 0.  0.
         11    1    3    3    0    0  0.18571898252E+03  0.47845455830E+03  0.13986340370E+03  0.53195119750E+03  0.00000000000E+00 0. -1.
        -11    1    3    3    0    0  0.10426064694E+03  0.12756951851E+03  0.48120665732E+02  0.17163875735E+03  0.00000000000E+00 0.  1.
         22    1    1    2    0    0 -0.28997962946E+03 -0.60602407681E+03 -0.21967784424E+04  0.22972132883E+04  0.00000000000E+00 0. -1.
<mgrwt>
<rscale>  0 0.22292522E+04</rscale>
<asrwt>0</asrwt>
<pdfrwt beam="1">  1        2 0.38535367E+00 0.22292522E+04</pdfrwt>
<pdfrwt beam="2">  1       -2 0.76308374E-01 0.22292522E+04</pdfrwt>
<totfact> 0.48465636E+00</totfact>
</mgrwt>
</event>
<event>
 6    1  0.9988873E-007  0.1411415E+04  0.7818608E-02  0.8945597E-01
          1   -1    0    0  501    0  0.00000000000E+00  0.00000000000E+00  0.23247613866E+04  0.23247613866E+04  0.00000000000E+00 0. -1.
         -1   -1    0    0    0  501 -0.00000000000E+00 -0.00000000000E+00 -0.21422559478E+03  0.21422559478E+03  0.00000000000E+00 0.  1.
         23    2    1    2    0    0 -0.37455957461E+03  0.32724595043E+02  0.21278522521E+04  0.21626020270E+04  0.87900776574E+02 0.  0.
         13    1    3    3    0    0 -0.11918101727E+03  0.37623652199E+02  0.53528134945E+03  0.54967788490E+03  0.00000000000E+00 0.  1.
        -13    1    3    3    0    0 -0.25537855734E+03 -0.48990571557E+01  0.15925709026E+04  0.16129241421E+04  0.00000000000E+00 0. -1.
         22    1    1    2    0    0  0.37455957461E+03 -0.32724595043E+02 -0.17316460290E+02  0.37638495433E+03  0.00000000000E+00 0.  1.
<mgrwt>
<rscale>  0 0.14114154E+04</rscale>
<asrwt>0</asrwt>
<pdfrwt beam="1">  1        1 0.35765558E+00 0.14114154E+04</pdfrwt>
<pdfrwt beam="2">  1       -1 0.32957785E-01 0.14114154E+04</pdfrwt>
<totfact> 0.15100242E+01</totfact>
</mgrwt>
</event>
<event>
 6    1  0.9988873E-007  0.3860498E+04  0.7818608E-02  0.8033295E-01
          2   -1    0    0  501    0  0.00000000000E+00  0.00000000000E+00  0.27884643188E+04  0.27884643188E+04  0.00000000000E+00 0. -1.
         -2   -1    0    0    0  501 -0.00000000000E+00 -0.00000000000E+00 -0.13361697731E+04  0.13361697731E+04  0.00000000000E+00 0.  1.
         23    2    1    2    0    0 -0.18249631859E+04 -0.14390359935E+02  0.13945250812E+04  0.22987000779E+04  0.92866214459E+02 0.  0.
         13    1    3    3    0    0 -0.34940033131E+03 -0.19151637302E+02  0.22707765173E+03  0.41714702042E+03  0.00000000000E+00 0. -1.
        -13    1    3    3    0    0 -0.14755628546E+04  0.47612773670E+01  0.11674474295E+04  0.18815530575E+04  0.00000000000E+00 0.  1.
         22    1    1    2    0    0  0.18249631859E+04  0.14390359935E+02  0.57769464424E+02  0.18259340140E+04  0.00000000000E+00 0.  1.
<mgrwt>
<rscale>  0 0.38604983E+04</rscale>
<asrwt>0</asrwt>
<pdfrwt beam="1">  1        2 0.42899451E+00 0.38604983E+04</pdfrwt>
<pdfrwt beam="2">  1       -2 0.20556458E+00 0.38604983E+04</pdfrwt>
<totfact> 0.22926782E-01</totfact>
</mgrwt>
</event>
<event>
 6    1  0.9988873E-007  0.5183376E+04  0.7818608E-02  0.7800826E-01
          2   -1    0    0  501    0  0.00000000000E+00  0.00000000000E+00  0.28294619638E+04  0.28294619638E+04  0.00000000000E+00 0. -1.
         -2   -1    0    0    0  501 -0.00000000000E+00 -0.00000000000E+00 -0.23738956961E+04  0.23738956961E+04  0.00000000000E+00 0.  1.
         23    2    1    2    0    0  0.22330989892E+04  0.45147473708E+02  0.15460647329E+04  0.27178081648E+04  0.85998094942E+02 0.  0.
         11    1    3    3    0    0  0.15506833582E+04  0.67504128148E+02  0.10539668424E+04  0.18761721109E+04  0.00000000000E+00 0.  1.
        -11    1    3    3    0    0  0.68241563099E+03 -0.22356654439E+02  0.49209789042E+03  0.84163605387E+03  0.00000000000E+00 0. -1.
         22    1    1    2    0    0 -0.22330989892E+04 -0.45147473708E+02 -0.10904984651E+04  0.24855494951E+04  0.00000000000E+00 0.  1.
<mgrwt>
<rscale>  0 0.51833763E+04</rscale>
<asrwt>0</asrwt>
<pdfrwt beam="1">  1        2 0.43530184E+00 0.51833763E+04</pdfrwt>
<pdfrwt beam="2">  1       -2 0.36521472E+00 0.51833763E+04</pdfrwt>
<totfact> 0.19835935E-02</totfact>
</mgrwt>
</event>
<event>
 6    1  0.9988873E-007  0.1911280E+04  0.7818608E-02  0.8649262E-01
         -2   -1    0    0    0  501 -0.00000000000E+00  0.00000000000E+00  0.78540794112E+03  0.78540794112E+03  0.00000000000E+00 0.  1.
          2   -1    0    0  501    0  0.00000000000E+00 -0.00000000000E+00 -0.11627687964E+04  0.11627687964E+04  0.00000000000E+00 0. -1.
         23    2    1    2    0    0 -0.60032856646E+03 -0.38852286370E+03 -0.83086368832E+03  0.11014127663E+04  0.10691683629E+03 0.  0.
         13    1    3    3    0    0 -0.28969698879E+03 -0.14590665838E+03 -0.43675422678E+03  0.54402881623E+03  0.00000000000E+00 0. -1.
        -13    1    3    3    0    0 -0.31063157767E+03 -0.24261620532E+03 -0.39410946155E+03  0.55738395008E+03  0.00000000000E+00 0.  1.
         22    1    1    2    0    0  0.60032856646E+03  0.38852286370E+03  0.45350283305E+03  0.84676397120E+03  0.00000000000E+00 0.  1.
<mgrwt>
<rscale>  0 0.19112800E+04</rscale>
<asrwt>0</asrwt>
<pdfrwt beam="1">  1        2 0.17888751E+00 0.19112800E+04</pdfrwt>
<pdfrwt beam="2">  1       -2 0.12083199E+00 0.19112800E+04</pdfrwt>
<totfact> 0.97417669E+00</totfact>
</mgrwt>
</event>
<event>
 6    1  0.9988873E-007  0.1621879E+04  0.7818608E-02  0.8807219E-01
         -1   -1    0    0    0  501 -0.00000000000E+00  0.00000000000E+00  0.16184488326E+04  0.16184488326E+04  0.00000000000E+00 0.  1.
          1   -1    0    0  501    0  0.00000000000E+00 -0.00000000000E+00 -0.40632887261E+03  0.40632887261E+03  0.00000000000E+00 0. -1.
         23    2    1    2    0    0 -0.18287418024E+03  0.43881934986E+03  0.14242226034E+04  0.15042079031E+04  0.90697320260E+02 0.  0.
         13    1    3    3    0    0 -0.81292783511E+02  0.25128584054E+03  0.90887492107E+03  0.94647066117E+03  0.00000000000E+00 0. -1.
        -13    1    3    3    0    0 -0.10158139673E+03  0.18753350931E+03  0.51534768237E+03  0.55773724190E+03  0.00000000000E+00 0.  1.
         22    1    1    2    0    0  0.18287418024E+03 -0.43881934986E+03 -0.21210264341E+03  0.52056980219E+03  0.00000000000E+00 0. -1.
<mgrwt>
<rscale>  0 0.16218785E+04</rscale>
<asrwt>0</asrwt>
<pdfrwt beam="1">  1        1 0.62512135E-01 0.16218785E+04</pdfrwt>
<pdfrwt beam="2">  1       -1 0.24899213E+00 0.16218785E+04</pdfrwt>
<totfact> 0.39845777E+00</totfact>
</mgrwt>
</event>
<event>
 6    1  0.9988873E-007  0.1255653E+04  0.7818608E-02  0.9065491E-01
         -1   -1    0    0    0  501 -0.00000000000E+00  0.00000000000E+00  0.25491610693E+03  0.25491610693E+03  0.00000000000E+00 0.  1.
          1   -1    0    0  501    0  0.00000000000E+00 -0.00000000000E+00 -0.15462583727E+04  0.15462583727E+04  0.00000000000E+00 0. -1.
         23    2    1    2    0    0  0.11177767644E+03 -0.28357282431E+03  0.13304625268E+03  0.34453778947E+03  0.89984373015E+02 0.  0.
         13    1    3    3    0    0  0.21395504897E+02 -0.13861218737E+03  0.25157887388E+02  0.14249219423E+03  0.00000000000E+00 0.  1.
        -13    1    3    3    0    0  0.90382171538E+02 -0.14496063694E+03  0.10788836529E+03  0.20204559524E+03  0.00000000000E+00 0. -1.
         22    1    1    2    0    0 -0.11177767644E+03  0.28357282431E+03 -0.14243885184E+04  0.14566366901E+04  0.00000000000E+00 0. -1.
<mgrwt>
<rscale>  0 0.12556531E+04</rscale>
<asrwt>0</asrwt>
<pdfrwt beam="1">  1        1 0.23788591E+00 0.12556531E+04</pdfrwt>
<pdfrwt beam="2">  1       -1 0.39217862E-01 0.12556531E+04</pdfrwt>
<totfact> 0.37823350E+01</totfact>
</mgrwt>
</event>
<event>
 6    1  0.9988873E-007  0.1910402E+04  0.7818608E-02  0.8649696E-01
          1   -1    0    0  501    0  0.00000000000E+00  0.00000000000E+00  0.12432442476E+04  0.12432442476E+04  0.00000000000E+00 0. -1.
         -1   -1    0    0    0  501 -0.00000000000E+00 -0.00000000000E+00 -0.73389394046E+03  0.73389394046E+03  0.00000000000E+00 0.  1.
         23    2    1    2    0    0  0.23804094168E+03 -0.92249356157E+03  0.23185094563E+03  0.98483593741E+03  0.92136320581E+02 0.  0.
         11    1    3    3    0    0  0.41204486520E+02 -0.98342092022E+02  0.51992141798E+02  0.11862613364E+03  0.00000000000E+00 0. -1.
        -11    1    3    3    0    0  0.19683645516E+03 -0.82415146955E+03  0.17985880383E+03  0.86620980378E+03  0.00000000000E+00 0.  1.
         22    1    1    2    0    0 -0.23804094168E+03  0.92249356157E+03  0.27749936157E+03  0.99230225069E+03  0.00000000000E+00 0. -1.
<mgrwt>
<rscale>  0 0.19104025E+04</rscale>
<asrwt>0</asrwt>
<pdfrwt beam="1">  1        1 0.19126835E+00 0.19104025E+04</pdfrwt>
<pdfrwt beam="2">  1       -1 0.11290676E+00 0.19104025E+04</pdfrwt>
<totfact> 0.66641383E+00</totfact>
</mgrwt>
</event>
<event>
 6    1  0.9988873E-007  0.1327847E+04  0.7818608E-02  0.9007769E-01
          1   -1    0    0  501    0  0.00000000000E+00  0.00000000000E+00  0.97402765658E+03  0.97402765658E+03  0.00000000000E+00 0. -1.
         -1   -1    0    0    0  501 -0.00000000000E+00 -0.00000000000E+00 -0.45254782487E+03  0.45254782487E+03  0.00000000000E+00 0.  1.
         23    2    1    2    0    0  0.60689938025E+03  0.80861786985E+02 -0.56752584374E+01  0.61864109339E+03  0.88425717610E+02 0.  0.
         11    1    3    3    0    0  0.31082325101E+03  0.16022836747E+02  0.33472418784E+02  0.31303071332E+03  0.00000000000E+00 0.  1.
        -11    1    3    3    0    0  0.29607612924E+03  0.64838950238E+02 -0.39147677221E+02  0.30561038007E+03  0.00000000000E+00 0. -1.
         22    1    1    2    0    0 -0.60689938025E+03 -0.80861786985E+02  0.52715509014E+03  0.80793438806E+03  0.00000000000E+00 0. -1.
<mgrwt>
<rscale>  0 0.13278465E+04</rscale>
<asrwt>0</asrwt>
<pdfrwt beam="1">  1        1 0.14985041E+00 0.13278465E+04</pdfrwt>
<pdfrwt beam="2">  1       -1 0.69622743E-01 0.13278465E+04</pdfrwt>
<totfact> 0.32449240E+01</totfact>
</mgrwt>
</event>
<event>
 6    1  0.9988873E-007  0.2600170E+04  0.7818608E-02  0.8368143E-01
         -2   -1    0    0    0  501 -0.00000000000E+00  0.00000000000E+00  0.11907323687E+04  0.11907323687E+04  0.00000000000E+00 0.  1.
          2   -1    0    0  501    0  0.00000000000E+00 -0.00000000000E+00 -0.14194805225E+04  0.14194805225E+04  0.00000000000E+00 0. -1.
         23    2    1    2    0    0 -0.81797466721E+03  0.26670132561E+03 -0.10908423207E+04  0.13922561983E+04  0.90709424279E+02 0.  0.
         13    1    3    3    0    0 -0.67952074528E+03  0.24416295645E+03 -0.95238620879E+03  0.11951583507E+04  0.00000000000E+00 0.  1.
        -13    1    3    3    0    0 -0.13845392193E+03  0.22538369159E+02 -0.13845611195E+03  0.19709784757E+03  0.00000000000E+00 0. -1.
         22    1    1    2    0    0  0.81797466721E+03 -0.26670132561E+03  0.86209416695E+03  0.12179566930E+04  0.00000000000E+00 0.  1.
<mgrwt>
<rscale>  0 0.26001703E+04</rscale>
<asrwt>0</asrwt>
<pdfrwt beam="1">  1        2 0.21838162E+00 0.26001703E+04</pdfrwt>
<pdfrwt beam="2">  1       -2 0.18318960E+00 0.26001703E+04</pdfrwt>
<totfact> 0.21509330E+00</totfact>
</mgrwt>
</event>
<event>
 6    1  0.9988873E-007  0.2736981E+04  0.7818608E-02  0.8323105E-01
          1   -1    0    0  501    0  0.00000000000E+00  0.00000000000E+00  0.26195440196E+04  0.26195440196E+04  0.00000000000E+00 0. -1.
         -1   -1    0    0    0  501 -0.00000000000E+00 -0.00000000000E+00 -0.71492067218E+03  0.71492067218E+03  0.00000000000E+00 0.  1.
         23    2    1    2    0    0 -0.47046518865E+03  0.91150673666E+03 -0.14734214345E+03  0.10403974738E+04  0.92385992551E+02 0.  0.
         11    1    3    3    0    0 -0.26124063560E+03  0.55945510603E+03 -0.50051110917E+02  0.61946896536E+03  0.00000000000E+00 0. -1.
        -11    1    3    3    0    0 -0.20922455305E+03  0.35205163063E+03 -0.97291032537E+02  0.42092850847E+03  0.00000000000E+00 0.  1.
         22    1    1    2    0    0  0.47046518865E+03 -0.91150673666E+03  0.20519654909E+04  0.22940672180E+04  0.00000000000E+00 0. -1.
<mgrwt>
<rscale>  0 0.27369809E+04</rscale>
<asrwt>0</asrwt>
<pdfrwt beam="1">  1        1 0.40300677E+00 0.27369809E+04</pdfrwt>
<pdfrwt beam="2">  1       -1 0.10998780E+00 0.27369809E+04</pdfrwt>
<totfact> 0.74250887E-01</totfact>
</mgrwt>
</event>
<event>
 6    1  0.9988873E-007  0.1386861E+04  0.7818608E-02  0.8963385E-01
         -2   -1    0    0    0  501 -0.00000000000E+00  0.00000000000E+00  0.22525945867E+03  0.22525945867E+03  0.00000000000E+00 0.  1.
          2   -1    0    0  501    0  0.00000000000E+00 -0.00000000000E+00 -0.21346305055E+04  0.21346305055E+04  0.00000000000E+00 0. -1.
         23    2    1    2    0    0  0.37590654050E+03 -0.57422340554E+03 -0.83254078165E+03  0.10829398216E+04  0.92716004063E+02 0.  0.
         11    1    3    3    0    0  0.13722423467E+03 -0.29283469162E+03 -0.40121100491E+03  0.51531826832E+03  0.00000000000E+00 0. -1.
        -11    1    3    3    0    0  0.23868230583E+03 -0.28138871392E+03 -0.43132977673E+03  0.56762155327E+03  0.00000000000E+00 0.  1.
         22    1    1    2    0    0 -0.37590654050E+03  0.57422340554E+03 -0.10768302652E+04  0.12769501426E+04  0.00000000000E+00 0. -1.
<mgrwt>
<rscale>  0 0.13868608E+04</rscale>
<asrwt>0</asrwt>
<pdfrwt beam="1">  1        2 0.32840469E+00 0.13868608E+04</pdfrwt>
<pdfrwt beam="2">  1       -2 0.34655302E-01 0.13868608E+04</pdfrwt>
<totfact> 0.42794811E+01</totfact>
</mgrwt>
</event>
<event>
 6    1  0.9988873E-007  0.1655801E+04  0.7818608E-02  0.8786982E-01
          2   -1    0    0  501    0  0.00000000000E+00  0.00000000000E+00  0.10601748922E+04  0.10601748922E+04  0.00000000000E+00 0. -1.
         -2   -1    0    0    0  501 -0.00000000000E+00 -0.00000000000E+00 -0.64651542881E+03  0.64651542881E+03  0.00000000000E+00 0.  1.
         23    2    1    2    0    0 -0.76844447092E+03  0.29226982754E+03  0.13108270145E+03  0.83733528231E+03  0.89549670116E+02 0.  0.
         11    1    3    3    0    0 -0.26937596358E+03  0.57336256125E+02  0.44052124883E+02  0.27891117892E+03  0.00000000000E+00 0.  1.
        -11    1    3    3    0    0 -0.49906850734E+03  0.23493357141E+03  0.87030576571E+02  0.55842410339E+03  0.00000000000E+00 0. -1.
         22    1    1    2    0    0  0.76844447092E+03 -0.29226982754E+03  0.28257676199E+03  0.86935503874E+03  0.00000000000E+00 0.  1.
<mgrwt>
<rscale>  0 0.16558012E+04</rscale>
<asrwt>0</asrwt>
<pdfrwt beam="1">  1        2 0.16310383E+00 0.16558012E+04</pdfrwt>
<pdfrwt beam="2">  1       -2 0.99463912E-01 0.16558012E+04</pdfrwt>
<totfact> 0.18428737E+01</totfact>
</mgrwt>
</event>
<event>
 6    1  0.9988873E-007  0.1999468E+04  0.7818608E-02  0.8606869E-01
          4   -1    0    0  501    0  0.00000000000E+00  0.00000000000E+00  0.18245876073E+04  0.18245876073E+04  0.00000000000E+00 0. -1.
         -4   -1    0    0    0  501 -0.00000000000E+00 -0.00000000000E+00 -0.54777758354E+03  0.54777758354E+03  0.00000000000E+00 0.  1.
         23    2    1    2    0    0 -0.36851895789E+03 -0.46805167736E+03  0.15892782353E+04  0.16996728553E+04  0.90575442531E+02 0.  0.
         13    1    3    3    0    0 -0.16840655429E+03 -0.20038348309E+03  0.57553484131E+03  0.63226154508E+03  0.00000000000E+00 0. -1.
        -13    1    3    3    0    0 -0.20011240360E+03 -0.26766819427E+03  0.10137433940E+04  0.10674113102E+04  0.00000000000E+00 0.  1.
         22    1    1    2    0    0  0.36851895789E+03  0.46805167736E+03 -0.31246821159E+03  0.67269233551E+03  0.00000000000E+00 0.  1.
<mgrwt>
<rscale>  0 0.19994681E+04</rscale>
<asrwt>0</asrwt>
<pdfrwt beam="1">  1        4 0.28070578E+00 0.19994681E+04</pdfrwt>
<pdfrwt beam="2">  1       -4 0.84273475E-01 0.19994681E+04</pdfrwt>
<totfact> 0.93354207E-02</totfact>
</mgrwt>
</event>
<event>
 6    1  0.9988873E-007  0.5198998E+04  0.7818608E-02  0.7798522E-01
          2   -1    0    0  501    0  0.00000000000E+00  0.00000000000E+00  0.35827871450E+04  0.35827871450E+04  0.00000000000E+00 0. -1.
         -2   -1    0    0    0  501 -0.00000000000E+00 -0.00000000000E+00 -0.18860718603E+04  0.18860718603E+04  0.00000000000E+00 0.  1.
         23    2    1    2    0    0  0.19430643775E+04  0.36111561940E+03 -0.92635561777E+03  0.21845927820E+04  0.91690932496E+02 0.  0.
         11    1    3    3    0    0  0.97194664831E+03  0.13675008251E+03 -0.44251464171E+03  0.10766615440E+04  0.00000000000E+00 0. -1.
        -11    1    3    3    0    0  0.97111772917E+03  0.22436553690E+03 -0.48384097606E+03  0.11079312380E+04  0.00000000000E+00 0.  1.
         22    1    1    2    0    0 -0.19430643775E+04 -0.36111561940E+03  0.26230709025E+04  0.32842662232E+04  0.00000000000E+00 0. -1.
<mgrwt>
<rscale>  0 0.51989976E+04</rscale>
<asrwt>0</asrwt>
<pdfrwt beam="1">  1        2 0.55119802E+00 0.51989976E+04</pdfrwt>
<pdfrwt beam="2">  1       -2 0.29016490E+00 0.51989976E+04</pdfrwt>
<totfact> 0.18538194E-02</totfact>
</mgrwt>
</event>
<event>
 6    1  0.9988873E-007  0.2938022E+04  0.7818608E-02  0.8261654E-01
         -2   -1    0    0    0  501 -0.00000000000E+00  0.00000000000E+00  0.10594223803E+04  0.10594223803E+04  0.00000000000E+00 0.  1.
          2   -1    0    0  501    0  0.00000000000E+00 -0.00000000000E+00 -0.20369533120E+04  0.20369533120E+04  0.00000000000E+00 0. -1.
         23    2    1    2    0    0 -0.12510717858E+04 -0.65921902654E+03 -0.90305901627E+03  0.16802908063E+04  0.90062581976E+02 0.  0.
         11    1    3    3    0    0 -0.80265103782E+03 -0.43075036369E+03 -0.53069716123E+03  0.10542457215E+04  0.00000000000E+00 0. -1.
        -11    1    3    3    0    0 -0.44842074798E+03 -0.22846866285E+03 -0.37236185504E+03  0.62604508481E+03  0.00000000000E+00 0.  1.
         22    1    1    2    0    0  0.12510717858E+04  0.65921902654E+03 -0.74471915401E+02  0.14160848860E+04  0.00000000000E+00 0.  1.
<mgrwt>
<rscale>  0 0.29380224E+04</rscale>
<asrwt>0</asrwt>
<pdfrwt beam="1">  1        2 0.31337743E+00 0.29380224E+04</pdfrwt>
<pdfrwt beam="2">  1       -2 0.16298806E+00 0.29380224E+04</pdfrwt>
<totfact> 0.13128858E+00</totfact>
</mgrwt>
</event>
<event>
 6    1  0.9988873E-007  0.1065758E+04  0.7818608E-02  0.9239224E-01
          2   -1    0    0  501    0  0.00000000000E+00  0.00000000000E+00  0.12469730024E+04  0.12469730024E+04  0.00000000000E+00 0. -1.
         -2   -1    0    0    0  501 -0.00000000000E+00 -0.00000000000E+00 -0.22771960479E+03  0.22771960479E+03  0.00000000000E+00 0.  1.
         23    2    1    2    0    0 -0.18761447424E+03  0.49378592500E+03  0.55280476452E+03  0.76999546801E+03  0.90973525858E+02 0.  0.
         13    1    3    3    0    0 -0.14739960159E+03  0.28438406457E+03  0.36748036908E+03  0.48748616430E+03  0.00000000000E+00 0. -1.
        -13    1    3    3    0    0 -0.40214872648E+02  0.20940186044E+03  0.18532439545E+03  0.28250930371E+03  0.00000000000E+00 0.  1.
         22    1    1    2    0    0  0.18761447424E+03 -0.49378592500E+03  0.46644863311E+03  0.70469713920E+03  0.00000000000E+00 0.  1.
<mgrwt>
<rscale>  0 0.10657583E+04</rscale>
<asrwt>0</asrwt>
<pdfrwt beam="1">  1        2 0.19184200E+00 0.10657583E+04</pdfrwt>
<pdfrwt beam="2">  1       -2 0.35033786E-01 0.10657583E+04</pdfrwt>
<totfact> 0.13496173E+02</totfact>
</mgrwt>
</event>
<event>
 6    1  0.9988873E-007  0.2699829E+04  0.7818608E-02  0.8335060E-01
          2   -1    0    0  501    0  0.00000000000E+00  0.00000000000E+00  0.27398133330E+04  0.27398133330E+04  0.00000000000E+00 0. -1.
         -2   -1    0    0    0  501 -0.00000000000E+00 -0.00000000000E+00 -0.66510700166E+03  0.66510700166E+03  0.00000000000E+00 0.  1.
         23    2    1    2    0    0 -0.99539734915E+03  0.80616110607E+03  0.50734696656E+03  0.13807348219E+04  0.91192611013E+02 0.  0.
         13    1    3    3    0    0 -0.74495954220E+03  0.56925390259E+03  0.33775947367E+03  0.99654211511E+03  0.00000000000E+00 0.  1.
        -13    1    3    3    0    0 -0.25043780695E+03  0.23690720347E+03  0.16958749289E+03  0.38419270679E+03  0.00000000000E+00 0. -1.
         22    1    1    2    0    0  0.99539734915E+03 -0.80616110607E+03  0.15673593648E+04  0.20241855127E+04  0.00000000000E+00 0. -1.
<mgrwt>
<rscale>  0 0.26998289E+04</rscale>
<asrwt>0</asrwt>
<pdfrwt beam="1">  1        2 0.42150974E+00 0.26998289E+04</pdfrwt>
<pdfrwt beam="2">  1       -2 0.10232416E+00 0.26998289E+04</pdfrwt>
<totfact> 0.17240934E+00</totfact>
</mgrwt>
</event>
<event>
 6    1  0.9988873E-007  0.3597491E+04  0.7818608E-02  0.8091067E-01
          2   -1    0    0  501    0  0.00000000000E+00  0.00000000000E+00  0.25066835798E+04  0.25066835798E+04  0.00000000000E+00 0. -1.
         -2   -1    0    0    0  501 -0.00000000000E+00 -0.00000000000E+00 -0.12907437933E+04  0.12907437933E+04  0.00000000000E+00 0.  1.
         23    2    1    2    0    0  0.11218731793E+04  0.22905475041E+03 -0.85441527869E+03  0.14315373493E+04  0.90599144095E+02 0.  0.
         13    1    3    3    0    0  0.40854427162E+03  0.10919469428E+03 -0.36016561569E+03  0.55547382824E+03  0.00000000000E+00 0.  1.
        -13    1    3    3    0    0  0.71332890767E+03  0.11986005613E+03 -0.49424966299E+03  0.87606352107E+03  0.00000000000E+00 0. -1.
         22    1    1    2    0    0 -0.11218731793E+04 -0.22905475041E+03  0.20703550651E+04  0.23658900238E+04  0.00000000000E+00 0. -1.
<mgrwt>
<rscale>  0 0.35974915E+04</rscale>
<asrwt>0</asrwt>
<pdfrwt beam="1">  1        2 0.38564363E+00 0.35974915E+04</pdfrwt>
<pdfrwt beam="2">  1       -2 0.19857597E+00 0.35974915E+04</pdfrwt>
<totfact> 0.38219812E-01</totfact>
</mgrwt>
</event>
<event>
 6    1  0.9988873E-007  0.2171272E+04  0.7818608E-02  0.8530481E-01
          3   -1    0    0  501    0  0.00000000000E+00  0.00000000000E+00  0.13564127818E+04  0.13564127818E+04  0.00000000000E+00 0. -1.
         -3   -1    0    0    0  501 -0.00000000000E+00 -0.00000000000E+00 -0.86891391684E+03  0.86891391684E+03  0.00000000000E+00 0.  1.
         23    2    1    2    0    0 -0.67281533802E+01  0.77897679900E+03 -0.52794462605E+03  0.94549248873E+03  0.91544506368E+02 0.  0.
         11    1    3    3    0    0 -0.29719884948E+02  0.69738050069E+03 -0.48863213532E+03  0.85204706324E+03  0.00000000000E+00 0.  1.
        -11    1    3    3    0    0  0.22991731568E+02  0.81596298315E+02 -0.39312490725E+02  0.93445425497E+02  0.00000000000E+00 0. -1.
         22    1    1    2    0    0  0.67281533802E+01 -0.77897679900E+03  0.10154434911E+04  0.12798342100E+04  0.00000000000E+00 0. -1.
<mgrwt>
<rscale>  0 0.21712724E+04</rscale>
<asrwt>0</asrwt>
<pdfrwt beam="1">  1        3 0.20867889E+00 0.21712724E+04</pdfrwt>
<pdfrwt beam="2">  1       -3 0.13367906E+00 0.21712724E+04</pdfrwt>
<totfact> 0.13460139E-01</totfact>
</mgrwt>
</event>
<event>
 6    1  0.9988873E-007  0.2096781E+04  0.7818608E-02  0.8562663E-01
          1   -1    0    0  501    0  0.00000000000E+00  0.00000000000E+00  0.13893097423E+04  0.13893097423E+04  0.00000000000E+00 0. -1.
         -1   -1    0    0    0  501 -0.00000000000E+00 -0.00000000000E+00 -0.79112822922E+03  0.79112822922E+03  0.00000000000E+00 0.  1.
         23    2    1    2    0    0  0.96363599038E+03  0.85308661538E+02  0.71444686369E+03  0.12060717563E+04  0.91120088367E+02 0.  0.
         11    1    3    3    0    0  0.42817099747E+03 -0.53350951921E+01  0.29784035765E+03  0.52160113588E+03  0.00000000000E+00 0.  1.
        -11    1    3    3    0    0  0.53546499291E+03  0.90643756730E+02  0.41660650604E+03  0.68447062037E+03  0.00000000000E+00 0. -1.
         22    1    1    2    0    0 -0.96363599038E+03 -0.85308661538E+02 -0.11626535062E+03  0.97436621526E+03  0.00000000000E+00 0.  1.
<mgrwt>
<rscale>  0 0.20967805E+04</rscale>
<asrwt>0</asrwt>
<pdfrwt beam="1">  1        1 0.21373996E+00 0.20967805E+04</pdfrwt>
<pdfrwt beam="2">  1       -1 0.12171204E+00 0.20967805E+04</pdfrwt>
<totfact> 0.42995919E+00</totfact>
</mgrwt>
</event>
<event>
 6    1  0.9988873E-007  0.1322633E+04  0.7818608E-02  0.9011807E-01
         -2   -1    0    0    0  501 -0.00000000000E+00  0.00000000000E+00  0.59664611240E+03  0.59664611240E+03  0.00000000000E+00 0.  1.
          2   -1    0    0  501    0  0.00000000000E+00 -0.00000000000E+00 -0.73299606840E+03  0.73299606840E+03  0.00000000000E+00 0. -1.
         23    2    1    2    0    0 -0.22516213454E+03  0.60643444258E+03 -0.19185477503E+03  0.68037990336E+03  0.87451919439E+02 0.  0.
         13    1    3    3    0    0 -0.12918403416E+03  0.45430365279E+03 -0.12605070552E+03  0.48884466243E+03  0.00000000000E+00 0. -1.
        -13    1    3    3    0    0 -0.95978100380E+02  0.15213078979E+03 -0.65804069506E+02  0.19153524093E+03  0.00000000000E+00 0.  1.
         22    1    1    2    0    0  0.22516213454E+03 -0.60643444258E+03  0.55504819025E+02  0.64926227744E+03  0.00000000000E+00 0. -1.
<mgrwt>
<rscale>  0 0.13226326E+04</rscale>
<asrwt>0</asrwt>
<pdfrwt beam="1">  1        2 0.11276863E+00 0.13226326E+04</pdfrwt>
<pdfrwt beam="2">  1       -2 0.91791710E-01 0.13226326E+04</pdfrwt>
<totfact> 0.38183737E+01</totfact>
</mgrwt>
</event>
<event>
 6    1  0.9988873E-007  0.2101189E+04  0.7818608E-02  0.8560720E-01
          2   -1    0    0  501    0  0.00000000000E+00  0.00000000000E+00  0.19145171774E+04  0.19145171774E+04  0.00000000000E+00 0. -1.
         -2   -1    0    0    0  501 -0.00000000000E+00 -0.00000000000E+00 -0.57651522481E+03  0.57651522481E+03  0.00000000000E+00 0.  1.
         23    2    1    2    0    0  0.16225742636E+02  0.83748350270E+03 -0.77525645865E+02  0.84623445900E+03  0.91981747172E+02 0.  0.
         11    1    3    3    0    0  0.35137345828E+02  0.34098598534E+03  0.35240252771E+01  0.34280970526E+03  0.00000000000E+00 0. -1.
        -11    1    3    3    0    0 -0.18911603192E+02  0.49649751737E+03 -0.81049671142E+02  0.50342475374E+03  0.00000000000E+00 0.  1.
         22    1    1    2    0    0 -0.16225742636E+02 -0.83748350270E+03  0.14155275985E+04  0.16447979432E+04  0.00000000000E+00 0. -1.
<mgrwt>
<rscale>  0 0.21011885E+04</rscale>
<asrwt>0</asrwt>
<pdfrwt beam="1">  1        2 0.29454110E+00 0.21011885E+04</pdfrwt>
<pdfrwt beam="2">  1       -2 0.88694651E-01 0.21011885E+04</pdfrwt>
<totfact> 0.75067326E+00</totfact>
</mgrwt>
</event>
<event>
 6    1  0.9988873E-007  0.9196072E+03  0.7818608E-02  0.9401398E-01
         -1   -1    0    0    0  501 -0.00000000000E+00  0.00000000000E+00  0.53662814469E+03  0.53662814469E+03  0.00000000000E+00 0.  1.
          1   -1    0    0  501    0  0.00000000000E+00 -0.00000000000E+00 -0.39397740001E+03  0.39397740001E+03  0.00000000000E+00 0. -1.
         23    2    1    2    0    0 -0.29560709818E+02 -0.31701402534E+03 -0.25981867226E+03  0.41742588864E+03  0.73259144304E+02 0.  0.
         11    1    3    3    0    0  0.11411276352E+02 -0.14877136727E+03 -0.86694290647E+02  0.17256603658E+03  0.00000000000E+00 0.  1.
        -11    1    3    3    0    0 -0.40971986170E+02 -0.16824265806E+03 -0.17312438161E+03  0.24485985206E+03  0.00000000000E+00 0. -1.
         22    1    1    2    0    0  0.29560709818E+02  0.31701402534E+03  0.40246941694E+03  0.51317965606E+03  0.00000000000E+00 0.  1.
<mgrwt>
<rscale>  0 0.91960722E+03</rscale>
<asrwt>0</asrwt>
<pdfrwt beam="1">  1        1 0.60611908E-01 0.91960722E+03</pdfrwt>
<pdfrwt beam="2">  1       -1 0.82558176E-01 0.91960722E+03</pdfrwt>
<totfact> 0.89949132E+01</totfact>
</mgrwt>
</event>
<event>
 6    1  0.9988873E-007  0.2170583E+04  0.7818608E-02  0.8530773E-01
         -2   -1    0    0    0  501 -0.00000000000E+00  0.00000000000E+00  0.51362422952E+03  0.51362422952E+03  0.00000000000E+00 0.  1.
          2   -1    0    0  501    0  0.00000000000E+00 -0.00000000000E+00 -0.22932290248E+04  0.22932290248E+04  0.00000000000E+00 0. -1.
         23    2    1    2    0    0 -0.92348129231E+03 -0.43733541065E+03 -0.42585205202E+03  0.11107617331E+04  0.91442324643E+02 0.  0.
         13    1    3    3    0    0 -0.35427338810E+03 -0.21694901800E+03 -0.17923886489E+03  0.45244124548E+03  0.00000000000E+00 0. -1.
        -13    1    3    3    0    0 -0.56920790421E+03 -0.22038639266E+03 -0.24661318713E+03  0.65832048757E+03  0.00000000000E+00 0.  1.
         22    1    1    2    0    0  0.92348129231E+03  0.43733541065E+03 -0.13537527432E+04  0.16960915213E+04  0.00000000000E+00 0.  1.
<mgrwt>
<rscale>  0 0.21705833E+04</rscale>
<asrwt>0</asrwt>
<pdfrwt beam="1">  1        2 0.35280447E+00 0.21705833E+04</pdfrwt>
<pdfrwt beam="2">  1       -2 0.79019111E-01 0.21705833E+04</pdfrwt>
<totfact> 0.59555412E+00</totfact>
</mgrwt>
</event>
<event>
 6    1  0.9988873E-007  0.2292074E+04  0.7818608E-02  0.8481053E-01
          2   -1    0    0  501    0  0.00000000000E+00  0.00000000000E+00  0.20452348361E+04  0.20452348361E+04  0.00000000000E+00 0. -1.
         -2   -1    0    0    0  501 -0.00000000000E+00 -0.00000000000E+00 -0.64217602067E+03  0.64217602067E+03  0.00000000000E+00 0.  1.
         23    2    1    2    0    0 -0.54460023799E+03  0.13717820994E+03  0.18714730783E+04  0.19560975162E+04  0.92188553952E+02 0.  0.
         11    1    3    3    0    0 -0.15359320985E+03  0.10466050125E+02  0.41093691854E+03  0.43882748699E+03  0.00000000000E+00 0. -1.
        -11    1    3    3    0    0 -0.39100702814E+03  0.12671215982E+03  0.14605361597E+04  0.15172700292E+04  0.00000000000E+00 0.  1.
         22    1    1    2    0    0  0.54460023799E+03 -0.13717820994E+03 -0.46841426285E+03  0.73131334060E+03  0.00000000000E+00 0.  1.
<mgrwt>
<rscale>  0 0.22920740E+04</rscale>
<asrwt>0</asrwt>
<pdfrwt beam="1">  1        2 0.31465151E+00 0.22920740E+04</pdfrwt>
<pdfrwt beam="2">  1       -2 0.98796312E-01 0.22920740E+04</pdfrwt>
<totfact> 0.48612446E+00</totfact>
</mgrwt>
</event>
<event>
 6    1  0.9988873E-007  0.2162491E+04  0.7818608E-02  0.8534205E-01
          2   -1    0    0  501    0  0.00000000000E+00  0.00000000000E+00  0.99798522981E+03  0.99798522981E+03  0.00000000000E+00 0. -1.
         -2   -1    0    0    0  501 -0.00000000000E+00 -0.00000000000E+00 -0.11714516395E+04  0.11714516395E+04  0.00000000000E+00 0.  1.
         23    2    1    2    0    0  0.52983443276E+03  0.43231577857E+03 -0.92488684787E+03  0.11534377879E+04  0.85916184120E+02 0.  0.
         11    1    3    3    0    0  0.30283218721E+03  0.19605103306E+03 -0.51248595964E+03  0.62672577736E+03  0.00000000000E+00 0. -1.
        -11    1    3    3    0    0  0.22700224555E+03  0.23626474552E+03 -0.41240088823E+03  0.52671201056E+03  0.00000000000E+00 0.  1.
         22    1    1    2    0    0 -0.52983443276E+03 -0.43231577857E+03  0.75142043816E+03  0.10159990814E+04  0.00000000000E+00 0. -1.
<mgrwt>
<rscale>  0 0.21624906E+04</rscale>
<asrwt>0</asrwt>
<pdfrwt beam="1">  1        2 0.15353619E+00 0.21624906E+04</pdfrwt>
<pdfrwt beam="2">  1       -2 0.18022333E+00 0.21624906E+04</pdfrwt>
<totfact> 0.41843549E+00</totfact>
</mgrwt>
</event>
<event>
 6    1  0.9988873E-007  0.5753711E+03  0.7818608E-02  0.9957863E-01
          1   -1    0    0  501    0  0.00000000000E+00  0.00000000000E+00  0.15732173231E+04  0.15732173231E+04  0.00000000000E+00 0. -1.
         -1   -1    0    0    0  501 -0.00000000000E+00 -0.00000000000E+00 -0.52607462576E+02  0.52607462576E+02  0.00000000000E+00 0.  1.
         23    2    1    2    0    0 -0.23955135246E+03 -0.68865317975E+01  0.36738293913E+03  0.44796035926E+03  0.90917461016E+02 0.  0.
         13    1    3    3    0    0 -0.60519096711E+02 -0.30591218341E+02  0.15494215943E+03  0.16913147689E+03  0.00000000000E+00 0. -1.
        -13    1    3    3    0    0 -0.17903225575E+03  0.23704686544E+02  0.21244077970E+03  0.27882888237E+03  0.00000000000E+00 0.  1.
         22    1    1    2    0    0  0.23955135246E+03  0.68865317975E+01  0.11532269214E+04  0.11778644264E+04  0.00000000000E+00 0.  1.
<mgrwt>
<rscale>  0 0.57537109E+03</rscale>
<asrwt>0</asrwt>
<pdfrwt beam="1">  1        1 0.24203340E+00 0.57537109E+03</pdfrwt>
<pdfrwt beam="2">  1       -1 0.80934570E-02 0.57537109E+03</pdfrwt>
<totfact> 0.52787244E+02</totfact>
</mgrwt>
</event>
<event>
 6    1  0.9988873E-007  0.1147777E+04  0.7818608E-02  0.9159836E-01
          2   -1    0    0  501    0  0.00000000000E+00  0.00000000000E+00  0.20362684228E+04  0.20362684228E+04  0.00000000000E+00 0. -1.
         -2   -1    0    0    0  501 -0.00000000000E+00 -0.00000000000E+00 -0.16174109175E+03  0.16174109175E+03  0.00000000000E+00 0.  1.
         23    2    1    2    0    0  0.27768716665E+03  0.49113833371E+03  0.10645319854E+04  0.12108826305E+04  0.12116670913E+03 0.  0.
         11    1    3    3    0    0  0.23331707531E+03  0.34345139059E+03  0.85746767696E+03  0.95270485060E+03  0.00000000000E+00 0. -1.
        -11    1    3    3    0    0  0.44370091342E+02  0.14768694312E+03  0.20706430847E+03  0.25817777987E+03  0.00000000000E+00 0.  1.
         22    1    1    2    0    0 -0.27768716665E+03 -0.49113833371E+03  0.80999534562E+03  0.98712688409E+03  0.00000000000E+00 0. -1.
<mgrwt>
<rscale>  0 0.11477775E+04</rscale>
<asrwt>0</asrwt>
<pdfrwt beam="1">  1        2 0.31327205E+00 0.11477775E+04</pdfrwt>
<pdfrwt beam="2">  1       -2 0.24883246E-01 0.11477775E+04</pdfrwt>
<totfact> 0.91538032E+01</totfact>
</mgrwt>
</event>
<event>
 6    1  0.9988873E-007  0.2783433E+04  0.7818608E-02  0.8308430E-01
          1   -1    0    0  501    0  0.00000000000E+00  0.00000000000E+00  0.29179283114E+04  0.29179283114E+04  0.00000000000E+00 0. -1.
         -1   -1    0    0    0  501 -0.00000000000E+00 -0.00000000000E+00 -0.66378425496E+03  0.66378425496E+03  0.00000000000E+00 0.  1.
         23    2    1    2    0    0  0.35142809373E+03 -0.52808540041E+03 -0.46353193529E+03  0.79098888043E+03  0.91791387154E+02 0.  0.
         11    1    3    3    0    0  0.15912044521E+03 -0.23240363000E+03 -0.26243742444E+03  0.38497294070E+03  0.00000000000E+00 0. -1.
        -11    1    3    3    0    0  0.19230764852E+03 -0.29568177040E+03 -0.20109451085E+03  0.40601593973E+03  0.00000000000E+00 0.  1.
         22    1    1    2    0    0 -0.35142809373E+03  0.52808540041E+03  0.27176759918E+04  0.27907236860E+04  0.00000000000E+00 0. -1.
<mgrwt>
<rscale>  0 0.27834330E+04</rscale>
<asrwt>0</asrwt>
<pdfrwt beam="1">  1        1 0.44891204E+00 0.27834330E+04</pdfrwt>
<pdfrwt beam="2">  1       -1 0.10212066E+00 0.27834330E+04</pdfrwt>
<totfact> 0.53958207E-01</totfact>
</mgrwt>
</event>
<event>
 6    1  0.1043550E-006  0.2910932E+04  0.7818608E-02  0.8269632E-01
          2   -1    0    0  501    0  0.00000000000E+00  0.00000000000E+00  0.10861827216E+04  0.10861827216E+04  0.00000000000E+00 0. -1.
         -2   -1    0    0    0  501 -0.00000000000E+00 -0.00000000000E+00 -0.19502994062E+04  0.19502994062E+04  0.00000000000E+00 0.  1.
         23    2    1    2    0    0 -0.25659940933E+03  0.36265723561E+03  0.10121213817E+04  0.11083657389E+04  0.81984098061E+02 0.  0.
         13    1    3    3    0    0 -0.10206125429E+03  0.17852036044E+03  0.37989756618E+03  0.43198168885E+03  0.00000000000E+00 0. -1.
        -13    1    3    3    0    0 -0.15453815503E+03  0.18413687517E+03  0.63222381555E+03  0.67638405001E+03  0.00000000000E+00 0.  1.
         22    1    1    2    0    0  0.25659940933E+03 -0.36265723561E+03 -0.18762380664E+04  0.19281163889E+04  0.00000000000E+00 0.  1.
<mgrwt>
<rscale>  0 0.29109322E+04</rscale>
<asrwt>0</asrwt>
<pdfrwt beam="1">  1        2 0.16710503E+00 0.29109322E+04</pdfrwt>
<pdfrwt beam="2">  1       -2 0.30004606E+00 0.29109322E+04</pdfrwt>
<totfact> 0.60854903E-01</totfact>
</mgrwt>
</event>
<event>
 6    1  0.9988873E-007  0.7047375E+04  0.7818608E-02  0.7572569E-01
          2   -1    0    0  501    0  0.00000000000E+00  0.00000000000E+00  0.28330372388E+04  0.28330372388E+04  0.00000000000E+00 0. -1.
         -2   -1    0    0    0  501 -0.00000000000E+00 -0.00000000000E+00 -0.43827072876E+04  0.43827072876E+04  0.00000000000E+00 0.  1.
         23    2    1    2    0    0 -0.33614533830E+04 -0.29009234052E+03 -0.18133491245E+04  0.38315091524E+04  0.93300189537E+02 0.  0.
         13    1    3    3    0    0 -0.22094276530E+04 -0.15735948314E+03 -0.11568034629E+04  0.24989051227E+04  0.00000000000E+00 0.  1.
        -13    1    3    3    0    0 -0.11520257300E+04 -0.13273285737E+03 -0.65654566159E+03  0.13326040296E+04  0.00000000000E+00 0. -1.
         22    1    1    2    0    0  0.33614533830E+04  0.29009234052E+03  0.26367907579E+03  0.33842353740E+04  0.00000000000E+00 0. -1.
<mgrwt>
<rscale>  0 0.70473748E+04</rscale>
<asrwt>0</asrwt>
<pdfrwt beam="1">  1        2 0.43585188E+00 0.70473748E+04</pdfrwt>
<pdfrwt beam="2">  1       -2 0.67426266E+00 0.70473748E+04</pdfrwt>
<totfact> 0.39374583E-04</totfact>
</mgrwt>
</event>
<event>
 6    1  0.9988873E-007  0.3125340E+04  0.7818608E-02  0.8208818E-01
         -1   -1    0    0    0  501 -0.00000000000E+00  0.00000000000E+00  0.77889840592E+03  0.77889840592E+03  0.00000000000E+00 0.  1.
          1   -1    0    0  501    0  0.00000000000E+00 -0.00000000000E+00 -0.31351161018E+04  0.31351161018E+04  0.00000000000E+00 0. -1.
         23    2    1    2    0    0 -0.12476719427E+04 -0.93824447701E+03 -0.11404632066E+04  0.19353667489E+04  0.89443568776E+02 0.  0.
         11    1    3    3    0    0 -0.21525552581E+03 -0.18753908114E+03 -0.24366922748E+03  0.37534056638E+03  0.00000000000E+00 0.  1.
        -11    1    3    3    0    0 -0.10324164169E+04 -0.75070539587E+03 -0.89679397910E+03  0.15600261825E+04  0.00000000000E+00 0. -1.
         22    1    1    2    0    0  0.12476719427E+04  0.93824447701E+03 -0.12157544893E+04  0.19786477588E+04  0.00000000000E+00 0. -1.
<mgrwt>
<rscale>  0 0.31253396E+04</rscale>
<asrwt>0</asrwt>
<pdfrwt beam="1">  1        1 0.48232555E+00 0.31253396E+04</pdfrwt>
<pdfrwt beam="2">  1       -1 0.11983052E+00 0.31253396E+04</pdfrwt>
<totfact> 0.24838049E-01</totfact>
</mgrwt>
</event>
<event>
 6    1  0.9988873E-007  0.3673644E+04  0.7818608E-02  0.8073828E-01
          2   -1    0    0  501    0  0.00000000000E+00  0.00000000000E+00  0.22355764319E+04  0.22355764319E+04  0.00000000000E+00 0. -1.
         -2   -1    0    0    0  501 -0.00000000000E+00 -0.00000000000E+00 -0.15091923536E+04  0.15091923536E+04  0.00000000000E+00 0.  1.
         23    2    1    2    0    0  0.12081284234E+03  0.18176197232E+04  0.59458721001E+03  0.19183768190E+04  0.91095928696E+02 0.  0.
         11    1    3    3    0    0  0.11553060862E+03  0.11051561944E+04  0.37761724286E+03  0.11735895014E+04  0.00000000000E+00 0. -1.
        -11    1    3    3    0    0  0.52822337183E+01  0.71246352875E+03  0.21696996714E+03  0.74478731758E+03  0.00000000000E+00 0.  1.
         22    1    1    2    0    0 -0.12081284234E+03 -0.18176197232E+04  0.13179686834E+03  0.18263919666E+04  0.00000000000E+00 0. -1.
<mgrwt>
<rscale>  0 0.36736439E+04</rscale>
<asrwt>0</asrwt>
<pdfrwt beam="1">  1        2 0.34393484E+00 0.36736439E+04</pdfrwt>
<pdfrwt beam="2">  1       -2 0.23218344E+00 0.36736439E+04</pdfrwt>
<totfact> 0.33097736E-01</totfact>
</mgrwt>
</event>
<event>
 6    1  0.9988873E-007  0.1913055E+04  0.7818608E-02  0.8648385E-01
          2   -1    0    0  501    0  0.00000000000E+00  0.00000000000E+00  0.18106938174E+04  0.18106938174E+04  0.00000000000E+00 0. -1.
         -2   -1    0    0    0  501 -0.00000000000E+00 -0.00000000000E+00 -0.50530060813E+03  0.50530060813E+03  0.00000000000E+00 0.  1.
         23    2    1    2    0    0 -0.16657448903E+03 -0.48962431523E+03  0.16251768607E+04  0.17079314237E+04  0.91383199925E+02 0.  0.
         11    1    3    3    0    0 -0.15424781407E+03 -0.40352545048E+03  0.12413241779E+04  0.13143480863E+04  0.00000000000E+00 0.  1.
        -11    1    3    3    0    0 -0.12326674964E+02 -0.86098864747E+02  0.38385268273E+03  0.39358333738E+03  0.00000000000E+00 0. -1.
         22    1    1    2    0    0  0.16657448903E+03  0.48962431523E+03 -0.31978365139E+03  0.60806300180E+03  0.00000000000E+00 0.  1.
<mgrwt>
<rscale>  0 0.19130548E+04</rscale>
<asrwt>0</asrwt>
<pdfrwt beam="1">  1        2 0.27856828E+00 0.19130548E+04</pdfrwt>
<pdfrwt beam="2">  1       -2 0.77738556E-01 0.19130548E+04</pdfrwt>
<totfact> 0.11738321E+01</totfact>
</mgrwt>
</event>
<event>
 6    1  0.9988873E-007  0.9008792E+03  0.7818608E-02  0.9424483E-01
          2   -1    0    0  501    0  0.00000000000E+00  0.00000000000E+00  0.10071580887E+04  0.10071580887E+04  0.00000000000E+00 0. -1.
         -2   -1    0    0    0  501 -0.00000000000E+00 -0.00000000000E+00 -0.20145378905E+03  0.20145378905E+03  0.00000000000E+00 0.  1.
         23    2    1    2    0    0 -0.17546717146E+03 -0.20608758415E+03 -0.68756499228E+02  0.29321988009E+03  0.89384681532E+02 0.  0.
         13    1    3    3    0    0 -0.72824332964E+02 -0.11754899884E+03  0.60192049981E+01  0.13841019265E+03  0.00000000000E+00 0. -1.
        -13    1    3    3    0    0 -0.10264283849E+03 -0.88538585309E+02 -0.74775704226E+02  0.15480968744E+03  0.00000000000E+00 0.  1.
         22    1    1    2    0    0  0.17546717146E+03  0.20608758415E+03  0.87446079885E+03  0.91539199763E+03  0.00000000000E+00 0. -1.
<mgrwt>
<rscale>  0 0.90087916E+03</rscale>
<asrwt>0</asrwt>
<pdfrwt beam="1">  1        2 0.15494740E+00 0.90087916E+03</pdfrwt>
<pdfrwt beam="2">  1       -2 0.30992891E-01 0.90087916E+03</pdfrwt>
<totfact> 0.24073000E+02</totfact>
</mgrwt>
</event>
<event>
 6    1  0.9988873E-007  0.2777916E+04  0.7818608E-02  0.8310157E-01
          2   -1    0    0  501    0  0.00000000000E+00  0.00000000000E+00  0.30165239607E+04  0.30165239607E+04  0.00000000000E+00 0. -1.
         -2   -1    0    0    0  501 -0.00000000000E+00 -0.00000000000E+00 -0.63954558074E+03  0.63954558074E+03  0.00000000000E+00 0.  1.
         23    2    1    2    0    0  0.30216505581E+02 -0.10046093643E+04 -0.69009369322E+02  0.10116397198E+04  0.92193370575E+02 0.  0.
         11    1    3    3    0    0  0.93950658815E+01 -0.28336117972E+03 -0.61208939681E+02  0.29004889197E+03  0.00000000000E+00 0.  1.
        -11    1    3    3    0    0  0.20821439700E+02 -0.72124818456E+03 -0.78004296411E+01  0.72159082782E+03  0.00000000000E+00 0. -1.
         22    1    1    2    0    0 -0.30216505581E+02  0.10046093643E+04  0.24459877493E+04  0.26444298216E+04  0.00000000000E+00 0. -1.
<mgrwt>
<rscale>  0 0.27779162E+04</rscale>
<asrwt>0</asrwt>
<pdfrwt beam="1">  1        2 0.46408060E+00 0.27779162E+04</pdfrwt>
<pdfrwt beam="2">  1       -2 0.98391629E-01 0.27779162E+04</pdfrwt>
<totfact> 0.12714618E+00</totfact>
</mgrwt>
</event>
<event>
 6    1  0.9988873E-007  0.3272472E+04  0.7818608E-02  0.8169935E-01
         -2   -1    0    0    0  501 -0.00000000000E+00  0.00000000000E+00  0.14702064584E+04  0.14702064584E+04  0.00000000000E+00 0.  1.
          2   -1    0    0  501    0  0.00000000000E+00 -0.00000000000E+00 -0.18210154870E+04  0.18210154870E+04  0.00000000000E+00 0. -1.
         23    2    1    2    0    0 -0.13893020378E+04 -0.63718002909E+02  0.68909422171E+03  0.15546682014E+04  0.89006931488E+02 0.  0.
         11    1    3    3    0    0 -0.26949484684E+03  0.19320531749E+02  0.11670914458E+03  0.29431578253E+03  0.00000000000E+00 0.  1.
        -11    1    3    3    0    0 -0.11198071910E+04 -0.83038534658E+02  0.57238507713E+03  0.12603524188E+04  0.00000000000E+00 0. -1.
         22    1    1    2    0    0  0.13893020378E+04  0.63718002909E+02 -0.10399032503E+04  0.17365537441E+04  0.00000000000E+00 0. -1.
<mgrwt>
<rscale>  0 0.32724723E+04</rscale>
<asrwt>0</asrwt>
<pdfrwt beam="1">  1        2 0.28015623E+00 0.32724723E+04</pdfrwt>
<pdfrwt beam="2">  1       -2 0.22618561E+00 0.32724723E+04</pdfrwt>
<totfact> 0.63527828E-01</totfact>
</mgrwt>
</event>
<event>
 6    1  0.9988873E-007  0.2927342E+04  0.7818608E-02  0.8264789E-01
          4   -1    0    0  501    0  0.00000000000E+00  0.00000000000E+00  0.16652820198E+04  0.16652820198E+04  0.00000000000E+00 0. -1.
         -4   -1    0    0    0  501 -0.00000000000E+00 -0.00000000000E+00 -0.12864684656E+04  0.12864684656E+04  0.00000000000E+00 0.  1.
         23    2    1    2    0    0 -0.21636316942E+03  0.53585025807E+03  0.15440360369E+04  0.16510998966E+04  0.90194595745E+02 0.  0.
         11    1    3    3    0    0 -0.78931372425E+02  0.15355409654E+03  0.57476297094E+03  0.60013456398E+03  0.00000000000E+00 0.  1.
        -11    1    3    3    0    0 -0.13743179699E+03  0.38229616153E+03  0.96927306593E+03  0.10509653326E+04  0.00000000000E+00 0. -1.
         22    1    1    2    0    0  0.21636316942E+03 -0.53585025807E+03 -0.11652224827E+04  0.13006505888E+04  0.00000000000E+00 0.  1.
<mgrwt>
<rscale>  0 0.29273420E+04</rscale>
<asrwt>0</asrwt>
<pdfrwt beam="1">  1        4 0.25619723E+00 0.29273420E+04</pdfrwt>
<pdfrwt beam="2">  1       -4 0.19791823E+00 0.29273420E+04</pdfrwt>
<totfact> 0.13424514E-02</totfact>
</mgrwt>
</event>
<event>
 6    1  0.9988873E-007  0.2353678E+04  0.7818608E-02  0.8457052E-01
         -1   -1    0    0    0  501 -0.00000000000E+00  0.00000000000E+00  0.90545548755E+03  0.90545548755E+03  0.00000000000E+00 0.  1.
          1   -1    0    0  501    0  0.00000000000E+00 -0.00000000000E+00 -0.15295613618E+04  0.15295613618E+04  0.00000000000E+00 0. -1.
         23    2    1    2    0    0  0.10286290582E+03 -0.26866858596E+03 -0.14912346448E+04  0.15214108669E+04  0.90258925295E+02 0.  0.
         13    1    3    3    0    0  0.10302052416E+03 -0.14534087834E+03 -0.89274544805E+03  0.91034698568E+03  0.00000000000E+00 0.  1.
        -13    1    3    3    0    0 -0.15761834534E+00 -0.12332770762E+03 -0.59848919670E+03  0.61106388118E+03  0.00000000000E+00 0. -1.
         22    1    1    2    0    0 -0.10286290582E+03  0.26866858596E+03  0.86712877054E+03  0.91360598245E+03  0.00000000000E+00 0.  1.
<mgrwt>
<rscale>  0 0.23536777E+04</rscale>
<asrwt>0</asrwt>
<pdfrwt beam="1">  1        1 0.23531713E+00 0.23536777E+04</pdfrwt>
<pdfrwt beam="2">  1       -1 0.13930085E+00 0.23536777E+04</pdfrwt>
<totfact> 0.23844499E+00</totfact>
</mgrwt>
</event>
<event>
 6    1  0.9988873E-007  0.2707347E+04  0.7818608E-02  0.8332625E-01
          2   -1    0    0  501    0  0.00000000000E+00  0.00000000000E+00  0.32973009154E+04  0.32973009154E+04  0.00000000000E+00 0. -1.
         -2   -1    0    0    0  501 -0.00000000000E+00 -0.00000000000E+00 -0.55573701786E+03  0.55573701786E+03  0.00000000000E+00 0.  1.
         23    2    1    2    0    0 -0.11987891653E+04 -0.21523797625E+03  0.53678604196E+03  0.13342151444E+04  0.92563207732E+02 0.  0.
         13    1    3    3    0    0 -0.17889623450E+03 -0.59863619337E+01  0.57060724592E+02  0.18787130046E+03  0.00000000000E+00 0. -1.
        -13    1    3    3    0    0 -0.10198929308E+04 -0.20925161431E+03  0.47972531737E+03  0.11463438439E+04  0.00000000000E+00 0.  1.
         22    1    1    2    0    0  0.11987891653E+04  0.21523797625E+03  0.22047778556E+04  0.25188227889E+04  0.00000000000E+00 0. -1.
<mgrwt>
<rscale>  0 0.27073472E+04</rscale>
<asrwt>0</asrwt>
<pdfrwt beam="1">  1        2 0.50727705E+00 0.27073472E+04</pdfrwt>
<pdfrwt beam="2">  1       -2 0.85498004E-01 0.27073472E+04</pdfrwt>
<totfact> 0.11658519E+00</totfact>
</mgrwt>
</event>
<event>
 6    1  0.9988873E-007  0.1520258E+04  0.7818608E-02  0.8871092E-01
          1   -1    0    0  501    0  0.00000000000E+00  0.00000000000E+00  0.14101783809E+04  0.14101783809E+04  0.00000000000E+00 0. -1.
         -1   -1    0    0    0  501 -0.00000000000E+00 -0.00000000000E+00 -0.40973248388E+03  0.40973248388E+03  0.00000000000E+00 0.  1.
         23    2    1    2    0    0 -0.29189715667E+03 -0.69533780549E+03  0.41872520531E+03  0.86749416134E+03  0.92286015131E+02 0.  0.
         11    1    3    3    0    0  0.23004162319E+01 -0.54639620612E+02  0.27757904967E+02  0.61329286182E+02  0.00000000000E+00 0. -1.
        -11    1    3    3    0    0 -0.29419757290E+03 -0.64069818488E+03  0.39096730034E+03  0.80616487516E+03  0.00000000000E+00 0.  1.
         22    1    1    2    0    0  0.29189715667E+03  0.69533780549E+03  0.58172069168E+03  0.95241670342E+03  0.00000000000E+00 0.  1.
<mgrwt>
<rscale>  0 0.15202577E+04</rscale>
<asrwt>0</asrwt>
<pdfrwt beam="1">  1        1 0.21695052E+00 0.15202577E+04</pdfrwt>
<pdfrwt beam="2">  1       -1 0.63035767E-01 0.15202577E+04</pdfrwt>
<totfact> 0.18629189E+01</totfact>
</mgrwt>
</event>
<event>
 6    1  0.9988873E-007  0.1745503E+04  0.7818608E-02  0.8735829E-01
         -2   -1    0    0    0  501 -0.00000000000E+00  0.00000000000E+00  0.42762264588E+03  0.42762264588E+03  0.00000000000E+00 0.  1.
          2   -1    0    0  501    0  0.00000000000E+00 -0.00000000000E+00 -0.17812329446E+04  0.17812329446E+04  0.00000000000E+00 0. -1.
         23    2    1    2    0    0  0.75982661753E+03 -0.42344015734E+03 -0.71827157463E+03  0.11316864534E+04  0.90344442698E+02 0.  0.
         11    1    3    3    0    0  0.35697438834E+03 -0.25004617781E+03 -0.34910528449E+03  0.55841588858E+03  0.00000000000E+00 0.  1.
        -11    1    3    3    0    0  0.40285222920E+03 -0.17339397952E+03 -0.36916629015E+03  0.57327056482E+03  0.00000000000E+00 0. -1.
         22    1    1    2    0    0 -0.75982661753E+03  0.42344015734E+03 -0.63533872407E+03  0.10771691371E+04  0.00000000000E+00 0.  1.
<mgrwt>
<rscale>  0 0.17455034E+04</rscale>
<asrwt>0</asrwt>
<pdfrwt beam="1">  1        2 0.27403584E+00 0.17455034E+04</pdfrwt>
<pdfrwt beam="2">  1       -2 0.65788098E-01 0.17455034E+04</pdfrwt>
<totfact> 0.17824198E+01</totfact>
</mgrwt>
</event>
<event>
 6    1  0.9988873E-007  0.1097531E+04  0.7818608E-02  0.9207602E-01
         -2   -1    0    0    0  501 -0.00000000000E+00  0.00000000000E+00  0.28932478699E+03  0.28932478699E+03  0.00000000000E+00 0.  1.
          2   -1    0    0  501    0  0.00000000000E+00 -0.00000000000E+00 -0.10408486981E+04  0.10408486981E+04  0.00000000000E+00 0. -1.
         23    2    1    2    0    0 -0.38975891443E+03 -0.18293001123E+03 -0.78317062965E+03  0.89845955757E+03  0.92184277675E+02 0.  0.
         13    1    3    3    0    0 -0.10556968191E+03 -0.96230687695E+02 -0.27110504099E+03  0.30643636573E+03  0.00000000000E+00 0. -1.
        -13    1    3    3    0    0 -0.28418923251E+03 -0.86699323539E+02 -0.51206558867E+03  0.59202319184E+03  0.00000000000E+00 0.  1.
         22    1    1    2    0    0  0.38975891443E+03  0.18293001123E+03  0.31646718588E+02  0.43171392748E+03  0.00000000000E+00 0.  1.
<mgrwt>
<rscale>  0 0.10975306E+04</rscale>
<asrwt>0</asrwt>
<pdfrwt beam="1">  1        2 0.16013057E+00 0.10975306E+04</pdfrwt>
<pdfrwt beam="2">  1       -2 0.44511505E-01 0.10975306E+04</pdfrwt>
<totfact> 0.11269488E+02</totfact>
</mgrwt>
</event>
<event>
 6    1  0.9988873E-007  0.8534506E+03  0.7818608E-02  0.9485717E-01
         -1   -1    0    0    0  501 -0.00000000000E+00  0.00000000000E+00  0.52556825273E+02  0.52556825273E+02  0.00000000000E+00 0.  1.
          1   -1    0    0  501    0  0.00000000000E+00 -0.00000000000E+00 -0.34647161966E+04  0.34647161966E+04  0.00000000000E+00 0. -1.
         23    2    1    2    0    0 -0.20245331208E+03 -0.33062854447E+03 -0.24111112938E+04  0.24437741483E+04  0.90949650661E+02 0.  0.
         13    1    3    3    0    0 -0.30372513824E+02 -0.12087853309E+03 -0.64287736200E+03  0.65484762497E+03  0.00000000000E+00 0.  1.
        -13    1    3    3    0    0 -0.17208079825E+03 -0.20975001139E+03 -0.17682339318E+04  0.17889265233E+04  0.00000000000E+00 0. -1.
         22    1    1    2    0    0  0.20245331208E+03  0.33062854447E+03 -0.10010480776E+04  0.10734988736E+04  0.00000000000E+00 0.  1.
<mgrwt>
<rscale>  0 0.85345060E+03</rscale>
<asrwt>0</asrwt>
<pdfrwt beam="1">  1        1 0.53303325E+00 0.85345060E+03</pdfrwt>
<pdfrwt beam="2">  1       -1 0.80856656E-02 0.85345060E+03</pdfrwt>
<totfact> 0.24867622E+01</totfact>
</mgrwt>
</event>
<event>
 6    1  0.9988873E-007  0.1894208E+04  0.7818608E-02  0.8657745E-01
          2   -1    0    0  501    0  0.00000000000E+00  0.00000000000E+00  0.73932185817E+03  0.73932185817E+03  0.00000000000E+00 0. -1.
         -2   -1    0    0    0  501 -0.00000000000E+00 -0.00000000000E+00 -0.12132816053E+04  0.12132816053E+04  0.00000000000E+00 0.  1.
         23    2    1    2    0    0 -0.13495255608E+03  0.30542765836E+03 -0.11487031890E+04  0.11997575567E+04  0.91656596070E+02 0.  0.
         13    1    3    3    0    0 -0.91638630964E+02  0.20041167170E+03 -0.89589521670E+03  0.92259997624E+03  0.00000000000E+00 0. -1.
        -13    1    3    3    0    0 -0.43313925118E+02  0.10501598666E+03 -0.25280797230E+03  0.27715758049E+03  0.00000000000E+00 0.  1.
         22    1    1    2    0    0  0.13495255608E+03 -0.30542765836E+03  0.67474344190E+03  0.75284590672E+03  0.00000000000E+00 0. -1.
<mgrwt>
<rscale>  0 0.18942076E+04</rscale>
<asrwt>0</asrwt>
<pdfrwt beam="1">  1        2 0.11374182E+00 0.18942076E+04</pdfrwt>
<pdfrwt beam="2">  1       -2 0.18665871E+00 0.18942076E+04</pdfrwt>
<totfact> 0.58404026E+00</totfact>
</mgrwt>
</event>
<event>
 6    1  0.9988873E-007  0.2980000E+04  0.7818608E-02  0.8249465E-01
          2   -1    0    0  501    0  0.00000000000E+00  0.00000000000E+00  0.24975500801E+04  0.24975500801E+04  0.00000000000E+00 0. -1.
         -2   -1    0    0    0  501 -0.00000000000E+00 -0.00000000000E+00 -0.88891126902E+03  0.88891126902E+03  0.00000000000E+00 0.  1.
         23    2    1    2    0    0  0.41241392408E+03  0.74089678621E+03 -0.58526249723E+03  0.10343949718E+04  0.91801277125E+02 0.  0.
         13    1    3    3    0    0  0.37503149929E+03  0.60379585550E+03 -0.48946174207E+03  0.86301266360E+03  0.00000000000E+00 0. -1.
        -13    1    3    3    0    0  0.37382424792E+02  0.13710093070E+03 -0.95800755158E+02  0.17138230822E+03  0.00000000000E+00 0.  1.
         22    1    1    2    0    0 -0.41241392408E+03 -0.74089678621E+03  0.21939013083E+04  0.23520663773E+04  0.00000000000E+00 0. -1.
<mgrwt>
<rscale>  0 0.29800003E+04</rscale>
<asrwt>0</asrwt>
<pdfrwt beam="1">  1        2 0.38423847E+00 0.29800003E+04</pdfrwt>
<pdfrwt beam="2">  1       -2 0.13675558E+00 0.29800003E+04</pdfrwt>
<totfact> 0.11426902E+00</totfact>
</mgrwt>
</event>
<event>
 6    1  0.9988873E-007  0.2720715E+04  0.7818608E-02  0.8328315E-01
          2   -1    0    0  501    0  0.00000000000E+00  0.00000000000E+00  0.10144352591E+04  0.10144352591E+04  0.00000000000E+00 0. -1.
         -2   -1    0    0    0  501 -0.00000000000E+00 -0.00000000000E+00 -0.18242391866E+04  0.18242391866E+04  0.00000000000E+00 0.  1.
         23    2    1    2    0    0  0.99398931165E+03  0.39280983696E+03  0.47010077773E+03  0.11712001958E+04  0.91656083636E+02 0.  0.
         11    1    3    3    0    0  0.52109916182E+03  0.15751182474E+03  0.22933199934E+03  0.59071776451E+03  0.00000000000E+00 0. -1.
        -11    1    3    3    0    0  0.47289014984E+03  0.23529801222E+03  0.24076877839E+03  0.58048243127E+03  0.00000000000E+00 0.  1.
         22    1    1    2    0    0 -0.99398931165E+03 -0.39280983696E+03 -0.12799047052E+04  0.16674742499E+04  0.00000000000E+00 0.  1.
<mgrwt>
<rscale>  0 0.27207150E+04</rscale>
<asrwt>0</asrwt>
<pdfrwt beam="1">  1        2 0.15606697E+00 0.27207150E+04</pdfrwt>
<pdfrwt beam="2">  1       -2 0.28065218E+00 0.27207150E+04</pdfrwt>
<totfact> 0.90110456E-01</totfact>
</mgrwt>
</event>
<event>
 6    1  0.9988873E-007  0.3253039E+04  0.7818608E-02  0.8174949E-01
          1   -1    0    0  501    0  0.00000000000E+00  0.00000000000E+00  0.14778673065E+04  0.14778673065E+04  0.00000000000E+00 0. -1.
         -1   -1    0    0    0  501 -0.00000000000E+00 -0.00000000000E+00 -0.17901236305E+04  0.17901236305E+04  0.00000000000E+00 0.  1.
         23    2    1    2    0    0  0.10581064211E+04  0.39012015435E+03 -0.13319990906E+04  0.17475770975E+04  0.89561158429E+02 0.  0.
         13    1    3    3    0    0  0.14159029112E+03  0.20602754665E+02 -0.16857441042E+03  0.22110996333E+03  0.00000000000E+00 0.  1.
        -13    1    3    3    0    0  0.91651613001E+03  0.36951739969E+03 -0.11634246802E+04  0.15264671342E+04  0.00000000000E+00 0. -1.
         22    1    1    2    0    0 -0.10581064211E+04 -0.39012015435E+03  0.10197427666E+04  0.15204138395E+04  0.00000000000E+00 0. -1.
<mgrwt>
<rscale>  0 0.32530387E+04</rscale>
<asrwt>0</asrwt>
<pdfrwt beam="1">  1        1 0.22736420E+00 0.32530387E+04</pdfrwt>
<pdfrwt beam="2">  1       -1 0.27540364E+00 0.32530387E+04</pdfrwt>
<totfact> 0.26904611E-01</totfact>
</mgrwt>
</event>
<event>
 6    1  0.9988873E-007  0.2362947E+04  0.7818608E-02  0.8453507E-01
          1   -1    0    0  501    0  0.00000000000E+00  0.00000000000E+00  0.13397711408E+04  0.13397711408E+04  0.00000000000E+00 0. -1.
         -1   -1    0    0    0  501 -0.00000000000E+00 -0.00000000000E+00 -0.10418789413E+04  0.10418789413E+04  0.00000000000E+00 0.  1.
         23    2    1    2    0    0 -0.11447814051E+03  0.11659121540E+04  0.92416343767E+01  0.11750948433E+04  0.91137739950E+02 0.  0.
         13    1    3    3    0    0 -0.38687638058E+02  0.33697176813E+03  0.43670891520E+02  0.34198516433E+03  0.00000000000E+00 0. -1.
        -13    1    3    3    0    0 -0.75790502456E+02  0.82894038582E+03 -0.34429257143E+02  0.83310967901E+03  0.00000000000E+00 0.  1.
         22    1    1    2    0    0  0.11447814051E+03 -0.11659121540E+04  0.28865056508E+03  0.12065552387E+04  0.00000000000E+00 0. -1.
<mgrwt>
<rscale>  0 0.23629468E+04</rscale>
<asrwt>0</asrwt>
<pdfrwt beam="1">  1        1 0.20611864E+00 0.23629468E+04</pdfrwt>
<pdfrwt beam="2">  1       -1 0.16028907E+00 0.23629468E+04</pdfrwt>
<totfact> 0.22152240E+00</totfact>
</mgrwt>
</event>
<event>
 6    1  0.9988873E-007  0.2567145E+04  0.7818608E-02  0.8379448E-01
         -1   -1    0    0    0  501 -0.00000000000E+00  0.00000000000E+00  0.13419768009E+04  0.13419768009E+04  0.00000000000E+00 0.  1.
          1   -1    0    0  501    0  0.00000000000E+00 -0.00000000000E+00 -0.12277099917E+04  0.12277099917E+04  0.00000000000E+00 0. -1.
         23    2    1    2    0    0 -0.20210244926E+03  0.63602704387E+03 -0.10383827861E+04  0.12377795549E+04  0.92106544188E+02 0.  0.
         11    1    3    3    0    0 -0.11094346196E+03  0.47498627369E+03 -0.72412214533E+03  0.87308263830E+03  0.00000000000E+00 0. -1.
        -11    1    3    3    0    0 -0.91158987298E+02  0.16104077018E+03 -0.31426064078E+03  0.36469691658E+03  0.00000000000E+00 0.  1.
         22    1    1    2    0    0  0.20210244926E+03 -0.63602704387E+03  0.11526495952E+04  0.13319072377E+04  0.00000000000E+00 0.  1.
<mgrwt>
<rscale>  0 0.25671450E+04</rscale>
<asrwt>0</asrwt>
<pdfrwt beam="1">  1        1 0.18887846E+00 0.25671450E+04</pdfrwt>
<pdfrwt beam="2">  1       -1 0.20645797E+00 0.25671450E+04</pdfrwt>
<totfact> 0.12243056E+00</totfact>
</mgrwt>
</event>
<event>
 6    1  0.9988873E-007  0.2562378E+04  0.7818608E-02  0.8381094E-01
          2   -1    0    0  501    0  0.00000000000E+00  0.00000000000E+00  0.35584762249E+04  0.35584762249E+04  0.00000000000E+00 0. -1.
         -2   -1    0    0    0  501 -0.00000000000E+00 -0.00000000000E+00 -0.46127750935E+03  0.46127750935E+03  0.00000000000E+00 0.  1.
         23    2    1    2    0    0 -0.91866496387E+03 -0.12842834229E+03  0.29331262112E+04  0.30777564191E+04  0.94424836667E+02 0.  0.
         13    1    3    3    0    0 -0.28211020902E+03 -0.28890348419E+02  0.76245393798E+03  0.81348437588E+03  0.00000000000E+00 0. -1.
        -13    1    3    3    0    0 -0.63655475486E+03 -0.99537993870E+02  0.21706722732E+04  0.22642720433E+04  0.00000000000E+00 0.  1.
         22    1    1    2    0    0  0.91866496387E+03  0.12842834229E+03  0.16407250433E+03  0.94199731509E+03  0.00000000000E+00 0.  1.
<mgrwt>
<rscale>  0 0.25623778E+04</rscale>
<asrwt>0</asrwt>
<pdfrwt beam="1">  1        2 0.54745786E+00 0.25623778E+04</pdfrwt>
<pdfrwt beam="2">  1       -2 0.70965773E-01 0.25623778E+04</pdfrwt>
<totfact> 0.11846184E+00</totfact>
</mgrwt>
</event>
<event>
 6    1  0.9988873E-007  0.1566735E+04  0.7818608E-02  0.8841249E-01
          1   -1    0    0  501    0  0.00000000000E+00  0.00000000000E+00  0.13459940488E+04  0.13459940488E+04  0.00000000000E+00 0. -1.
         -1   -1    0    0    0  501 -0.00000000000E+00 -0.00000000000E+00 -0.45591900515E+03  0.45591900515E+03  0.00000000000E+00 0.  1.
         23    2    1    2    0    0 -0.50987243511E+03  0.59044392323E+03  0.48488124077E+03  0.92283629705E+03  0.89011723577E+02 0.  0.
         11    1    3    3    0    0 -0.87144126024E+02  0.12645551309E+03  0.13353648850E+03  0.20351188971E+03  0.00000000000E+00 0. -1.
        -11    1    3    3    0    0 -0.42272830909E+03  0.46398841014E+03  0.35134475226E+03  0.71932440734E+03  0.00000000000E+00 0.  1.
         22    1    1    2    0    0  0.50987243511E+03 -0.59044392323E+03  0.40519380284E+03  0.87907675685E+03  0.00000000000E+00 0.  1.
<mgrwt>
<rscale>  0 0.15667345E+04</rscale>
<asrwt>0</asrwt>
<pdfrwt beam="1">  1        1 0.20707601E+00 0.15667345E+04</pdfrwt>
<pdfrwt beam="2">  1       -1 0.70141386E-01 0.15667345E+04</pdfrwt>
<totfact> 0.16582288E+01</totfact>
</mgrwt>
</event>
<event>
 6    1  0.9988873E-007  0.4690663E+03  0.7818608E-02  0.1022184E+00
          1   -1    0    0  501    0  0.00000000000E+00  0.00000000000E+00  0.47686092181E+03  0.47686092181E+03  0.00000000000E+00 0. -1.
         -1   -1    0    0    0  501 -0.00000000000E+00 -0.00000000000E+00 -0.11534977456E+03  0.11534977456E+03  0.00000000000E+00 0.  1.
         23    2    1    2    0    0  0.68207900151E+02  0.10822092883E+03 -0.45816294502E+02  0.16526839126E+03  0.94076677389E+02 0.  0.
         13    1    3    3    0    0  0.56730769553E+02  0.18323520433E+02  0.75552068058E+01  0.60093367063E+02  0.00000000000E+00 0. -1.
        -13    1    3    3    0    0  0.11477130599E+02  0.89897408400E+02 -0.53371501308E+02  0.10517502420E+03  0.00000000000E+00 0.  1.
         22    1    1    2    0    0 -0.68207900151E+02 -0.10822092883E+03  0.40732744176E+03  0.42694230511E+03  0.00000000000E+00 0. -1.
<mgrwt>
<rscale>  0 0.46906631E+03</rscale>
<asrwt>0</asrwt>
<pdfrwt beam="1">  1        1 0.73363218E-01 0.46906631E+03</pdfrwt>
<pdfrwt beam="2">  1       -1 0.17746119E-01 0.46906631E+03</pdfrwt>
<totfact> 0.11823584E+03</totfact>
</mgrwt>
</event>
<event>
 6    1  0.9988873E-007  0.2986713E+04  0.7818608E-02  0.8247535E-01
         -1   -1    0    0    0  501 -0.00000000000E+00  0.00000000000E+00  0.87773179574E+03  0.87773179574E+03  0.00000000000E+00 0.  1.
          1   -1    0    0  501    0  0.00000000000E+00 -0.00000000000E+00 -0.25407686118E+04  0.25407686118E+04  0.00000000000E+00 0. -1.
         23    2    1    2    0    0  0.93370548847E+03 -0.26897002309E+03  0.46359144996E+03  0.10804031909E+04  0.90571573647E+02 0.  0.
         11    1    3    3    0    0  0.69907991815E+03 -0.21274659350E+03  0.30594353061E+03  0.79219649642E+03  0.00000000000E+00 0. -1.
        -11    1    3    3    0    0  0.23462557032E+03 -0.56223429586E+02  0.15764791935E+03  0.28820669450E+03  0.00000000000E+00 0.  1.
         22    1    1    2    0    0 -0.93370548847E+03  0.26897002309E+03 -0.21266282661E+04  0.23380972167E+04  0.00000000000E+00 0. -1.
<mgrwt>
<rscale>  0 0.29867128E+04</rscale>
<asrwt>0</asrwt>
<pdfrwt beam="1">  1        1 0.39088747E+00 0.29867128E+04</pdfrwt>
<pdfrwt beam="2">  1       -1 0.13503566E+00 0.29867128E+04</pdfrwt>
<totfact> 0.49755213E-01</totfact>
</mgrwt>
</event>
<event>
 6    1  0.9988873E-007  0.1652702E+04  0.7818608E-02  0.8788810E-01
          1   -1    0    0  501    0  0.00000000000E+00  0.00000000000E+00  0.15508642654E+04  0.15508642654E+04  0.00000000000E+00 0. -1.
         -1   -1    0    0    0  501 -0.00000000000E+00 -0.00000000000E+00 -0.44030681173E+03  0.44030681173E+03  0.00000000000E+00 0.  1.
         23    2    1    2    0    0 -0.65087723986E+03  0.39936172318E+01  0.11654156466E+04  0.13379739004E+04  0.91232661470E+02 0.  0.
         11    1    3    3    0    0 -0.45437346859E+03 -0.37671177835E+02  0.83143426196E+03  0.94823905138E+03  0.00000000000E+00 0.  1.
        -11    1    3    3    0    0 -0.19650377127E+03  0.41664795067E+02  0.33398138461E+03  0.38973484902E+03  0.00000000000E+00 0. -1.
         22    1    1    2    0    0  0.65087723986E+03 -0.39936172318E+01 -0.54858192912E+02  0.65319717672E+03  0.00000000000E+00 0.  1.
<mgrwt>
<rscale>  0 0.16527022E+04</rscale>
<asrwt>0</asrwt>
<pdfrwt beam="1">  1        1 0.23859450E+00 0.16527022E+04</pdfrwt>
<pdfrwt beam="2">  1       -1 0.67739510E-01 0.16527022E+04</pdfrwt>
<totfact> 0.12717326E+01</totfact>
</mgrwt>
</event>
<event>
 6    1  0.9988873E-007  0.1921819E+04  0.7818608E-02  0.8644071E-01
          2   -1    0    0  501    0  0.00000000000E+00  0.00000000000E+00  0.68413761767E+03  0.68413761767E+03  0.00000000000E+00 0. -1.
         -2   -1    0    0    0  501 -0.00000000000E+00 -0.00000000000E+00 -0.13496510765E+04  0.13496510765E+04  0.00000000000E+00 0.  1.
         23    2    1    2    0    0  0.68321997987E+03  0.65536461121E+03 -0.49418681800E+03  0.10716841612E+04  0.89409259495E+02 0.  0.
         13    1    3    3    0    0  0.22698550508E+03  0.22143531606E+03 -0.21372949004E+03  0.38240856897E+03  0.00000000000E+00 0. -1.
        -13    1    3    3    0    0  0.45623447479E+03  0.43392929516E+03 -0.28045732796E+03  0.68927559219E+03  0.00000000000E+00 0.  1.
         22    1    1    2    0    0 -0.68321997987E+03 -0.65536461121E+03 -0.17132664081E+03  0.96210453298E+03  0.00000000000E+00 0. -1.
<mgrwt>
<rscale>  0 0.19218190E+04</rscale>
<asrwt>0</asrwt>
<pdfrwt beam="1">  1        2 0.10525194E+00 0.19218190E+04</pdfrwt>
<pdfrwt beam="2">  1       -2 0.20763863E+00 0.19218190E+04</pdfrwt>
<totfact> 0.46734938E+00</totfact>
</mgrwt>
</event>
<event>
 6    1  0.9988873E-007  0.1115501E+04  0.7818608E-02  0.9190214E-01
         -2   -1    0    0    0  501 -0.00000000000E+00  0.00000000000E+00  0.28851146635E+03  0.28851146635E+03  0.00000000000E+00 0.  1.
          2   -1    0    0  501    0  0.00000000000E+00 -0.00000000000E+00 -0.10782431225E+04  0.10782431225E+04  0.00000000000E+00 0. -1.
         23    2    1    2    0    0  0.33420215043E+03  0.14498184392E+03  0.11394985035E+03  0.39240810140E+03  0.91042502317E+02 0.  0.
         11    1    3    3    0    0  0.30476767772E+03  0.14920904404E+03  0.82687505528E+02  0.34926193576E+03  0.00000000000E+00 0.  1.
        -11    1    3    3    0    0  0.29434472715E+02 -0.42272001236E+01  0.31262344821E+02  0.43146165631E+02  0.00000000000E+00 0. -1.
         22    1    1    2    0    0 -0.33420215043E+03 -0.14498184392E+03 -0.90368150650E+03  0.97434648746E+03  0.00000000000E+00 0. -1.
<mgrwt>
<rscale>  0 0.11155008E+04</rscale>
<asrwt>0</asrwt>
<pdfrwt beam="1">  1        2 0.16588355E+00 0.11155008E+04</pdfrwt>
<pdfrwt beam="2">  1       -2 0.44386380E-01 0.11155008E+04</pdfrwt>
<totfact> 0.10725390E+02</totfact>
</mgrwt>
</event>
<event>
 6    1  0.9988873E-007  0.1512849E+04  0.7818608E-02  0.8875953E-01
         -2   -1    0    0    0  501 -0.00000000000E+00  0.00000000000E+00  0.46228195523E+03  0.46228195523E+03  0.00000000000E+00 0.  1.
          2   -1    0    0  501    0  0.00000000000E+00 -0.00000000000E+00 -0.12377251487E+04  0.12377251487E+04  0.00000000000E+00 0. -1.
         23    2    1    2    0    0  0.47409934408E+03 -0.23299359275E+03  0.21464173417E+03  0.57781087944E+03  0.93477997607E+02 0.  0.
         13    1    3    3    0    0  0.28117382943E+03 -0.17013167789E+03  0.17018284458E+03  0.37008878768E+03  0.00000000000E+00 0. -1.
        -13    1    3    3    0    0  0.19292551465E+03 -0.62861914863E+02  0.44458889589E+02  0.20772209176E+03  0.00000000000E+00 0.  1.
         22    1    1    2    0    0 -0.47409934408E+03  0.23299359275E+03 -0.99008492767E+03  0.11221962245E+04  0.00000000000E+00 0. -1.
<mgrwt>
<rscale>  0 0.15128490E+04</rscale>
<asrwt>0</asrwt>
<pdfrwt beam="1">  1        2 0.19041926E+00 0.15128490E+04</pdfrwt>
<pdfrwt beam="2">  1       -2 0.71120300E-01 0.15128490E+04</pdfrwt>
<totfact> 0.31172112E+01</totfact>
</mgrwt>
</event>
<event>
 6    1  0.9988873E-007  0.7529372E+03  0.7818608E-02  0.9630754E-01
         -1   -1    0    0    0  501 -0.00000000000E+00  0.00000000000E+00  0.20601730328E+03  0.20601730328E+03  0.00000000000E+00 0.  1.
          1   -1    0    0  501    0  0.00000000000E+00 -0.00000000000E+00 -0.68794514260E+03  0.68794514260E+03  0.00000000000E+00 0. -1.
         23    2    1    2    0    0 -0.21837477972E+02 -0.10369042500E+03 -0.66648911279E+03  0.68114458163E+03  0.92312642322E+02 0.  0.
         11    1    3    3    0    0 -0.48293485819E+02 -0.10227098008E+03 -0.56822546622E+03  0.57937189663E+03  0.00000000000E+00 0. -1.
        -11    1    3    3    0    0  0.26456007848E+02 -0.14194449159E+01 -0.98263646570E+02  0.10177268500E+03  0.00000000000E+00 0.  1.
         22    1    1    2    0    0  0.21837477972E+02  0.10369042500E+03  0.18456127347E+03  0.21281786425E+03  0.00000000000E+00 0.  1.
<mgrwt>
<rscale>  0 0.75293719E+03</rscale>
<asrwt>0</asrwt>
<pdfrwt beam="1">  1        1 0.10583771E+00 0.75293719E+03</pdfrwt>
<pdfrwt beam="2">  1       -1 0.31694970E-01 0.75293719E+03</pdfrwt>
<totfact> 0.26187464E+02</totfact>
</mgrwt>
</event>
<event>
 6    1  0.9988873E-007  0.2340870E+04  0.7818608E-02  0.8461979E-01
         -2   -1    0    0    0  501 -0.00000000000E+00  0.00000000000E+00  0.77044515431E+03  0.77044515431E+03  0.00000000000E+00 0.  1.
          2   -1    0    0  501    0  0.00000000000E+00 -0.00000000000E+00 -0.17780871362E+04  0.17780871362E+04  0.00000000000E+00 0. -1.
         23    2    1    2    0    0  0.99201191291E+03  0.23284681727E+03 -0.11278702202E+04  0.15224913045E+04  0.87081934148E+02 0.  0.
         11    1    3    3    0    0  0.58851143389E+03  0.11555748909E+03 -0.60789576439E+03  0.85395345392E+03  0.00000000000E+00 0. -1.
        -11    1    3    3    0    0  0.40350047901E+03  0.11728932818E+03 -0.51997445577E+03  0.66853785063E+03  0.00000000000E+00 0.  1.
         22    1    1    2    0    0 -0.99201191291E+03 -0.23284681727E+03  0.12022823824E+03  0.10260409860E+04  0.00000000000E+00 0.  1.
<mgrwt>
<rscale>  0 0.23408705E+04</rscale>
<asrwt>0</asrwt>
<pdfrwt beam="1">  1        2 0.27355187E+00 0.23408705E+04</pdfrwt>
<pdfrwt beam="2">  1       -2 0.11853002E+00 0.23408705E+04</pdfrwt>
<totfact> 0.43905784E+00</totfact>
</mgrwt>
</event>
<event>
 6    1  0.1323766E-006  0.2324001E+04  0.7818608E-02  0.8468517E-01
         -1   -1    0    0    0  501 -0.00000000000E+00  0.00000000000E+00  0.91170790070E+03  0.91170790070E+03  0.00000000000E+00 0.  1.
          1   -1    0    0  501    0  0.00000000000E+00 -0.00000000000E+00 -0.14810067733E+04  0.14810067733E+04  0.00000000000E+00 0. -1.
         23    2    1    2    0    0  0.44249575415E+03 -0.28730125452E+03 -0.13489497207E+04  0.14513327386E+04  0.91415894332E+02 0.  0.
         11    1    3    3    0    0  0.11839905422E+03 -0.85154447301E+02 -0.49085006711E+03  0.51205800874E+03  0.00000000000E+00 0. -1.
        -11    1    3    3    0    0  0.32409669993E+03 -0.20214680722E+03 -0.85809965362E+03  0.93927472984E+03  0.00000000000E+00 0.  1.
         22    1    1    2    0    0 -0.44249575415E+03  0.28730125452E+03  0.77965084814E+03  0.94138193540E+03  0.00000000000E+00 0.  1.
<mgrwt>
<rscale>  0 0.23240014E+04</rscale>
<asrwt>0</asrwt>
<pdfrwt beam="1">  1        1 0.22784719E+00 0.23240014E+04</pdfrwt>
<pdfrwt beam="2">  1       -1 0.14026276E+00 0.23240014E+04</pdfrwt>
<totfact> 0.25372249E+00</totfact>
</mgrwt>
</event>
<event>
 6    1  0.9988873E-007  0.6941642E+04  0.7818608E-02  0.7583484E-01
         -2   -1    0    0    0  501 -0.00000000000E+00  0.00000000000E+00  0.29739479812E+04  0.29739479812E+04  0.00000000000E+00 0.  1.
          2   -1    0    0  501    0  0.00000000000E+00 -0.00000000000E+00 -0.40507091079E+04  0.40507091079E+04  0.00000000000E+00 0. -1.
         23    2    1    2    0    0 -0.32173577409E+04  0.12438218653E+04 -0.15730290574E+03  0.34547989567E+04  0.11139103041E+03 0.  0.
         13    1    3    3    0    0 -0.21140619966E+04  0.82932741176E+03 -0.51853536331E+02  0.22715040987E+04  0.00000000000E+00 0.  1.
        -13    1    3    3    0    0 -0.11032957443E+04  0.41449445354E+03 -0.10544936941E+03  0.11832948580E+04  0.00000000000E+00 0. -1.
         22    1    1    2    0    0  0.32173577409E+04 -0.12438218653E+04 -0.91945822092E+03  0.35698581324E+04  0.00000000000E+00 0. -1.
<mgrwt>
<rscale>  0 0.69416419E+04</rscale>
<asrwt>0</asrwt>
<pdfrwt beam="1">  1        2 0.62318602E+00 0.69416419E+04</pdfrwt>
<pdfrwt beam="2">  1       -2 0.45753046E+00 0.69416419E+04</pdfrwt>
<totfact> 0.60337576E-04</totfact>
</mgrwt>
</event>
<event>
 6    1  0.9988873E-007  0.1409246E+04  0.7818608E-02  0.8947153E-01
         -1   -1    0    0    0  501 -0.00000000000E+00  0.00000000000E+00  0.49697283405E+03  0.49697283405E+03  0.00000000000E+00 0.  1.
          1   -1    0    0  501    0  0.00000000000E+00 -0.00000000000E+00 -0.99903527933E+03  0.99903527933E+03  0.00000000000E+00 0. -1.
         23    2    1    2    0    0 -0.16140543396E+02  0.55113223702E+03  0.20863908490E+03  0.59650607068E+03  0.91005300914E+02 0.  0.
         11    1    3    3    0    0  0.23379533537E+02  0.35467607792E+03  0.16271553512E+03  0.39091951628E+03  0.00000000000E+00 0. -1.
        -11    1    3    3    0    0 -0.39520076932E+02  0.19645615910E+03  0.45923549773E+02  0.20558655441E+03  0.00000000000E+00 0.  1.
         22    1    1    2    0    0  0.16140543396E+02 -0.55113223702E+03 -0.71070153018E+03  0.89950204270E+03  0.00000000000E+00 0. -1.
<mgrwt>
<rscale>  0 0.14092457E+04</rscale>
<asrwt>0</asrwt>
<pdfrwt beam="1">  1        1 0.15369773E+00 0.14092457E+04</pdfrwt>
<pdfrwt beam="2">  1       -1 0.76457360E-01 0.14092457E+04</pdfrwt>
<totfact> 0.25364353E+01</totfact>
</mgrwt>
</event>
<event>
 6    1  0.9988873E-007  0.1482650E+04  0.7818608E-02  0.8896073E-01
         -1   -1    0    0    0  501 -0.00000000000E+00  0.00000000000E+00  0.10683140421E+04  0.10683140421E+04  0.00000000000E+00 0.  1.
          1   -1    0    0  501    0  0.00000000000E+00 -0.00000000000E+00 -0.51442075234E+03  0.51442075234E+03  0.00000000000E+00 0. -1.
         23    2    1    2    0    0 -0.47453067437E+03  0.42719366264E+03  0.67412530683E+03  0.93301983824E+03  0.91691346040E+02 0.  0.
         13    1    3    3    0    0 -0.16989508304E+03  0.21216881401E+03  0.26897032778E+03  0.38239375270E+03  0.00000000000E+00 0.  1.
        -13    1    3    3    0    0 -0.30463559133E+03  0.21502484862E+03  0.40515497905E+03  0.55062608554E+03  0.00000000000E+00 0. -1.
         22    1    1    2    0    0  0.47453067437E+03 -0.42719366264E+03 -0.12023201710E+03  0.64971495615E+03  0.00000000000E+00 0.  1.
<mgrwt>
<rscale>  0 0.14826502E+04</rscale>
<asrwt>0</asrwt>
<pdfrwt beam="1">  1        1 0.79141654E-01 0.14826502E+04</pdfrwt>
<pdfrwt beam="2">  1       -1 0.16435601E+00 0.14826502E+04</pdfrwt>
<totfact> 0.11183558E+01</totfact>
</mgrwt>
</event>
<event>
 6    1  0.9988873E-007  0.4070724E+04  0.7818608E-02  0.7990429E-01
          2   -1    0    0  501    0  0.00000000000E+00  0.00000000000E+00  0.27933426657E+04  0.27933426657E+04  0.00000000000E+00 0. -1.
         -2   -1    0    0    0  501 -0.00000000000E+00 -0.00000000000E+00 -0.14830613439E+04  0.14830613439E+04  0.00000000000E+00 0.  1.
         23    2    1    2    0    0  0.84111662890E+03 -0.32827150650E+03  0.25706365432E+04  0.27260057867E+04  0.87726545005E+02 0.  0.
         11    1    3    3    0    0  0.71014217093E+03 -0.25673604585E+03  0.22207044523E+04  0.23455795797E+04  0.00000000000E+00 0.  1.
        -11    1    3    3    0    0  0.13097445796E+03 -0.71535460654E+02  0.34993209093E+03  0.38042620708E+03  0.00000000000E+00 0. -1.
         22    1    1    2    0    0 -0.84111662890E+03  0.32827150650E+03 -0.12603552214E+04  0.15503982229E+04  0.00000000000E+00 0.  1.
<mgrwt>
<rscale>  0 0.40707240E+04</rscale>
<asrwt>0</asrwt>
<pdfrwt beam="1">  1        2 0.42974503E+00 0.40707240E+04</pdfrwt>
<pdfrwt beam="2">  1       -2 0.22816328E+00 0.40707240E+04</pdfrwt>
<totfact> 0.16069069E-01</totfact>
</mgrwt>
</event>
<event>
 6    1  0.9988873E-007  0.1140448E+04  0.7818608E-02  0.9166641E-01
          1   -1    0    0  501    0  0.00000000000E+00  0.00000000000E+00  0.41290245758E+03  0.41290245758E+03  0.00000000000E+00 0. -1.
         -1   -1    0    0    0  501 -0.00000000000E+00 -0.00000000000E+00 -0.78748710385E+03  0.78748710385E+03  0.00000000000E+00 0.  1.
         23    2    1    2    0    0 -0.15692364810E+03  0.26193894651E+03  0.31396034382E+03  0.44717561678E+03  0.90321048036E+02 0.  0.
         13    1    3    3    0    0 -0.26838362340E+02  0.12927266483E+03  0.11706451575E+03  0.17645345112E+03  0.00000000000E+00 0.  1.
        -13    1    3    3    0    0 -0.13008528576E+03  0.13266628168E+03  0.19689582807E+03  0.27072216566E+03  0.00000000000E+00 0. -1.
         22    1    1    2    0    0  0.15692364810E+03 -0.26193894651E+03 -0.68854499009E+03  0.75321394465E+03  0.00000000000E+00 0.  1.
<mgrwt>
<rscale>  0 0.11404479E+04</rscale>
<asrwt>0</asrwt>
<pdfrwt beam="1">  1        1 0.63523456E-01 0.11404479E+04</pdfrwt>
<pdfrwt beam="2">  1       -1 0.12115186E+00 0.11404479E+04</pdfrwt>
<totfact> 0.34569866E+01</totfact>
</mgrwt>
</event>
<event>
 6    1  0.9988873E-007  0.1076171E+04  0.7818608E-02  0.9228733E-01
          1   -1    0    0  501    0  0.00000000000E+00  0.00000000000E+00  0.37657520698E+03  0.37657520698E+03  0.00000000000E+00 0. -1.
         -1   -1    0    0    0  501 -0.00000000000E+00 -0.00000000000E+00 -0.76886664473E+03  0.76886664473E+03  0.00000000000E+00 0.  1.
         23    2    1    2    0    0 -0.25766468607E+03  0.25026820404E+03  0.22240372256E+03  0.43349002432E+03  0.97082032214E+02 0.  0.
         13    1    3    3    0    0 -0.10369377345E+03  0.39829218781E+02  0.59128749882E+02  0.12583709462E+03  0.00000000000E+00 0.  1.
        -13    1    3    3    0    0 -0.15397091262E+03  0.21043898526E+03  0.16327497268E+03  0.30765292970E+03  0.00000000000E+00 0. -1.
         22    1    1    2    0    0  0.25766468607E+03 -0.25026820404E+03 -0.61469516032E+03  0.71195182739E+03  0.00000000000E+00 0.  1.
<mgrwt>
<rscale>  0 0.10761712E+04</rscale>
<asrwt>0</asrwt>
<pdfrwt beam="1">  1        1 0.57934647E-01 0.10761712E+04</pdfrwt>
<pdfrwt beam="2">  1       -1 0.11828718E+00 0.10761712E+04</pdfrwt>
<totfact> 0.41622139E+01</totfact>
</mgrwt>
</event>
<event>
 6    1  0.9988873E-007  0.5190127E+04  0.7818608E-02  0.7799829E-01
          1   -1    0    0  501    0  0.00000000000E+00  0.00000000000E+00  0.18962745608E+04  0.18962745608E+04  0.00000000000E+00 0. -1.
         -1   -1    0    0    0  501 -0.00000000000E+00 -0.00000000000E+00 -0.35513604543E+04  0.35513604543E+04  0.00000000000E+00 0.  1.
         23    2    1    2    0    0  0.23606836785E+04  0.10694467767E+04 -0.70342681161E+03  0.26868020164E+04  0.86902001312E+02 0.  0.
         13    1    3    3    0    0  0.18577922902E+04  0.81709026669E+03 -0.52159161586E+03  0.20954919497E+04  0.00000000000E+00 0.  1.
        -13    1    3    3    0    0  0.50289138829E+03  0.25235651002E+03 -0.18183519575E+03  0.59131006670E+03  0.00000000000E+00 0. -1.
         22    1    1    2    0    0 -0.23606836785E+04 -0.10694467767E+04 -0.95165908189E+03  0.27608329987E+04  0.00000000000E+00 0.  1.
<mgrwt>
<rscale>  0 0.51901270E+04</rscale>
<asrwt>0</asrwt>
<pdfrwt beam="1">  1        1 0.29173455E+00 0.51901270E+04</pdfrwt>
<pdfrwt beam="2">  1       -1 0.54636315E+00 0.51901270E+04</pdfrwt>
<totfact> 0.19795599E-03</totfact>
</mgrwt>
</event>
<event>
 6    1  0.9988873E-007  0.2765452E+04  0.7818608E-02  0.8314075E-01
          2   -1    0    0  501    0  0.00000000000E+00  0.00000000000E+00  0.19932223511E+04  0.19932223511E+04  0.00000000000E+00 0. -1.
         -2   -1    0    0    0  501 -0.00000000000E+00 -0.00000000000E+00 -0.95921627441E+03  0.95921627441E+03  0.00000000000E+00 0.  1.
         23    2    1    2    0    0 -0.87297334292E+03 -0.63435428392E+03  0.14380687388E+04  0.18001563468E+04  0.89629016273E+02 0.  0.
         13    1    3    3    0    0 -0.11248402567E+03 -0.10518267884E+03  0.16566934668E+03  0.22619103516E+03  0.00000000000E+00 0.  1.
        -13    1    3    3    0    0 -0.76048931725E+03 -0.52917160507E+03  0.12723993921E+04  0.15739653117E+04  0.00000000000E+00 0. -1.
         22    1    1    2    0    0  0.87297334292E+03  0.63435428392E+03 -0.40406266208E+03  0.11522822787E+04  0.00000000000E+00 0.  1.
<mgrwt>
<rscale>  0 0.27654521E+04</rscale>
<asrwt>0</asrwt>
<pdfrwt beam="1">  1        2 0.30664959E+00 0.27654521E+04</pdfrwt>
<pdfrwt beam="2">  1       -2 0.14757174E+00 0.27654521E+04</pdfrwt>
<totfact> 0.18399892E+00</totfact>
</mgrwt>
</event>
<event>
 6    1  0.9988873E-007  0.1607011E+04  0.7818608E-02  0.8816252E-01
          2   -1    0    0  501    0  0.00000000000E+00  0.00000000000E+00  0.23135526000E+04  0.23135526000E+04  0.00000000000E+00 0. -1.
         -2   -1    0    0    0  501 -0.00000000000E+00 -0.00000000000E+00 -0.27906047355E+03  0.27906047355E+03  0.00000000000E+00 0.  1.
         23    2    1    2    0    0  0.22896293583E+03  0.84368751923E+02  0.22512176139E+04  0.22662512357E+04  0.91497571800E+02 0.  0.
         13    1    3    3    0    0  0.14783395499E+03  0.86821884085E+02  0.17648263232E+04  0.17731341937E+04  0.00000000000E+00 0.  1.
        -13    1    3    3    0    0  0.81128980840E+02 -0.24531321625E+01  0.48639129073E+03  0.49311704198E+03  0.00000000000E+00 0. -1.
         22    1    1    2    0    0 -0.22896293583E+03 -0.84368751923E+02 -0.21672548749E+03  0.32636183786E+03  0.00000000000E+00 0.  1.
<mgrwt>
<rscale>  0 0.16070110E+04</rscale>
<asrwt>0</asrwt>
<pdfrwt beam="1">  1        2 0.35593116E+00 0.16070110E+04</pdfrwt>
<pdfrwt beam="2">  1       -2 0.42932382E-01 0.16070110E+04</pdfrwt>
<totfact> 0.21983340E+01</totfact>
</mgrwt>
</event>
<event>
 6    1  0.9988873E-007  0.3737923E+04  0.7818608E-02  0.8059609E-01
         -1   -1    0    0    0  501 -0.00000000000E+00  0.00000000000E+00  0.25726458976E+04  0.25726458976E+04  0.00000000000E+00 0.  1.
          1   -1    0    0  501    0  0.00000000000E+00 -0.00000000000E+00 -0.13577524632E+04  0.13577524632E+04  0.00000000000E+00 0. -1.
         23    2    1    2    0    0  0.73679469613E+03 -0.91026640758E+03  0.21378703860E+04  0.24393122432E+04  0.91121213717E+02 0.  0.
         13    1    3    3    0    0  0.21833210578E+03 -0.33780487455E+03  0.71994910889E+03  0.82468646229E+03  0.00000000000E+00 0. -1.
        -13    1    3    3    0    0  0.51846259034E+03 -0.57246153303E+03  0.14179212771E+04  0.16146257809E+04  0.00000000000E+00 0.  1.
         22    1    1    2    0    0 -0.73679469613E+03  0.91026640758E+03 -0.92297695160E+03  0.14910861176E+04  0.00000000000E+00 0. -1.
<mgrwt>
<rscale>  0 0.37379226E+04</rscale>
<asrwt>0</asrwt>
<pdfrwt beam="1">  1        1 0.20888499E+00 0.37379226E+04</pdfrwt>
<pdfrwt beam="2">  1       -1 0.39579168E+00 0.37379226E+04</pdfrwt>
<totfact> 0.50262850E-02</totfact>
</mgrwt>
</event>
<event>
 6    1  0.9988873E-007  0.6015831E+04  0.7818608E-02  0.7688442E-01
          1   -1    0    0  501    0  0.00000000000E+00  0.00000000000E+00  0.29037922043E+04  0.29037922043E+04  0.00000000000E+00 0. -1.
         -1   -1    0    0    0  501 -0.00000000000E+00 -0.00000000000E+00 -0.31157723605E+04  0.31157723605E+04  0.00000000000E+00 0.  1.
         23    2    1    2    0    0  0.27500780332E+04  0.11078854051E+04 -0.60988127119E+03  0.30281327076E+04  0.85400644814E+02 0.  0.
         11    1    3    3    0    0  0.17831372371E+04  0.71090482637E+03 -0.43585325150E+03  0.19684847308E+04  0.00000000000E+00 0. -1.
        -11    1    3    3    0    0  0.96694079607E+03  0.39698057873E+03 -0.17402801969E+03  0.10596479768E+04  0.00000000000E+00 0.  1.
         22    1    1    2    0    0 -0.27500780332E+04 -0.11078854051E+04  0.39790111503E+03  0.29914318573E+04  0.00000000000E+00 0. -1.
<mgrwt>
<rscale>  0 0.60158309E+04</rscale>
<asrwt>0</asrwt>
<pdfrwt beam="1">  1        1 0.44673726E+00 0.60158309E+04</pdfrwt>
<pdfrwt beam="2">  1       -1 0.47934959E+00 0.60158309E+04</pdfrwt>
<totfact> 0.96260147E-04</totfact>
</mgrwt>
</event>
<event>
 6    1  0.1044982E-006  0.3385760E+04  0.7818608E-02  0.8141410E-01
          2   -1    0    0  501    0  0.00000000000E+00  0.00000000000E+00  0.23898024203E+04  0.23898024203E+04  0.00000000000E+00 0. -1.
         -2   -1    0    0    0  501 -0.00000000000E+00 -0.00000000000E+00 -0.11991964191E+04  0.11991964191E+04  0.00000000000E+00 0.  1.
         23    2    1    2    0    0 -0.72396169444E+03  0.66003121142E+02  0.22149214217E+04  0.23329339415E+04  0.90702394248E+02 0.  0.
         13    1    3    3    0    0 -0.24726874872E+03 -0.25545233725E+01  0.64379707241E+03  0.68965428305E+03  0.00000000000E+00 0.  1.
        -13    1    3    3    0    0 -0.47669294572E+03  0.68557644514E+02  0.15711243493E+04  0.16432796585E+04  0.00000000000E+00 0. -1.
         22    1    1    2    0    0  0.72396169444E+03 -0.66003121142E+02 -0.10243154205E+04  0.12560648979E+04  0.00000000000E+00 0.  1.
<mgrwt>
<rscale>  0 0.33857599E+04</rscale>
<asrwt>0</asrwt>
<pdfrwt beam="1">  1        2 0.36766191E+00 0.33857599E+04</pdfrwt>
<pdfrwt beam="2">  1       -2 0.18449176E+00 0.33857599E+04</pdfrwt>
<totfact> 0.56439463E-01</totfact>
</mgrwt>
</event>
<event>
 6    1  0.9988873E-007  0.3313295E+04  0.7818608E-02  0.8159521E-01
          1   -1    0    0  501    0  0.00000000000E+00  0.00000000000E+00  0.28886449477E+04  0.28886449477E+04  0.00000000000E+00 0. -1.
         -1   -1    0    0    0  501 -0.00000000000E+00 -0.00000000000E+00 -0.95009297861E+03  0.95009297861E+03  0.00000000000E+00 0.  1.
         23    2    1    2    0    0  0.10683284512E+04 -0.89286722760E+02 -0.49147544199E+03  0.11827388643E+04  0.89584108787E+02 0.  0.
         11    1    3    3    0    0  0.29337513685E+03 -0.54088096813E+01 -0.96396337658E+02  0.30885349287E+03  0.00000000000E+00 0.  1.
        -11    1    3    3    0    0  0.77495331438E+03 -0.83877913079E+02 -0.39507910434E+03  0.87388537146E+03  0.00000000000E+00 0. -1.
         22    1    1    2    0    0 -0.10683284512E+04  0.89286722760E+02  0.24300274111E+04  0.26559990620E+04  0.00000000000E+00 0. -1.
<mgrwt>
<rscale>  0 0.33132952E+04</rscale>
<asrwt>0</asrwt>
<pdfrwt beam="1">  1        1 0.44440691E+00 0.33132952E+04</pdfrwt>
<pdfrwt beam="2">  1       -1 0.14616815E+00 0.33132952E+04</pdfrwt>
<totfact> 0.22297381E-01</totfact>
</mgrwt>
</event>
<event>
 6    1  0.9988873E-007  0.2601324E+04  0.7818608E-02  0.8367752E-01
          2   -1    0    0  501    0  0.00000000000E+00  0.00000000000E+00  0.33455593508E+04  0.33455593508E+04  0.00000000000E+00 0. -1.
         -2   -1    0    0    0  501 -0.00000000000E+00 -0.00000000000E+00 -0.50566168695E+03  0.50566168695E+03  0.00000000000E+00 0.  1.
         23    2    1    2    0    0 -0.29277062796E+03  0.89672379744E+03  0.27438723826E+04  0.29030390594E+04  0.94720213779E+02 0.  0.
         11    1    3    3    0    0 -0.12329030554E+03  0.31278315362E+03  0.85563834311E+03  0.91932082258E+03  0.00000000000E+00 0. -1.
        -11    1    3    3    0    0 -0.16948032242E+03  0.58394064381E+03  0.18882340395E+04  0.19837182368E+04  0.00000000000E+00 0.  1.
         22    1    1    2    0    0  0.29277062796E+03 -0.89672379744E+03  0.96025281282E+02  0.94818197838E+03  0.00000000000E+00 0.  1.
<mgrwt>
<rscale>  0 0.26013237E+04</rscale>
<asrwt>0</asrwt>
<pdfrwt beam="1">  1        2 0.51470143E+00 0.26013237E+04</pdfrwt>
<pdfrwt beam="2">  1       -2 0.77794108E-01 0.26013237E+04</pdfrwt>
<totfact> 0.13519053E+00</totfact>
</mgrwt>
</event>
<event>
 6    1  0.9988873E-007  0.2776279E+04  0.7818608E-02  0.8310671E-01
         -2   -1    0    0    0  501 -0.00000000000E+00  0.00000000000E+00  0.80655960750E+03  0.80655960750E+03  0.00000000000E+00 0.  1.
          2   -1    0    0  501    0  0.00000000000E+00 -0.00000000000E+00 -0.23890740560E+04  0.23890740560E+04  0.00000000000E+00 0. -1.
         23    2    1    2    0    0  0.42729196185E+03 -0.13192132453E+04 -0.79204460322E+03  0.15994680757E+04  0.89785659203E+02 0.  0.
         11    1    3    3    0    0  0.44648267370E+02 -0.21725851165E+03 -0.15233616186E+03  0.26907440398E+03  0.00000000000E+00 0. -1.
        -11    1    3    3    0    0  0.38264369448E+03 -0.11019547336E+04 -0.63970844135E+03  0.13303936718E+04  0.00000000000E+00 0.  1.
         22    1    1    2    0    0 -0.42729196185E+03  0.13192132453E+04 -0.79046984524E+03  0.15961655877E+04  0.00000000000E+00 0. -1.
<mgrwt>
<rscale>  0 0.27762785E+04</rscale>
<asrwt>0</asrwt>
<pdfrwt beam="1">  1        2 0.36754986E+00 0.27762785E+04</pdfrwt>
<pdfrwt beam="2">  1       -2 0.12408609E+00 0.27762785E+04</pdfrwt>
<totfact> 0.17170770E+00</totfact>
</mgrwt>
</event>
<event>
 6    1  0.9988873E-007  0.4259759E+04  0.7818608E-02  0.7954101E-01
         -2   -1    0    0    0  501 -0.00000000000E+00  0.00000000000E+00  0.17223690241E+04  0.17223690241E+04  0.00000000000E+00 0.  1.
          2   -1    0    0  501    0  0.00000000000E+00 -0.00000000000E+00 -0.26338063152E+04  0.26338063152E+04  0.00000000000E+00 0. -1.
         23    2    1    2    0    0 -0.19958705199E+04 -0.39810114963E+03  0.18275886445E+03  0.20454938632E+04  0.93062797299E+02 0.  0.
         11    1    3    3    0    0 -0.84370806820E+03 -0.17711259538E+03  0.12278671761E+03  0.87079776860E+03  0.00000000000E+00 0. -1.
        -11    1    3    3    0    0 -0.11521624517E+04 -0.22098855425E+03  0.59972146839E+02  0.11746960946E+04  0.00000000000E+00 0.  1.
         22    1    1    2    0    0  0.19958705199E+04  0.39810114963E+03 -0.10941961555E+04  0.23106814762E+04  0.00000000000E+00 0. -1.
<mgrwt>
<rscale>  0 0.42597589E+04</rscale>
<asrwt>0</asrwt>
<pdfrwt beam="1">  1        2 0.40520097E+00 0.42597589E+04</pdfrwt>
<pdfrwt beam="2">  1       -2 0.26497985E+00 0.42597589E+04</pdfrwt>
<totfact> 0.11679845E-01</totfact>
</mgrwt>
</event>
<event>
 6    1  0.9988873E-007  0.3082786E+04  0.7818608E-02  0.8220478E-01
         -2   -1    0    0    0  501 -0.00000000000E+00  0.00000000000E+00  0.51202382976E+03  0.51202382976E+03  0.00000000000E+00 0.  1.
          2   -1    0    0  501    0  0.00000000000E+00 -0.00000000000E+00 -0.46401999253E+04  0.46401999253E+04  0.00000000000E+00 0. -1.
         23    2    1    2    0    0 -0.87862215330E+03  0.11759362846E+04 -0.28442515725E+04  0.32020275560E+04  0.91708386653E+02 0.  0.
         11    1    3    3    0    0 -0.17906786752E+03  0.30509806233E+03 -0.68329864143E+03  0.76944600993E+03  0.00000000000E+00 0.  1.
        -11    1    3    3    0    0 -0.69955428578E+03  0.87083822231E+03 -0.21609529311E+04  0.24325815461E+04  0.00000000000E+00 0. -1.
         22    1    1    2    0    0  0.87862215330E+03 -0.11759362846E+04 -0.12839245231E+04  0.19501961990E+04  0.00000000000E+00 0.  1.
<mgrwt>
<rscale>  0 0.30827864E+04</rscale>
<asrwt>0</asrwt>
<pdfrwt beam="1">  1        2 0.71387693E+00 0.30827864E+04</pdfrwt>
<pdfrwt beam="2">  1       -2 0.78772895E-01 0.30827864E+04</pdfrwt>
<totfact> 0.10785934E-01</totfact>
</mgrwt>
</event>
<event>
 6    1  0.9988873E-007  0.3305993E+04  0.7818608E-02  0.8161372E-01
         -2   -1    0    0    0  501 -0.00000000000E+00  0.00000000000E+00  0.16812177709E+04  0.16812177709E+04  0.00000000000E+00 0.  1.
          2   -1    0    0  501    0  0.00000000000E+00 -0.00000000000E+00 -0.16252493441E+04  0.16252493441E+04  0.00000000000E+00 0. -1.
         23    2    1    2    0    0  0.11900548832E+04  0.12090550513E+03  0.11671610422E+04  0.16738012597E+04  0.92179132287E+02 0.  0.
         13    1    3    3    0    0  0.10022070467E+04  0.80446474891E+02  0.94173045123E+03  0.13775873266E+04  0.00000000000E+00 0. -1.
        -13    1    3    3    0    0  0.18784783657E+03  0.40459030235E+02  0.22543059096E+03  0.29621393312E+03  0.00000000000E+00 0.  1.
         22    1    1    2    0    0 -0.11900548832E+04 -0.12090550513E+03 -0.11111926154E+04  0.16326658552E+04  0.00000000000E+00 0. -1.
<mgrwt>
<rscale>  0 0.33059934E+04</rscale>
<asrwt>0</asrwt>
<pdfrwt beam="1">  1        2 0.25003836E+00 0.33059934E+04</pdfrwt>
<pdfrwt beam="2">  1       -2 0.25864889E+00 0.33059934E+04</pdfrwt>
<totfact> 0.51246850E-01</totfact>
</mgrwt>
</event>
<event>
 6    1  0.9988873E-007  0.1905611E+04  0.7818608E-02  0.8652068E-01
          2   -1    0    0  501    0  0.00000000000E+00  0.00000000000E+00  0.84208696862E+03  0.84208696862E+03  0.00000000000E+00 0. -1.
         -2   -1    0    0    0  501 -0.00000000000E+00 -0.00000000000E+00 -0.10780818570E+04  0.10780818570E+04  0.00000000000E+00 0.  1.
         23    2    1    2    0    0 -0.72034939922E+02 -0.60633508846E+03 -0.85241164199E+03  0.10525278364E+04  0.91531234545E+02 0.  0.
         13    1    3    3    0    0 -0.50290390691E+02 -0.34604327118E+03 -0.41100449146E+03  0.53962928101E+03  0.00000000000E+00 0. -1.
        -13    1    3    3    0    0 -0.21744549231E+02 -0.26029181728E+03 -0.44140715054E+03  0.51289855538E+03  0.00000000000E+00 0.  1.
         22    1    1    2    0    0  0.72034939922E+02  0.60633508846E+03  0.61641675361E+03  0.86764098924E+03  0.00000000000E+00 0. -1.
<mgrwt>
<rscale>  0 0.19056114E+04</rscale>
<asrwt>0</asrwt>
<pdfrwt beam="1">  1        2 0.12955184E+00 0.19056114E+04</pdfrwt>
<pdfrwt beam="2">  1       -2 0.16585875E+00 0.19056114E+04</pdfrwt>
<totfact> 0.68653861E+00</totfact>
</mgrwt>
</event>
<event>
 6    1  0.1056065E-006  0.2869888E+04  0.7818608E-02  0.8281894E-01
          2   -1    0    0  501    0  0.00000000000E+00  0.00000000000E+00  0.14963354568E+04  0.14963354568E+04  0.00000000000E+00 0. -1.
         -2   -1    0    0    0  501 -0.00000000000E+00 -0.00000000000E+00 -0.13760709033E+04  0.13760709033E+04  0.00000000000E+00 0.  1.
         23    2    1    2    0    0  0.14075772588E+03 -0.11253794768E+04 -0.81733023918E+03  0.14008848008E+04  0.90320545592E+02 0.  0.
         11    1    3    3    0    0  0.65145054328E+02 -0.63271380750E+03 -0.51044024153E+03  0.81554882164E+03  0.00000000000E+00 0.  1.
        -11    1    3    3    0    0  0.75612671548E+02 -0.49266566934E+03 -0.30688999765E+03  0.58533597916E+03  0.00000000000E+00 0. -1.
         22    1    1    2    0    0 -0.14075772588E+03  0.11253794768E+04  0.93759479268E+03  0.14715215593E+04  0.00000000000E+00 0. -1.
<mgrwt>
<rscale>  0 0.28698876E+04</rscale>
<asrwt>0</asrwt>
<pdfrwt beam="1">  1        2 0.23020545E+00 0.28698876E+04</pdfrwt>
<pdfrwt beam="2">  1       -2 0.21170322E+00 0.28698876E+04</pdfrwt>
<totfact> 0.12322276E+00</totfact>
</mgrwt>
</event>
<event>
 6    1  0.9988873E-007  0.1191167E+04  0.7818608E-02  0.9120623E-01
         -2   -1    0    0    0  501 -0.00000000000E+00  0.00000000000E+00  0.26139184224E+03  0.26139184224E+03  0.00000000000E+00 0.  1.
          2   -1    0    0  501    0  0.00000000000E+00 -0.00000000000E+00 -0.13570428743E+04  0.13570428743E+04  0.00000000000E+00 0. -1.
         23    2    1    2    0    0  0.28316432122E+03  0.12617036523E+03 -0.12364150567E+04  0.12779710555E+04  0.91579650385E+02 0.  0.
         11    1    3    3    0    0  0.17744846368E+03  0.58376236013E+02 -0.57012051122E+03  0.59994428033E+03  0.00000000000E+00 0. -1.
        -11    1    3    3    0    0  0.10571585754E+03  0.67794129217E+02 -0.66629454550E+03  0.67802677518E+03  0.00000000000E+00 0.  1.
         22    1    1    2    0    0 -0.28316432122E+03 -0.12617036523E+03  0.14076402462E+03  0.34046366106E+03  0.00000000000E+00 0.  1.
<mgrwt>
<rscale>  0 0.11911674E+04</rscale>
<asrwt>0</asrwt>
<pdfrwt beam="1">  1        2 0.20877582E+00 0.11911674E+04</pdfrwt>
<pdfrwt beam="2">  1       -2 0.40214130E-01 0.11911674E+04</pdfrwt>
<totfact> 0.88455692E+01</totfact>
</mgrwt>
</event>
<event>
 6    1  0.9988873E-007  0.1871263E+04  0.7818608E-02  0.8669295E-01
         -2   -1    0    0    0  501 -0.00000000000E+00  0.00000000000E+00  0.65303709268E+03  0.65303709268E+03  0.00000000000E+00 0.  1.
          2   -1    0    0  501    0  0.00000000000E+00 -0.00000000000E+00 -0.13405148823E+04  0.13405148823E+04  0.00000000000E+00 0. -1.
         23    2    1    2    0    0 -0.60386789654E+03  0.52541662553E+03 -0.85632400210E+03  0.11754883403E+04  0.88107745600E+02 0.  0.
         13    1    3    3    0    0 -0.33779769283E+03  0.34897801854E+03 -0.49989597143E+03  0.69698559595E+03  0.00000000000E+00 0. -1.
        -13    1    3    3    0    0 -0.26607020372E+03  0.17643860699E+03 -0.35642803067E+03  0.47850274439E+03  0.00000000000E+00 0.  1.
         22    1    1    2    0    0  0.60386789654E+03 -0.52541662553E+03  0.16884621248E+03  0.81806363465E+03  0.00000000000E+00 0.  1.
<mgrwt>
<rscale>  0 0.18712626E+04</rscale>
<asrwt>0</asrwt>
<pdfrwt beam="1">  1        2 0.20623306E+00 0.18712626E+04</pdfrwt>
<pdfrwt beam="2">  1       -2 0.10046725E+00 0.18712626E+04</pdfrwt>
<totfact> 0.12009493E+01</totfact>
</mgrwt>
</event>
<event>
 6    1  0.9988873E-007  0.2366596E+04  0.7818608E-02  0.8452116E-01
         -2   -1    0    0    0  501 -0.00000000000E+00  0.00000000000E+00  0.20406929721E+04  0.20406929721E+04  0.00000000000E+00 0.  1.
          2   -1    0    0  501    0  0.00000000000E+00 -0.00000000000E+00 -0.68613673642E+03  0.68613673642E+03  0.00000000000E+00 0. -1.
         23    2    1    2    0    0 -0.99636225396E+03 -0.46202565648E+03  0.11800600363E+04  0.16147800819E+04  0.93635331613E+02 0.  0.
         11    1    3    3    0    0 -0.53182272223E+03 -0.22855383695E+03  0.68562784965E+03  0.89730586339E+03  0.00000000000E+00 0.  1.
        -11    1    3    3    0    0 -0.46453953173E+03 -0.23347181953E+03  0.49443218669E+03  0.71747421855E+03  0.00000000000E+00 0. -1.
         22    1    1    2    0    0  0.99636225396E+03  0.46202565648E+03  0.17449619934E+03  0.11120496266E+04  0.00000000000E+00 0.  1.
<mgrwt>
<rscale>  0 0.23665962E+04</rscale>
<asrwt>0</asrwt>
<pdfrwt beam="1">  1        2 0.10555950E+00 0.23665962E+04</pdfrwt>
<pdfrwt beam="2">  1       -2 0.31395276E+00 0.23665962E+04</pdfrwt>
<totfact> 0.98913970E-01</totfact>
</mgrwt>
</event>
<event>
 6    1  0.9988873E-007  0.5073548E+04  0.7818608E-02  0.7817261E-01
         -1   -1    0    0    0  501 -0.00000000000E+00  0.00000000000E+00  0.41670223545E+04  0.41670223545E+04  0.00000000000E+00 0.  1.
          1   -1    0    0  501    0  0.00000000000E+00 -0.00000000000E+00 -0.15443215364E+04  0.15443215364E+04  0.00000000000E+00 0. -1.
         23    2    1    2    0    0 -0.19204983368E+04  0.11714167164E+04 -0.59756152336E+01  0.22515070774E+04  0.93367158437E+02 0.  0.
         11    1    3    3    0    0 -0.59642686404E+03  0.36238454108E+03 -0.45036018077E+02  0.69933954749E+03  0.00000000000E+00 0.  1.
        -11    1    3    3    0    0 -0.13240714728E+04  0.80903217535E+03  0.39060402844E+02  0.15521675299E+04  0.00000000000E+00 0. -1.
         22    1    1    2    0    0  0.19204983368E+04 -0.11714167164E+04  0.26286764334E+04  0.34598368136E+04  0.00000000000E+00 0.  1.
<mgrwt>
<rscale>  0 0.50735480E+04</rscale>
<asrwt>0</asrwt>
<pdfrwt beam="1">  1        1 0.23758793E+00 0.50735480E+04</pdfrwt>
<pdfrwt beam="2">  1       -1 0.64108036E+00 0.50735480E+04</pdfrwt>
<totfact> 0.13870170E-03</totfact>
</mgrwt>
</event>
<event>
 6    1  0.9988873E-007  0.7693782E+03  0.7818608E-02  0.9605430E-01
          1   -1    0    0  501    0  0.00000000000E+00  0.00000000000E+00  0.51761089797E+03  0.51761089797E+03  0.00000000000E+00 0. -1.
         -1   -1    0    0    0  501 -0.00000000000E+00 -0.00000000000E+00 -0.28590143977E+03  0.28590143977E+03  0.00000000000E+00 0.  1.
         23    2    1    2    0    0  0.30827021388E+03 -0.21300957763E+03  0.55621097109E+02  0.38949456537E+03  0.90601904399E+02 0.  0.
         13    1    3    3    0    0  0.31276984934E+03 -0.21495140580E+03  0.58213497454E+02  0.38395038325E+03  0.00000000000E+00 0. -1.
        -13    1    3    3    0    0 -0.44996354558E+01  0.19418281689E+01 -0.25924003447E+01  0.55441821236E+01  0.00000000000E+00 0.  1.
         22    1    1    2    0    0 -0.30827021388E+03  0.21300957763E+03  0.17608836109E+03  0.41401777237E+03  0.00000000000E+00 0. -1.
<mgrwt>
<rscale>  0 0.76937819E+03</rscale>
<asrwt>0</asrwt>
<pdfrwt beam="1">  1        1 0.79632446E-01 0.76937819E+03</pdfrwt>
<pdfrwt beam="2">  1       -1 0.43984837E-01 0.76937819E+03</pdfrwt>
<totfact> 0.21844295E+02</totfact>
</mgrwt>
</event>
<event>
 6    1  0.9988873E-007  0.2724342E+04  0.7818608E-02  0.8327150E-01
         -1   -1    0    0    0  501 -0.00000000000E+00  0.00000000000E+00  0.15424123172E+04  0.15424123172E+04  0.00000000000E+00 0.  1.
          1   -1    0    0  501    0  0.00000000000E+00 -0.00000000000E+00 -0.12029917568E+04  0.12029917568E+04  0.00000000000E+00 0. -1.
         23    2    1    2    0    0  0.60265010409E+03  0.89514559911E+03  0.10056560802E+04  0.14771996113E+04  0.79383552822E+02 0.  0.
         11    1    3    3    0    0  0.17163583955E+03  0.30580468127E+03  0.29397647078E+03  0.45759974855E+03  0.00000000000E+00 0. -1.
        -11    1    3    3    0    0  0.43101426454E+03  0.58934091784E+03  0.71167960939E+03  0.10195998627E+04  0.00000000000E+00 0.  1.
         22    1    1    2    0    0 -0.60265010409E+03 -0.89514559911E+03 -0.66623551974E+03  0.12682044627E+04  0.00000000000E+00 0. -1.
<mgrwt>
<rscale>  0 0.27243416E+04</rscale>
<asrwt>0</asrwt>
<pdfrwt beam="1">  1        1 0.18507565E+00 0.27243416E+04</pdfrwt>
<pdfrwt beam="2">  1       -1 0.23729420E+00 0.27243416E+04</pdfrwt>
<totfact> 0.78250004E-01</totfact>
</mgrwt>
</event>
<event>
 6    1  0.9988873E-007  0.1942892E+04  0.7818608E-02  0.8633796E-01
          2   -1    0    0  501    0  0.00000000000E+00  0.00000000000E+00  0.92900946233E+03  0.92900946233E+03  0.00000000000E+00 0. -1.
         -2   -1    0    0    0  501 -0.00000000000E+00 -0.00000000000E+00 -0.10158206095E+04  0.10158206095E+04  0.00000000000E+00 0.  1.
         23    2    1    2    0    0  0.64388806479E+03  0.55500067471E+03  0.42345987537E+03  0.95336947990E+03  0.83531492472E+02 0.  0.
         11    1    3    3    0    0  0.24240079025E+03  0.15694696126E+03  0.14649457593E+03  0.32380727685E+03  0.00000000000E+00 0. -1.
        -11    1    3    3    0    0  0.40148727454E+03  0.39805371345E+03  0.27696529944E+03  0.62956220305E+03  0.00000000000E+00 0.  1.
         22    1    1    2    0    0 -0.64388806479E+03 -0.55500067471E+03 -0.51027102257E+03  0.99146059195E+03  0.00000000000E+00 0.  1.
<mgrwt>
<rscale>  0 0.19428916E+04</rscale>
<asrwt>0</asrwt>
<pdfrwt beam="1">  1        2 0.14292453E+00 0.19428916E+04</pdfrwt>
<pdfrwt beam="2">  1       -2 0.15628009E+00 0.19428916E+04</pdfrwt>
<totfact> 0.70238380E+00</totfact>
</mgrwt>
</event>
<event>
 6    1  0.9988873E-007  0.4886292E+04  0.7818608E-02  0.7846291E-01
          1   -1    0    0  501    0  0.00000000000E+00  0.00000000000E+00  0.21511015908E+04  0.21511015908E+04  0.00000000000E+00 0. -1.
         -1   -1    0    0    0  501 -0.00000000000E+00 -0.00000000000E+00 -0.27748402409E+04  0.27748402409E+04  0.00000000000E+00 0.  1.
         23    2    1    2    0    0 -0.23425616039E+04 -0.50111340684E+03 -0.79138706506E+03  0.25245223545E+04  0.90609696297E+02 0.  0.
         11    1    3    3    0    0 -0.92609255064E+03 -0.18631186945E+03 -0.26714261970E+03  0.98169481221E+03  0.00000000000E+00 0. -1.
        -11    1    3    3    0    0 -0.14164690532E+04 -0.31480153739E+03 -0.52424444536E+03  0.15428275423E+04  0.00000000000E+00 0.  1.
         22    1    1    2    0    0  0.23425616039E+04  0.50111340684E+03  0.16764841496E+03  0.24014194772E+04  0.00000000000E+00 0. -1.
<mgrwt>
<rscale>  0 0.48862924E+04</rscale>
<asrwt>0</asrwt>
<pdfrwt beam="1">  1        1 0.33093871E+00 0.48862924E+04</pdfrwt>
<pdfrwt beam="2">  1       -1 0.42689849E+00 0.48862924E+04</pdfrwt>
<totfact> 0.80146580E-03</totfact>
</mgrwt>
</event>
<event>
 6    1  0.9988873E-007  0.5562350E+03  0.7818608E-02  0.1000061E+00
         -1   -1    0    0    0  501 -0.00000000000E+00  0.00000000000E+00  0.62077021716E+03  0.62077021716E+03  0.00000000000E+00 0.  1.
          1   -1    0    0  501    0  0.00000000000E+00 -0.00000000000E+00 -0.12460221258E+03  0.12460221258E+03  0.00000000000E+00 0. -1.
         23    2    1    2    0    0 -0.13623795564E+03  0.46527123570E+02  0.56232043523E+03  0.58693727623E+03  0.86980115872E+02 0.  0.
         13    1    3    3    0    0 -0.70582410517E+00 -0.15958882051E+02  0.95905716889E+02  0.97227005692E+02  0.00000000000E+00 0.  1.
        -13    1    3    3    0    0 -0.13553213154E+03  0.62486005621E+02  0.46641471834E+03  0.48971027053E+03  0.00000000000E+00 0. -1.
         22    1    1    2    0    0  0.13623795564E+03 -0.46527123570E+02 -0.66152430657E+02  0.15843515351E+03  0.00000000000E+00 0. -1.
<mgrwt>
<rscale>  0 0.55623500E+03</rscale>
<asrwt>0</asrwt>
<pdfrwt beam="1">  1        1 0.19169572E-01 0.55623500E+03</pdfrwt>
<pdfrwt beam="2">  1       -1 0.95503108E-01 0.55623500E+03</pdfrwt>
<totfact> 0.29868702E+02</totfact>
</mgrwt>
</event>
<event>
 6    1  0.9988873E-007  0.4441024E+04  0.7818608E-02  0.7921044E-01
         -2   -1    0    0    0  501 -0.00000000000E+00  0.00000000000E+00  0.19383066037E+04  0.19383066037E+04  0.00000000000E+00 0.  1.
          2   -1    0    0  501    0  0.00000000000E+00 -0.00000000000E+00 -0.25438046400E+04  0.25438046400E+04  0.00000000000E+00 0. -1.
         23    2    1    2    0    0 -0.92274762115E+03 -0.67555523870E+03 -0.22227507809E+04  0.25013678244E+04  0.91552751418E+02 0.  0.
         11    1    3    3    0    0 -0.70513923709E+03 -0.48486668669E+03 -0.15920991984E+04  0.18075112462E+04  0.00000000000E+00 0. -1.
        -11    1    3    3    0    0 -0.21760838406E+03 -0.19068855201E+03 -0.63065158245E+03  0.69385657822E+03  0.00000000000E+00 0.  1.
         22    1    1    2    0    0  0.92274762115E+03  0.67555523870E+03  0.16172527446E+04  0.19807434193E+04  0.00000000000E+00 0.  1.
<mgrwt>
<rscale>  0 0.44410239E+04</rscale>
<asrwt>0</asrwt>
<pdfrwt beam="1">  1        2 0.39135456E+00 0.44410239E+04</pdfrwt>
<pdfrwt beam="2">  1       -2 0.29820102E+00 0.44410239E+04</pdfrwt>
<totfact> 0.81473575E-02</totfact>
</mgrwt>
</event>
<event>
 6    1  0.9988873E-007  0.3176812E+04  0.7818608E-02  0.8194968E-01
          2   -1    0    0  501    0  0.00000000000E+00  0.00000000000E+00  0.15899036928E+04  0.15899036928E+04  0.00000000000E+00 0. -1.
         -2   -1    0    0    0  501 -0.00000000000E+00 -0.00000000000E+00 -0.15869095598E+04  0.15869095598E+04  0.00000000000E+00 0.  1.
         23    2    1    2    0    0 -0.35983882220E+03  0.85553487043E+03 -0.12856923952E+04  0.15886895607E+04  0.97497142428E+02 0.  0.
         11    1    3    3    0    0 -0.15365303063E+03  0.27714896210E+03 -0.38577008906E+03  0.49923878318E+03  0.00000000000E+00 0. -1.
        -11    1    3    3    0    0 -0.20618579157E+03  0.57838590833E+03 -0.89992230614E+03  0.10894507775E+04  0.00000000000E+00 0.  1.
         22    1    1    2    0    0  0.35983882220E+03 -0.85553487043E+03  0.12886865283E+04  0.15881236919E+04  0.00000000000E+00 0. -1.
<mgrwt>
<rscale>  0 0.31768118E+04</rscale>
<asrwt>0</asrwt>
<pdfrwt beam="1">  1        2 0.24460057E+00 0.31768118E+04</pdfrwt>
<pdfrwt beam="2">  1       -2 0.24413993E+00 0.31768118E+04</pdfrwt>
<totfact> 0.66568574E-01</totfact>
</mgrwt>
</event>
<event>
 6    1  0.9988873E-007  0.1170663E+04  0.7818608E-02  0.9138930E-01
          2   -1    0    0  501    0  0.00000000000E+00  0.00000000000E+00  0.43489941867E+03  0.43489941867E+03  0.00000000000E+00 0. -1.
         -2   -1    0    0    0  501 -0.00000000000E+00 -0.00000000000E+00 -0.78779751573E+03  0.78779751573E+03  0.00000000000E+00 0.  1.
         23    2    1    2    0    0 -0.66844487848E+02 -0.38072928190E+03 -0.63178906902E+03  0.74603862293E+03  0.89404851794E+02 0.  0.
         13    1    3    3    0    0 -0.68797497256E+02 -0.34606004495E+03 -0.51556597600E+03  0.62473908630E+03  0.00000000000E+00 0. -1.
        -13    1    3    3    0    0  0.19530094073E+01 -0.34669236941E+02 -0.11622309302E+03  0.12129953663E+03  0.00000000000E+00 0.  1.
         22    1    1    2    0    0  0.66844487848E+02  0.38072928190E+03  0.27889097196E+03  0.47665831146E+03  0.00000000000E+00 0. -1.
<mgrwt>
<rscale>  0 0.11706625E+04</rscale>
<asrwt>0</asrwt>
<pdfrwt beam="1">  1        2 0.66907603E-01 0.11706625E+04</pdfrwt>
<pdfrwt beam="2">  1       -2 0.12119962E+00 0.11706625E+04</pdfrwt>
<totfact> 0.37017942E+01</totfact>
</mgrwt>
</event>
<event>
 6    1  0.9988873E-007  0.1542520E+04  0.7818608E-02  0.8856660E-01
         -1   -1    0    0    0  501 -0.00000000000E+00  0.00000000000E+00  0.38923028043E+03  0.38923028043E+03  0.00000000000E+00 0.  1.
          1   -1    0    0  501    0  0.00000000000E+00 -0.00000000000E+00 -0.15282511106E+04  0.15282511106E+04  0.00000000000E+00 0. -1.
         23    2    1    2    0    0  0.16563488009E+03  0.48456066074E+03  0.14103317924E+03  0.53879643265E+03  0.90428373606E+02 0.  0.
         11    1    3    3    0    0  0.13181305317E+03  0.26639704816E+03  0.10429190135E+03  0.31499026801E+03  0.00000000000E+00 0. -1.
        -11    1    3    3    0    0  0.33821826920E+02  0.21816361258E+03  0.36741277890E+02  0.22380616465E+03  0.00000000000E+00 0.  1.
         22    1    1    2    0    0 -0.16563488009E+03 -0.48456066074E+03 -0.12800540094E+04  0.13786849584E+04  0.00000000000E+00 0. -1.
<mgrwt>
<rscale>  0 0.15425195E+04</rscale>
<asrwt>0</asrwt>
<pdfrwt beam="1">  1        1 0.23511556E+00 0.15425195E+04</pdfrwt>
<pdfrwt beam="2">  1       -1 0.59881582E-01 0.15425195E+04</pdfrwt>
<totfact> 0.17044956E+01</totfact>
</mgrwt>
</event>
<event>
 6    1  0.9988873E-007  0.3090548E+04  0.7818608E-02  0.8218337E-01
          1   -1    0    0  501    0  0.00000000000E+00  0.00000000000E+00  0.27230306429E+04  0.27230306429E+04  0.00000000000E+00 0. -1.
         -1   -1    0    0    0  501 -0.00000000000E+00 -0.00000000000E+00 -0.87691673127E+03  0.87691673127E+03  0.00000000000E+00 0.  1.
         23    2    1    2    0    0 -0.77158203182E+03 -0.19220874201E+03  0.24654134567E+04  0.25920709141E+04  0.91022409280E+02 0.  0.
         11    1    3    3    0    0 -0.63916775112E+03 -0.15169669206E+03  0.21360213257E+04  0.22347560056E+04  0.00000000000E+00 0.  1.
        -11    1    3    3    0    0 -0.13241428070E+03 -0.40512049942E+02  0.32939213096E+03  0.35731490853E+03  0.00000000000E+00 0. -1.
         22    1    1    2    0    0  0.77158203182E+03  0.19220874201E+03 -0.61929954503E+03  0.10078764601E+04  0.00000000000E+00 0.  1.
<mgrwt>
<rscale>  0 0.30905476E+04</rscale>
<asrwt>0</asrwt>
<pdfrwt beam="1">  1        1 0.41892779E+00 0.30905476E+04</pdfrwt>
<pdfrwt beam="2">  1       -1 0.13491027E+00 0.30905476E+04</pdfrwt>
<totfact> 0.36813936E-01</totfact>
</mgrwt>
</event>
<event>
 6    1  0.9988873E-007  0.1973580E+04  0.7818608E-02  0.8619073E-01
          2   -1    0    0  501    0  0.00000000000E+00  0.00000000000E+00  0.22030685697E+04  0.22030685697E+04  0.00000000000E+00 0. -1.
         -2   -1    0    0    0  501 -0.00000000000E+00 -0.00000000000E+00 -0.44199921988E+03  0.44199921988E+03  0.00000000000E+00 0.  1.
         23    2    1    2    0    0 -0.94262644319E+02 -0.76796952656E+02  0.21919496258E+04  0.21973613787E+04  0.94713507621E+02 0.  0.
         13    1    3    3    0    0 -0.51539974923E+02 -0.31168371923E+02  0.41866738178E+03  0.42297779255E+03  0.00000000000E+00 0. -1.
        -13    1    3    3    0    0 -0.42722669396E+02 -0.45628580733E+02  0.17732822440E+04  0.17743835862E+04  0.00000000000E+00 0.  1.
         22    1    1    2    0    0  0.94262644319E+02  0.76796952656E+02 -0.43088027601E+03  0.44770641084E+03  0.00000000000E+00 0.  1.
<mgrwt>
<rscale>  0 0.19735801E+04</rscale>
<asrwt>0</asrwt>
<pdfrwt beam="1">  1        2 0.33893362E+00 0.19735801E+04</pdfrwt>
<pdfrwt beam="2">  1       -2 0.67999881E-01 0.19735801E+04</pdfrwt>
<totfact> 0.94829360E+00</totfact>
</mgrwt>
</event>
<event>
 6    1  0.9988873E-007  0.1377521E+04  0.7818608E-02  0.8970252E-01
          1   -1    0    0  501    0  0.00000000000E+00  0.00000000000E+00  0.18066513383E+04  0.18066513383E+04  0.00000000000E+00 0. -1.
         -1   -1    0    0    0  501 -0.00000000000E+00 -0.00000000000E+00 -0.26258039164E+03  0.26258039164E+03  0.00000000000E+00 0.  1.
         23    2    1    2    0    0 -0.51340732255E+03  0.44051525929E+03  0.93229040050E+03  0.11571373219E+04  0.11027519386E+03 0.  0.
         13    1    3    3    0    0 -0.31110870270E+03  0.23326116564E+03  0.45157688720E+03  0.59592036494E+03  0.00000000000E+00 0. -1.
        -13    1    3    3    0    0 -0.20229861985E+03  0.20725409365E+03  0.48071351330E+03  0.56121695698E+03  0.00000000000E+00 0.  1.
         22    1    1    2    0    0  0.51340732255E+03 -0.44051525929E+03  0.61178054617E+03  0.91209440805E+03  0.00000000000E+00 0.  1.
<mgrwt>
<rscale>  0 0.13775213E+04</rscale>
<asrwt>0</asrwt>
<pdfrwt beam="1">  1        1 0.27794635E+00 0.13775213E+04</pdfrwt>
<pdfrwt beam="2">  1       -1 0.40396984E-01 0.13775213E+04</pdfrwt>
<totfact> 0.23565061E+01</totfact>
</mgrwt>
</event>
<event>
 6    1  0.9988873E-007  0.5536092E+03  0.7818608E-02  0.1000662E+00
         -1   -1    0    0    0  501 -0.00000000000E+00  0.00000000000E+00  0.33227266234E+03  0.33227266234E+03  0.00000000000E+00 0.  1.
          1   -1    0    0  501    0  0.00000000000E+00 -0.00000000000E+00 -0.23059614818E+03  0.23059614818E+03  0.00000000000E+00 0. -1.
         23    2    1    2    0    0  0.14499056687E+03  0.20187429224E+03  0.15794802892E+03  0.30803165129E+03  0.90335065204E+02 0.  0.
         13    1    3    3    0    0  0.69551626647E+02  0.16074895753E+03  0.12839664973E+03  0.21717125910E+03  0.00000000000E+00 0. -1.
        -13    1    3    3    0    0  0.75438940221E+02  0.41125334716E+02  0.29551379192E+02  0.90860392192E+02  0.00000000000E+00 0.  1.
         22    1    1    2    0    0 -0.14499056687E+03 -0.20187429224E+03 -0.56271514766E+02  0.25483715923E+03  0.00000000000E+00 0.  1.
<mgrwt>
<rscale>  0 0.55360923E+03</rscale>
<asrwt>0</asrwt>
<pdfrwt beam="1">  1        1 0.35476330E-01 0.55360923E+03</pdfrwt>
<pdfrwt beam="2">  1       -1 0.51118871E-01 0.55360923E+03</pdfrwt>
<totfact> 0.48093299E+02</totfact>
</mgrwt>
</event>
<event>
 6    1  0.9988873E-007  0.2074234E+04  0.7818608E-02  0.8572679E-01
          2   -1    0    0  501    0  0.00000000000E+00  0.00000000000E+00  0.11550700712E+04  0.11550700712E+04  0.00000000000E+00 0. -1.
         -2   -1    0    0    0  501 -0.00000000000E+00 -0.00000000000E+00 -0.93120865361E+03  0.93120865361E+03  0.00000000000E+00 0.  1.
         23    2    1    2    0    0 -0.44044944430E+03  0.23856029194E+03  0.10232720395E+04  0.11428996555E+04  0.90704077850E+02 0.  0.
         11    1    3    3    0    0 -0.25918473363E+03  0.98602722965E+02  0.61882118325E+03  0.67811420865E+03  0.00000000000E+00 0.  1.
        -11    1    3    3    0    0 -0.18126471067E+03  0.13995756897E+03  0.40445085629E+03  0.46478544685E+03  0.00000000000E+00 0. -1.
         22    1    1    2    0    0  0.44044944430E+03 -0.23856029194E+03 -0.79941062197E+03  0.94337906930E+03  0.00000000000E+00 0.  1.
<mgrwt>
<rscale>  0 0.20742336E+04</rscale>
<asrwt>0</asrwt>
<pdfrwt beam="1">  1        2 0.17770309E+00 0.20742336E+04</pdfrwt>
<pdfrwt beam="2">  1       -2 0.14326287E+00 0.20742336E+04</pdfrwt>
<totfact> 0.62966004E+00</totfact>
</mgrwt>
</event>
<event>
 6    1  0.9988873E-007  0.3060797E+04  0.7818608E-02  0.8226580E-01
         -1   -1    0    0    0  501 -0.00000000000E+00  0.00000000000E+00  0.17814473244E+04  0.17814473244E+04  0.00000000000E+00 0.  1.
          1   -1    0    0  501    0  0.00000000000E+00 -0.00000000000E+00 -0.13147285030E+04  0.13147285030E+04  0.00000000000E+00 0. -1.
         23    2    1    2    0    0  0.93569888439E+03  0.35209365883E+03  0.14039637001E+04  0.17257998537E+04  0.88140326324E+02 0.  0.
         11    1    3    3    0    0  0.51379306455E+03  0.15031249889E+03  0.77964297420E+03  0.94573798049E+03  0.00000000000E+00 0. -1.
        -11    1    3    3    0    0  0.42190581983E+03  0.20178115994E+03  0.62432072587E+03  0.78006187323E+03  0.00000000000E+00 0.  1.
         22    1    1    2    0    0 -0.93569888439E+03 -0.35209365883E+03 -0.93724487859E+03  0.13703759737E+04  0.00000000000E+00 0. -1.
<mgrwt>
<rscale>  0 0.30607970E+04</rscale>
<asrwt>0</asrwt>
<pdfrwt beam="1">  1        1 0.20226592E+00 0.30607970E+04</pdfrwt>
<pdfrwt beam="2">  1       -1 0.27406882E+00 0.30607970E+04</pdfrwt>
<totfact> 0.36344116E-01</totfact>
</mgrwt>
</event>
<event>
 6    1  0.9988873E-007  0.4507153E+04  0.7818608E-02  0.7909386E-01
          2   -1    0    0  501    0  0.00000000000E+00  0.00000000000E+00  0.46325799490E+04  0.46325799490E+04  0.00000000000E+00 0. -1.
         -2   -1    0    0    0  501 -0.00000000000E+00 -0.00000000000E+00 -0.10962805408E+04  0.10962805408E+04  0.00000000000E+00 0.  1.
         23    2    1    2    0    0 -0.86751855345E+03 -0.14294611959E+04 -0.14963302460E+03  0.16813865059E+04  0.93395871676E+02 0.  0.
         13    1    3    3    0    0 -0.10682711431E+03 -0.21511289962E+03 -0.47413569625E+02  0.24481347700E+03  0.00000000000E+00 0.  1.
        -13    1    3    3    0    0 -0.76069143914E+03 -0.12143482963E+04 -0.10221945497E+03  0.14365730289E+04  0.00000000000E+00 0. -1.
         22    1    1    2    0    0  0.86751855345E+03  0.14294611959E+04  0.36859324328E+04  0.40474739839E+04  0.00000000000E+00 0. -1.
<mgrwt>
<rscale>  0 0.45071531E+04</rscale>
<asrwt>0</asrwt>
<pdfrwt beam="1">  1        2 0.71270459E+00 0.45071531E+04</pdfrwt>
<pdfrwt beam="2">  1       -2 0.16865855E+00 0.45071531E+04</pdfrwt>
<totfact> 0.14771356E-02</totfact>
</mgrwt>
</event>
<event>
 6    1  0.9988873E-007  0.5813670E+04  0.7818608E-02  0.7713943E-01
         -2   -1    0    0    0  501 -0.00000000000E+00  0.00000000000E+00  0.33183870514E+04  0.33183870514E+04  0.00000000000E+00 0.  1.
          2   -1    0    0  501    0  0.00000000000E+00 -0.00000000000E+00 -0.25463245128E+04  0.25463245128E+04  0.00000000000E+00 0. -1.
         23    2    1    2    0    0 -0.94401132617E+03  0.24903267974E+04 -0.78681405083E+03  0.27787787776E+04  0.98235445927E+02 0.  0.
         13    1    3    3    0    0 -0.23597609573E+02  0.85885648918E+02 -0.42959210772E+02  0.98887237082E+02  0.00000000000E+00 0. -1.
        -13    1    3    3    0    0 -0.92041371660E+03  0.24044411484E+04 -0.74385484006E+03  0.26798915406E+04  0.00000000000E+00 0.  1.
         22    1    1    2    0    0  0.94401132617E+03 -0.24903267974E+04  0.15588765894E+04  0.30859327865E+04  0.00000000000E+00 0.  1.
<mgrwt>
<rscale>  0 0.58136702E+04</rscale>
<asrwt>0</asrwt>
<pdfrwt beam="1">  1        2 0.39174223E+00 0.58136702E+04</pdfrwt>
<pdfrwt beam="2">  1       -2 0.51052108E+00 0.58136702E+04</pdfrwt>
<totfact> 0.32163479E-03</totfact>
</mgrwt>
</event>
<event>
 6    1  0.9988873E-007  0.2075485E+04  0.7818608E-02  0.8572120E-01
          1   -1    0    0  501    0  0.00000000000E+00  0.00000000000E+00  0.23745319810E+04  0.23745319810E+04  0.00000000000E+00 0. -1.
         -1   -1    0    0    0  501 -0.00000000000E+00 -0.00000000000E+00 -0.45352483515E+03  0.45352483515E+03  0.00000000000E+00 0.  1.
         23    2    1    2    0    0  0.67683528998E+02 -0.22984956466E+03  0.23353419802E+04  0.23494283200E+04  0.92624965084E+02 0.  0.
         13    1    3    3    0    0  0.29452785044E+02 -0.13715006633E+03  0.93073198515E+03  0.94124366421E+03  0.00000000000E+00 0.  1.
        -13    1    3    3    0    0  0.38230743953E+02 -0.92699498323E+02  0.14046099950E+04  0.14081846558E+04  0.00000000000E+00 0. -1.
         22    1    1    2    0    0 -0.67683528998E+02  0.22984956466E+03 -0.41433483426E+03  0.47862849617E+03  0.00000000000E+00 0.  1.
<mgrwt>
<rscale>  0 0.20754847E+04</rscale>
<asrwt>0</asrwt>
<pdfrwt beam="1">  1        1 0.36531260E+00 0.20754847E+04</pdfrwt>
<pdfrwt beam="2">  1       -1 0.69773053E-01 0.20754847E+04</pdfrwt>
<totfact> 0.31670110E+00</totfact>
</mgrwt>
</event>
<event>
 6    1  0.9988873E-007  0.2352285E+04  0.7818608E-02  0.8457586E-01
          1   -1    0    0  501    0  0.00000000000E+00  0.00000000000E+00  0.11517557915E+04  0.11517557915E+04  0.00000000000E+00 0. -1.
         -1   -1    0    0    0  501 -0.00000000000E+00 -0.00000000000E+00 -0.12010460243E+04  0.12010460243E+04  0.00000000000E+00 0.  1.
         23    2    1    2    0    0  0.71421931016E+03  0.59332392544E+03  0.69465511173E+03  0.11630131038E+04  0.88945218881E+02 0.  0.
         11    1    3    3    0    0  0.48394422976E+03  0.36749071211E+03  0.49430610221E+03  0.78331983486E+03  0.00000000000E+00 0. -1.
        -11    1    3    3    0    0  0.23027508040E+03  0.22583321334E+03  0.20034900951E+03  0.37969326898E+03  0.00000000000E+00 0.  1.
         22    1    1    2    0    0 -0.71421931016E+03 -0.59332392544E+03 -0.74394534456E+03  0.11897887120E+04  0.00000000000E+00 0.  1.
<mgrwt>
<rscale>  0 0.23522855E+04</rscale>
<asrwt>0</asrwt>
<pdfrwt beam="1">  1        1 0.17719320E+00 0.23522855E+04</pdfrwt>
<pdfrwt beam="2">  1       -1 0.18477631E+00 0.23522855E+04</pdfrwt>
<totfact> 0.20076264E+00</totfact>
</mgrwt>
</event>
<event>
 6    1  0.9988873E-007  0.8822223E+03  0.7818608E-02  0.9448081E-01
          2   -1    0    0  501    0  0.00000000000E+00  0.00000000000E+00  0.26443553617E+04  0.26443553617E+04  0.00000000000E+00 0. -1.
         -2   -1    0    0    0  501 -0.00000000000E+00 -0.00000000000E+00 -0.73582790252E+02  0.73582790252E+02  0.00000000000E+00 0.  1.
         23    2    1    2    0    0 -0.33992486459E+03  0.17680773162E+03  0.19434024325E+04  0.19828169519E+04  0.89107589874E+02 0.  0.
         13    1    3    3    0    0 -0.18177775856E+03  0.99902824140E+02  0.82511019698E+03  0.85078232523E+03  0.00000000000E+00 0.  1.
        -13    1    3    3    0    0 -0.15814710604E+03  0.76904907479E+02  0.11182922355E+04  0.11320346266E+04  0.00000000000E+00 0. -1.
         22    1    1    2    0    0  0.33992486459E+03 -0.17680773162E+03  0.62737013899E+03  0.73512120009E+03  0.00000000000E+00 0.  1.
<mgrwt>
<rscale>  0 0.88222230E+03</rscale>
<asrwt>0</asrwt>
<pdfrwt beam="1">  1        2 0.40682383E+00 0.88222230E+03</pdfrwt>
<pdfrwt beam="2">  1       -2 0.11320431E-01 0.88222230E+03</pdfrwt>
<totfact> 0.16516474E+02</totfact>
</mgrwt>
</event>
<event>
 6    1  0.9988873E-007  0.2128710E+04  0.7818608E-02  0.8548701E-01
          1   -1    0    0  501    0  0.00000000000E+00  0.00000000000E+00  0.27893353274E+04  0.27893353274E+04  0.00000000000E+00 0. -1.
         -1   -1    0    0    0  501 -0.00000000000E+00 -0.00000000000E+00 -0.40613688747E+03  0.40613688747E+03  0.00000000000E+00 0.  1.
         23    2    1    2    0    0  0.41263584584E+03  0.77126364574E+03  0.20988527011E+04  0.22757067819E+04  0.92426963549E+02 0.  0.
         13    1    3    3    0    0  0.28026566127E+03  0.44924555268E+03  0.11918680690E+04  0.13041931994E+04  0.00000000000E+00 0. -1.
        -13    1    3    3    0    0  0.13237018457E+03  0.32201809306E+03  0.90698463213E+03  0.97151358248E+03  0.00000000000E+00 0.  1.
         22    1    1    2    0    0 -0.41263584584E+03 -0.77126364574E+03  0.28434573880E+03  0.91976543297E+03  0.00000000000E+00 0. -1.
<mgrwt>
<rscale>  0 0.21287104E+04</rscale>
<asrwt>0</asrwt>
<pdfrwt beam="1">  1        1 0.42912850E+00 0.21287104E+04</pdfrwt>
<pdfrwt beam="2">  1       -1 0.62482600E-01 0.21287104E+04</pdfrwt>
<totfact> 0.20228016E+00</totfact>
</mgrwt>
</event>
<event>
 6    1  0.9988873E-007  0.2474536E+04  0.7818608E-02  0.8412114E-01
          1   -1    0    0  501    0  0.00000000000E+00  0.00000000000E+00  0.59967085965E+03  0.59967085965E+03  0.00000000000E+00 0. -1.
         -1   -1    0    0    0  501 -0.00000000000E+00 -0.00000000000E+00 -0.25527872638E+04  0.25527872638E+04  0.00000000000E+00 0.  1.
         23    2    1    2    0    0 -0.56203956193E+03  0.10272815994E+04 -0.14805036469E+04  0.18896997254E+04  0.88758378287E+02 0.  0.
         13    1    3    3    0    0 -0.24741765375E+03  0.36374609753E+03 -0.56504337646E+03  0.71610106559E+03  0.00000000000E+00 0.  1.
        -13    1    3    3    0    0 -0.31462190818E+03  0.66353550188E+03 -0.91546027049E+03  0.11735986598E+04  0.00000000000E+00 0. -1.
         22    1    1    2    0    0  0.56203956193E+03 -0.10272815994E+04 -0.47261275718E+03  0.12627583981E+04  0.00000000000E+00 0. -1.
<mgrwt>
<rscale>  0 0.24745360E+04</rscale>
<asrwt>0</asrwt>
<pdfrwt beam="1">  1        1 0.92257056E-01 0.24745360E+04</pdfrwt>
<pdfrwt beam="2">  1       -1 0.39273650E+00 0.24745360E+04</pdfrwt>
<totfact> 0.24476154E-01</totfact>
</mgrwt>
</event>
<event>
 6    1  0.9988873E-007  0.9909995E+03  0.7818608E-02  0.9318472E-01
         -1   -1    0    0    0  501 -0.00000000000E+00  0.00000000000E+00  0.15148212841E+03  0.15148212841E+03  0.00000000000E+00 0.  1.
          1   -1    0    0  501    0  0.00000000000E+00 -0.00000000000E+00 -0.16207854308E+04  0.16207854308E+04  0.00000000000E+00 0. -1.
         23    2    1    2    0    0  0.10405852145E+02 -0.49022887689E+03 -0.68656148303E+03  0.84862401905E+03  0.91451748116E+02 0.  0.
         11    1    3    3    0    0 -0.13145717770E+02 -0.12579632522E+03 -0.11861255694E+03  0.17339683964E+03  0.00000000000E+00 0. -1.
        -11    1    3    3    0    0  0.23551569915E+02 -0.36443255167E+03 -0.56794892609E+03  0.67522717941E+03  0.00000000000E+00 0.  1.
         22    1    1    2    0    0 -0.10405852145E+02  0.49022887689E+03 -0.78274181940E+03  0.92364354019E+03  0.00000000000E+00 0. -1.
<mgrwt>
<rscale>  0 0.99099955E+03</rscale>
<asrwt>0</asrwt>
<pdfrwt beam="1">  1        1 0.24935162E+00 0.99099955E+03</pdfrwt>
<pdfrwt beam="2">  1       -1 0.23304941E-01 0.99099955E+03</pdfrwt>
<totfact> 0.85634686E+01</totfact>
</mgrwt>
</event>
<event>
 6    1  0.9988873E-007  0.4154577E+04  0.7818608E-02  0.7974069E-01
         -2   -1    0    0    0  501 -0.00000000000E+00  0.00000000000E+00  0.12566924599E+04  0.12566924599E+04  0.00000000000E+00 0.  1.
          2   -1    0    0  501    0  0.00000000000E+00 -0.00000000000E+00 -0.34337174407E+04  0.34337174407E+04  0.00000000000E+00 0. -1.
         23    2    1    2    0    0  0.14505897438E+02  0.55480042849E+03 -0.33478043229E+04  0.33947486006E+04  0.92251505629E+02 0.  0.
         13    1    3    3    0    0  0.36032464226E+02  0.26183341891E+03 -0.13719030576E+04  0.13971303008E+04  0.00000000000E+00 0.  1.
        -13    1    3    3    0    0 -0.21526566788E+02  0.29296700958E+03 -0.19759012652E+04  0.19976182998E+04  0.00000000000E+00 0. -1.
         22    1    1    2    0    0 -0.14505897438E+02 -0.55480042849E+03  0.11707793420E+04  0.12956613000E+04  0.00000000000E+00 0.  1.
<mgrwt>
<rscale>  0 0.41545767E+04</rscale>
<asrwt>0</asrwt>
<pdfrwt beam="1">  1        2 0.52826423E+00 0.41545767E+04</pdfrwt>
<pdfrwt beam="2">  1       -2 0.19333730E+00 0.41545767E+04</pdfrwt>
<totfact> 0.10351742E-01</totfact>
</mgrwt>
</event>
<event>
 6    1  0.9988873E-007  0.4827741E+04  0.7818608E-02  0.7855643E-01
         -2   -1    0    0    0  501 -0.00000000000E+00  0.00000000000E+00  0.31923691525E+04  0.31923691525E+04  0.00000000000E+00 0.  1.
          2   -1    0    0  501    0  0.00000000000E+00 -0.00000000000E+00 -0.18252184652E+04  0.18252184652E+04  0.00000000000E+00 0. -1.
         23    2    1    2    0    0  0.55802450154E+03  0.12025012159E+04  0.27793540171E+04  0.30806522127E+04  0.90602342129E+02 0.  0.
         13    1    3    3    0    0  0.22350154743E+03  0.49394590899E+03  0.12403731299E+04  0.13536842335E+04  0.00000000000E+00 0.  1.
        -13    1    3    3    0    0  0.33452295410E+03  0.70855530691E+03  0.15389808872E+04  0.17269679791E+04  0.00000000000E+00 0. -1.
         22    1    1    2    0    0 -0.55802450154E+03 -0.12025012159E+04 -0.14122033299E+04  0.19369354051E+04  0.00000000000E+00 0. -1.
<mgrwt>
<rscale>  0 0.48277411E+04</rscale>
<asrwt>0</asrwt>
<pdfrwt beam="1">  1        2 0.28080284E+00 0.48277411E+04</pdfrwt>
<pdfrwt beam="2">  1       -2 0.49113371E+00 0.48277411E+04</pdfrwt>
<totfact> 0.11618994E-02</totfact>
</mgrwt>
</event>
<event>
 6    1  0.9988873E-007  0.1208712E+04  0.7818608E-02  0.9105265E-01
          1   -1    0    0  501    0  0.00000000000E+00  0.00000000000E+00  0.26391495748E+03  0.26391495748E+03  0.00000000000E+00 0. -1.
         -1   -1    0    0    0  501 -0.00000000000E+00 -0.00000000000E+00 -0.13839548757E+04  0.13839548757E+04  0.00000000000E+00 0.  1.
         23    2    1    2    0    0 -0.32087605886E+03 -0.24276125128E+03  0.44531799777E+02  0.41574899631E+03  0.94708375900E+02 0.  0.
         11    1    3    3    0    0 -0.16574931143E+02 -0.50897420331E+02  0.87151942955E+01  0.54233111199E+02  0.00000000000E+00 0. -1.
        -11    1    3    3    0    0 -0.30430112772E+03 -0.19186383095E+03  0.35816605481E+02  0.36151588511E+03  0.00000000000E+00 0.  1.
         22    1    1    2    0    0  0.32087605886E+03  0.24276125128E+03 -0.11645717180E+04  0.12321208368E+04  0.00000000000E+00 0.  1.
<mgrwt>
<rscale>  0 0.12087124E+04</rscale>
<asrwt>0</asrwt>
<pdfrwt beam="1">  1        1 0.40602302E-01 0.12087124E+04</pdfrwt>
<pdfrwt beam="2">  1       -1 0.21291613E+00 0.12087124E+04</pdfrwt>
<totfact> 0.12598706E+01</totfact>
</mgrwt>
</event>
<event>
 6    1  0.9988873E-007  0.2945982E+04  0.7818608E-02  0.8259326E-01
          2   -1    0    0  501    0  0.00000000000E+00  0.00000000000E+00  0.99586575494E+03  0.99586575494E+03  0.00000000000E+00 0. -1.
         -2   -1    0    0    0  501 -0.00000000000E+00 -0.00000000000E+00 -0.21787104874E+04  0.21787104874E+04  0.00000000000E+00 0.  1.
         23    2    1    2    0    0  0.68566197925E+03 -0.10787169231E+04 -0.13777908236E+04  0.18816081343E+04  0.91537246987E+02 0.  0.
         11    1    3    3    0    0  0.45827777119E+03 -0.77650087074E+03 -0.10129358270E+04  0.13561014370E+04  0.00000000000E+00 0. -1.
        -11    1    3    3    0    0  0.22738420806E+03 -0.30221605240E+03 -0.36485499652E+03  0.52550669729E+03  0.00000000000E+00 0.  1.
         22    1    1    2    0    0 -0.68566197925E+03  0.10787169231E+04  0.19494609106E+03  0.12929681081E+04  0.00000000000E+00 0. -1.
<mgrwt>
<rscale>  0 0.29459825E+04</rscale>
<asrwt>0</asrwt>
<pdfrwt beam="1">  1        2 0.15321012E+00 0.29459825E+04</pdfrwt>
<pdfrwt beam="2">  1       -2 0.33518622E+00 0.29459825E+04</pdfrwt>
<totfact> 0.41985977E-01</totfact>
</mgrwt>
</event>
<event>
 6    1  0.9988873E-007  0.1534463E+04  0.7818608E-02  0.8861853E-01
         -2   -1    0    0    0  501 -0.00000000000E+00  0.00000000000E+00  0.24152147442E+03  0.24152147442E+03  0.00000000000E+00 0.  1.
          2   -1    0    0  501    0  0.00000000000E+00 -0.00000000000E+00 -0.24372342153E+04  0.24372342153E+04  0.00000000000E+00 0. -1.
         23    2    1    2    0    0 -0.21070173387E+03 -0.56034989086E+03 -0.27182130719E+03  0.66387468345E+03  0.91954072450E+02 0.  0.
         13    1    3    3    0    0 -0.14020762474E+03 -0.24540138629E+03 -0.13739979147E+03  0.31425900324E+03  0.00000000000E+00 0. -1.
        -13    1    3    3    0    0 -0.70494109136E+02 -0.31494850457E+03 -0.13442151572E+03  0.34961568021E+03  0.00000000000E+00 0.  1.
         22    1    1    2    0    0  0.21070173387E+03  0.56034989086E+03 -0.19238914337E+04  0.20148810063E+04  0.00000000000E+00 0. -1.
<mgrwt>
<rscale>  0 0.15344633E+04</rscale>
<asrwt>0</asrwt>
<pdfrwt beam="1">  1        2 0.37495909E+00 0.15344633E+04</pdfrwt>
<pdfrwt beam="2">  1       -2 0.37157152E-01 0.15344633E+04</pdfrwt>
<totfact> 0.24953453E+01</totfact>
</mgrwt>
</event>
<event>
 6    1  0.9988873E-007  0.2921216E+04  0.7818608E-02  0.8266593E-01
         -2   -1    0    0    0  501 -0.00000000000E+00  0.00000000000E+00  0.15793155333E+04  0.15793155333E+04  0.00000000000E+00 0.  1.
          2   -1    0    0  501    0  0.00000000000E+00 -0.00000000000E+00 -0.13508233024E+04  0.13508233024E+04  0.00000000000E+00 0. -1.
         23    2    1    2    0    0 -0.11154311649E+04 -0.73573584322E+02  0.10550531389E+04  0.15398860922E+04  0.92262099950E+02 0.  0.
         11    1    3    3    0    0 -0.17775279473E+03  0.11315547308E+02  0.13521603615E+03  0.22362350967E+03  0.00000000000E+00 0. -1.
        -11    1    3    3    0    0 -0.93767837018E+03 -0.84889131629E+02  0.91983710276E+03  0.13162625825E+04  0.00000000000E+00 0.  1.
         22    1    1    2    0    0  0.11154311649E+04  0.73573584322E+02 -0.82656090802E+03  0.13902527434E+04  0.00000000000E+00 0. -1.
<mgrwt>
<rscale>  0 0.29212163E+04</rscale>
<asrwt>0</asrwt>
<pdfrwt beam="1">  1        2 0.20781897E+00 0.29212163E+04</pdfrwt>
<pdfrwt beam="2">  1       -2 0.24297162E+00 0.29212163E+04</pdfrwt>
<totfact> 0.94486729E-01</totfact>
</mgrwt>
</event>
<event>
 6    1  0.9988873E-007  0.7888928E+03  0.7818608E-02  0.9576235E-01
         -2   -1    0    0    0  501 -0.00000000000E+00  0.00000000000E+00  0.13330785367E+03  0.13330785367E+03  0.00000000000E+00 0.  1.
          2   -1    0    0  501    0  0.00000000000E+00 -0.00000000000E+00 -0.11671326959E+04  0.11671326959E+04  0.00000000000E+00 0. -1.
         23    2    1    2    0    0 -0.11552573755E+03  0.21088715640E+03 -0.15831985997E+02  0.25443431435E+03  0.81649125930E+02 0.  0.
         11    1    3    3    0    0 -0.72863222275E+02  0.60818611048E+02  0.12940755221E+02  0.95788390506E+02  0.00000000000E+00 0.  1.
        -11    1    3    3    0    0 -0.42662515277E+02  0.15006854536E+03 -0.28772741218E+02  0.15864592384E+03  0.00000000000E+00 0. -1.
         22    1    1    2    0    0  0.11552573755E+03 -0.21088715640E+03 -0.10179928563E+04  0.10460062352E+04  0.00000000000E+00 0. -1.
<mgrwt>
<rscale>  0 0.78889278E+03</rscale>
<asrwt>0</asrwt>
<pdfrwt beam="1">  1        2 0.17955887E+00 0.78889278E+03</pdfrwt>
<pdfrwt beam="2">  1       -2 0.20508901E-01 0.78889278E+03</pdfrwt>
<totfact> 0.40719609E+02</totfact>
</mgrwt>
</event>
<event>
 6    1  0.9988873E-007  0.2184077E+04  0.7818608E-02  0.8525085E-01
          1   -1    0    0  501    0  0.00000000000E+00  0.00000000000E+00  0.18445319506E+04  0.18445319506E+04  0.00000000000E+00 0. -1.
         -1   -1    0    0    0  501 -0.00000000000E+00 -0.00000000000E+00 -0.64653149302E+03  0.64653149302E+03  0.00000000000E+00 0.  1.
         23    2    1    2    0    0  0.27600743756E+03 -0.82448493701E+03  0.13489916674E+04  0.16085931255E+04  0.10880168995E+03 0.  0.
         11    1    3    3    0    0  0.14771511578E+03 -0.30130544562E+03  0.46577221980E+03  0.57406313915E+03  0.00000000000E+00 0.  1.
        -11    1    3    3    0    0  0.12829232178E+03 -0.52317949139E+03  0.88321944758E+03  0.10345299863E+04  0.00000000000E+00 0. -1.
         22    1    1    2    0    0 -0.27600743756E+03  0.82448493701E+03 -0.15099120980E+03  0.88247031814E+03  0.00000000000E+00 0.  1.
<mgrwt>
<rscale>  0 0.21840769E+04</rscale>
<asrwt>0</asrwt>
<pdfrwt beam="1">  1        1 0.28377414E+00 0.21840769E+04</pdfrwt>
<pdfrwt beam="2">  1       -1 0.99466384E-01 0.21840769E+04</pdfrwt>
<totfact> 0.33467566E+00</totfact>
</mgrwt>
</event>
<event>
 6    1  0.9988873E-007  0.1035966E+04  0.7818608E-02  0.9269954E-01
          1   -1    0    0  501    0  0.00000000000E+00  0.00000000000E+00  0.42931916946E+03  0.42931916946E+03  0.00000000000E+00 0. -1.
         -1   -1    0    0    0  501 -0.00000000000E+00 -0.00000000000E+00 -0.62495829621E+03  0.62495829621E+03  0.00000000000E+00 0.  1.
         23    2    1    2    0    0  0.43004796578E+03  0.67424858290E+02  0.17915361021E+03  0.47985866369E+03  0.93171651701E+02 0.  0.
         11    1    3    3    0    0  0.13326923060E+03  0.40204695875E-01  0.96386639573E+02  0.16447210623E+03  0.00000000000E+00 0.  1.
        -11    1    3    3    0    0  0.29677873519E+03  0.67384653595E+02  0.82766970636E+02  0.31538655746E+03  0.00000000000E+00 0. -1.
         22    1    1    2    0    0 -0.43004796578E+03 -0.67424858290E+02 -0.37479273696E+03  0.57441880198E+03  0.00000000000E+00 0.  1.
<mgrwt>
<rscale>  0 0.10359664E+04</rscale>
<asrwt>0</asrwt>
<pdfrwt beam="1">  1        1 0.66049103E-01 0.10359664E+04</pdfrwt>
<pdfrwt beam="2">  1       -1 0.96147430E-01 0.10359664E+04</pdfrwt>
<totfact> 0.56930926E+01</totfact>
</mgrwt>
</event>
<event>
 6    1  0.9988873E-007  0.2337646E+04  0.7818608E-02  0.8463224E-01
         -2   -1    0    0    0  501 -0.00000000000E+00  0.00000000000E+00  0.96666789517E+03  0.96666789517E+03  0.00000000000E+00 0.  1.
          2   -1    0    0  501    0  0.00000000000E+00 -0.00000000000E+00 -0.14132537084E+04  0.14132537084E+04  0.00000000000E+00 0. -1.
         23    2    1    2    0    0 -0.10319986857E+04 -0.54156408521E+03 -0.28549612887E+03  0.12033746083E+04  0.91046485307E+02 0.  0.
         11    1    3    3    0    0 -0.70201836290E+03 -0.32789081311E+03 -0.16487041459E+03  0.79216439000E+03  0.00000000000E+00 0. -1.
        -11    1    3    3    0    0 -0.32998032281E+03 -0.21367327210E+03 -0.12062571427E+03  0.41121021825E+03  0.00000000000E+00 0.  1.
         22    1    1    2    0    0  0.10319986857E+04  0.54156408521E+03 -0.16108968432E+03  0.11765469953E+04  0.00000000000E+00 0.  1.
<mgrwt>
<rscale>  0 0.23376458E+04</rscale>
<asrwt>0</asrwt>
<pdfrwt beam="1">  1        2 0.21742365E+00 0.23376458E+04</pdfrwt>
<pdfrwt beam="2">  1       -2 0.14871814E+00 0.23376458E+04</pdfrwt>
<totfact> 0.39400825E+00</totfact>
</mgrwt>
</event>
<event>
 6    1  0.9988873E-007  0.1099703E+04  0.7818608E-02  0.9205482E-01
          2   -1    0    0  501    0  0.00000000000E+00  0.00000000000E+00  0.28840756026E+04  0.28840756026E+04  0.00000000000E+00 0. -1.
         -2   -1    0    0    0  501 -0.00000000000E+00 -0.00000000000E+00 -0.10482961457E+03  0.10482961457E+03  0.00000000000E+00 0.  1.
         23    2    1    2    0    0  0.54872981936E+02 -0.13296761664E+03  0.28309457369E+04  0.28360513809E+04  0.90786775927E+02 0.  0.
         11    1    3    3    0    0  0.79435588311E+02 -0.10925802080E+03  0.23669151029E+04  0.23707666338E+04  0.00000000000E+00 0.  1.
        -11    1    3    3    0    0 -0.24562606375E+02 -0.23709595838E+02  0.46403063402E+03  0.46528474709E+03  0.00000000000E+00 0. -1.
         22    1    1    2    0    0 -0.54872981936E+02  0.13296761664E+03 -0.51699748879E+02  0.15285383624E+03  0.00000000000E+00 0.  1.
<mgrwt>
<rscale>  0 0.10997027E+04</rscale>
<asrwt>0</asrwt>
<pdfrwt beam="1">  1        2 0.44370388E+00 0.10997027E+04</pdfrwt>
<pdfrwt beam="2">  1       -2 0.16127635E-01 0.10997027E+04</pdfrwt>
<totfact> 0.64362882E+01</totfact>
</mgrwt>
</event>
<event>
 6    1  0.9988873E-007  0.7153904E+03  0.7818608E-02  0.9691269E-01
          1   -1    0    0  501    0  0.00000000000E+00  0.00000000000E+00  0.11781049458E+04  0.11781049458E+04  0.00000000000E+00 0. -1.
         -1   -1    0    0    0  501 -0.00000000000E+00 -0.00000000000E+00 -0.10860309690E+03  0.10860309690E+03  0.00000000000E+00 0.  1.
         23    2    1    2    0    0  0.32350036117E+03  0.45495164354E+02  0.30908740841E+03  0.45908952251E+03  0.92227273560E+02 0.  0.
         11    1    3    3    0    0  0.24429500563E+02  0.21265787342E+02  0.63750808227E+02  0.71506641361E+02  0.00000000000E+00 0. -1.
        -11    1    3    3    0    0  0.29907086061E+03  0.24229377012E+02  0.24533660018E+03  0.38758288115E+03  0.00000000000E+00 0.  1.
         22    1    1    2    0    0 -0.32350036117E+03 -0.45495164354E+02  0.76041444047E+03  0.82761852017E+03  0.00000000000E+00 0.  1.
<mgrwt>
<rscale>  0 0.71539037E+03</rscale>
<asrwt>0</asrwt>
<pdfrwt beam="1">  1        1 0.18124691E+00 0.71539037E+03</pdfrwt>
<pdfrwt beam="2">  1       -1 0.16708170E-01 0.71539037E+03</pdfrwt>
<totfact> 0.31013508E+02</totfact>
</mgrwt>
</event>
<event>
 6    1  0.9988873E-007  0.1021570E+04  0.7818608E-02  0.9285198E-01
         -3   -1    0    0    0  501 -0.00000000000E+00  0.00000000000E+00  0.19351553506E+04  0.19351553506E+04  0.00000000000E+00 0.  1.
          3   -1    0    0  501    0  0.00000000000E+00 -0.00000000000E+00 -0.13482199561E+03  0.13482199561E+03  0.00000000000E+00 0. -1.
         23    2    1    2    0    0 -0.69726649869E+02  0.48511881686E+03  0.11707764270E+04  0.12721402715E+04  0.86147293755E+02 0.  0.
         11    1    3    3    0    0 -0.76802547505E+02  0.25616331447E+03  0.58781801765E+03  0.64579276619E+03  0.00000000000E+00 0. -1.
        -11    1    3    3    0    0  0.70758976356E+01  0.22895550238E+03  0.58295840937E+03  0.62634750535E+03  0.00000000000E+00 0.  1.
         22    1    1    2    0    0  0.69726649869E+02 -0.48511881686E+03  0.62955692799E+03  0.79783707469E+03  0.00000000000E+00 0. -1.
<mgrwt>
<rscale>  0 0.10215704E+04</rscale>
<asrwt>0</asrwt>
<pdfrwt beam="1">  1        3 0.20741847E-01 0.10215704E+04</pdfrwt>
<pdfrwt beam="2">  1       -3 0.29771619E+00 0.10215704E+04</pdfrwt>
<totfact> 0.22307960E+00</totfact>
</mgrwt>
</event>
<event>
 6    1  0.9988873E-007  0.3164043E+04  0.7818608E-02  0.8198378E-01
          2   -1    0    0  501    0  0.00000000000E+00  0.00000000000E+00  0.13765986607E+04  0.13765986607E+04  0.00000000000E+00 0. -1.
         -2   -1    0    0    0  501 -0.00000000000E+00 -0.00000000000E+00 -0.18180982182E+04  0.18180982182E+04  0.00000000000E+00 0.  1.
         23    2    1    2    0    0  0.27454139333E+03  0.15559492588E+04 -0.26617230415E+03  0.16050142948E+04  0.94191923833E+02 0.  0.
         13    1    3    3    0    0  0.38863758283E+02  0.20078184604E+03 -0.28511102930E+01  0.20452840937E+03  0.00000000000E+00 0. -1.
        -13    1    3    3    0    0  0.23567763505E+03  0.13551674127E+04 -0.26332119385E+03  0.14004858854E+04  0.00000000000E+00 0.  1.
         22    1    1    2    0    0 -0.27454139333E+03 -0.15559492588E+04 -0.17532725331E+03  0.15896825841E+04  0.00000000000E+00 0. -1.
<mgrwt>
<rscale>  0 0.31640427E+04</rscale>
<asrwt>0</asrwt>
<pdfrwt beam="1">  1        2 0.21178441E+00 0.31640427E+04</pdfrwt>
<pdfrwt beam="2">  1       -2 0.27970742E+00 0.31640427E+04</pdfrwt>
<totfact> 0.53300339E-01</totfact>
</mgrwt>
</event>
<event>
 6    1  0.9988873E-007  0.1449703E+04  0.7818608E-02  0.8918607E-01
         -2   -1    0    0    0  501 -0.00000000000E+00  0.00000000000E+00  0.95305877286E+03  0.95305877286E+03  0.00000000000E+00 0.  1.
          2   -1    0    0  501    0  0.00000000000E+00 -0.00000000000E+00 -0.55128759326E+03  0.55128759326E+03  0.00000000000E+00 0. -1.
         23    2    1    2    0    0  0.95709214685E+02 -0.63873731337E+03 -0.13342055359E+03  0.66555211212E+03  0.89515141463E+02 0.  0.
         13    1    3    3    0    0  0.85409396056E+02 -0.36264887129E+03 -0.43993920298E+02  0.37515921128E+03  0.00000000000E+00 0.  1.
        -13    1    3    3    0    0  0.10299818629E+02 -0.27608844208E+03 -0.89426633296E+02  0.29039290084E+03  0.00000000000E+00 0. -1.
         22    1    1    2    0    0 -0.95709214685E+02  0.63873731337E+03  0.53519173320E+03  0.83879425401E+03  0.00000000000E+00 0. -1.
<mgrwt>
<rscale>  0 0.14497027E+04</rscale>
<asrwt>0</asrwt>
<pdfrwt beam="1">  1        2 0.84813476E-01 0.14497027E+04</pdfrwt>
<pdfrwt beam="2">  1       -2 0.14662443E+00 0.14497027E+04</pdfrwt>
<totfact> 0.16928861E+01</totfact>
</mgrwt>
</event>
<event>
 6    1  0.9988873E-007  0.9524832E+03  0.7818608E-02  0.9362253E-01
         -2   -1    0    0    0  501 -0.00000000000E+00  0.00000000000E+00  0.12433152409E+04  0.12433152409E+04  0.00000000000E+00 0.  1.
          2   -1    0    0  501    0  0.00000000000E+00 -0.00000000000E+00 -0.18242041178E+03  0.18242041178E+03  0.00000000000E+00 0. -1.
         23    2    1    2    0    0 -0.94231856537E+02 -0.82469839473E+02  0.12161861150E+04  0.12262455509E+04  0.94279200460E+02 0.  0.
         11    1    3    3    0    0 -0.46122006925E+02 -0.78005572530E+02  0.48024815537E+03  0.48872323416E+03  0.00000000000E+00 0. -1.
        -11    1    3    3    0    0 -0.48109849612E+02 -0.44642669425E+01  0.73593795961E+03  0.73752231675E+03  0.00000000000E+00 0.  1.
         22    1    1    2    0    0  0.94231856537E+02  0.82469839473E+02 -0.15529128590E+03  0.19949010173E+03  0.00000000000E+00 0. -1.
<mgrwt>
<rscale>  0 0.95248323E+03</rscale>
<asrwt>0</asrwt>
<pdfrwt beam="1">  1        2 0.28064680E-01 0.95248323E+03</pdfrwt>
<pdfrwt beam="2">  1       -2 0.19127926E+00 0.95248323E+03</pdfrwt>
<totfact> 0.29247527E+01</totfact>
</mgrwt>
</event>
<event>
 6    1  0.9988873E-007  0.2338428E+04  0.7818608E-02  0.8462922E-01
         -1   -1    0    0    0  501 -0.00000000000E+00  0.00000000000E+00  0.82564301854E+03  0.82564301854E+03  0.00000000000E+00 0.  1.
          1   -1    0    0  501    0  0.00000000000E+00 -0.00000000000E+00 -0.16557535997E+04  0.16557535997E+04  0.00000000000E+00 0. -1.
         23    2    1    2    0    0  0.34780415583E+03  0.97915662840E+03  0.14948120016E+03  0.10533505784E+04  0.86529637286E+02 0.  0.
         11    1    3    3    0    0  0.24083134733E+03  0.62065243390E+03  0.58376588177E+02  0.66829410263E+03  0.00000000000E+00 0.  1.
        -11    1    3    3    0    0  0.10697280851E+03  0.35850419450E+03  0.91104611984E+02  0.38505647580E+03  0.00000000000E+00 0. -1.
         22    1    1    2    0    0 -0.34780415583E+03 -0.97915662840E+03 -0.97959178128E+03  0.14280460398E+04  0.00000000000E+00 0. -1.
<mgrwt>
<rscale>  0 0.23384280E+04</rscale>
<asrwt>0</asrwt>
<pdfrwt beam="1">  1        1 0.25473132E+00 0.23384280E+04</pdfrwt>
<pdfrwt beam="2">  1       -1 0.12702200E+00 0.23384280E+04</pdfrwt>
<totfact> 0.24747880E+00</totfact>
</mgrwt>
</event>
<event>
 6    1  0.9988873E-007  0.2006883E+04  0.7818608E-02  0.8603409E-01
          2   -1    0    0  501    0  0.00000000000E+00  0.00000000000E+00  0.26940067552E+04  0.26940067552E+04  0.00000000000E+00 0. -1.
         -2   -1    0    0    0  501 -0.00000000000E+00 -0.00000000000E+00 -0.37375365855E+03  0.37375365855E+03  0.00000000000E+00 0.  1.
         23    2    1    2    0    0  0.89347242334E+03  0.44703410365E+03  0.12661358243E+04  0.16154189646E+04  0.91356687844E+02 0.  0.
         13    1    3    3    0    0  0.42105906284E+03  0.22716026333E+03  0.67579891031E+03  0.82800766108E+03  0.00000000000E+00 0. -1.
        -13    1    3    3    0    0  0.47241336051E+03  0.21987384032E+03  0.59033691399E+03  0.78741130349E+03  0.00000000000E+00 0.  1.
         22    1    1    2    0    0 -0.89347242334E+03 -0.44703410365E+03  0.10541172723E+04  0.14523414491E+04  0.00000000000E+00 0.  1.
<mgrwt>
<rscale>  0 0.20068830E+04</rscale>
<asrwt>0</asrwt>
<pdfrwt beam="1">  1        2 0.41446256E+00 0.20068830E+04</pdfrwt>
<pdfrwt beam="2">  1       -2 0.57500565E-01 0.20068830E+04</pdfrwt>
<totfact> 0.70508439E+00</totfact>
</mgrwt>
</event>
<event>
 6    1  0.9988873E-007  0.1895066E+04  0.7818608E-02  0.8657316E-01
          2   -1    0    0  501    0  0.00000000000E+00  0.00000000000E+00  0.19420394148E+04  0.19420394148E+04  0.00000000000E+00 0. -1.
         -2   -1    0    0    0  501 -0.00000000000E+00 -0.00000000000E+00 -0.46230700156E+03  0.46230700156E+03  0.00000000000E+00 0.  1.
         23    2    1    2    0    0 -0.43594444953E+03 -0.31921627352E+03 -0.24301974234E+03  0.59884881682E+03  0.87262350904E+02 0.  0.
         11    1    3    3    0    0 -0.32887021299E+03 -0.28408511418E+03 -0.18964391260E+03  0.47415691778E+03  0.00000000000E+00 0.  1.
        -11    1    3    3    0    0 -0.10707423654E+03 -0.35131159348E+02 -0.53375829733E+02  0.12469189904E+03  0.00000000000E+00 0. -1.
         22    1    1    2    0    0  0.43594444953E+03  0.31921627352E+03  0.17227521556E+04  0.18054975995E+04  0.00000000000E+00 0. -1.
<mgrwt>
<rscale>  0 0.18950656E+04</rscale>
<asrwt>0</asrwt>
<pdfrwt beam="1">  1        2 0.29877529E+00 0.18950656E+04</pdfrwt>
<pdfrwt beam="2">  1       -2 0.71124155E-01 0.18950656E+04</pdfrwt>
<totfact> 0.12102243E+01</totfact>
</mgrwt>
</event>
<event>
 6    1  0.9988873E-007  0.4413484E+04  0.7818608E-02  0.7925961E-01
         -2   -1    0    0    0  501 -0.00000000000E+00  0.00000000000E+00  0.20066484645E+04  0.20066484645E+04  0.00000000000E+00 0.  1.
          2   -1    0    0  501    0  0.00000000000E+00 -0.00000000000E+00 -0.24267875087E+04  0.24267875087E+04  0.00000000000E+00 0. -1.
         23    2    1    2    0    0  0.14329333336E+04  0.96959447997E+03 -0.15845912137E+04  0.23479239859E+04  0.91686064616E+02 0.  0.
         11    1    3    3    0    0  0.74550576567E+03  0.48897559672E+03 -0.87601854764E+03  0.12499137877E+04  0.00000000000E+00 0.  1.
        -11    1    3    3    0    0  0.68742756797E+03  0.48061888325E+03 -0.70857266610E+03  0.10980101982E+04  0.00000000000E+00 0. -1.
         22    1    1    2    0    0 -0.14329333336E+04 -0.96959447997E+03  0.11644521695E+04  0.20855119873E+04  0.00000000000E+00 0.  1.
<mgrwt>
<rscale>  0 0.44134836E+04</rscale>
<asrwt>0</asrwt>
<pdfrwt beam="1">  1        2 0.37335192E+00 0.44134836E+04</pdfrwt>
<pdfrwt beam="2">  1       -2 0.30871515E+00 0.44134836E+04</pdfrwt>
<totfact> 0.82277381E-02</totfact>
</mgrwt>
</event>
<event>
 6    1  0.1180717E-006  0.2231646E+04  0.7818608E-02  0.8505370E-01
         -2   -1    0    0    0  501 -0.00000000000E+00  0.00000000000E+00  0.94060534285E+03  0.94060534285E+03  0.00000000000E+00 0.  1.
          2   -1    0    0  501    0  0.00000000000E+00 -0.00000000000E+00 -0.13236809473E+04  0.13236809473E+04  0.00000000000E+00 0. -1.
         23    2    1    2    0    0  0.88573438181E+02  0.70966924286E+03  0.67468837341E+03  0.98743848361E+03  0.91403881133E+02 0.  0.
         11    1    3    3    0    0  0.95072208350E+02  0.49145396362E+03  0.50379441255E+03  0.71019330697E+03  0.00000000000E+00 0. -1.
        -11    1    3    3    0    0 -0.64987701688E+01  0.21821527924E+03  0.17089396086E+03  0.27724517663E+03  0.00000000000E+00 0.  1.
         22    1    1    2    0    0 -0.88573438181E+02 -0.70966924286E+03 -0.10577639778E+04  0.12768478065E+04  0.00000000000E+00 0. -1.
<mgrwt>
<rscale>  0 0.22316464E+04</rscale>
<asrwt>0</asrwt>
<pdfrwt beam="1">  1        2 0.20364322E+00 0.22316464E+04</pdfrwt>
<pdfrwt beam="2">  1       -2 0.14470851E+00 0.22316464E+04</pdfrwt>
<totfact> 0.48102245E+00</totfact>
</mgrwt>
</event>
<event>
 6    1  0.9988873E-007  0.1123305E+04  0.7818608E-02  0.9182770E-01
         -2   -1    0    0    0  501 -0.00000000000E+00  0.00000000000E+00  0.21485880327E+03  0.21485880327E+03  0.00000000000E+00 0.  1.
          2   -1    0    0  501    0  0.00000000000E+00 -0.00000000000E+00 -0.14681898005E+04  0.14681898005E+04  0.00000000000E+00 0. -1.
         23    2    1    2    0    0  0.94073127130E+02  0.54021050863E+03 -0.47614959873E+03  0.73189768354E+03  0.90986987645E+02 0.  0.
         13    1    3    3    0    0  0.23552736421E+02  0.36688893631E+03 -0.33676099126E+03  0.49856813798E+03  0.00000000000E+00 0. -1.
        -13    1    3    3    0    0  0.70520390709E+02  0.17332157233E+03 -0.13938860747E+03  0.23332954556E+03  0.00000000000E+00 0.  1.
         22    1    1    2    0    0 -0.94073127130E+02 -0.54021050863E+03 -0.77718139851E+03  0.95115092024E+03  0.00000000000E+00 0.  1.
<mgrwt>
<rscale>  0 0.11233050E+04</rscale>
<asrwt>0</asrwt>
<pdfrwt beam="1">  1        2 0.22587535E+00 0.11233050E+04</pdfrwt>
<pdfrwt beam="2">  1       -2 0.33055201E-01 0.11233050E+04</pdfrwt>
<totfact> 0.11198777E+02</totfact>
</mgrwt>
</event>
<event>
 6    1  0.9988873E-007  0.1808524E+04  0.7818608E-02  0.8701780E-01
         -1   -1    0    0    0  501 -0.00000000000E+00  0.00000000000E+00  0.61681840672E+03  0.61681840672E+03  0.00000000000E+00 0.  1.
          1   -1    0    0  501    0  0.00000000000E+00 -0.00000000000E+00 -0.13256570602E+04  0.13256570602E+04  0.00000000000E+00 0. -1.
         23    2    1    2    0    0  0.62451428642E+03  0.64794725091E+03 -0.42070335647E+03  0.99755447381E+03  0.90938881470E+02 0.  0.
         11    1    3    3    0    0  0.49131417255E+03  0.45363215010E+03 -0.30168569502E+03  0.73361161545E+03  0.00000000000E+00 0. -1.
        -11    1    3    3    0    0  0.13320011388E+03  0.19431510081E+03 -0.11901766144E+03  0.26394285835E+03  0.00000000000E+00 0.  1.
         22    1    1    2    0    0 -0.62451428642E+03 -0.64794725091E+03 -0.28813529706E+03  0.94492099316E+03  0.00000000000E+00 0. -1.
<mgrwt>
<rscale>  0 0.18085239E+04</rscale>
<asrwt>0</asrwt>
<pdfrwt beam="1">  1        1 0.20394724E+00 0.18085239E+04</pdfrwt>
<pdfrwt beam="2">  1       -1 0.94895140E-01 0.18085239E+04</pdfrwt>
<totfact> 0.87778005E+00</totfact>
</mgrwt>
</event>
<event>
 6    1  0.9988873E-007  0.1603002E+04  0.7818608E-02  0.8818706E-01
         -1   -1    0    0    0  501 -0.00000000000E+00  0.00000000000E+00  0.47650110022E+03  0.47650110022E+03  0.00000000000E+00 0.  1.
          1   -1    0    0  501    0  0.00000000000E+00 -0.00000000000E+00 -0.13481683229E+04  0.13481683229E+04  0.00000000000E+00 0. -1.
         23    2    1    2    0    0 -0.70987791977E+03 -0.36109601059E+03 -0.36520387167E+03  0.88083569003E+03  0.90446974017E+02 0.  0.
         13    1    3    3    0    0 -0.53069142453E+03 -0.30038830142E+03 -0.30805532510E+03  0.68320172938E+03  0.00000000000E+00 0. -1.
        -13    1    3    3    0    0 -0.17918649523E+03 -0.60707709162E+02 -0.57148546569E+02  0.19763396065E+03  0.00000000000E+00 0.  1.
         22    1    1    2    0    0  0.70987791977E+03  0.36109601059E+03 -0.50646335104E+03  0.94383373312E+03  0.00000000000E+00 0.  1.
<mgrwt>
<rscale>  0 0.16030018E+04</rscale>
<asrwt>0</asrwt>
<pdfrwt beam="1">  1        1 0.20741051E+00 0.16030018E+04</pdfrwt>
<pdfrwt beam="2">  1       -1 0.73307862E-01 0.16030018E+04</pdfrwt>
<totfact> 0.15035580E+01</totfact>
</mgrwt>
</event>
<event>
 6    1  0.9988873E-007  0.3957066E+04  0.7818608E-02  0.8013264E-01
          2   -1    0    0  501    0  0.00000000000E+00  0.00000000000E+00  0.23654075653E+04  0.23654075653E+04  0.00000000000E+00 0. -1.
         -2   -1    0    0    0  501 -0.00000000000E+00 -0.00000000000E+00 -0.16549336032E+04  0.16549336032E+04  0.00000000000E+00 0.  1.
         23    2    1    2    0    0 -0.66683044438E+03 -0.12071991801E+04 -0.10847363419E+04  0.17565450783E+04  0.82492296082E+02 0.  0.
         13    1    3    3    0    0 -0.19856793686E+03 -0.34879116768E+03 -0.36366350293E+03  0.54160469677E+03  0.00000000000E+00 0.  1.
        -13    1    3    3    0    0 -0.46826250752E+03 -0.85840801241E+03 -0.72107283895E+03  0.12149403816E+04  0.00000000000E+00 0. -1.
         22    1    1    2    0    0  0.66683044438E+03  0.12071991801E+04  0.17952103040E+04  0.22637960901E+04  0.00000000000E+00 0. -1.
<mgrwt>
<rscale>  0 0.39570658E+04</rscale>
<asrwt>0</asrwt>
<pdfrwt beam="1">  1        2 0.36390886E+00 0.39570658E+04</pdfrwt>
<pdfrwt beam="2">  1       -2 0.25460517E+00 0.39570658E+04</pdfrwt>
<totfact> 0.19832439E-01</totfact>
</mgrwt>
</event>
<event>
 6    1  0.9988873E-007  0.3033955E+04  0.7818608E-02  0.8234101E-01
          2   -1    0    0  501    0  0.00000000000E+00  0.00000000000E+00  0.13434793362E+04  0.13434793362E+04  0.00000000000E+00 0. -1.
         -2   -1    0    0    0  501 -0.00000000000E+00 -0.00000000000E+00 -0.17128817353E+04  0.17128817353E+04  0.00000000000E+00 0.  1.
         23    2    1    2    0    0 -0.11500348352E+04  0.33372972223E+03  0.75112331999E+03  0.14163813347E+04  0.89410255331E+02 0.  0.
         11    1    3    3    0    0 -0.65253434220E+03  0.23466986495E+03  0.42490636008E+03  0.81327512448E+03  0.00000000000E+00 0. -1.
        -11    1    3    3    0    0 -0.49750049303E+03  0.99059857279E+02  0.32621695991E+03  0.60310621024E+03  0.00000000000E+00 0.  1.
         22    1    1    2    0    0  0.11500348352E+04 -0.33372972223E+03 -0.11205257191E+04  0.16399797367E+04  0.00000000000E+00 0.  1.
<mgrwt>
<rscale>  0 0.30339553E+04</rscale>
<asrwt>0</asrwt>
<pdfrwt beam="1">  1        2 0.20668913E+00 0.30339553E+04</pdfrwt>
<pdfrwt beam="2">  1       -2 0.26352027E+00 0.30339553E+04</pdfrwt>
<totfact> 0.70688848E-01</totfact>
</mgrwt>
</event>
<event>
 6    1  0.9988873E-007  0.5104269E+04  0.7818608E-02  0.7812621E-01
          1   -1    0    0  501    0  0.00000000000E+00  0.00000000000E+00  0.37019765839E+04  0.37019765839E+04  0.00000000000E+00 0. -1.
         -1   -1    0    0    0  501 -0.00000000000E+00 -0.00000000000E+00 -0.17594360499E+04  0.17594360499E+04  0.00000000000E+00 0.  1.
         23    2    1    2    0    0 -0.20276197851E+04 -0.91443707536E+02 -0.68267950173E+03  0.21430720575E+04  0.84276906228E+02 0.  0.
         13    1    3    3    0    0 -0.68394919585E+03 -0.30896846645E+02 -0.27251054934E+03  0.73688745215E+03  0.00000000000E+00 0.  1.
        -13    1    3    3    0    0 -0.13436705893E+04 -0.60546860891E+02 -0.41016895239E+03  0.14061846053E+04  0.00000000000E+00 0. -1.
         22    1    1    2    0    0  0.20276197851E+04  0.91443707536E+02  0.26252200357E+04  0.33183405763E+04  0.00000000000E+00 0. -1.
<mgrwt>
<rscale>  0 0.51042692E+04</rscale>
<asrwt>0</asrwt>
<pdfrwt beam="1">  1        1 0.56953486E+00 0.51042692E+04</pdfrwt>
<pdfrwt beam="2">  1       -1 0.27068247E+00 0.51042692E+04</pdfrwt>
<totfact> 0.62829526E-03</totfact>
</mgrwt>
</event>
<event>
 6    1  0.9988873E-007  0.1888418E+04  0.7818608E-02  0.8660643E-01
         -2   -1    0    0    0  501 -0.00000000000E+00  0.00000000000E+00  0.62191178297E+03  0.62191178297E+03  0.00000000000E+00 0.  1.
          2   -1    0    0  501    0  0.00000000000E+00 -0.00000000000E+00 -0.14335326699E+04  0.14335326699E+04  0.00000000000E+00 0. -1.
         23    2    1    2    0    0 -0.29303825139E+03  0.82110158801E+03 -0.79529213023E+03  0.11834663207E+04  0.89575248877E+02 0.  0.
         11    1    3    3    0    0 -0.18306720197E+03  0.58874895751E+03 -0.60331983835E+03  0.86263188137E+03  0.00000000000E+00 0. -1.
        -11    1    3    3    0    0 -0.10997104942E+03  0.23235263050E+03 -0.19197229188E+03  0.32083443933E+03  0.00000000000E+00 0.  1.
         22    1    1    2    0    0  0.29303825139E+03 -0.82110158801E+03 -0.16328756646E+02  0.87197813212E+03  0.00000000000E+00 0.  1.
<mgrwt>
<rscale>  0 0.18884182E+04</rscale>
<asrwt>0</asrwt>
<pdfrwt beam="1">  1        2 0.22054349E+00 0.18884182E+04</pdfrwt>
<pdfrwt beam="2">  1       -2 0.95678736E-01 0.18884182E+04</pdfrwt>
<totfact> 0.11898367E+01</totfact>
</mgrwt>
</event>
<event>
 6    1  0.9988873E-007  0.7358756E+03  0.7818608E-02  0.9657774E-01
          2   -1    0    0  501    0  0.00000000000E+00  0.00000000000E+00  0.23246447823E+04  0.23246447823E+04  0.00000000000E+00 0. -1.
         -2   -1    0    0    0  501 -0.00000000000E+00 -0.00000000000E+00 -0.58236094929E+02  0.58236094929E+02  0.00000000000E+00 0.  1.
         23    2    1    2    0    0 -0.23679697818E+03  0.22727162764E+03  0.16363625883E+04  0.16724702294E+04  0.10839255620E+03 0.  0.
         13    1    3    3    0    0 -0.17244092184E+03  0.20040626207E+03  0.10865691095E+04  0.11182714211E+04  0.00000000000E+00 0.  1.
        -13    1    3    3    0    0 -0.64356056342E+02  0.26865365561E+02  0.54979347874E+03  0.55419880829E+03  0.00000000000E+00 0. -1.
         22    1    1    2    0    0  0.23679697818E+03 -0.22727162764E+03  0.63004609916E+03  0.71041064792E+03  0.00000000000E+00 0.  1.
<mgrwt>
<rscale>  0 0.73587563E+03</rscale>
<asrwt>0</asrwt>
<pdfrwt beam="1">  1        2 0.35763759E+00 0.73587563E+03</pdfrwt>
<pdfrwt beam="2">  1       -2 0.89594010E-02 0.73587563E+03</pdfrwt>
<totfact> 0.37221372E+02</totfact>
</mgrwt>
</event>
<event>
 6    1  0.9988873E-007  0.1422058E+04  0.7818608E-02  0.8938005E-01
         -2   -1    0    0    0  501 -0.00000000000E+00  0.00000000000E+00  0.62159188396E+03  0.62159188396E+03  0.00000000000E+00 0.  1.
          2   -1    0    0  501    0  0.00000000000E+00 -0.00000000000E+00 -0.81333449086E+03  0.81333449086E+03  0.00000000000E+00 0. -1.
         23    2    1    2    0    0 -0.18716617998E+03 -0.15898927460E+03 -0.76639064839E+03  0.81000306757E+03  0.91878045092E+02 0.  0.
         13    1    3    3    0    0 -0.65028368222E+02 -0.10826150652E+03 -0.30719403765E+03  0.33214066182E+03  0.00000000000E+00 0.  1.
        -13    1    3    3    0    0 -0.12213781175E+03 -0.50727768088E+02 -0.45919661074E+03  0.47786240575E+03  0.00000000000E+00 0. -1.
         22    1    1    2    0    0  0.18716617998E+03  0.15898927460E+03  0.57464804149E+03  0.62492330726E+03  0.00000000000E+00 0.  1.
<mgrwt>
<rscale>  0 0.14220578E+04</rscale>
<asrwt>0</asrwt>
<pdfrwt beam="1">  1        2 0.12512838E+00 0.14220578E+04</pdfrwt>
<pdfrwt beam="2">  1       -2 0.95629521E-01 0.14220578E+04</pdfrwt>
<totfact> 0.30055022E+01</totfact>
</mgrwt>
</event>
<event>
 6    1  0.9988873E-007  0.2605401E+04  0.7818608E-02  0.8366369E-01
         -2   -1    0    0    0  501 -0.00000000000E+00  0.00000000000E+00  0.61653733920E+03  0.61653733920E+03  0.00000000000E+00 0.  1.
          2   -1    0    0  501    0  0.00000000000E+00 -0.00000000000E+00 -0.27525146815E+04  0.27525146815E+04  0.00000000000E+00 0. -1.
         23    2    1    2    0    0 -0.63912451075E+03 -0.35094868928E+03  0.32437194612E+03  0.80293360103E+03  0.88544257193E+02 0.  0.
         11    1    3    3    0    0 -0.33011967939E+03 -0.13083083596E+03  0.15492687767E+03  0.38742489308E+03  0.00000000000E+00 0. -1.
        -11    1    3    3    0    0 -0.30900483136E+03 -0.22011785332E+03  0.16944506845E+03  0.41550870794E+03  0.00000000000E+00 0.  1.
         22    1    1    2    0    0  0.63912451075E+03  0.35094868928E+03 -0.24603492884E+04  0.25661184197E+04  0.00000000000E+00 0. -1.
<mgrwt>
<rscale>  0 0.26054006E+04</rscale>
<asrwt>0</asrwt>
<pdfrwt beam="1">  1        2 0.42346379E+00 0.26054006E+04</pdfrwt>
<pdfrwt beam="2">  1       -2 0.94851900E-01 0.26054006E+04</pdfrwt>
<totfact> 0.20424753E+00</totfact>
</mgrwt>
</event>
<event>
 6    1  0.1062483E-006  0.2973992E+04  0.7818608E-02  0.8251197E-01
          1   -1    0    0  501    0  0.00000000000E+00  0.00000000000E+00  0.21535978692E+04  0.21535978692E+04  0.00000000000E+00 0. -1.
         -1   -1    0    0    0  501 -0.00000000000E+00 -0.00000000000E+00 -0.10267269101E+04  0.10267269101E+04  0.00000000000E+00 0.  1.
         23    2    1    2    0    0 -0.55200283831E+02 -0.10432187826E+04 -0.56546515386E+03  0.11915175943E+04  0.92794599209E+02 0.  0.
         11    1    3    3    0    0 -0.46306715434E+02 -0.63018527172E+03 -0.39090153779E+03  0.74302207291E+03  0.00000000000E+00 0. -1.
        -11    1    3    3    0    0 -0.88935683971E+01 -0.41303351090E+03 -0.17456361607E+03  0.44849552143E+03  0.00000000000E+00 0.  1.
         22    1    1    2    0    0  0.55200283831E+02  0.10432187826E+04  0.16923361130E+04  0.19888071850E+04  0.00000000000E+00 0. -1.
<mgrwt>
<rscale>  0 0.29739919E+04</rscale>
<asrwt>0</asrwt>
<pdfrwt beam="1">  1        1 0.33132275E+00 0.29739919E+04</pdfrwt>
<pdfrwt beam="2">  1       -1 0.15795799E+00 0.29739919E+04</pdfrwt>
<totfact> 0.60526397E-01</totfact>
</mgrwt>
</event>
<event>
 6    1  0.9988873E-007  0.1718782E+04  0.7818608E-02  0.8750724E-01
          2   -1    0    0  501    0  0.00000000000E+00  0.00000000000E+00  0.24576685416E+04  0.24576685416E+04  0.00000000000E+00 0. -1.
         -2   -1    0    0    0  501 -0.00000000000E+00 -0.00000000000E+00 -0.30050946849E+03  0.30050946849E+03  0.00000000000E+00 0.  1.
         23    2    1    2    0    0  0.29577499264E+03 -0.79246257034E+03  0.13029229469E+04  0.15560136574E+04  0.89947343876E+02 0.  0.
         11    1    3    3    0    0  0.12967722268E+03 -0.22934716662E+03  0.39516728171E+03  0.47494577107E+03  0.00000000000E+00 0. -1.
        -11    1    3    3    0    0  0.16609776996E+03 -0.56311540372E+03  0.90775566520E+03  0.10810678863E+04  0.00000000000E+00 0.  1.
         22    1    1    2    0    0 -0.29577499264E+03  0.79246257034E+03  0.85423612617E+03  0.12021643527E+04  0.00000000000E+00 0.  1.
<mgrwt>
<rscale>  0 0.17187817E+04</rscale>
<asrwt>0</asrwt>
<pdfrwt beam="1">  1        2 0.37810284E+00 0.17187817E+04</pdfrwt>
<pdfrwt beam="2">  1       -2 0.46232228E-01 0.17187817E+04</pdfrwt>
<totfact> 0.15544585E+01</totfact>
</mgrwt>
</event>
<event>
 6    1  0.9988873E-007  0.1019099E+04  0.7818608E-02  0.9287841E-01
          1   -1    0    0  501    0  0.00000000000E+00  0.00000000000E+00  0.85368998282E+03  0.85368998282E+03  0.00000000000E+00 0. -1.
         -1   -1    0    0    0  501 -0.00000000000E+00 -0.00000000000E+00 -0.30413958973E+03  0.30413958973E+03  0.00000000000E+00 0.  1.
         23    2    1    2    0    0 -0.44938102286E+03 -0.10550690019E+03  0.41965220062E+02  0.47174086286E+03  0.87768743323E+02 0.  0.
         13    1    3    3    0    0 -0.52018410538E+02 -0.39933110635E+02  0.19330799253E+02  0.68368473433E+02  0.00000000000E+00 0.  1.
        -13    1    3    3    0    0 -0.39736261232E+03 -0.65573789557E+02  0.22634420809E+02  0.40337238942E+03  0.00000000000E+00 0. -1.
         22    1    1    2    0    0  0.44938102286E+03  0.10550690019E+03  0.50758517303E+03  0.68608870969E+03  0.00000000000E+00 0. -1.
<mgrwt>
<rscale>  0 0.10190994E+04</rscale>
<asrwt>0</asrwt>
<pdfrwt beam="1">  1        1 0.13133692E+00 0.10190994E+04</pdfrwt>
<pdfrwt beam="2">  1       -1 0.46790706E-01 0.10190994E+04</pdfrwt>
<totfact> 0.90593637E+01</totfact>
</mgrwt>
</event>
<event>
 6    1  0.9988873E-007  0.2516360E+04  0.7818608E-02  0.8397180E-01
         -2   -1    0    0    0  501 -0.00000000000E+00  0.00000000000E+00  0.64550840019E+03  0.64550840019E+03  0.00000000000E+00 0.  1.
          2   -1    0    0  501    0  0.00000000000E+00 -0.00000000000E+00 -0.24523569349E+04  0.24523569349E+04  0.00000000000E+00 0. -1.
         23    2    1    2    0    0 -0.42875752730E+03 -0.65521975643E+03  0.30513598386E+03  0.84539456878E+03  0.91858923574E+02 0.  0.
         11    1    3    3    0    0 -0.12807918572E+03 -0.23409963176E+03  0.14521783040E+03  0.30380114166E+03  0.00000000000E+00 0. -1.
        -11    1    3    3    0    0 -0.30067834158E+03 -0.42112012467E+03  0.15991815346E+03  0.54159342712E+03  0.00000000000E+00 0.  1.
         22    1    1    2    0    0  0.42875752730E+03  0.65521975643E+03 -0.21119845186E+04  0.22524707664E+04  0.00000000000E+00 0. -1.
<mgrwt>
<rscale>  0 0.25163601E+04</rscale>
<asrwt>0</asrwt>
<pdfrwt beam="1">  1        2 0.37728569E+00 0.25163601E+04</pdfrwt>
<pdfrwt beam="2">  1       -2 0.99308983E-01 0.25163601E+04</pdfrwt>
<totfact> 0.27735597E+00</totfact>
</mgrwt>
</event>
<event>
 6    1  0.9988873E-007  0.6758651E+03  0.7818608E-02  0.9759420E-01
         -2   -1    0    0    0  501 -0.00000000000E+00  0.00000000000E+00  0.10623325404E+04  0.10623325404E+04  0.00000000000E+00 0.  1.
          2   -1    0    0  501    0  0.00000000000E+00 -0.00000000000E+00 -0.10749779373E+03  0.10749779373E+03  0.00000000000E+00 0. -1.
         23    2    1    2    0    0  0.96348331991E+02  0.26375839377E+03  0.17987931068E+03  0.34556859224E+03  0.90606810816E+02 0.  0.
         11    1    3    3    0    0  0.10582866861E+02  0.11830545277E+03  0.11302472913E+03  0.16395964937E+03  0.00000000000E+00 0.  1.
        -11    1    3    3    0    0  0.85765465130E+02  0.14545294100E+03  0.66854581551E+02  0.18160894287E+03  0.00000000000E+00 0. -1.
         22    1    1    2    0    0 -0.96348331991E+02 -0.26375839377E+03  0.77495543596E+03  0.82426174186E+03  0.00000000000E+00 0.  1.
<mgrwt>
<rscale>  0 0.67586509E+03</rscale>
<asrwt>0</asrwt>
<pdfrwt beam="1">  1        2 0.16538123E-01 0.67586509E+03</pdfrwt>
<pdfrwt beam="2">  1       -2 0.16343577E+00 0.67586509E+03</pdfrwt>
<totfact> 0.86014284E+01</totfact>
</mgrwt>
</event>
<event>
 6    1  0.9988873E-007  0.1738261E+04  0.7818608E-02  0.8739839E-01
          1   -1    0    0  501    0  0.00000000000E+00  0.00000000000E+00  0.61057960732E+03  0.61057960732E+03  0.00000000000E+00 0. -1.
         -1   -1    0    0    0  501 -0.00000000000E+00 -0.00000000000E+00 -0.12371650353E+04  0.12371650353E+04  0.00000000000E+00 0.  1.
         23    2    1    2    0    0 -0.80679943846E+03 -0.22801588174E+03 -0.54808717862E+03  0.10056766220E+04  0.89829485169E+02 0.  0.
         13    1    3    3    0    0 -0.10524637250E+03 -0.94794182685E+00 -0.56562907672E+02  0.11948665215E+03  0.00000000000E+00 0.  1.
        -13    1    3    3    0    0 -0.70155306596E+03 -0.22706793991E+03 -0.49152427095E+03  0.88618996983E+03  0.00000000000E+00 0. -1.
         22    1    1    2    0    0  0.80679943846E+03  0.22801588174E+03 -0.78498249361E+02  0.84206802064E+03  0.00000000000E+00 0. -1.
<mgrwt>
<rscale>  0 0.17382609E+04</rscale>
<asrwt>0</asrwt>
<pdfrwt beam="1">  1        1 0.93935324E-01 0.17382609E+04</pdfrwt>
<pdfrwt beam="2">  1       -1 0.19033308E+00 0.17382609E+04</pdfrwt>
<totfact> 0.55655250E+00</totfact>
</mgrwt>
</event>
<event>
 6    1  0.9988873E-007  0.6553758E+03  0.7818608E-02  0.9796744E-01
         -2   -1    0    0    0  501 -0.00000000000E+00  0.00000000000E+00  0.73507757558E+02  0.73507757558E+02  0.00000000000E+00 0.  1.
          2   -1    0    0  501    0  0.00000000000E+00 -0.00000000000E+00 -0.14607894399E+04  0.14607894399E+04  0.00000000000E+00 0. -1.
         23    2    1    2    0    0  0.19813249558E+03  0.92644055137E+02 -0.12586660501E+04  0.12805623208E+04  0.88092140245E+02 0.  0.
         11    1    3    3    0    0  0.41141309665E+02  0.19433555291E+02 -0.51420073722E+03  0.51620990749E+03  0.00000000000E+00 0.  1.
        -11    1    3    3    0    0  0.15699118591E+03  0.73210499846E+02 -0.74446531284E+03  0.76435241333E+03  0.00000000000E+00 0. -1.
         22    1    1    2    0    0 -0.19813249558E+03 -0.92644055137E+02 -0.12861563229E+03  0.25373487664E+03  0.00000000000E+00 0.  1.
<mgrwt>
<rscale>  0 0.65537579E+03</rscale>
<asrwt>0</asrwt>
<pdfrwt beam="1">  1        2 0.22473683E+00 0.65537579E+03</pdfrwt>
<pdfrwt beam="2">  1       -2 0.11308886E-01 0.65537579E+03</pdfrwt>
<totfact> 0.76182118E+02</totfact>
</mgrwt>
</event>
<event>
 6    1  0.9988873E-007  0.1779425E+04  0.7818608E-02  0.8717318E-01
          4   -1    0    0  501    0  0.00000000000E+00  0.00000000000E+00  0.24897801597E+03  0.24897801597E+03  0.00000000000E+00 0. -1.
         -4   -1    0    0    0  501 -0.00000000000E+00 -0.00000000000E+00 -0.31793490354E+04  0.31793490354E+04  0.00000000000E+00 0.  1.
         23    2    1    2    0    0  0.34177491693E+03 -0.45053509694E+03 -0.27866086710E+04  0.28448379081E+04  0.90126970227E+02 0.  0.
         11    1    3    3    0    0  0.11645037085E+03 -0.22362830360E+03 -0.11576654430E+04  0.11848036061E+04  0.00000000000E+00 0.  1.
        -11    1    3    3    0    0  0.22532454608E+03 -0.22690679334E+03 -0.16289432280E+04  0.16600343021E+04  0.00000000000E+00 0. -1.
         22    1    1    2    0    0 -0.34177491693E+03  0.45053509694E+03 -0.14376234838E+03  0.58348914319E+03  0.00000000000E+00 0. -1.
<mgrwt>
<rscale>  0 0.17794246E+04</rscale>
<asrwt>0</asrwt>
<pdfrwt beam="1">  1        4 0.38304312E-01 0.17794246E+04</pdfrwt>
<pdfrwt beam="2">  1       -4 0.48913060E+00 0.17794246E+04</pdfrwt>
<totfact> 0.18840048E-02</totfact>
</mgrwt>
</event>
<event>
 6    1  0.9988873E-007  0.1492972E+04  0.7818608E-02  0.8889140E-01
          1   -1    0    0  501    0  0.00000000000E+00  0.00000000000E+00  0.35665693057E+04  0.35665693057E+04  0.00000000000E+00 0. -1.
         -1   -1    0    0    0  501 -0.00000000000E+00 -0.00000000000E+00 -0.15624009492E+03  0.15624009492E+03  0.00000000000E+00 0.  1.
         23    2    1    2    0    0  0.74419106998E+02 -0.14211059382E+03  0.35223371087E+04  0.35271581969E+04  0.90843899765E+02 0.  0.
         13    1    3    3    0    0  0.38386726196E+02 -0.45573979572E+02  0.58777847905E+03  0.59079105342E+03  0.00000000000E+00 0. -1.
        -13    1    3    3    0    0  0.36032380802E+02 -0.96536614247E+02  0.29345586296E+04  0.29363671434E+04  0.00000000000E+00 0.  1.
         22    1    1    2    0    0 -0.74419106998E+02  0.14211059382E+03 -0.11200789786E+03  0.19565120379E+03  0.00000000000E+00 0.  1.
<mgrwt>
<rscale>  0 0.14929717E+04</rscale>
<asrwt>0</asrwt>
<pdfrwt beam="1">  1        1 0.54870291E+00 0.14929717E+04</pdfrwt>
<pdfrwt beam="2">  1       -1 0.24036940E-01 0.14929717E+04</pdfrwt>
<totfact> 0.32500839E+00</totfact>
</mgrwt>
</event>
<event>
 6    1  0.9988873E-007  0.9583911E+03  0.7818608E-02  0.9355396E-01
         -2   -1    0    0    0  501 -0.00000000000E+00  0.00000000000E+00  0.64708838588E+02  0.64708838588E+02  0.00000000000E+00 0.  1.
          2   -1    0    0  501    0  0.00000000000E+00 -0.00000000000E+00 -0.35486402629E+04  0.35486402629E+04  0.00000000000E+00 0. -1.
         23    2    1    2    0    0 -0.39520685270E+03 -0.19259961487E+03 -0.10856429959E+04  0.11750975858E+04  0.94607364734E+02 0.  0.
         11    1    3    3    0    0 -0.19166516880E+03 -0.53981839658E+02 -0.40565727655E+03  0.45189313113E+03  0.00000000000E+00 0. -1.
        -11    1    3    3    0    0 -0.20354168390E+03 -0.13861777521E+03 -0.67998571934E+03  0.72320445463E+03  0.00000000000E+00 0.  1.
         22    1    1    2    0    0  0.39520685270E+03  0.19259961487E+03 -0.23982884285E+04  0.24382515158E+04  0.00000000000E+00 0. -1.
<mgrwt>
<rscale>  0 0.95839113E+03</rscale>
<asrwt>0</asrwt>
<pdfrwt beam="1">  1        2 0.54594463E+00 0.95839113E+03</pdfrwt>
<pdfrwt beam="2">  1       -2 0.99552064E-02 0.95839113E+03</pdfrwt>
<totfact> 0.54454457E+01</totfact>
</mgrwt>
</event>
<event>
 6    1  0.9988873E-007  0.1810734E+04  0.7818608E-02  0.8700612E-01
         -2   -1    0    0    0  501 -0.00000000000E+00  0.00000000000E+00  0.15668432478E+04  0.15668432478E+04  0.00000000000E+00 0.  1.
          2   -1    0    0  501    0  0.00000000000E+00 -0.00000000000E+00 -0.52314713994E+03  0.52314713994E+03  0.00000000000E+00 0. -1.
         23    2    1    2    0    0 -0.39695139757E+02 -0.34547577345E+03 -0.43877146183E+03  0.56728250067E+03  0.91432082390E+02 0.  0.
         11    1    3    3    0    0 -0.31039602261E+02 -0.13800347125E+03 -0.24693748168E+03  0.28458133256E+03  0.00000000000E+00 0. -1.
        -11    1    3    3    0    0 -0.86555374963E+01 -0.20747230220E+03 -0.19183398015E+03  0.28270116811E+03  0.00000000000E+00 0.  1.
         22    1    1    2    0    0  0.39695139757E+02  0.34547577345E+03  0.14824675697E+04  0.15227078871E+04  0.00000000000E+00 0.  1.
<mgrwt>
<rscale>  0 0.18107342E+04</rscale>
<asrwt>0</asrwt>
<pdfrwt beam="1">  1        2 0.80484176E-01 0.18107342E+04</pdfrwt>
<pdfrwt beam="2">  1       -2 0.24105281E+00 0.18107342E+04</pdfrwt>
<totfact> 0.40188216E+00</totfact>
</mgrwt>
</event>
<event>
 6    1  0.9988873E-007  0.6473329E+03  0.7818608E-02  0.9811797E-01
          2   -1    0    0  501    0  0.00000000000E+00  0.00000000000E+00  0.57107232997E+04  0.57107232997E+04  0.00000000000E+00 0. -1.
         -2   -1    0    0    0  501 -0.00000000000E+00 -0.00000000000E+00 -0.18344433158E+02  0.18344433158E+02  0.00000000000E+00 0.  1.
         23    2    1    2    0    0  0.28576508001E+03 -0.39890023130E+02  0.40913237591E+04  0.41022209817E+04  0.77678732562E+02 0.  0.
         13    1    3    3    0    0  0.53023705673E+02 -0.36933884836E+02  0.73439095719E+03  0.73722839284E+03  0.00000000000E+00 0. -1.
        -13    1    3    3    0    0  0.23274137434E+03 -0.29561382943E+01  0.33569328020E+04  0.33649925888E+04  0.00000000000E+00 0.  1.
         22    1    1    2    0    0 -0.28576508001E+03  0.39890023130E+02  0.16010551074E+04  0.16268467512E+04  0.00000000000E+00 0.  1.
<mgrwt>
<rscale>  0 0.64733293E+03</rscale>
<asrwt>0</asrwt>
<pdfrwt beam="1">  1        2 0.87857140E+00 0.64733293E+03</pdfrwt>
<pdfrwt beam="2">  1       -2 0.28222250E-02 0.64733293E+03</pdfrwt>
<totfact> 0.14345991E+00</totfact>
</mgrwt>
</event>
<event>
 6    1  0.9988873E-007  0.1543346E+04  0.7818608E-02  0.8856129E-01
         -1   -1    0    0    0  501 -0.00000000000E+00  0.00000000000E+00  0.67202133729E+03  0.67202133729E+03  0.00000000000E+00 0.  1.
          1   -1    0    0  501    0  0.00000000000E+00 -0.00000000000E+00 -0.88610157006E+03  0.88610157006E+03  0.00000000000E+00 0. -1.
         23    2    1    2    0    0  0.28171178597E+03  0.17561854947E+02 -0.83001280864E+03  0.88059586942E+03  0.82812279532E+02 0.  0.
         13    1    3    3    0    0  0.30646789904E+02 -0.11147796873E+02 -0.18492215443E+03  0.18777567016E+03  0.00000000000E+00 0. -1.
        -13    1    3    3    0    0  0.25106499606E+03  0.28709651821E+02 -0.64509065421E+03  0.69282019926E+03  0.00000000000E+00 0.  1.
         22    1    1    2    0    0 -0.28171178597E+03 -0.17561854947E+02  0.61593257587E+03  0.67752703793E+03  0.00000000000E+00 0.  1.
<mgrwt>
<rscale>  0 0.15433459E+04</rscale>
<asrwt>0</asrwt>
<pdfrwt beam="1">  1        1 0.13632332E+00 0.15433459E+04</pdfrwt>
<pdfrwt beam="2">  1       -1 0.10338790E+00 0.15433459E+04</pdfrwt>
<totfact> 0.15899963E+01</totfact>
</mgrwt>
</event>
<event>
 6    1  0.9988873E-007  0.2621690E+04  0.7818608E-02  0.8360871E-01
          2   -1    0    0  501    0  0.00000000000E+00  0.00000000000E+00  0.24286727860E+04  0.24286727860E+04  0.00000000000E+00 0. -1.
         -2   -1    0    0    0  501 -0.00000000000E+00 -0.00000000000E+00 -0.70751182895E+03  0.70751182895E+03  0.00000000000E+00 0.  1.
         23    2    1    2    0    0  0.32601171230E+03 -0.37488514221E+03 -0.58752561962E+03  0.77464778151E+03  0.89834989198E+02 0.  0.
         13    1    3    3    0    0  0.22378048380E+03 -0.26078927493E+03 -0.33907929757E+03  0.48276652835E+03  0.00000000000E+00 0. -1.
        -13    1    3    3    0    0  0.10223122850E+03 -0.11409586728E+03 -0.24844632205E+03  0.29188125317E+03  0.00000000000E+00 0.  1.
         22    1    1    2    0    0 -0.32601171230E+03  0.37488514221E+03  0.23086865767E+04  0.23615368335E+04  0.00000000000E+00 0. -1.
<mgrwt>
<rscale>  0 0.26216901E+04</rscale>
<asrwt>0</asrwt>
<pdfrwt beam="1">  1        2 0.37364196E+00 0.26216901E+04</pdfrwt>
<pdfrwt beam="2">  1       -2 0.10884798E+00 0.26216901E+04</pdfrwt>
<totfact> 0.22773619E+00</totfact>
</mgrwt>
</event>
<event>
 6    1  0.9988873E-007  0.2491831E+04  0.7818608E-02  0.8405901E-01
          2   -1    0    0  501    0  0.00000000000E+00  0.00000000000E+00  0.17830083408E+04  0.17830083408E+04  0.00000000000E+00 0. -1.
         -2   -1    0    0    0  501 -0.00000000000E+00 -0.00000000000E+00 -0.87061058012E+03  0.87061058012E+03  0.00000000000E+00 0.  1.
         23    2    1    2    0    0 -0.37370877109E+03 -0.50174048171E+03  0.16021720449E+04  0.17223883803E+04  0.90910475055E+02 0.  0.
         13    1    3    3    0    0 -0.13395558213E+03 -0.11911320542E+03  0.50854353169E+03  0.53921106935E+03  0.00000000000E+00 0. -1.
        -13    1    3    3    0    0 -0.23975318896E+03 -0.38262727628E+03  0.10936285132E+04  0.11831773109E+04  0.00000000000E+00 0.  1.
         22    1    1    2    0    0  0.37370877109E+03  0.50174048171E+03 -0.68977428425E+03  0.93123054062E+03  0.00000000000E+00 0.  1.
<mgrwt>
<rscale>  0 0.24918314E+04</rscale>
<asrwt>0</asrwt>
<pdfrwt beam="1">  1        2 0.27430897E+00 0.24918314E+04</pdfrwt>
<pdfrwt beam="2">  1       -2 0.13394009E+00 0.24918314E+04</pdfrwt>
<totfact> 0.31684348E+00</totfact>
</mgrwt>
</event>
<event>
 6    1  0.9988873E-007  0.1891680E+04  0.7818608E-02  0.8659009E-01
         -2   -1    0    0    0  501 -0.00000000000E+00  0.00000000000E+00  0.13612664320E+04  0.13612664320E+04  0.00000000000E+00 0.  1.
          2   -1    0    0  501    0  0.00000000000E+00 -0.00000000000E+00 -0.65719165642E+03  0.65719165642E+03  0.00000000000E+00 0. -1.
         23    2    1    2    0    0  0.28541343368E+03  0.77996480615E+03 -0.12501450199E+03  0.84491858882E+03  0.91939485897E+02 0.  0.
         11    1    3    3    0    0  0.13450354635E+03  0.49757456912E+03 -0.77735771237E+02  0.52126241563E+03  0.00000000000E+00 0.  1.
        -11    1    3    3    0    0  0.15090988733E+03  0.28239023704E+03 -0.47278730749E+02  0.32365617320E+03  0.00000000000E+00 0. -1.
         22    1    1    2    0    0 -0.28541343368E+03 -0.77996480615E+03  0.82908927760E+03  0.11735394996E+04  0.00000000000E+00 0.  1.
<mgrwt>
<rscale>  0 0.18916796E+04</rscale>
<asrwt>0</asrwt>
<pdfrwt beam="1">  1        2 0.10110641E+00 0.18916796E+04</pdfrwt>
<pdfrwt beam="2">  1       -2 0.20942560E+00 0.18916796E+04</pdfrwt>
<totfact> 0.47971497E+00</totfact>
</mgrwt>
</event>
<event>
 6    1  0.9988873E-007  0.4336935E+04  0.7818608E-02  0.7939824E-01
          2   -1    0    0  501    0  0.00000000000E+00  0.00000000000E+00  0.26486717085E+04  0.26486717085E+04  0.00000000000E+00 0. -1.
         -2   -1    0    0    0  501 -0.00000000000E+00 -0.00000000000E+00 -0.17753239205E+04  0.17753239205E+04  0.00000000000E+00 0.  1.
         23    2    1    2    0    0 -0.24463949496E+02 -0.37380356873E+03  0.26146221394E+04  0.26428825053E+04  0.90837285901E+02 0.  0.
         13    1    3    3    0    0 -0.51132291594E+02 -0.28078134477E+03  0.20918626837E+04  0.21112418531E+04  0.00000000000E+00 0. -1.
        -13    1    3    3    0    0  0.26668342098E+02 -0.93022223961E+02  0.52275945569E+03  0.53164065226E+03  0.00000000000E+00 0.  1.
         22    1    1    2    0    0  0.24463949496E+02  0.37380356873E+03 -0.17412743514E+04  0.17811131237E+04  0.00000000000E+00 0.  1.
<mgrwt>
<rscale>  0 0.43369345E+04</rscale>
<asrwt>0</asrwt>
<pdfrwt beam="1">  1        2 0.40748796E+00 0.43369345E+04</pdfrwt>
<pdfrwt beam="2">  1       -2 0.27312676E+00 0.43369345E+04</pdfrwt>
<totfact> 0.10143009E-01</totfact>
</mgrwt>
</event>
<event>
 6    1  0.9988873E-007  0.2110857E+04  0.7818608E-02  0.8556476E-01
          2   -1    0    0  501    0  0.00000000000E+00  0.00000000000E+00  0.16322249300E+04  0.16322249300E+04  0.00000000000E+00 0. -1.
         -2   -1    0    0    0  501 -0.00000000000E+00 -0.00000000000E+00 -0.68246065010E+03  0.68246065010E+03  0.00000000000E+00 0.  1.
         23    2    1    2    0    0  0.60624204890E+03  0.21731196908E+03 -0.43857667003E+03  0.78424626179E+03  0.89099887047E+02 0.  0.
         13    1    3    3    0    0  0.42242310548E+03  0.19291123232E+03 -0.32459704413E+03  0.56658561988E+03  0.00000000000E+00 0. -1.
        -13    1    3    3    0    0  0.18381894342E+03  0.24400736764E+02 -0.11397962590E+03  0.21766064191E+03  0.00000000000E+00 0.  1.
         22    1    1    2    0    0 -0.60624204890E+03 -0.21731196908E+03  0.13883409499E+04  0.15304393183E+04  0.00000000000E+00 0. -1.
<mgrwt>
<rscale>  0 0.21108570E+04</rscale>
<asrwt>0</asrwt>
<pdfrwt beam="1">  1        2 0.25111153E+00 0.21108570E+04</pdfrwt>
<pdfrwt beam="2">  1       -2 0.10499395E+00 0.21108570E+04</pdfrwt>
<totfact> 0.72425922E+00</totfact>
</mgrwt>
</event>
<event>
 6    1  0.9988873E-007  0.4026917E+04  0.7818608E-02  0.7999139E-01
         -1   -1    0    0    0  501 -0.00000000000E+00  0.00000000000E+00  0.22548942795E+04  0.22548942795E+04  0.00000000000E+00 0.  1.
          1   -1    0    0  501    0  0.00000000000E+00 -0.00000000000E+00 -0.17978735035E+04  0.17978735035E+04  0.00000000000E+00 0. -1.
         23    2    1    2    0    0 -0.14557311305E+04  0.66891709252E+03 -0.99645083027E+03  0.18896258756E+04  0.10568108598E+03 0.  0.
         11    1    3    3    0    0 -0.53871106962E+03  0.23636682022E+03 -0.42518217910E+03  0.72585038104E+03  0.00000000000E+00 0. -1.
        -11    1    3    3    0    0 -0.91702006083E+03  0.43255027230E+03 -0.57126865117E+03  0.11637754946E+04  0.00000000000E+00 0.  1.
         22    1    1    2    0    0  0.14557311305E+04 -0.66891709252E+03  0.14534716063E+04  0.21631419073E+04  0.00000000000E+00 0. -1.
<mgrwt>
<rscale>  0 0.40269168E+04</rscale>
<asrwt>0</asrwt>
<pdfrwt beam="1">  1        1 0.27659593E+00 0.40269168E+04</pdfrwt>
<pdfrwt beam="2">  1       -1 0.34690681E+00 0.40269168E+04</pdfrwt>
<totfact> 0.51978703E-02</totfact>
</mgrwt>
</event>
<event>
 6    1  0.9988873E-007  0.2240511E+04  0.7818608E-02  0.8501753E-01
         -1   -1    0    0    0  501 -0.00000000000E+00  0.00000000000E+00  0.12269278744E+04  0.12269278744E+04  0.00000000000E+00 0.  1.
          1   -1    0    0  501    0  0.00000000000E+00 -0.00000000000E+00 -0.10228573238E+04  0.10228573238E+04  0.00000000000E+00 0. -1.
         23    2    1    2    0    0 -0.20482596209E+03  0.43787791885E+03 -0.91042431205E+03  0.10349644109E+04  0.92672310941E+02 0.  0.
         13    1    3    3    0    0 -0.10997127060E+03  0.15401646696E+03 -0.41576600394E+03  0.45681081695E+03  0.00000000000E+00 0.  1.
        -13    1    3    3    0    0 -0.94854691485E+02  0.28386145190E+03 -0.49465830811E+03  0.57815359391E+03  0.00000000000E+00 0. -1.
         22    1    1    2    0    0  0.20482596209E+03 -0.43787791885E+03  0.11144948626E+04  0.12148207873E+04  0.00000000000E+00 0.  1.
<mgrwt>
<rscale>  0 0.22405108E+04</rscale>
<asrwt>0</asrwt>
<pdfrwt beam="1">  1        1 0.15736266E+00 0.22405108E+04</pdfrwt>
<pdfrwt beam="2">  1       -1 0.18875814E+00 0.22405108E+04</pdfrwt>
<totfact> 0.23788404E+00</totfact>
</mgrwt>
</event>
<event>
 6    1  0.9988873E-007  0.1480307E+04  0.7818608E-02  0.8897655E-01
          2   -1    0    0  501    0  0.00000000000E+00  0.00000000000E+00  0.10695757936E+04  0.10695757936E+04  0.00000000000E+00 0. -1.
         -2   -1    0    0    0  501 -0.00000000000E+00 -0.00000000000E+00 -0.51219093540E+03  0.51219093540E+03  0.00000000000E+00 0.  1.
         23    2    1    2    0    0 -0.23853495630E+03 -0.57748269571E+03 -0.13856312314E+03  0.64649736570E+03  0.91509100874E+02 0.  0.
         11    1    3    3    0    0 -0.20091116421E+03 -0.51709542836E+03 -0.94324969163E+02  0.56271678288E+03  0.00000000000E+00 0. -1.
        -11    1    3    3    0    0 -0.37623792095E+02 -0.60387267351E+02 -0.44238153980E+02  0.83780582817E+02  0.00000000000E+00 0.  1.
         22    1    1    2    0    0  0.23853495630E+03  0.57748269571E+03  0.69594798139E+03  0.93526936335E+03  0.00000000000E+00 0.  1.
<mgrwt>
<rscale>  0 0.14803068E+04</rscale>
<asrwt>0</asrwt>
<pdfrwt beam="1">  1        2 0.16455012E+00 0.14803068E+04</pdfrwt>
<pdfrwt beam="2">  1       -2 0.78798606E-01 0.14803068E+04</pdfrwt>
<totfact> 0.31495599E+01</totfact>
</mgrwt>
</event>
<event>
 6    1  0.9988873E-007  0.3166635E+04  0.7818608E-02  0.8197685E-01
          2   -1    0    0  501    0  0.00000000000E+00  0.00000000000E+00  0.32151945115E+04  0.32151945115E+04  0.00000000000E+00 0. -1.
         -2   -1    0    0    0  501 -0.00000000000E+00 -0.00000000000E+00 -0.77970223172E+03  0.77970223172E+03  0.00000000000E+00 0.  1.
         23    2    1    2    0    0  0.13840520858E+04  0.23741658030E+03  0.29961178252E+03  0.14387370637E+04  0.90721053190E+02 0.  0.
         11    1    3    3    0    0  0.66839756112E+03  0.89783441880E+02  0.10484128041E+03  0.68250132617E+03  0.00000000000E+00 0. -1.
        -11    1    3    3    0    0  0.71565452464E+03  0.14763313842E+03  0.19477050211E+03  0.75623573751E+03  0.00000000000E+00 0.  1.
         22    1    1    2    0    0 -0.13840520858E+04 -0.23741658030E+03  0.21358804972E+04  0.25561596795E+04  0.00000000000E+00 0. -1.
<mgrwt>
<rscale>  0 0.31666350E+04</rscale>
<asrwt>0</asrwt>
<pdfrwt beam="1">  1        2 0.49464530E+00 0.31666350E+04</pdfrwt>
<pdfrwt beam="2">  1       -2 0.11995419E+00 0.31666350E+04</pdfrwt>
<totfact> 0.56828319E-01</totfact>
</mgrwt>
</event>
<event>
 6    1  0.9988873E-007  0.1773078E+04  0.7818608E-02  0.8720749E-01
         -2   -1    0    0    0  501 -0.00000000000E+00  0.00000000000E+00  0.74124468698E+03  0.74124468698E+03  0.00000000000E+00 0.  1.
          2   -1    0    0  501    0  0.00000000000E+00 -0.00000000000E+00 -0.10603130864E+04  0.10603130864E+04  0.00000000000E+00 0. -1.
         23    2    1    2    0    0 -0.57670973069E+03  0.52641905619E+03 -0.58141590917E+03  0.97782398625E+03  0.91565017708E+02 0.  0.
         11    1    3    3    0    0 -0.22995256754E+02  0.44554662784E+02 -0.55784522132E+02  0.75005417927E+02  0.00000000000E+00 0.  1.
        -11    1    3    3    0    0 -0.55371447393E+03  0.48186439341E+03 -0.52563138704E+03  0.90281856832E+03  0.00000000000E+00 0. -1.
         22    1    1    2    0    0  0.57670973069E+03 -0.52641905619E+03  0.26234750974E+03  0.82373378713E+03  0.00000000000E+00 0.  1.
<mgrwt>
<rscale>  0 0.17730780E+04</rscale>
<asrwt>0</asrwt>
<pdfrwt beam="1">  1        2 0.16312509E+00 0.17730780E+04</pdfrwt>
<pdfrwt beam="2">  1       -2 0.11403764E+00 0.17730780E+04</pdfrwt>
<totfact> 0.13133582E+01</totfact>
</mgrwt>
</event>
<event>
 6    1  0.9988873E-007  0.1970572E+04  0.7818608E-02  0.8620504E-01
          2   -1    0    0  501    0  0.00000000000E+00  0.00000000000E+00  0.13249991611E+04  0.13249991611E+04  0.00000000000E+00 0. -1.
         -2   -1    0    0    0  501 -0.00000000000E+00 -0.00000000000E+00 -0.73267078467E+03  0.73267078467E+03  0.00000000000E+00 0.  1.
         23    2    1    2    0    0 -0.87867563729E+03  0.15278658056E+03  0.72916008627E+03  0.11553742451E+04  0.88321005446E+02 0.  0.
         11    1    3    3    0    0 -0.49777379978E+03  0.49007518874E+02  0.43775365254E+03  0.66468695862E+03  0.00000000000E+00 0.  1.
        -11    1    3    3    0    0 -0.38090183752E+03  0.10377906169E+03  0.29140643374E+03  0.49068728646E+03  0.00000000000E+00 0. -1.
         22    1    1    2    0    0  0.87867563729E+03 -0.15278658056E+03 -0.13683170980E+03  0.90229570074E+03  0.00000000000E+00 0. -1.
<mgrwt>
<rscale>  0 0.19705717E+04</rscale>
<asrwt>0</asrwt>
<pdfrwt beam="1">  1        2 0.20384603E+00 0.19705717E+04</pdfrwt>
<pdfrwt beam="2">  1       -2 0.11271858E+00 0.19705717E+04</pdfrwt>
<totfact> 0.92198555E+00</totfact>
</mgrwt>
</event>
<event>
 6    1  0.9988873E-007  0.2932771E+04  0.7818608E-02  0.8263194E-01
          1   -1    0    0  501    0  0.00000000000E+00  0.00000000000E+00  0.14882912642E+04  0.14882912642E+04  0.00000000000E+00 0. -1.
         -1   -1    0    0    0  501 -0.00000000000E+00 -0.00000000000E+00 -0.14448017908E+04  0.14448017908E+04  0.00000000000E+00 0.  1.
         23    2    1    2    0    0  0.10655185114E+04 -0.27232423444E+03  0.98965937268E+03  0.14823250979E+04  0.91497733308E+02 0.  0.
         11    1    3    3    0    0  0.24353134081E+03 -0.10229416940E+03  0.24202293329E+03  0.35825509249E+03  0.00000000000E+00 0. -1.
        -11    1    3    3    0    0  0.82198717060E+03 -0.17003006504E+03  0.74763643938E+03  0.11240700054E+04  0.00000000000E+00 0.  1.
         22    1    1    2    0    0 -0.10655185114E+04  0.27232423444E+03 -0.94616989927E+03  0.14507679570E+04  0.00000000000E+00 0.  1.
<mgrwt>
<rscale>  0 0.29327706E+04</rscale>
<asrwt>0</asrwt>
<pdfrwt beam="1">  1        1 0.22896789E+00 0.29327706E+04</pdfrwt>
<pdfrwt beam="2">  1       -1 0.22227720E+00 0.29327706E+04</pdfrwt>
<totfact> 0.60622389E-01</totfact>
</mgrwt>
</event>
<event>
 6    1  0.9988873E-007  0.1772327E+04  0.7818608E-02  0.8721156E-01
          2   -1    0    0  501    0  0.00000000000E+00  0.00000000000E+00  0.10021474772E+04  0.10021474772E+04  0.00000000000E+00 0. -1.
         -2   -1    0    0    0  501 -0.00000000000E+00 -0.00000000000E+00 -0.78360264219E+03  0.78360264219E+03  0.00000000000E+00 0.  1.
         23    2    1    2    0    0 -0.22862399911E+03 -0.52752787438E+03 -0.56684279309E+03  0.81241137180E+03  0.90260144777E+02 0.  0.
         13    1    3    3    0    0 -0.76091624682E+02 -0.21306897764E+03 -0.28198216445E+03  0.36152768310E+03  0.00000000000E+00 0. -1.
        -13    1    3    3    0    0 -0.15253237443E+03 -0.31445889674E+03 -0.28486062864E+03  0.45088368870E+03  0.00000000000E+00 0.  1.
         22    1    1    2    0    0  0.22862399911E+03  0.52752787438E+03  0.78538762810E+03  0.97333874761E+03  0.00000000000E+00 0. -1.
<mgrwt>
<rscale>  0 0.17723266E+04</rscale>
<asrwt>0</asrwt>
<pdfrwt beam="1">  1        2 0.15417654E+00 0.17723266E+04</pdfrwt>
<pdfrwt beam="2">  1       -2 0.12055425E+00 0.17723266E+04</pdfrwt>
<totfact> 0.12471541E+01</totfact>
</mgrwt>
</event>
<event>
 6    1  0.9988873E-007  0.2842337E+04  0.7818608E-02  0.8290244E-01
          2   -1    0    0  501    0  0.00000000000E+00  0.00000000000E+00  0.14368286560E+04  0.14368286560E+04  0.00000000000E+00 0. -1.
         -2   -1    0    0    0  501 -0.00000000000E+00 -0.00000000000E+00 -0.14056789462E+04  0.14056789462E+04  0.00000000000E+00 0.  1.
         23    2    1    2    0    0  0.54864436235E+03  0.11834615658E+04  0.57614010751E+03  0.14287868209E+04  0.88895680562E+02 0.  0.
         11    1    3    3    0    0  0.20168510031E+03  0.53027882811E+03  0.27018617405E+03  0.62838927734E+03  0.00000000000E+00 0.  1.
        -11    1    3    3    0    0  0.34695926204E+03  0.65318273769E+03  0.30595393347E+03  0.80039754356E+03  0.00000000000E+00 0. -1.
         22    1    1    2    0    0 -0.54864436235E+03 -0.11834615658E+04 -0.54499039765E+03  0.14137207813E+04  0.00000000000E+00 0.  1.
<mgrwt>
<rscale>  0 0.28423369E+04</rscale>
<asrwt>0</asrwt>
<pdfrwt beam="1">  1        2 0.22105056E+00 0.28423369E+04</pdfrwt>
<pdfrwt beam="2">  1       -2 0.21625830E+00 0.28423369E+04</pdfrwt>
<totfact> 0.12481583E+00</totfact>
</mgrwt>
</event>
<event>
 6    1  0.9988873E-007  0.1921928E+04  0.7818608E-02  0.8644018E-01
         -1   -1    0    0    0  501 -0.00000000000E+00  0.00000000000E+00  0.97827486575E+03  0.97827486575E+03  0.00000000000E+00 0.  1.
          1   -1    0    0  501    0  0.00000000000E+00 -0.00000000000E+00 -0.94395952010E+03  0.94395952010E+03  0.00000000000E+00 0. -1.
         23    2    1    2    0    0  0.75664369752E+03  0.26823670982E+03 -0.50705245205E+03  0.95396804342E+03  0.92153248703E+02 0.  0.
         11    1    3    3    0    0  0.30680894322E+03  0.70005027429E+02 -0.22906745230E+03  0.38923557033E+03  0.00000000000E+00 0. -1.
        -11    1    3    3    0    0  0.44983475430E+03  0.19823168240E+03 -0.27798499975E+03  0.56473247309E+03  0.00000000000E+00 0.  1.
         22    1    1    2    0    0 -0.75664369752E+03 -0.26823670982E+03  0.54136779770E+03  0.96826634243E+03  0.00000000000E+00 0.  1.
<mgrwt>
<rscale>  0 0.19219281E+04</rscale>
<asrwt>0</asrwt>
<pdfrwt beam="1">  1        1 0.14522454E+00 0.19219281E+04</pdfrwt>
<pdfrwt beam="2">  1       -1 0.15050383E+00 0.19219281E+04</pdfrwt>
<totfact> 0.54122755E+00</totfact>
</mgrwt>
</event>
<event>
 6    1  0.9988873E-007  0.1535873E+04  0.7818608E-02  0.8860942E-01
          1   -1    0    0  501    0  0.00000000000E+00  0.00000000000E+00  0.10767363231E+04  0.10767363231E+04  0.00000000000E+00 0. -1.
         -1   -1    0    0    0  501 -0.00000000000E+00 -0.00000000000E+00 -0.54769811489E+03  0.54769811489E+03  0.00000000000E+00 0.  1.
         23    2    1    2    0    0 -0.13550982450E+03 -0.43414818529E+03 -0.38543521162E+03  0.60310726470E+03  0.91271633345E+02 0.  0.
         13    1    3    3    0    0 -0.14801419616E+03 -0.41782750599E+03 -0.36662746289E+03  0.57524231727E+03  0.00000000000E+00 0. -1.
        -13    1    3    3    0    0  0.12504371659E+02 -0.16320679298E+02 -0.18807748729E+02  0.27864947436E+02  0.00000000000E+00 0.  1.
         22    1    1    2    0    0  0.13550982450E+03  0.43414818529E+03  0.91447341988E+03  0.10213271733E+04  0.00000000000E+00 0. -1.
<mgrwt>
<rscale>  0 0.15358730E+04</rscale>
<asrwt>0</asrwt>
<pdfrwt beam="1">  1        1 0.16565174E+00 0.15358730E+04</pdfrwt>
<pdfrwt beam="2">  1       -1 0.84261249E-01 0.15358730E+04</pdfrwt>
<totfact> 0.17772428E+01</totfact>
</mgrwt>
</event>
<event>
 6    1  0.9988873E-007  0.1118162E+04  0.7818608E-02  0.9187669E-01
         -1   -1    0    0    0  501 -0.00000000000E+00  0.00000000000E+00  0.18796866328E+03  0.18796866328E+03  0.00000000000E+00 0.  1.
          1   -1    0    0  501    0  0.00000000000E+00 -0.00000000000E+00 -0.16628908664E+04  0.16628908664E+04  0.00000000000E+00 0. -1.
         23    2    1    2    0    0 -0.19778108782E+03  0.34405444238E+03 -0.10044156326E+03  0.42023454480E+03  0.94961818603E+02 0.  0.
         13    1    3    3    0    0 -0.17220543396E+03  0.25086236410E+03 -0.10900917418E+03  0.32321763143E+03  0.00000000000E+00 0.  1.
        -13    1    3    3    0    0 -0.25575653856E+02  0.93192078276E+02  0.85676109181E+01  0.97016913373E+02  0.00000000000E+00 0. -1.
         22    1    1    2    0    0  0.19778108782E+03 -0.34405444238E+03 -0.13744806398E+04  0.14306249848E+04  0.00000000000E+00 0. -1.
<mgrwt>
<rscale>  0 0.11181617E+04</rscale>
<asrwt>0</asrwt>
<pdfrwt beam="1">  1        1 0.25582937E+00 0.11181617E+04</pdfrwt>
<pdfrwt beam="2">  1       -1 0.28918255E-01 0.11181617E+04</pdfrwt>
<totfact> 0.54749323E+01</totfact>
</mgrwt>
</event>
<event>
 6    1  0.9988873E-007  0.1720332E+04  0.7818608E-02  0.8749853E-01
         -2   -1    0    0    0  501 -0.00000000000E+00  0.00000000000E+00  0.11349397027E+04  0.11349397027E+04  0.00000000000E+00 0.  1.
          2   -1    0    0  501    0  0.00000000000E+00 -0.00000000000E+00 -0.65191596997E+03  0.65191596997E+03  0.00000000000E+00 0. -1.
         23    2    1    2    0    0  0.50422796166E+03 -0.68796211111E+03  0.33976225576E+03  0.92195015503E+03  0.83761532241E+02 0.  0.
         11    1    3    3    0    0  0.30219747927E+03 -0.46377667322E+03  0.19170747896E+03  0.58580190900E+03  0.00000000000E+00 0.  1.
        -11    1    3    3    0    0  0.20203048238E+03 -0.22418543788E+03  0.14805477680E+03  0.33614824602E+03  0.00000000000E+00 0. -1.
         22    1    1    2    0    0 -0.50422796166E+03  0.68796211111E+03  0.14326147696E+03  0.86490551762E+03  0.00000000000E+00 0.  1.
<mgrwt>
<rscale>  0 0.17203317E+04</rscale>
<asrwt>0</asrwt>
<pdfrwt beam="1">  1        2 0.10029476E+00 0.17203317E+04</pdfrwt>
<pdfrwt beam="2">  1       -2 0.17460611E+00 0.17203317E+04</pdfrwt>
<totfact> 0.84088886E+00</totfact>
</mgrwt>
</event>
<event>
 6    1  0.9988873E-007  0.2567137E+04  0.7818608E-02  0.8379450E-01
          1   -1    0    0  501    0  0.00000000000E+00  0.00000000000E+00  0.29182305858E+04  0.29182305858E+04  0.00000000000E+00 0. -1.
         -1   -1    0    0    0  501 -0.00000000000E+00 -0.00000000000E+00 -0.56457094143E+03  0.56457094143E+03  0.00000000000E+00 0.  1.
         23    2    1    2    0    0  0.28789561468E+03 -0.41290529522E+03  0.27778185696E+04  0.28245573008E+04  0.92050377572E+02 0.  0.
         11    1    3    3    0    0  0.24317311540E+03 -0.27828433855E+03  0.20495110626E+04  0.20825635483E+04  0.00000000000E+00 0. -1.
        -11    1    3    3    0    0  0.44722499284E+02 -0.13462095668E+03  0.72830750704E+03  0.74199375248E+03  0.00000000000E+00 0.  1.
         22    1    1    2    0    0 -0.28789561468E+03  0.41290529522E+03 -0.42415892525E+03  0.65824422644E+03  0.00000000000E+00 0.  1.
<mgrwt>
<rscale>  0 0.25671371E+04</rscale>
<asrwt>0</asrwt>
<pdfrwt beam="1">  1        1 0.44895854E+00 0.25671371E+04</pdfrwt>
<pdfrwt beam="2">  1       -1 0.86857070E-01 0.25671371E+04</pdfrwt>
<totfact> 0.79048141E-01</totfact>
</mgrwt>
</event>
<event>
 6    1  0.9988873E-007  0.1874576E+04  0.7818608E-02  0.8667616E-01
          1   -1    0    0  501    0  0.00000000000E+00  0.00000000000E+00  0.79767117157E+03  0.79767117157E+03  0.00000000000E+00 0. -1.
         -1   -1    0    0    0  501 -0.00000000000E+00 -0.00000000000E+00 -0.11013415700E+04  0.11013415700E+04  0.00000000000E+00 0.  1.
         23    2    1    2    0    0 -0.15841433637E+03  0.89651823570E+02  0.77690329388E+03  0.80321528951E+03  0.91888638156E+02 0.  0.
         11    1    3    3    0    0 -0.14909688165E+03  0.10712962361E+03  0.71649053997E+03  0.73963864842E+03  0.00000000000E+00 0. -1.
        -11    1    3    3    0    0 -0.93174547196E+01 -0.17477800044E+02  0.60412753911E+02  0.63576641087E+02  0.00000000000E+00 0.  1.
         22    1    1    2    0    0  0.15841433637E+03 -0.89651823570E+02 -0.10805736923E+04  0.10957974520E+04  0.00000000000E+00 0.  1.
<mgrwt>
<rscale>  0 0.18745756E+04</rscale>
<asrwt>0</asrwt>
<pdfrwt beam="1">  1        1 0.12271864E+00 0.18745756E+04</pdfrwt>
<pdfrwt beam="2">  1       -1 0.16943716E+00 0.18745756E+04</pdfrwt>
<totfact> 0.51741002E+00</totfact>
</mgrwt>
</event>
<event>
 6    1  0.9988873E-007  0.1822855E+04  0.7818608E-02  0.8694239E-01
         -1   -1    0    0    0  501 -0.00000000000E+00  0.00000000000E+00  0.10109466978E+04  0.10109466978E+04  0.00000000000E+00 0.  1.
          1   -1    0    0  501    0  0.00000000000E+00 -0.00000000000E+00 -0.82170544437E+03  0.82170544437E+03  0.00000000000E+00 0. -1.
         23    2    1    2    0    0  0.67289957782E+01  0.24686433917E+03 -0.78533383788E+03  0.82727465588E+03  0.81528142487E+02 0.  0.
         13    1    3    3    0    0  0.32705768253E+02  0.15880358359E+03 -0.58221220314E+03  0.60436685458E+03  0.00000000000E+00 0.  1.
        -13    1    3    3    0    0 -0.25976772474E+02  0.88060755580E+02 -0.20312163474E+03  0.22290780130E+03  0.00000000000E+00 0. -1.
         22    1    1    2    0    0 -0.67289957782E+01 -0.24686433917E+03  0.97457509136E+03  0.10053774863E+04  0.00000000000E+00 0.  1.
<mgrwt>
<rscale>  0 0.18228553E+04</rscale>
<asrwt>0</asrwt>
<pdfrwt beam="1">  1        1 0.12641622E+00 0.18228553E+04</pdfrwt>
<pdfrwt beam="2">  1       -1 0.15553026E+00 0.18228553E+04</pdfrwt>
<totfact> 0.63039281E+00</totfact>
</mgrwt>
</event>
<event>
 6    1  0.9988873E-007  0.2379031E+04  0.7818608E-02  0.8447396E-01
          2   -1    0    0  501    0  0.00000000000E+00  0.00000000000E+00  0.14029269848E+04  0.14029269848E+04  0.00000000000E+00 0. -1.
         -2   -1    0    0    0  501 -0.00000000000E+00 -0.00000000000E+00 -0.10085675773E+04  0.10085675773E+04  0.00000000000E+00 0.  1.
         23    2    1    2    0    0  0.10089148294E+04  0.62687116514E+03  0.21357471159E+03  0.12100122706E+04  0.87401069467E+02 0.  0.
         11    1    3    3    0    0  0.32657416724E+03  0.18203660593E+03  0.30262230880E+02  0.37510507225E+03  0.00000000000E+00 0. -1.
        -11    1    3    3    0    0  0.68234066212E+03  0.44483455921E+03  0.18331248071E+03  0.83490719833E+03  0.00000000000E+00 0.  1.
         22    1    1    2    0    0 -0.10089148294E+04 -0.62687116514E+03  0.18078469584E+03  0.12014822915E+04  0.00000000000E+00 0.  1.
<mgrwt>
<rscale>  0 0.23790306E+04</rscale>
<asrwt>0</asrwt>
<pdfrwt beam="1">  1        2 0.21583492E+00 0.23790306E+04</pdfrwt>
<pdfrwt beam="2">  1       -2 0.15516424E+00 0.23790306E+04</pdfrwt>
<totfact> 0.35549882E+00</totfact>
</mgrwt>
</event>
<event>
 6    1  0.9988873E-007  0.2499464E+04  0.7818608E-02  0.8403176E-01
          2   -1    0    0  501    0  0.00000000000E+00  0.00000000000E+00  0.22343970146E+04  0.22343970146E+04  0.00000000000E+00 0. -1.
         -2   -1    0    0    0  501 -0.00000000000E+00 -0.00000000000E+00 -0.69899422856E+03  0.69899422856E+03  0.00000000000E+00 0.  1.
         23    2    1    2    0    0  0.10988312119E+04 -0.15424274631E+03  0.98479559322E+02  0.11179108063E+04  0.93837573313E+02 0.  0.
         13    1    3    3    0    0  0.65709828712E+03 -0.13036507441E+03  0.85532014206E+02  0.67534356962E+03  0.00000000000E+00 0. -1.
        -13    1    3    3    0    0  0.44173292481E+03 -0.23877671902E+02  0.12947545116E+02  0.44256723670E+03  0.00000000000E+00 0.  1.
         22    1    1    2    0    0 -0.10988312119E+04  0.15424274631E+03  0.14369232268E+04  0.18154804369E+04  0.00000000000E+00 0. -1.
<mgrwt>
<rscale>  0 0.24994644E+04</rscale>
<asrwt>0</asrwt>
<pdfrwt beam="1">  1        2 0.34375338E+00 0.24994644E+04</pdfrwt>
<pdfrwt beam="2">  1       -2 0.10753757E+00 0.24994644E+04</pdfrwt>
<totfact> 0.30563834E+00</totfact>
</mgrwt>
</event>
<event>
 6    1  0.9988873E-007  0.4284654E+04  0.7818608E-02  0.7949462E-01
         -1   -1    0    0    0  501 -0.00000000000E+00  0.00000000000E+00  0.13800432764E+04  0.13800432764E+04  0.00000000000E+00 0.  1.
          1   -1    0    0  501    0  0.00000000000E+00 -0.00000000000E+00 -0.33256667168E+04  0.33256667168E+04  0.00000000000E+00 0. -1.
         23    2    1    2    0    0  0.67010630332E+03  0.50817917447E+03  0.11895331657E+04  0.14597131547E+04  0.92113030935E+02 0.  0.
         11    1    3    3    0    0  0.43694085179E+03  0.28963907068E+03  0.78976679550E+03  0.94791333491E+03  0.00000000000E+00 0. -1.
        -11    1    3    3    0    0  0.23316545153E+03  0.21854010379E+03  0.39976637023E+03  0.51179981978E+03  0.00000000000E+00 0.  1.
         22    1    1    2    0    0 -0.67010630332E+03 -0.50817917447E+03 -0.31351566061E+04  0.32459968385E+04  0.00000000000E+00 0. -1.
<mgrwt>
<rscale>  0 0.42846535E+04</rscale>
<asrwt>0</asrwt>
<pdfrwt beam="1">  1        1 0.51164103E+00 0.42846535E+04</pdfrwt>
<pdfrwt beam="2">  1       -1 0.21231435E+00 0.42846535E+04</pdfrwt>
<totfact> 0.32334673E-02</totfact>
</mgrwt>
</event>
<event>
 6    1  0.9988873E-007  0.1348455E+04  0.7818608E-02  0.8991999E-01
          3   -1    0    0  501    0  0.00000000000E+00  0.00000000000E+00  0.64691048429E+03  0.64691048429E+03  0.00000000000E+00 0. -1.
         -3   -1    0    0    0  501 -0.00000000000E+00 -0.00000000000E+00 -0.70269757132E+03  0.70269757132E+03  0.00000000000E+00 0.  1.
         23    2    1    2    0    0 -0.44634276442E+02  0.27381269871E+03 -0.63971074806E+03  0.70313109970E+03  0.90542197763E+02 0.  0.
         13    1    3    3    0    0 -0.76389558848E+00  0.19102989777E+03 -0.35124659864E+03  0.39983393858E+03  0.00000000000E+00 0.  1.
        -13    1    3    3    0    0 -0.43870380854E+02  0.82782800935E+02 -0.28846414942E+03  0.30329716112E+03  0.00000000000E+00 0. -1.
         22    1    1    2    0    0  0.44634276442E+02 -0.27381269871E+03  0.58392366103E+03  0.64647695591E+03  0.00000000000E+00 0. -1.
<mgrwt>
<rscale>  0 0.13484546E+04</rscale>
<asrwt>0</asrwt>
<pdfrwt beam="1">  1        3 0.99524690E-01 0.13484546E+04</pdfrwt>
<pdfrwt beam="2">  1       -3 0.10810732E+00 0.13484546E+04</pdfrwt>
<totfact> 0.16460029E+00</totfact>
</mgrwt>
</event>
<event>
 6    1  0.9988873E-007  0.5419284E+04  0.7818608E-02  0.7766894E-01
         -1   -1    0    0    0  501 -0.00000000000E+00  0.00000000000E+00  0.40977083808E+04  0.40977083808E+04  0.00000000000E+00 0.  1.
          1   -1    0    0  501    0  0.00000000000E+00 -0.00000000000E+00 -0.17917721530E+04  0.17917721530E+04  0.00000000000E+00 0. -1.
         23    2    1    2    0    0  0.17310181563E+04  0.10624196939E+04 -0.79471810756E+03  0.21828355858E+04  0.89637384714E+02 0.  0.
         11    1    3    3    0    0  0.34898475805E+03  0.25669268379E+03 -0.17562304187E+03  0.46746652083E+03  0.00000000000E+00 0.  1.
        -11    1    3    3    0    0  0.13820333983E+04  0.80572701010E+03 -0.61909506569E+03  0.17153690650E+04  0.00000000000E+00 0. -1.
         22    1    1    2    0    0 -0.17310181563E+04 -0.10624196939E+04  0.31006543354E+04  0.37066449480E+04  0.00000000000E+00 0.  1.
<mgrwt>
<rscale>  0 0.54192840E+04</rscale>
<asrwt>0</asrwt>
<pdfrwt beam="1">  1        1 0.27565726E+00 0.54192840E+04</pdfrwt>
<pdfrwt beam="2">  1       -1 0.63041667E+00 0.54192840E+04</pdfrwt>
<totfact> 0.99714371E-04</totfact>
</mgrwt>
</event>
<event>
 6    1  0.9988873E-007  0.2158872E+04  0.7818608E-02  0.8535744E-01
          2   -1    0    0  501    0  0.00000000000E+00  0.00000000000E+00  0.62024060231E+03  0.62024060231E+03  0.00000000000E+00 0. -1.
         -2   -1    0    0    0  501 -0.00000000000E+00 -0.00000000000E+00 -0.18785965951E+04  0.18785965951E+04  0.00000000000E+00 0.  1.
         23    2    1    2    0    0  0.79950110554E+03  0.39445663694E+03 -0.13308035507E+04  0.16043838980E+04  0.90617578222E+02 0.  0.
         11    1    3    3    0    0  0.23519112122E+03  0.15387636267E+03 -0.46349778529E+03  0.54205442112E+03  0.00000000000E+00 0. -1.
        -11    1    3    3    0    0  0.56430998433E+03  0.24058027427E+03 -0.86730576541E+03  0.10623294769E+04  0.00000000000E+00 0.  1.
         22    1    1    2    0    0 -0.79950110554E+03 -0.39445663694E+03  0.72447557878E+02  0.89445329941E+03  0.00000000000E+00 0. -1.
<mgrwt>
<rscale>  0 0.21588718E+04</rscale>
<asrwt>0</asrwt>
<pdfrwt beam="1">  1        2 0.95421633E-01 0.21588718E+04</pdfrwt>
<pdfrwt beam="2">  1       -2 0.28901485E+00 0.21588718E+04</pdfrwt>
<totfact> 0.16214282E+00</totfact>
</mgrwt>
</event>
<event>
 6    1  0.9988873E-007  0.2211250E+04  0.7818608E-02  0.8513760E-01
         -2   -1    0    0    0  501 -0.00000000000E+00  0.00000000000E+00  0.87783344657E+03  0.87783344657E+03  0.00000000000E+00 0.  1.
          2   -1    0    0  501    0  0.00000000000E+00 -0.00000000000E+00 -0.13925265966E+04  0.13925265966E+04  0.00000000000E+00 0. -1.
         23    2    1    2    0    0  0.43965494873E+03 -0.59684530090E+03  0.58197637673E+03  0.94665129949E+03  0.89058366308E+02 0.  0.
         13    1    3    3    0    0  0.25547718157E+03 -0.32517056265E+03  0.27034368695E+03  0.49405484938E+03  0.00000000000E+00 0.  1.
        -13    1    3    3    0    0  0.18417776716E+03 -0.27167473825E+03  0.31163268978E+03  0.45259645012E+03  0.00000000000E+00 0. -1.
         22    1    1    2    0    0 -0.43965494873E+03  0.59684530090E+03 -0.10966695268E+04  0.13237087437E+04  0.00000000000E+00 0. -1.
<mgrwt>
<rscale>  0 0.22112498E+04</rscale>
<asrwt>0</asrwt>
<pdfrwt beam="1">  1        2 0.21423486E+00 0.22112498E+04</pdfrwt>
<pdfrwt beam="2">  1       -2 0.13505130E+00 0.22112498E+04</pdfrwt>
<totfact> 0.52608503E+00</totfact>
</mgrwt>
</event>
<event>
 6    1  0.9988873E-007  0.3398233E+04  0.7818608E-02  0.8138340E-01
         -1   -1    0    0    0  501 -0.00000000000E+00  0.00000000000E+00  0.10657816878E+04  0.10657816878E+04  0.00000000000E+00 0.  1.
          1   -1    0    0  501    0  0.00000000000E+00 -0.00000000000E+00 -0.27088064898E+04  0.27088064898E+04  0.00000000000E+00 0. -1.
         23    2    1    2    0    0 -0.57122102510E+03 -0.48229271876E+03  0.87135529818E+03  0.11514208146E+04  0.87235947775E+02 0.  0.
         11    1    3    3    0    0 -0.41591843749E+03 -0.31078948487E+03  0.64143262340E+03  0.82523576081E+03  0.00000000000E+00 0.  1.
        -11    1    3    3    0    0 -0.15530258760E+03 -0.17150323389E+03  0.22992267478E+03  0.32618505381E+03  0.00000000000E+00 0. -1.
         22    1    1    2    0    0  0.57122102510E+03  0.48229271876E+03 -0.25143801002E+04  0.26231673630E+04  0.00000000000E+00 0. -1.
<mgrwt>
<rscale>  0 0.33982327E+04</rscale>
<asrwt>0</asrwt>
<pdfrwt beam="1">  1        1 0.41673946E+00 0.33982327E+04</pdfrwt>
<pdfrwt beam="2">  1       -1 0.16396641E+00 0.33982327E+04</pdfrwt>
<totfact> 0.21705561E-01</totfact>
</mgrwt>
</event>
<event>
 6    1  0.9988873E-007  0.1416754E+04  0.7818608E-02  0.8941779E-01
         -2   -1    0    0    0  501 -0.00000000000E+00  0.00000000000E+00  0.45768710280E+03  0.45768710280E+03  0.00000000000E+00 0.  1.
          2   -1    0    0  501    0  0.00000000000E+00 -0.00000000000E+00 -0.10963784901E+04  0.10963784901E+04  0.00000000000E+00 0. -1.
         23    2    1    2    0    0 -0.83614874413E+02  0.28422827353E+03 -0.10228031292E+04  0.10689687067E+04  0.93758712048E+02 0.  0.
         13    1    3    3    0    0 -0.47116392343E+02  0.38618094332E+02 -0.16233541951E+03  0.17339002297E+03  0.00000000000E+00 0. -1.
        -13    1    3    3    0    0 -0.36498482070E+02  0.24561017920E+03 -0.86046770973E+03  0.89557868376E+03  0.00000000000E+00 0.  1.
         22    1    1    2    0    0  0.83614874413E+02 -0.28422827353E+03  0.38411174192E+03  0.48509688618E+03  0.00000000000E+00 0.  1.
<mgrwt>
<rscale>  0 0.14167545E+04</rscale>
<asrwt>0</asrwt>
<pdfrwt beam="1">  1        2 0.16867361E+00 0.14167545E+04</pdfrwt>
<pdfrwt beam="2">  1       -2 0.70413401E-01 0.14167545E+04</pdfrwt>
<totfact> 0.39073386E+01</totfact>
</mgrwt>
</event>
<event>
 6    1  0.9988873E-007  0.9430943E+03  0.7818608E-02  0.9373259E-01
         -2   -1    0    0    0  501 -0.00000000000E+00  0.00000000000E+00  0.65812923267E+02  0.65812923267E+02  0.00000000000E+00 0.  1.
          2   -1    0    0  501    0  0.00000000000E+00 -0.00000000000E+00 -0.33786180729E+04  0.33786180729E+04  0.00000000000E+00 0. -1.
         23    2    1    2    0    0  0.26151187474E+03  0.24421333743E+03 -0.27685319630E+04  0.27930770859E+04  0.92096484479E+02 0.  0.
         11    1    3    3    0    0  0.20854731428E+03  0.14451198794E+03 -0.17476741261E+04  0.17659956252E+04  0.00000000000E+00 0. -1.
        -11    1    3    3    0    0  0.52964560452E+02  0.99701349493E+02 -0.10208578369E+04  0.10270814607E+04  0.00000000000E+00 0.  1.
         22    1    1    2    0    0 -0.26151187474E+03 -0.24421333743E+03 -0.54427318658E+03  0.65135391028E+03  0.00000000000E+00 0.  1.
<mgrwt>
<rscale>  0 0.94309434E+03</rscale>
<asrwt>0</asrwt>
<pdfrwt beam="1">  1        2 0.51978750E+00 0.94309434E+03</pdfrwt>
<pdfrwt beam="2">  1       -2 0.10125063E-01 0.94309434E+03</pdfrwt>
<totfact> 0.69262079E+01</totfact>
</mgrwt>
</event>
<event>
 6    1  0.9988873E-007  0.2225054E+04  0.7818608E-02  0.8508072E-01
          2   -1    0    0  501    0  0.00000000000E+00  0.00000000000E+00  0.15648749429E+04  0.15648749429E+04  0.00000000000E+00 0. -1.
         -2   -1    0    0    0  501 -0.00000000000E+00 -0.00000000000E+00 -0.79093590483E+03  0.79093590483E+03  0.00000000000E+00 0.  1.
         23    2    1    2    0    0 -0.45038820066E+03  0.51067360092E+03  0.13166340451E+04  0.14850899230E+04  0.91267807480E+02 0.  0.
         11    1    3    3    0    0 -0.10813423197E+03  0.89242166696E+02  0.21066579087E+03  0.25305582760E+03  0.00000000000E+00 0. -1.
        -11    1    3    3    0    0 -0.34225396869E+03  0.42143143423E+03  0.11059682543E+04  0.12320340954E+04  0.00000000000E+00 0.  1.
         22    1    1    2    0    0  0.45038820066E+03 -0.51067360092E+03 -0.54269500708E+03  0.87072092468E+03  0.00000000000E+00 0.  1.
<mgrwt>
<rscale>  0 0.22250535E+04</rscale>
<asrwt>0</asrwt>
<pdfrwt beam="1">  1        2 0.24074999E+00 0.22250535E+04</pdfrwt>
<pdfrwt beam="2">  1       -2 0.12168245E+00 0.22250535E+04</pdfrwt>
<totfact> 0.54602560E+00</totfact>
</mgrwt>
</event>
<event>
 6    1  0.9988873E-007  0.9266457E+03  0.7818608E-02  0.9392873E-01
          2   -1    0    0  501    0  0.00000000000E+00  0.00000000000E+00  0.24682951132E+04  0.24682951132E+04  0.00000000000E+00 0. -1.
         -2   -1    0    0    0  501 -0.00000000000E+00 -0.00000000000E+00 -0.86970168902E+02  0.86970168902E+02  0.00000000000E+00 0.  1.
         23    2    1    2    0    0 -0.30866574670E+03  0.84005887344E+02  0.21095202884E+04  0.21354923634E+04  0.88995813593E+02 0.  0.
         13    1    3    3    0    0 -0.12636652542E+03  0.49914279355E+02  0.11683521467E+04  0.11762256045E+04  0.00000000000E+00 0.  1.
        -13    1    3    3    0    0 -0.18229922127E+03  0.34091607989E+02  0.94116814168E+03  0.95926675890E+03  0.00000000000E+00 0. -1.
         22    1    1    2    0    0  0.30866574670E+03 -0.84005887344E+02  0.27180465596E+03  0.41977291872E+03  0.00000000000E+00 0.  1.
<mgrwt>
<rscale>  0 0.92664566E+03</rscale>
<asrwt>0</asrwt>
<pdfrwt beam="1">  1        2 0.37973766E+00 0.92664566E+03</pdfrwt>
<pdfrwt beam="2">  1       -2 0.13380028E-01 0.92664566E+03</pdfrwt>
<totfact> 0.15723198E+02</totfact>
</mgrwt>
</event>
<event>
 6    1  0.9988873E-007  0.7598743E+03  0.7818608E-02  0.9619985E-01
         -2   -1    0    0    0  501 -0.00000000000E+00  0.00000000000E+00  0.11393364128E+03  0.11393364128E+03  0.00000000000E+00 0.  1.
          2   -1    0    0  501    0  0.00000000000E+00 -0.00000000000E+00 -0.12669853454E+04  0.12669853454E+04  0.00000000000E+00 0. -1.
         23    2    1    2    0    0  0.11794914813E+03 -0.49116567654E+02 -0.12244879315E+04  0.12345373849E+04  0.91582865949E+02 0.  0.
         13    1    3    3    0    0  0.35201087635E+02 -0.57627279003E+02 -0.72840983719E+03  0.73153326019E+03  0.00000000000E+00 0.  1.
        -13    1    3    3    0    0  0.82748060498E+02  0.85107113487E+01 -0.49607809436E+03  0.50300412466E+03  0.00000000000E+00 0. -1.
         22    1    1    2    0    0 -0.11794914813E+03  0.49116567654E+02  0.71436227429E+02  0.14638160182E+03  0.00000000000E+00 0.  1.
<mgrwt>
<rscale>  0 0.75987434E+03</rscale>
<asrwt>0</asrwt>
<pdfrwt beam="1">  1        2 0.19492082E+00 0.75987434E+03</pdfrwt>
<pdfrwt beam="2">  1       -2 0.17528253E-01 0.75987434E+03</pdfrwt>
<totfact> 0.46788147E+02</totfact>
</mgrwt>
</event>
<event>
 6    1  0.9988873E-007  0.5885077E+03  0.7818608E-02  0.9929540E-01
          2   -1    0    0  501    0  0.00000000000E+00  0.00000000000E+00  0.32961622641E+03  0.32961622641E+03  0.00000000000E+00 0. -1.
         -2   -1    0    0    0  501 -0.00000000000E+00 -0.00000000000E+00 -0.26268528456E+03  0.26268528456E+03  0.00000000000E+00 0.  1.
         23    2    1    2    0    0 -0.27872233603E+03 -0.24354285500E+02 -0.30913659067E+02  0.29590171720E+03  0.91229929847E+02 0.  0.
         13    1    3    3    0    0 -0.19452744088E+03  0.66096809631E+01 -0.56394639659E+02  0.20264493214E+03  0.00000000000E+00 0. -1.
        -13    1    3    3    0    0 -0.84194895147E+02 -0.30963966463E+02  0.25480980591E+02  0.93256785060E+02  0.00000000000E+00 0.  1.
         22    1    1    2    0    0  0.27872233603E+03  0.24354285500E+02  0.97844600913E+02  0.29639979378E+03  0.00000000000E+00 0. -1.
<mgrwt>
<rscale>  0 0.58850771E+03</rscale>
<asrwt>0</asrwt>
<pdfrwt beam="1">  1        2 0.50710189E-01 0.58850771E+03</pdfrwt>
<pdfrwt beam="2">  1       -2 0.40413121E-01 0.58850771E+03</pdfrwt>
<totfact> 0.57705901E+02</totfact>
</mgrwt>
</event>
<event>
 6    1  0.9988873E-007  0.8379217E+03  0.7818608E-02  0.9506693E-01
         -1   -1    0    0    0  501 -0.00000000000E+00  0.00000000000E+00  0.72813824372E+02  0.72813824372E+02  0.00000000000E+00 0.  1.
          1   -1    0    0  501    0  0.00000000000E+00 -0.00000000000E+00 -0.24106436321E+04  0.24106436321E+04  0.00000000000E+00 0. -1.
         23    2    1    2    0    0  0.35055325988E+02  0.63327375462E+02 -0.23908435565E+04  0.23937373923E+04  0.92771542396E+02 0.  0.
         13    1    3    3    0    0  0.40010598638E+02  0.60345661804E+02 -0.90789772071E+03  0.91078027985E+03  0.00000000000E+00 0. -1.
        -13    1    3    3    0    0 -0.49552726498E+01  0.29817136586E+01 -0.14829458358E+04  0.14829571125E+04  0.00000000000E+00 0.  1.
         22    1    1    2    0    0 -0.35055325988E+02 -0.63327375462E+02  0.53013748773E+02  0.89720064211E+02  0.00000000000E+00 0.  1.
<mgrwt>
<rscale>  0 0.83792167E+03</rscale>
<asrwt>0</asrwt>
<pdfrwt beam="1">  1        1 0.37086819E+00 0.83792167E+03</pdfrwt>
<pdfrwt beam="2">  1       -1 0.11202129E-01 0.83792167E+03</pdfrwt>
<totfact> 0.84816636E+01</totfact>
</mgrwt>
</event>
<event>
 6    1  0.9988873E-007  0.2477414E+04  0.7818608E-02  0.8411076E-01
         -1   -1    0    0    0  501 -0.00000000000E+00  0.00000000000E+00  0.74119024982E+03  0.74119024982E+03  0.00000000000E+00 0.  1.
          1   -1    0    0  501    0  0.00000000000E+00 -0.00000000000E+00 -0.20701767120E+04  0.20701767120E+04  0.00000000000E+00 0. -1.
         23    2    1    2    0    0 -0.92166901436E+03 -0.32860426086E+03 -0.15243443422E+04  0.18135597492E+04  0.88987402203E+02 0.  0.
         13    1    3    3    0    0 -0.69903595337E+03 -0.23322353274E+03 -0.10793403369E+04  0.13069124084E+04  0.00000000000E+00 0.  1.
        -13    1    3    3    0    0 -0.22263306099E+03 -0.95380728121E+02 -0.44500400534E+03  0.50664734077E+03  0.00000000000E+00 0. -1.
         22    1    1    2    0    0  0.92166901436E+03  0.32860426086E+03  0.19535788008E+03  0.99780721264E+03  0.00000000000E+00 0.  1.
<mgrwt>
<rscale>  0 0.24774138E+04</rscale>
<asrwt>0</asrwt>
<pdfrwt beam="1">  1        1 0.31848873E+00 0.24774138E+04</pdfrwt>
<pdfrwt beam="2">  1       -1 0.11402927E+00 0.24774138E+04</pdfrwt>
<totfact> 0.16646822E+00</totfact>
</mgrwt>
</event>
<event>
 6    1  0.9988873E-007  0.2170480E+04  0.7818608E-02  0.8530816E-01
          1   -1    0    0  501    0  0.00000000000E+00  0.00000000000E+00  0.13706419261E+04  0.13706419261E+04  0.00000000000E+00 0. -1.
         -1   -1    0    0    0  501 -0.00000000000E+00 -0.00000000000E+00 -0.85926600862E+03  0.85926600862E+03  0.00000000000E+00 0.  1.
         23    2    1    2    0    0  0.81232195163E+03 -0.46051247940E+03 -0.30843989281E+03  0.98731521801E+03  0.87849163075E+02 0.  0.
         13    1    3    3    0    0  0.37239791326E+03 -0.24851031789E+03 -0.11654601097E+03  0.46262355817E+03  0.00000000000E+00 0. -1.
        -13    1    3    3    0    0  0.43992403837E+03 -0.21200216151E+03 -0.19189388184E+03  0.52469165984E+03  0.00000000000E+00 0.  1.
         22    1    1    2    0    0 -0.81232195163E+03  0.46051247940E+03  0.81981581024E+03  0.12425927167E+04  0.00000000000E+00 0. -1.
<mgrwt>
<rscale>  0 0.21704801E+04</rscale>
<asrwt>0</asrwt>
<pdfrwt beam="1">  1        1 0.21086799E+00 0.21704801E+04</pdfrwt>
<pdfrwt beam="2">  1       -1 0.13219477E+00 0.21704801E+04</pdfrwt>
<totfact> 0.35801033E+00</totfact>
</mgrwt>
</event>
<event>
 6    1  0.9988873E-007  0.2807652E+04  0.7818608E-02  0.8300897E-01
          1   -1    0    0  501    0  0.00000000000E+00  0.00000000000E+00  0.32787612818E+04  0.32787612818E+04  0.00000000000E+00 0. -1.
         -1   -1    0    0    0  501 -0.00000000000E+00 -0.00000000000E+00 -0.60105853651E+03  0.60105853651E+03  0.00000000000E+00 0.  1.
         23    2    1    2    0    0  0.67997173515E+03  0.16822689134E+03 -0.33822428353E+03  0.78361606360E+03  0.94850522355E+02 0.  0.
         13    1    3    3    0    0  0.56824106571E+03  0.12082585874E+03 -0.24462831770E+03  0.63034895948E+03  0.00000000000E+00 0. -1.
        -13    1    3    3    0    0  0.11173066944E+03  0.47401032593E+02 -0.93595965833E+02  0.15326710411E+03  0.00000000000E+00 0.  1.
         22    1    1    2    0    0 -0.67997173515E+03 -0.16822689134E+03  0.30159270289E+04  0.30962037548E+04  0.00000000000E+00 0. -1.
<mgrwt>
<rscale>  0 0.28076520E+04</rscale>
<asrwt>0</asrwt>
<pdfrwt beam="1">  1        1 0.50442480E+00 0.28076520E+04</pdfrwt>
<pdfrwt beam="2">  1       -1 0.92470547E-01 0.28076520E+04</pdfrwt>
<totfact> 0.36458515E-01</totfact>
</mgrwt>
</event>
<event>
 6    1  0.9988873E-007  0.2062393E+04  0.7818608E-02  0.8577993E-01
          2   -1    0    0  501    0  0.00000000000E+00  0.00000000000E+00  0.10205156787E+04  0.10205156787E+04  0.00000000000E+00 0. -1.
         -2   -1    0    0    0  501 -0.00000000000E+00 -0.00000000000E+00 -0.10419894408E+04  0.10419894408E+04  0.00000000000E+00 0.  1.
         23    2    1    2    0    0  0.55531154366E+03 -0.67642797446E+03 -0.55228615797E+03  0.10389390421E+04  0.91916363071E+02 0.  0.
         11    1    3    3    0    0  0.44906190359E+03 -0.52216855109E+03 -0.39227308591E+03  0.79258738504E+03  0.00000000000E+00 0.  1.
        -11    1    3    3    0    0  0.10624964007E+03 -0.15425942337E+03 -0.16001307206E+03  0.24635165708E+03  0.00000000000E+00 0. -1.
         22    1    1    2    0    0 -0.55531154366E+03  0.67642797446E+03  0.53081239590E+03  0.10235660774E+04  0.00000000000E+00 0. -1.
<mgrwt>
<rscale>  0 0.20623933E+04</rscale>
<asrwt>0</asrwt>
<pdfrwt beam="1">  1        2 0.15700241E+00 0.20623933E+04</pdfrwt>
<pdfrwt beam="2">  1       -2 0.16030607E+00 0.20623933E+04</pdfrwt>
<totfact> 0.56598072E+00</totfact>
</mgrwt>
</event>
<event>
 6    1  0.9988873E-007  0.2234188E+04  0.7818608E-02  0.8504332E-01
         -2   -1    0    0    0  501 -0.00000000000E+00  0.00000000000E+00  0.73080201926E+03  0.73080201926E+03  0.00000000000E+00 0.  1.
          2   -1    0    0  501    0  0.00000000000E+00 -0.00000000000E+00 -0.17075740774E+04  0.17075740774E+04  0.00000000000E+00 0. -1.
         23    2    1    2    0    0 -0.68939748428E+03  0.57562000268E+03 -0.12108653290E+04  0.15102559868E+04  0.89838867083E+02 0.  0.
         13    1    3    3    0    0 -0.51476941974E+03  0.47818074563E+03 -0.94710299192E+03  0.11792575878E+04  0.00000000000E+00 0. -1.
        -13    1    3    3    0    0 -0.17462806454E+03  0.97439257047E+02 -0.26376233706E+03  0.33099839907E+03  0.00000000000E+00 0.  1.
         22    1    1    2    0    0  0.68939748428E+03 -0.57562000268E+03  0.23409327083E+03  0.92812010983E+03  0.00000000000E+00 0.  1.
<mgrwt>
<rscale>  0 0.22341876E+04</rscale>
<asrwt>0</asrwt>
<pdfrwt beam="1">  1        2 0.26270370E+00 0.22341876E+04</pdfrwt>
<pdfrwt beam="2">  1       -2 0.11243108E+00 0.22341876E+04</pdfrwt>
<totfact> 0.55159939E+00</totfact>
</mgrwt>
</event>
<event>
 6    1  0.9988873E-007  0.6003797E+04  0.7818608E-02  0.7689931E-01
          2   -1    0    0  501    0  0.00000000000E+00  0.00000000000E+00  0.25570240155E+04  0.25570240155E+04  0.00000000000E+00 0. -1.
         -2   -1    0    0    0  501 -0.00000000000E+00 -0.00000000000E+00 -0.35241731260E+04  0.35241731260E+04  0.00000000000E+00 0.  1.
         23    2    1    2    0    0  0.20152339479E+04 -0.37417547994E+03 -0.27042774556E+04  0.33944165323E+04  0.88158283614E+02 0.  0.
         13    1    3    3    0    0  0.88982226213E+03 -0.12143456243E+03 -0.11966335973E+04  0.14961490492E+04  0.00000000000E+00 0.  1.
        -13    1    3    3    0    0  0.11254116857E+04 -0.25274091751E+03 -0.15076438583E+04  0.18982674831E+04  0.00000000000E+00 0. -1.
         22    1    1    2    0    0 -0.20152339479E+04  0.37417547994E+03  0.17371283452E+04  0.26867806092E+04  0.00000000000E+00 0. -1.
<mgrwt>
<rscale>  0 0.60037972E+04</rscale>
<asrwt>0</asrwt>
<pdfrwt beam="1">  1        2 0.39338831E+00 0.60037972E+04</pdfrwt>
<pdfrwt beam="2">  1       -2 0.54218048E+00 0.60037972E+04</pdfrwt>
<totfact> 0.20718285E-03</totfact>
</mgrwt>
</event>
<event>
 6    1  0.9988873E-007  0.7173623E+03  0.7818608E-02  0.9687993E-01
         -3   -1    0    0    0  501 -0.00000000000E+00  0.00000000000E+00  0.32393258736E+03  0.32393258736E+03  0.00000000000E+00 0.  1.
          3   -1    0    0  501    0  0.00000000000E+00 -0.00000000000E+00 -0.39715721962E+03  0.39715721962E+03  0.00000000000E+00 0. -1.
         23    2    1    2    0    0 -0.63806886136E+02  0.24738705774E+02  0.31034404557E+03  0.33146402125E+03  0.94189428717E+02 0.  0.
         11    1    3    3    0    0 -0.42356096806E+02 -0.33481999026E+02  0.13099108630E+03  0.14168185446E+03  0.00000000000E+00 0.  1.
        -11    1    3    3    0    0 -0.21450789330E+02  0.58220704800E+02  0.17935295927E+03  0.18978216679E+03  0.00000000000E+00 0. -1.
         22    1    1    2    0    0  0.63806886136E+02 -0.24738705774E+02 -0.38356867784E+03  0.38962578572E+03  0.00000000000E+00 0. -1.
<mgrwt>
<rscale>  0 0.71736230E+03</rscale>
<asrwt>0</asrwt>
<pdfrwt beam="1">  1        3 0.61101111E-01 0.71736230E+03</pdfrwt>
<pdfrwt beam="2">  1       -3 0.49835783E-01 0.71736230E+03</pdfrwt>
<totfact> 0.27512682E+01</totfact>
</mgrwt>
</event>
<event>
 6    1  0.9988873E-007  0.1901411E+04  0.7818608E-02  0.8654154E-01
         -2   -1    0    0    0  501 -0.00000000000E+00  0.00000000000E+00  0.56159171787E+03  0.56159171787E+03  0.00000000000E+00 0.  1.
          2   -1    0    0  501    0  0.00000000000E+00 -0.00000000000E+00 -0.16094276182E+04  0.16094276182E+04  0.00000000000E+00 0. -1.
         23    2    1    2    0    0  0.93484666461E+03 -0.12896772891E+03 -0.63460327339E+03  0.11408095684E+04  0.90300583360E+02 0.  0.
         13    1    3    3    0    0  0.66133607437E+03 -0.10553337968E+03 -0.49538959132E+03  0.83301473257E+03  0.00000000000E+00 0. -1.
        -13    1    3    3    0    0  0.27351059023E+03 -0.23434349231E+02 -0.13921368207E+03  0.30779483584E+03  0.00000000000E+00 0.  1.
         22    1    1    2    0    0 -0.93484666461E+03  0.12896772891E+03 -0.41323262696E+03  0.10302097677E+04  0.00000000000E+00 0. -1.
<mgrwt>
<rscale>  0 0.19014113E+04</rscale>
<asrwt>0</asrwt>
<pdfrwt beam="1">  1        2 0.24760425E+00 0.19014113E+04</pdfrwt>
<pdfrwt beam="2">  1       -2 0.86398725E-01 0.19014113E+04</pdfrwt>
<totfact> 0.11976329E+01</totfact>
</mgrwt>
</event>
<event>
 6    1  0.9988873E-007  0.1752642E+04  0.7818608E-02  0.8731897E-01
          1   -1    0    0  501    0  0.00000000000E+00  0.00000000000E+00  0.11272364850E+04  0.11272364850E+04  0.00000000000E+00 0. -1.
         -1   -1    0    0    0  501 -0.00000000000E+00 -0.00000000000E+00 -0.68125750490E+03  0.68125750490E+03  0.00000000000E+00 0.  1.
         23    2    1    2    0    0  0.61141252713E+03 -0.40746615568E+03 -0.26324350729E+03  0.78729347923E+03  0.10334375625E+03 0.  0.
         13    1    3    3    0    0  0.17945140359E+03 -0.66320386713E+02 -0.59224457370E+02  0.20027165624E+03  0.00000000000E+00 0. -1.
        -13    1    3    3    0    0  0.43196112354E+03 -0.34114576897E+03 -0.20401904992E+03  0.58702182299E+03  0.00000000000E+00 0.  1.
         22    1    1    2    0    0 -0.61141252713E+03  0.40746615568E+03  0.70922248737E+03  0.10212005106E+04  0.00000000000E+00 0. -1.
<mgrwt>
<rscale>  0 0.17526418E+04</rscale>
<asrwt>0</asrwt>
<pdfrwt beam="1">  1        1 0.17342100E+00 0.17526418E+04</pdfrwt>
<pdfrwt beam="2">  1       -1 0.10480885E+00 0.17526418E+04</pdfrwt>
<totfact> 0.97991004E+00</totfact>
</mgrwt>
</event>
<event>
 6    1  0.9988873E-007  0.1184061E+04  0.7818608E-02  0.9126923E-01
          3   -1    0    0  501    0  0.00000000000E+00  0.00000000000E+00  0.59780452617E+03  0.59780452617E+03  0.00000000000E+00 0. -1.
         -3   -1    0    0    0  501 -0.00000000000E+00 -0.00000000000E+00 -0.58631236943E+03  0.58631236943E+03  0.00000000000E+00 0.  1.
         23    2    1    2    0    0 -0.18979598746E+03  0.19187875508E+03  0.52884360673E+03  0.60059954683E+03  0.90577490392E+02 0.  0.
         13    1    3    3    0    0 -0.60178066032E+02  0.77621339041E+02  0.10973045071E+03  0.14726589462E+03  0.00000000000E+00 0.  1.
        -13    1    3    3    0    0 -0.12961792143E+03  0.11425741604E+03  0.41911315602E+03  0.45333365221E+03  0.00000000000E+00 0. -1.
         22    1    1    2    0    0  0.18979598746E+03 -0.19187875508E+03 -0.51735144999E+03  0.58351734877E+03  0.00000000000E+00 0.  1.
<mgrwt>
<rscale>  0 0.11840611E+04</rscale>
<asrwt>0</asrwt>
<pdfrwt beam="1">  1        3 0.91969927E-01 0.11840611E+04</pdfrwt>
<pdfrwt beam="2">  1       -3 0.90201903E-01 0.11840611E+04</pdfrwt>
<totfact> 0.30491386E+00</totfact>
</mgrwt>
</event>
<event>
 6    1  0.9988873E-007  0.1540502E+04  0.7818608E-02  0.8857957E-01
         -2   -1    0    0    0  501 -0.00000000000E+00  0.00000000000E+00  0.48726235388E+03  0.48726235388E+03  0.00000000000E+00 0.  1.
          2   -1    0    0  501    0  0.00000000000E+00 -0.00000000000E+00 -0.12175919785E+04  0.12175919785E+04  0.00000000000E+00 0. -1.
         23    2    1    2    0    0 -0.60655917126E+03  0.15873725000E+03 -0.85632839107E+03  0.10653332366E+04  0.92331191612E+02 0.  0.
         13    1    3    3    0    0 -0.15599419745E+03  0.68057649816E-01 -0.21752326467E+03  0.26767623156E+03  0.00000000000E+00 0.  1.
        -13    1    3    3    0    0 -0.45056497381E+03  0.15866919235E+03 -0.63880512639E+03  0.79765700507E+03  0.00000000000E+00 0. -1.
         22    1    1    2    0    0  0.60655917126E+03 -0.15873725000E+03  0.12599876645E+03  0.63952109576E+03  0.00000000000E+00 0.  1.
<mgrwt>
<rscale>  0 0.15405022E+04</rscale>
<asrwt>0</asrwt>
<pdfrwt beam="1">  1        2 0.18732184E+00 0.15405022E+04</pdfrwt>
<pdfrwt beam="2">  1       -2 0.74963440E-01 0.15405022E+04</pdfrwt>
<totfact> 0.28471221E+01</totfact>
</mgrwt>
</event>
<event>
 6    1  0.9988873E-007  0.3307494E+04  0.7818608E-02  0.8160991E-01
         -1   -1    0    0    0  501 -0.00000000000E+00  0.00000000000E+00  0.18070738434E+04  0.18070738434E+04  0.00000000000E+00 0.  1.
          1   -1    0    0  501    0  0.00000000000E+00 -0.00000000000E+00 -0.15134300365E+04  0.15134300365E+04  0.00000000000E+00 0. -1.
         23    2    1    2    0    0  0.47861097010E+02 -0.16449375319E+04  0.29803138051E+03  0.16748643631E+04  0.90762119890E+02 0.  0.
         13    1    3    3    0    0 -0.69161647518E+01 -0.28920307551E+03  0.84097411586E+02  0.30126172485E+03  0.00000000000E+00 0. -1.
        -13    1    3    3    0    0  0.54777261762E+02 -0.13557344564E+04  0.21393396892E+03  0.13736026383E+04  0.00000000000E+00 0.  1.
         22    1    1    2    0    0 -0.47861097010E+02  0.16449375319E+04 -0.43875735976E+01  0.16456395168E+04  0.00000000000E+00 0. -1.
<mgrwt>
<rscale>  0 0.33074944E+04</rscale>
<asrwt>0</asrwt>
<pdfrwt beam="1">  1        1 0.23283539E+00 0.33074944E+04</pdfrwt>
<pdfrwt beam="2">  1       -1 0.27801136E+00 0.33074944E+04</pdfrwt>
<totfact> 0.24336525E-01</totfact>
</mgrwt>
</event>
<event>
 6    1  0.9988873E-007  0.2663554E+04  0.7818608E-02  0.8346928E-01
         -2   -1    0    0    0  501 -0.00000000000E+00  0.00000000000E+00  0.66206021067E+03  0.66206021067E+03  0.00000000000E+00 0.  1.
          2   -1    0    0  501    0  0.00000000000E+00 -0.00000000000E+00 -0.26789552415E+04  0.26789552415E+04  0.00000000000E+00 0. -1.
         23    2    1    2    0    0  0.25691862608E+03 -0.95814858354E+03 -0.21211696596E+04  0.23435541312E+04  0.93964633441E+02 0.  0.
         13    1    3    3    0    0  0.18308756293E+03 -0.71157173174E+03 -0.14710877294E+04  0.16443705460E+04  0.00000000000E+00 0. -1.
        -13    1    3    3    0    0  0.73831063149E+02 -0.24657685181E+03 -0.65008193025E+03  0.69918358517E+03  0.00000000000E+00 0.  1.
         22    1    1    2    0    0 -0.25691862608E+03  0.95814858354E+03  0.10427462882E+03  0.99746132095E+03  0.00000000000E+00 0.  1.
<mgrwt>
<rscale>  0 0.26635538E+04</rscale>
<asrwt>0</asrwt>
<pdfrwt beam="1">  1        2 0.41214696E+00 0.26635538E+04</pdfrwt>
<pdfrwt beam="2">  1       -2 0.10185542E+00 0.26635538E+04</pdfrwt>
<totfact> 0.19009367E+00</totfact>
</mgrwt>
</event>
<event>
 6    1  0.9988873E-007  0.2054070E+04  0.7818608E-02  0.8581750E-01
          2   -1    0    0  501    0  0.00000000000E+00  0.00000000000E+00  0.11527854887E+04  0.11527854887E+04  0.00000000000E+00 0. -1.
         -2   -1    0    0    0  501 -0.00000000000E+00 -0.00000000000E+00 -0.91500206154E+03  0.91500206154E+03  0.00000000000E+00 0.  1.
         23    2    1    2    0    0  0.74323749346E+03  0.56453936072E+03 -0.30757106045E+03  0.98680735680E+03  0.89900727004E+02 0.  0.
         13    1    3    3    0    0  0.49904106314E+03  0.32539550854E+03 -0.20249580602E+03  0.62922871130E+03  0.00000000000E+00 0. -1.
        -13    1    3    3    0    0  0.24419643032E+03  0.23914385218E+03 -0.10507525443E+03  0.35757864549E+03  0.00000000000E+00 0.  1.
         22    1    1    2    0    0 -0.74323749346E+03 -0.56453936072E+03  0.54535448762E+03  0.10809801935E+04  0.00000000000E+00 0. -1.
<mgrwt>
<rscale>  0 0.20540702E+04</rscale>
<asrwt>0</asrwt>
<pdfrwt beam="1">  1        2 0.17735161E+00 0.20540702E+04</pdfrwt>
<pdfrwt beam="2">  1       -2 0.14076955E+00 0.20540702E+04</pdfrwt>
<totfact> 0.66240319E+00</totfact>
</mgrwt>
</event>
<event>
 6    1  0.9988873E-007  0.6761093E+03  0.7818608E-02  0.9758984E-01
          1   -1    0    0  501    0  0.00000000000E+00  0.00000000000E+00  0.38211807877E+03  0.38211807877E+03  0.00000000000E+00 0. -1.
         -1   -1    0    0    0  501 -0.00000000000E+00 -0.00000000000E+00 -0.29907234586E+03  0.29907234586E+03  0.00000000000E+00 0.  1.
         23    2    1    2    0    0  0.35617521399E+02 -0.19935814285E+03  0.30719819758E+03  0.37910334386E+03  0.91303536503E+02 0.  0.
         11    1    3    3    0    0  0.51642273356E+02 -0.65568034603E+02  0.84204177815E+02  0.11855983772E+03  0.00000000000E+00 0. -1.
        -11    1    3    3    0    0 -0.16024751956E+02 -0.13379010825E+03  0.22299401976E+03  0.26054350614E+03  0.00000000000E+00 0.  1.
         22    1    1    2    0    0 -0.35617521399E+02  0.19935814285E+03 -0.22415246467E+03  0.30208708077E+03  0.00000000000E+00 0.  1.
<mgrwt>
<rscale>  0 0.67610931E+03</rscale>
<asrwt>0</asrwt>
<pdfrwt beam="1">  1        1 0.58787397E-01 0.67610931E+03</pdfrwt>
<pdfrwt beam="2">  1       -1 0.46011130E-01 0.67610931E+03</pdfrwt>
<totfact> 0.30356484E+02</totfact>
</mgrwt>
</event>
<event>
 6    1  0.9988873E-007  0.1771630E+04  0.7818608E-02  0.8721533E-01
         -3   -1    0    0    0  501 -0.00000000000E+00  0.00000000000E+00  0.78421885139E+03  0.78421885139E+03  0.00000000000E+00 0.  1.
          3   -1    0    0  501    0  0.00000000000E+00 -0.00000000000E+00 -0.10005732302E+04  0.10005732302E+04  0.00000000000E+00 0. -1.
         23    2    1    2    0    0  0.36683177526E+03  0.21348723954E+03  0.67215587224E+03  0.80011303793E+03  0.90802004899E+02 0.  0.
         11    1    3    3    0    0  0.29669159123E+03  0.20311037953E+03  0.51946004304E+03  0.63175823136E+03  0.00000000000E+00 0.  1.
        -11    1    3    3    0    0  0.70140184037E+02  0.10376860009E+02  0.15269582921E+03  0.16835480658E+03  0.00000000000E+00 0. -1.
         22    1    1    2    0    0 -0.36683177526E+03 -0.21348723954E+03 -0.88851025108E+03  0.98467904368E+03  0.00000000000E+00 0. -1.
<mgrwt>
<rscale>  0 0.17716302E+04</rscale>
<asrwt>0</asrwt>
<pdfrwt beam="1">  1        3 0.15393434E+00 0.17716302E+04</pdfrwt>
<pdfrwt beam="2">  1       -3 0.12064905E+00 0.17716302E+04</pdfrwt>
<totfact> 0.41782863E-01</totfact>
</mgrwt>
</event>
<event>
 6    1  0.9988873E-007  0.2045518E+04  0.7818608E-02  0.8585630E-01
          1   -1    0    0  501    0  0.00000000000E+00  0.00000000000E+00  0.84009529194E+03  0.84009529194E+03  0.00000000000E+00 0. -1.
         -1   -1    0    0    0  501 -0.00000000000E+00 -0.00000000000E+00 -0.12451396269E+04  0.12451396269E+04  0.00000000000E+00 0.  1.
         23    2    1    2    0    0 -0.33661010734E+03  0.29308297864E+03  0.73278888605E+03  0.86299581148E+03  0.92618693456E+02 0.  0.
         13    1    3    3    0    0 -0.11784112348E+03  0.81392016189E+02  0.31532158884E+03  0.34632195292E+03  0.00000000000E+00 0. -1.
        -13    1    3    3    0    0 -0.21876898386E+03  0.21169096245E+03  0.41746729721E+03  0.51667385856E+03  0.00000000000E+00 0.  1.
         22    1    1    2    0    0  0.33661010734E+03 -0.29308297864E+03 -0.11378332210E+04  0.12222391074E+04  0.00000000000E+00 0.  1.
<mgrwt>
<rscale>  0 0.20455180E+04</rscale>
<asrwt>0</asrwt>
<pdfrwt beam="1">  1        1 0.12924543E+00 0.20455180E+04</pdfrwt>
<pdfrwt beam="2">  1       -1 0.19155994E+00 0.20455180E+04</pdfrwt>
<totfact> 0.32506535E+00</totfact>
</mgrwt>
</event>
<event>
 6    1  0.9988873E-007  0.4082858E+04  0.7818608E-02  0.7988037E-01
          2   -1    0    0  501    0  0.00000000000E+00  0.00000000000E+00  0.40967371619E+04  0.40967371619E+04  0.00000000000E+00 0. -1.
         -2   -1    0    0    0  501 -0.00000000000E+00 -0.00000000000E+00 -0.10172563070E+04  0.10172563070E+04  0.00000000000E+00 0.  1.
         23    2    1    2    0    0  0.14682526961E+04  0.10567517729E+04  0.35807051420E+03  0.18461861717E+04  0.87741658040E+02 0.  0.
         13    1    3    3    0    0  0.25656609802E+03  0.14816097107E+03  0.45163584613E+02  0.29969582142E+03  0.00000000000E+00 0.  1.
        -13    1    3    3    0    0  0.12116865981E+04  0.90859080179E+03  0.31290692959E+03  0.15464903503E+04  0.00000000000E+00 0. -1.
         22    1    1    2    0    0 -0.14682526961E+04 -0.10567517729E+04  0.27214103407E+04  0.32678072972E+04  0.00000000000E+00 0. -1.
<mgrwt>
<rscale>  0 0.40828577E+04</rscale>
<asrwt>0</asrwt>
<pdfrwt beam="1">  1        2 0.63026725E+00 0.40828577E+04</pdfrwt>
<pdfrwt beam="2">  1       -2 0.15650097E+00 0.40828577E+04</pdfrwt>
<totfact> 0.59434894E-02</totfact>
</mgrwt>
</event>
<event>
 6    1  0.9988873E-007  0.1292882E+04  0.7818608E-02  0.9035229E-01
         -1   -1    0    0    0  501 -0.00000000000E+00  0.00000000000E+00  0.32275772995E+03  0.32275772995E+03  0.00000000000E+00 0.  1.
          1   -1    0    0  501    0  0.00000000000E+00 -0.00000000000E+00 -0.12947365525E+04  0.12947365525E+04  0.00000000000E+00 0. -1.
         23    2    1    2    0    0 -0.54168576277E+03 -0.24101044422E+02 -0.92114560817E+03  0.10728950338E+04  0.92683311108E+02 0.  0.
         11    1    3    3    0    0 -0.14419445839E+03  0.33703323277E+02 -0.23182256456E+03  0.27508118306E+03  0.00000000000E+00 0. -1.
        -11    1    3    3    0    0 -0.39749130438E+03 -0.57804367699E+02 -0.68932304360E+03  0.79781385073E+03  0.00000000000E+00 0.  1.
         22    1    1    2    0    0  0.54168576277E+03  0.24101044422E+02 -0.50833214370E+02  0.54459924864E+03  0.00000000000E+00 0.  1.
<mgrwt>
<rscale>  0 0.12928824E+04</rscale>
<asrwt>0</asrwt>
<pdfrwt beam="1">  1        1 0.19919023E+00 0.12928824E+04</pdfrwt>
<pdfrwt beam="2">  1       -1 0.49655037E-01 0.12928824E+04</pdfrwt>
<totfact> 0.36473784E+01</totfact>
</mgrwt>
</event>
<event>
 6    1  0.9988873E-007  0.1774477E+04  0.7818608E-02  0.8719991E-01
          2   -1    0    0  501    0  0.00000000000E+00  0.00000000000E+00  0.53196611911E+03  0.53196611911E+03  0.00000000000E+00 0. -1.
         -2   -1    0    0    0  501 -0.00000000000E+00 -0.00000000000E+00 -0.14797785573E+04  0.14797785573E+04  0.00000000000E+00 0.  1.
         23    2    1    2    0    0  0.68350342585E+02 -0.11329658538E+03 -0.14669305898E+04  0.14760287620E+04  0.96268714527E+02 0.  0.
         13    1    3    3    0    0  0.29347104413E+02 -0.10254336622E+03 -0.70479258434E+03  0.71281763547E+03  0.00000000000E+00 0.  1.
        -13    1    3    3    0    0  0.39003238171E+02 -0.10753219163E+02 -0.76213800548E+03  0.76321112656E+03  0.00000000000E+00 0. -1.
         22    1    1    2    0    0 -0.68350342585E+02  0.11329658538E+03  0.51911815162E+03  0.53571591439E+03  0.00000000000E+00 0. -1.
<mgrwt>
<rscale>  0 0.17744769E+04</rscale>
<asrwt>0</asrwt>
<pdfrwt beam="1">  1        2 0.81840942E-01 0.17744769E+04</pdfrwt>
<pdfrwt beam="2">  1       -2 0.22765824E+00 0.17744769E+04</pdfrwt>
<totfact> 0.47882370E+00</totfact>
</mgrwt>
</event>
<event>
 6    1  0.9988873E-007  0.2233009E+04  0.7818608E-02  0.8504813E-01
         -2   -1    0    0    0  501 -0.00000000000E+00  0.00000000000E+00  0.88260992469E+03  0.88260992469E+03  0.00000000000E+00 0.  1.
          2   -1    0    0  501    0  0.00000000000E+00 -0.00000000000E+00 -0.14123823764E+04  0.14123823764E+04  0.00000000000E+00 0. -1.
         23    2    1    2    0    0  0.58893447426E+03  0.66900065064E+03  0.42261636893E+03  0.99059583099E+03  0.90938548179E+02 0.  0.
         11    1    3    3    0    0  0.18278560512E+03  0.27265097919E+03  0.16433958627E+03  0.36709213218E+03  0.00000000000E+00 0. -1.
        -11    1    3    3    0    0  0.40614886914E+03  0.39634967146E+03  0.25827678266E+03  0.62350369881E+03  0.00000000000E+00 0.  1.
         22    1    1    2    0    0 -0.58893447426E+03 -0.66900065064E+03 -0.95238882063E+03  0.13043964701E+04  0.00000000000E+00 0. -1.
<mgrwt>
<rscale>  0 0.22330094E+04</rscale>
<asrwt>0</asrwt>
<pdfrwt beam="1">  1        2 0.21728960E+00 0.22330094E+04</pdfrwt>
<pdfrwt beam="2">  1       -2 0.13578614E+00 0.22330094E+04</pdfrwt>
<totfact> 0.50451780E+00</totfact>
</mgrwt>
</event>
<event>
 6    1  0.9988873E-007  0.4487204E+04  0.7818608E-02  0.7912881E-01
         -2   -1    0    0    0  501 -0.00000000000E+00  0.00000000000E+00  0.11819349871E+04  0.11819349871E+04  0.00000000000E+00 0.  1.
          2   -1    0    0  501    0  0.00000000000E+00 -0.00000000000E+00 -0.42589055207E+04  0.42589055207E+04  0.00000000000E+00 0. -1.
         23    2    1    2    0    0  0.18111749227E+04  0.12642367964E+04 -0.10713508138E+04  0.24573593634E+04  0.11033221108E+03 0.  0.
         11    1    3    3    0    0  0.99062900087E+03  0.75812687124E+03 -0.60714588552E+03  0.13873457740E+04  0.00000000000E+00 0.  1.
        -11    1    3    3    0    0  0.82054592183E+03  0.50610992520E+03 -0.46420492827E+03  0.10700135895E+04  0.00000000000E+00 0. -1.
         22    1    1    2    0    0 -0.18111749227E+04 -0.12642367964E+04 -0.20056197198E+04  0.29834811443E+04  0.00000000000E+00 0. -1.
<mgrwt>
<rscale>  0 0.44872038E+04</rscale>
<asrwt>0</asrwt>
<pdfrwt beam="1">  1        2 0.65521624E+00 0.44872038E+04</pdfrwt>
<pdfrwt beam="2">  1       -2 0.18183615E+00 0.44872038E+04</pdfrwt>
<totfact> 0.27406056E-02</totfact>
</mgrwt>
</event>
<event>
 6    1  0.9988873E-007  0.5431743E+04  0.7818608E-02  0.7765152E-01
          2   -1    0    0  501    0  0.00000000000E+00  0.00000000000E+00  0.29651179625E+04  0.29651179625E+04  0.00000000000E+00 0. -1.
         -2   -1    0    0    0  501 -0.00000000000E+00 -0.00000000000E+00 -0.24875763061E+04  0.24875763061E+04  0.00000000000E+00 0.  1.
         23    2    1    2    0    0  0.64502579003E+03  0.26057182005E+04 -0.17013809255E+03  0.26912970376E+04  0.91143644594E+02 0.  0.
         11    1    3    3    0    0  0.18055327362E+03  0.82599285758E+03 -0.89079526086E+02  0.85017577438E+03  0.00000000000E+00 0.  1.
        -11    1    3    3    0    0  0.46447251641E+03  0.17797253429E+04 -0.81058566459E+02  0.18411212632E+04  0.00000000000E+00 0. -1.
         22    1    1    2    0    0 -0.64502579003E+03 -0.26057182005E+04  0.64767974891E+03  0.27613972310E+04  0.00000000000E+00 0. -1.
<mgrwt>
<rscale>  0 0.54317427E+04</rscale>
<asrwt>0</asrwt>
<pdfrwt beam="1">  1        2 0.45617200E+00 0.54317427E+04</pdfrwt>
<pdfrwt beam="2">  1       -2 0.38270405E+00 0.54317427E+04</pdfrwt>
<totfact> 0.12390550E-02</totfact>
</mgrwt>
</event>
<event>
 6    1  0.9988873E-007  0.2953389E+04  0.7818608E-02  0.8257167E-01
          4   -1    0    0  501    0  0.00000000000E+00  0.00000000000E+00  0.61722639351E+03  0.61722639351E+03  0.00000000000E+00 0. -1.
         -4   -1    0    0    0  501 -0.00000000000E+00 -0.00000000000E+00 -0.35329454272E+04  0.35329454272E+04  0.00000000000E+00 0.  1.
         23    2    1    2    0    0 -0.69666287539E+03 -0.41921901400E+03  0.27069450600E+03  0.86165924060E+03  0.89985485960E+02 0.  0.
         13    1    3    3    0    0 -0.26047212594E+03 -0.10695050434E+03  0.90713862210E+02  0.29582620500E+03  0.00000000000E+00 0.  1.
        -13    1    3    3    0    0 -0.43619074945E+03 -0.31226850966E+03  0.17998064379E+03  0.56583303559E+03  0.00000000000E+00 0. -1.
         22    1    1    2    0    0  0.69666287539E+03  0.41921901400E+03 -0.31864135397E+04  0.32885125801E+04  0.00000000000E+00 0.  1.
<mgrwt>
<rscale>  0 0.29533894E+04</rscale>
<asrwt>0</asrwt>
<pdfrwt beam="1">  1        4 0.94957906E-01 0.29533894E+04</pdfrwt>
<pdfrwt beam="2">  1       -4 0.54353007E+00 0.29533894E+04</pdfrwt>
<totfact> 0.83695390E-04</totfact>
</mgrwt>
</event>
<event>
 6    1  0.9988873E-007  0.2245038E+04  0.7818608E-02  0.8499913E-01
         -1   -1    0    0    0  501 -0.00000000000E+00  0.00000000000E+00  0.10702155985E+04  0.10702155985E+04  0.00000000000E+00 0.  1.
          1   -1    0    0  501    0  0.00000000000E+00 -0.00000000000E+00 -0.11773783360E+04  0.11773783360E+04  0.00000000000E+00 0. -1.
         23    2    1    2    0    0 -0.39793409576E+03  0.61178421181E+03  0.79778171242E+03  0.10850295605E+04  0.90565004757E+02 0.  0.
         11    1    3    3    0    0 -0.16655807763E+03  0.19196559453E+03  0.23988563121E+03  0.34948175742E+03  0.00000000000E+00 0. -1.
        -11    1    3    3    0    0 -0.23137601812E+03  0.41981861728E+03  0.55789608121E+03  0.73554780307E+03  0.00000000000E+00 0.  1.
         22    1    1    2    0    0  0.39793409576E+03 -0.61178421181E+03 -0.90494444993E+03  0.11625643741E+04  0.00000000000E+00 0. -1.
<mgrwt>
<rscale>  0 0.22450378E+04</rscale>
<asrwt>0</asrwt>
<pdfrwt beam="1">  1        1 0.18113513E+00 0.22450378E+04</pdfrwt>
<pdfrwt beam="2">  1       -1 0.16464855E+00 0.22450378E+04</pdfrwt>
<totfact> 0.27186600E+00</totfact>
</mgrwt>
</event>
<event>
 6    1  0.9988873E-007  0.9550328E+03  0.7818608E-02  0.9359287E-01
         -2   -1    0    0    0  501 -0.00000000000E+00  0.00000000000E+00  0.27800492680E+03  0.27800492680E+03  0.00000000000E+00 0.  1.
          2   -1    0    0  501    0  0.00000000000E+00 -0.00000000000E+00 -0.82020819978E+03  0.82020819978E+03  0.00000000000E+00 0. -1.
         23    2    1    2    0    0  0.15110445579E+03  0.40696878789E+03 -0.56760493831E+02  0.44697519564E+03  0.90049547367E+02 0.  0.
         13    1    3    3    0    0  0.11462735706E+03  0.27937384768E+03 -0.79663664389E+02  0.31230670370E+03  0.00000000000E+00 0. -1.
        -13    1    3    3    0    0  0.36477098735E+02  0.12759494021E+03  0.22903170558E+02  0.13466849194E+03  0.00000000000E+00 0.  1.
         22    1    1    2    0    0 -0.15110445579E+03 -0.40696878789E+03 -0.48544277915E+03  0.65123793095E+03  0.00000000000E+00 0. -1.
<mgrwt>
<rscale>  0 0.95503282E+03</rscale>
<asrwt>0</asrwt>
<pdfrwt beam="1">  1        2 0.12618587E+00 0.95503282E+03</pdfrwt>
<pdfrwt beam="2">  1       -2 0.42769990E-01 0.95503282E+03</pdfrwt>
<totfact> 0.17266157E+02</totfact>
</mgrwt>
</event>
<event>
 6    1  0.9988873E-007  0.1282667E+04  0.7818608E-02  0.9043425E-01
         -2   -1    0    0    0  501 -0.00000000000E+00  0.00000000000E+00  0.10636712853E+04  0.10636712853E+04  0.00000000000E+00 0.  1.
          2   -1    0    0  501    0  0.00000000000E+00 -0.00000000000E+00 -0.38668757449E+03  0.38668757449E+03  0.00000000000E+00 0. -1.
         23    2    1    2    0    0  0.82917475541E+01 -0.62713159795E+03  0.20705804915E+03  0.66665424600E+03  0.90509964955E+02 0.  0.
         11    1    3    3    0    0 -0.19743926906E+02 -0.36329904589E+03  0.15881270249E+03  0.39698550839E+03  0.00000000000E+00 0. -1.
        -11    1    3    3    0    0  0.28035674461E+02 -0.26383255206E+03  0.48245346660E+02  0.26966873761E+03  0.00000000000E+00 0.  1.
         22    1    1    2    0    0 -0.82917475541E+01  0.62713159795E+03  0.46992566171E+03  0.78370461384E+03  0.00000000000E+00 0.  1.
<mgrwt>
<rscale>  0 0.12826667E+04</rscale>
<asrwt>0</asrwt>
<pdfrwt beam="1">  1        2 0.59490396E-01 0.12826667E+04</pdfrwt>
<pdfrwt beam="2">  1       -2 0.16364174E+00 0.12826667E+04</pdfrwt>
<totfact> 0.19179218E+01</totfact>
</mgrwt>
</event>
<event>
 6    1  0.9988873E-007  0.2326037E+04  0.7818608E-02  0.8467725E-01
          2   -1    0    0  501    0  0.00000000000E+00  0.00000000000E+00  0.17519377090E+04  0.17519377090E+04  0.00000000000E+00 0. -1.
         -2   -1    0    0    0  501 -0.00000000000E+00 -0.00000000000E+00 -0.77206594933E+03  0.77206594933E+03  0.00000000000E+00 0.  1.
         23    2    1    2    0    0 -0.23236872283E+03 -0.60547899222E+03  0.15359419344E+04  0.16697120965E+04  0.90668770649E+02 0.  0.
         11    1    3    3    0    0 -0.13325835524E+03 -0.31291173292E+03  0.91536548109E+03  0.97650678739E+03  0.00000000000E+00 0.  1.
        -11    1    3    3    0    0 -0.99110367592E+02 -0.29256725929E+03  0.62057645334E+03  0.69320530914E+03  0.00000000000E+00 0. -1.
         22    1    1    2    0    0  0.23236872283E+03  0.60547899222E+03 -0.55607017474E+03  0.85429156182E+03  0.00000000000E+00 0.  1.
<mgrwt>
<rscale>  0 0.23260365E+04</rscale>
<asrwt>0</asrwt>
<pdfrwt beam="1">  1        2 0.26952888E+00 0.23260365E+04</pdfrwt>
<pdfrwt beam="2">  1       -2 0.11877938E+00 0.23260365E+04</pdfrwt>
<totfact> 0.45218391E+00</totfact>
</mgrwt>
</event>
<event>
 6    1  0.9988873E-007  0.1765180E+04  0.7818608E-02  0.8725039E-01
          1   -1    0    0  501    0  0.00000000000E+00  0.00000000000E+00  0.71381857331E+03  0.71381857331E+03  0.00000000000E+00 0. -1.
         -1   -1    0    0    0  501 -0.00000000000E+00 -0.00000000000E+00 -0.10912642760E+04  0.10912642760E+04  0.00000000000E+00 0.  1.
         23    2    1    2    0    0 -0.26592508183E+03  0.18051502845E+03  0.64865325357E+03  0.72982432566E+03  0.92685912153E+02 0.  0.
         13    1    3    3    0    0 -0.19235177547E+03  0.12030508034E+03  0.53835983188E+03  0.58421214167E+03  0.00000000000E+00 0.  1.
        -13    1    3    3    0    0 -0.73573306355E+02  0.60209948113E+02  0.11029342169E+03  0.14561218399E+03  0.00000000000E+00 0. -1.
         22    1    1    2    0    0  0.26592508183E+03 -0.18051502845E+03 -0.10260989563E+04  0.10752585236E+04  0.00000000000E+00 0. -1.
<mgrwt>
<rscale>  0 0.17651795E+04</rscale>
<asrwt>0</asrwt>
<pdfrwt beam="1">  1        1 0.10981824E+00 0.17651795E+04</pdfrwt>
<pdfrwt beam="2">  1       -1 0.16788681E+00 0.17651795E+04</pdfrwt>
<totfact> 0.63826392E+00</totfact>
</mgrwt>
</event>
<event>
 6    1  0.9988873E-007  0.2689421E+04  0.7818608E-02  0.8338446E-01
          2   -1    0    0  501    0  0.00000000000E+00  0.00000000000E+00  0.90515402287E+03  0.90515402287E+03  0.00000000000E+00 0. -1.
         -2   -1    0    0    0  501 -0.00000000000E+00 -0.00000000000E+00 -0.19977220133E+04  0.19977220133E+04  0.00000000000E+00 0.  1.
         23    2    1    2    0    0  0.66201723324E+03  0.77146431527E+03  0.40064059273E+03  0.10964719065E+04  0.91179769639E+02 0.  0.
         11    1    3    3    0    0  0.44028726755E+03  0.47729053793E+03  0.21543738773E+03  0.68415817147E+03  0.00000000000E+00 0.  1.
        -11    1    3    3    0    0  0.22172996568E+03  0.29417377734E+03  0.18520320500E+03  0.41231373504E+03  0.00000000000E+00 0. -1.
         22    1    1    2    0    0 -0.66201723324E+03 -0.77146431527E+03 -0.14932085831E+04  0.18064041296E+04  0.00000000000E+00 0.  1.
<mgrwt>
<rscale>  0 0.26894208E+04</rscale>
<asrwt>0</asrwt>
<pdfrwt beam="1">  1        2 0.13925446E+00 0.26894208E+04</pdfrwt>
<pdfrwt beam="2">  1       -2 0.30734185E+00 0.26894208E+04</pdfrwt>
<totfact> 0.73183950E-01</totfact>
</mgrwt>
</event>
<event>
 6    1  0.1151456E-006  0.3140796E+04  0.7818608E-02  0.8204630E-01
          2   -1    0    0  501    0  0.00000000000E+00  0.00000000000E+00  0.21777208417E+04  0.21777208417E+04  0.00000000000E+00 0. -1.
         -2   -1    0    0    0  501 -0.00000000000E+00 -0.00000000000E+00 -0.11324455731E+04  0.11324455731E+04  0.00000000000E+00 0.  1.
         23    2    1    2    0    0 -0.88270360533E+03  0.41900055107E+03  0.18170050409E+04  0.20650584043E+04  0.90729145456E+02 0.  0.
         11    1    3    3    0    0 -0.59545685784E+03  0.27867158592E+03  0.11305506826E+04  0.13078117480E+04  0.00000000000E+00 0. -1.
        -11    1    3    3    0    0 -0.28724674749E+03  0.14032896515E+03  0.68645435825E+03  0.75724665623E+03  0.00000000000E+00 0.  1.
         22    1    1    2    0    0  0.88270360533E+03 -0.41900055107E+03 -0.77172977226E+03  0.12451080106E+04  0.00000000000E+00 0.  1.
<mgrwt>
<rscale>  0 0.31407963E+04</rscale>
<asrwt>0</asrwt>
<pdfrwt beam="1">  1        2 0.33503397E+00 0.31407963E+04</pdfrwt>
<pdfrwt beam="2">  1       -2 0.17422240E+00 0.31407963E+04</pdfrwt>
<totfact> 0.89485594E-01</totfact>
</mgrwt>
</event>
<event>
 6    1  0.9988873E-007  0.3130606E+04  0.7818608E-02  0.8207388E-01
          1   -1    0    0  501    0  0.00000000000E+00  0.00000000000E+00  0.15339736932E+04  0.15339736932E+04  0.00000000000E+00 0. -1.
         -1   -1    0    0    0  501 -0.00000000000E+00 -0.00000000000E+00 -0.15972723981E+04  0.15972723981E+04  0.00000000000E+00 0.  1.
         23    2    1    2    0    0  0.56742509800E+03 -0.79272687223E+03 -0.12548291807E+04  0.15917227850E+04  0.92725484879E+02 0.  0.
         11    1    3    3    0    0  0.44100322408E+03 -0.67211286643E+03 -0.10076544594E+04  0.12890256236E+04  0.00000000000E+00 0. -1.
        -11    1    3    3    0    0  0.12642187392E+03 -0.12061400580E+03 -0.24717472136E+03  0.30269716134E+03  0.00000000000E+00 0.  1.
         22    1    1    2    0    0 -0.56742509800E+03  0.79272687223E+03  0.11915304759E+04  0.15395233063E+04  0.00000000000E+00 0. -1.
<mgrwt>
<rscale>  0 0.31306062E+04</rscale>
<asrwt>0</asrwt>
<pdfrwt beam="1">  1        1 0.23599595E+00 0.31306062E+04</pdfrwt>
<pdfrwt beam="2">  1       -1 0.24573422E+00 0.31306062E+04</pdfrwt>
<totfact> 0.38774056E-01</totfact>
</mgrwt>
</event>
<event>
 6    1  0.9988873E-007  0.1427216E+04  0.7818608E-02  0.8934350E-01
         -2   -1    0    0    0  501 -0.00000000000E+00  0.00000000000E+00  0.59258125013E+03  0.59258125013E+03  0.00000000000E+00 0.  1.
          2   -1    0    0  501    0  0.00000000000E+00 -0.00000000000E+00 -0.85935293033E+03  0.85935293033E+03  0.00000000000E+00 0. -1.
         23    2    1    2    0    0 -0.19009535715E+03  0.68263910344E+03 -0.81486632777E+02  0.71949787663E+03  0.94364891770E+02 0.  0.
         13    1    3    3    0    0 -0.90327416299E+02  0.45079019744E+03 -0.22543280673E+02  0.46030320849E+03  0.00000000000E+00 0.  1.
        -13    1    3    3    0    0 -0.99767940847E+02  0.23184890600E+03 -0.58943352104E+02  0.25919466814E+03  0.00000000000E+00 0. -1.
         22    1    1    2    0    0  0.19009535715E+03 -0.68263910344E+03 -0.18528504742E+03  0.73243630382E+03  0.00000000000E+00 0.  1.
<mgrwt>
<rscale>  0 0.14272161E+04</rscale>
<asrwt>0</asrwt>
<pdfrwt beam="1">  1        2 0.13220814E+00 0.14272161E+04</pdfrwt>
<pdfrwt beam="2">  1       -2 0.91166347E-01 0.14272161E+04</pdfrwt>
<totfact> 0.31164338E+01</totfact>
</mgrwt>
</event>
<event>
 6    1  0.9988873E-007  0.2194524E+04  0.7818608E-02  0.8520711E-01
         -1   -1    0    0    0  501 -0.00000000000E+00  0.00000000000E+00  0.67830408142E+03  0.67830408142E+03  0.00000000000E+00 0.  1.
          1   -1    0    0  501    0  0.00000000000E+00 -0.00000000000E+00 -0.17749921736E+04  0.17749921736E+04  0.00000000000E+00 0. -1.
         23    2    1    2    0    0  0.67246739027E+03 -0.21016071999E+03  0.38834050969E+03  0.80961445261E+03  0.91034560515E+02 0.  0.
         11    1    3    3    0    0  0.21003916663E+03 -0.30766694963E+02  0.14545149579E+03  0.25733087391E+03  0.00000000000E+00 0. -1.
        -11    1    3    3    0    0  0.46242822364E+03 -0.17939402503E+03  0.24288901390E+03  0.55228357870E+03  0.00000000000E+00 0.  1.
         22    1    1    2    0    0 -0.67246739027E+03  0.21016071999E+03 -0.14850286019E+04  0.16436818024E+04  0.00000000000E+00 0. -1.
<mgrwt>
<rscale>  0 0.21945245E+04</rscale>
<asrwt>0</asrwt>
<pdfrwt beam="1">  1        1 0.27307572E+00 0.21945245E+04</pdfrwt>
<pdfrwt beam="2">  1       -1 0.10435447E+00 0.21945245E+04</pdfrwt>
<totfact> 0.33373965E+00</totfact>
</mgrwt>
</event>
<event>
 6    1  0.9988873E-007  0.2343961E+04  0.7818608E-02  0.8460787E-01
          2   -1    0    0  501    0  0.00000000000E+00  0.00000000000E+00  0.29137639824E+04  0.29137639824E+04  0.00000000000E+00 0. -1.
         -2   -1    0    0    0  501 -0.00000000000E+00 -0.00000000000E+00 -0.47139636603E+03  0.47139636603E+03  0.00000000000E+00 0.  1.
         23    2    1    2    0    0 -0.11137074687E+04  0.11901158721E+03  0.73238334318E+03  0.13410091069E+04  0.86092855082E+02 0.  0.
         13    1    3    3    0    0 -0.62963152691E+03  0.10999838711E+03  0.41233537699E+03  0.76062866628E+03  0.00000000000E+00 0.  1.
        -13    1    3    3    0    0 -0.48407594178E+03  0.90132000995E+01  0.32004796618E+03  0.58038044061E+03  0.00000000000E+00 0. -1.
         22    1    1    2    0    0  0.11137074687E+04 -0.11901158721E+03  0.17099842732E+04  0.20441512415E+04  0.00000000000E+00 0. -1.
<mgrwt>
<rscale>  0 0.23439605E+04</rscale>
<asrwt>0</asrwt>
<pdfrwt beam="1">  1        2 0.44827137E+00 0.23439605E+04</pdfrwt>
<pdfrwt beam="2">  1       -2 0.72522520E-01 0.23439605E+04</pdfrwt>
<totfact> 0.30625495E+00</totfact>
</mgrwt>
</event>
<event>
 6    1  0.9988873E-007  0.1645946E+04  0.7818608E-02  0.8792809E-01
         -2   -1    0    0    0  501 -0.00000000000E+00  0.00000000000E+00  0.86516385404E+03  0.86516385404E+03  0.00000000000E+00 0.  1.
          2   -1    0    0  501    0  0.00000000000E+00 -0.00000000000E+00 -0.78283921850E+03  0.78283921850E+03  0.00000000000E+00 0. -1.
         23    2    1    2    0    0 -0.22525224808E+03  0.66995245606E+03 -0.37579759861E+03  0.80571401879E+03  0.91522545354E+02 0.  0.
         11    1    3    3    0    0 -0.23311810710E+03  0.63621455474E+03 -0.35087228525E+03  0.76303628490E+03  0.00000000000E+00 0.  1.
        -11    1    3    3    0    0  0.78658590239E+01  0.33737901320E+02 -0.24925313356E+02  0.42677733885E+02  0.00000000000E+00 0. -1.
         22    1    1    2    0    0  0.22525224808E+03 -0.66995245606E+03  0.45812223416E+03  0.84228905375E+03  0.00000000000E+00 0.  1.
<mgrwt>
<rscale>  0 0.16459456E+04</rscale>
<asrwt>0</asrwt>
<pdfrwt beam="1">  1        2 0.12043680E+00 0.16459456E+04</pdfrwt>
<pdfrwt beam="2">  1       -2 0.13310213E+00 0.16459456E+04</pdfrwt>
<totfact> 0.13853250E+01</totfact>
</mgrwt>
</event>
<event>
 6    1  0.9988873E-007  0.4009674E+04  0.7818608E-02  0.8002598E-01
         -1   -1    0    0    0  501 -0.00000000000E+00  0.00000000000E+00  0.14369392021E+04  0.14369392021E+04  0.00000000000E+00 0.  1.
          1   -1    0    0  501    0  0.00000000000E+00 -0.00000000000E+00 -0.27971758143E+04  0.27971758143E+04  0.00000000000E+00 0. -1.
         23    2    1    2    0    0  0.70261076608E+02 -0.20019640975E+04 -0.73270649054E+03  0.21349268590E+04  0.90868174125E+02 0.  0.
         11    1    3    3    0    0  0.74336547429E+02 -0.15796630464E+04 -0.54399213181E+03  0.16723602189E+04  0.00000000000E+00 0.  1.
        -11    1    3    3    0    0 -0.40754708213E+01 -0.42230105119E+03 -0.18871435872E+03  0.46256664005E+03  0.00000000000E+00 0. -1.
         22    1    1    2    0    0 -0.70261076608E+02  0.20019640975E+04 -0.62753012168E+03  0.20991881574E+04  0.00000000000E+00 0. -1.
<mgrwt>
<rscale>  0 0.40096741E+04</rscale>
<asrwt>0</asrwt>
<pdfrwt beam="1">  1        1 0.43033474E+00 0.40096741E+04</pdfrwt>
<pdfrwt beam="2">  1       -1 0.22106757E+00 0.40096741E+04</pdfrwt>
<totfact> 0.70864120E-02</totfact>
</mgrwt>
</event>
<event>
 6    1  0.1644679E-006  0.3540068E+04  0.7818608E-02  0.8104360E-01
         -1   -1    0    0    0  501 -0.00000000000E+00  0.00000000000E+00  0.15883337604E+04  0.15883337604E+04  0.00000000000E+00 0.  1.
          1   -1    0    0  501    0  0.00000000000E+00 -0.00000000000E+00 -0.19725196114E+04  0.19725196114E+04  0.00000000000E+00 0. -1.
         23    2    1    2    0    0  0.12068674617E+04 -0.61608111594E+03 -0.13359221864E+04  0.19049889258E+04  0.90607439092E+02 0.  0.
         11    1    3    3    0    0  0.52402887161E+03 -0.31150459234E+03 -0.56886804709E+03  0.83381786040E+03  0.00000000000E+00 0. -1.
        -11    1    3    3    0    0  0.68283859008E+03 -0.30457652360E+03 -0.76705413928E+03  0.10711710654E+04  0.00000000000E+00 0.  1.
         22    1    1    2    0    0 -0.12068674617E+04  0.61608111594E+03  0.95173633533E+03  0.16558644460E+04  0.00000000000E+00 0.  1.
<mgrwt>
<rscale>  0 0.35400675E+04</rscale>
<asrwt>0</asrwt>
<pdfrwt beam="1">  1        1 0.30346455E+00 0.35400675E+04</pdfrwt>
<pdfrwt beam="2">  1       -1 0.24435904E+00 0.35400675E+04</pdfrwt>
<totfact> 0.19200963E-01</totfact>
</mgrwt>
</event>
<event>
 6    1  0.9988873E-007  0.1350654E+04  0.7818608E-02  0.8990333E-01
         -2   -1    0    0    0  501 -0.00000000000E+00  0.00000000000E+00  0.52290203046E+03  0.52290203046E+03  0.00000000000E+00 0.  1.
          2   -1    0    0  501    0  0.00000000000E+00 -0.00000000000E+00 -0.87218354915E+03  0.87218354915E+03  0.00000000000E+00 0. -1.
         23    2    1    2    0    0  0.44833145489E+03  0.21285808595E+03 -0.64370556033E+03  0.81802823887E+03  0.92215470438E+02 0.  0.
         11    1    3    3    0    0  0.53234670370E+02  0.50796576877E+02 -0.60907025364E+02  0.95519045695E+02  0.00000000000E+00 0. -1.
        -11    1    3    3    0    0  0.39509678452E+03  0.16206150907E+03 -0.58279853497E+03  0.72250919318E+03  0.00000000000E+00 0.  1.
         22    1    1    2    0    0 -0.44833145489E+03 -0.21285808595E+03  0.29442404164E+03  0.57705734074E+03  0.00000000000E+00 0.  1.
<mgrwt>
<rscale>  0 0.13506540E+04</rscale>
<asrwt>0</asrwt>
<pdfrwt beam="1">  1        2 0.13418208E+00 0.13506540E+04</pdfrwt>
<pdfrwt beam="2">  1       -2 0.80446467E-01 0.13506540E+04</pdfrwt>
<totfact> 0.40858413E+01</totfact>
</mgrwt>
</event>
<event>
 6    1  0.9988873E-007  0.1054313E+04  0.7818608E-02  0.9250902E-01
         -1   -1    0    0    0  501 -0.00000000000E+00  0.00000000000E+00  0.53572122503E+03  0.53572122503E+03  0.00000000000E+00 0.  1.
          1   -1    0    0  501    0  0.00000000000E+00 -0.00000000000E+00 -0.51872874742E+03  0.51872874742E+03  0.00000000000E+00 0. -1.
         23    2    1    2    0    0 -0.48147577495E+03  0.61902904772E+02  0.20591493614E+03  0.53354442744E+03  0.81349884108E+02 0.  0.
         13    1    3    3    0    0 -0.19135886031E+03  0.57916875534E+02  0.10855323077E+03  0.22750028967E+03  0.00000000000E+00 0. -1.
        -13    1    3    3    0    0 -0.29011691464E+03  0.39860292374E+01  0.97361705368E+02  0.30604413776E+03  0.00000000000E+00 0.  1.
         22    1    1    2    0    0  0.48147577495E+03 -0.61902904772E+02 -0.18892245853E+03  0.52090554501E+03  0.00000000000E+00 0. -1.
<mgrwt>
<rscale>  0 0.10543130E+04</rscale>
<asrwt>0</asrwt>
<pdfrwt beam="1">  1        1 0.79804422E-01 0.10543130E+04</pdfrwt>
<pdfrwt beam="2">  1       -1 0.82418650E-01 0.10543130E+04</pdfrwt>
<totfact> 0.61632293E+01</totfact>
</mgrwt>
</event>
<event>
 6    1  0.9988873E-007  0.1863442E+04  0.7818608E-02  0.8673271E-01
          1   -1    0    0  501    0  0.00000000000E+00  0.00000000000E+00  0.45590835359E+04  0.45590835359E+04  0.00000000000E+00 0. -1.
         -1   -1    0    0    0  501 -0.00000000000E+00 -0.00000000000E+00 -0.19041188382E+03  0.19041188382E+03  0.00000000000E+00 0.  1.
         23    2    1    2    0    0 -0.45075621131E+03  0.81302577097E+03  0.22495411107E+04  0.24354283685E+04  0.81756118107E+02 0.  0.
         13    1    3    3    0    0 -0.36573983400E+02  0.57056917768E+02  0.11620026218E+03  0.13452006934E+03  0.00000000000E+00 0.  1.
        -13    1    3    3    0    0 -0.41418222791E+03  0.75596885320E+03  0.21333408485E+04  0.23009082991E+04  0.00000000000E+00 0. -1.
         22    1    1    2    0    0  0.45075621131E+03 -0.81302577097E+03  0.21191305413E+04  0.23140670512E+04  0.00000000000E+00 0. -1.
<mgrwt>
<rscale>  0 0.18634416E+04</rscale>
<asrwt>0</asrwt>
<pdfrwt beam="1">  1        1 0.70139739E+00 0.18634416E+04</pdfrwt>
<pdfrwt beam="2">  1       -1 0.29294139E-01 0.18634416E+04</pdfrwt>
<totfact> 0.28430159E-01</totfact>
</mgrwt>
</event>
<event>
 6    1  0.9988873E-007  0.1681162E+04  0.7818608E-02  0.8772182E-01
         -2   -1    0    0    0  501 -0.00000000000E+00  0.00000000000E+00  0.11063363294E+04  0.11063363294E+04  0.00000000000E+00 0.  1.
          2   -1    0    0  501    0  0.00000000000E+00 -0.00000000000E+00 -0.63866342936E+03  0.63866342936E+03  0.00000000000E+00 0. -1.
         23    2    1    2    0    0  0.29556397524E+03  0.59535191002E+03 -0.29541282059E+03  0.73302062001E+03  0.90821443297E+02 0.  0.
         11    1    3    3    0    0  0.10051970834E+03  0.15779244348E+03 -0.44856392753E+02  0.19239221127E+03  0.00000000000E+00 0.  1.
        -11    1    3    3    0    0  0.19504426689E+03  0.43755946654E+03 -0.25055642783E+03  0.54062840874E+03  0.00000000000E+00 0. -1.
         22    1    1    2    0    0 -0.29556397524E+03 -0.59535191002E+03  0.76308572060E+03  0.10119791387E+04  0.00000000000E+00 0.  1.
<mgrwt>
<rscale>  0 0.16811622E+04</rscale>
<asrwt>0</asrwt>
<pdfrwt beam="1">  1        2 0.98255912E-01 0.16811622E+04</pdfrwt>
<pdfrwt beam="2">  1       -2 0.17020559E+00 0.16811622E+04</pdfrwt>
<totfact> 0.92939029E+00</totfact>
</mgrwt>
</event>
<event>
 6    1  0.9988873E-007  0.1953215E+04  0.7818608E-02  0.8628812E-01
         -2   -1    0    0    0  501 -0.00000000000E+00  0.00000000000E+00  0.34011551164E+03  0.34011551164E+03  0.00000000000E+00 0.  1.
          2   -1    0    0  501    0  0.00000000000E+00 -0.00000000000E+00 -0.28042316320E+04  0.28042316320E+04  0.00000000000E+00 0. -1.
         23    2    1    2    0    0  0.63708059296E+03 -0.58180716842E+03 -0.19641989459E+04  0.21472070109E+04  0.89717250746E+02 0.  0.
         13    1    3    3    0    0  0.30559659662E+03 -0.27806300823E+03 -0.83014140980E+03  0.92727723831E+03  0.00000000000E+00 0.  1.
        -13    1    3    3    0    0  0.33148399633E+03 -0.30374416019E+03 -0.11340575361E+04  0.12199297726E+04  0.00000000000E+00 0. -1.
         22    1    1    2    0    0 -0.63708059296E+03  0.58180716842E+03 -0.49991717443E+03  0.99714013280E+03  0.00000000000E+00 0. -1.
<mgrwt>
<rscale>  0 0.19532155E+04</rscale>
<asrwt>0</asrwt>
<pdfrwt beam="1">  1        2 0.43142024E+00 0.19532155E+04</pdfrwt>
<pdfrwt beam="2">  1       -2 0.52325464E-01 0.19532155E+04</pdfrwt>
<totfact> 0.74029938E+00</totfact>
</mgrwt>
</event>
<event>
 6    1  0.9988873E-007  0.2586079E+04  0.7818608E-02  0.8372945E-01
          2   -1    0    0  501    0  0.00000000000E+00  0.00000000000E+00  0.17697876708E+04  0.17697876708E+04  0.00000000000E+00 0. -1.
         -2   -1    0    0    0  501 -0.00000000000E+00 -0.00000000000E+00 -0.94471832265E+03  0.94471832265E+03  0.00000000000E+00 0.  1.
         23    2    1    2    0    0 -0.22646828465E+03  0.96167439008E+03  0.12860890916E+04  0.16242561504E+04  0.89874212022E+02 0.  0.
         13    1    3    3    0    0 -0.12823898483E+03  0.38059540651E+03  0.55935268396E+03  0.68860258912E+03  0.00000000000E+00 0.  1.
        -13    1    3    3    0    0 -0.98229299815E+02  0.58107898357E+03  0.72673640765E+03  0.93565356125E+03  0.00000000000E+00 0. -1.
         22    1    1    2    0    0  0.22646828465E+03 -0.96167439008E+03 -0.46101974345E+03  0.10902498431E+04  0.00000000000E+00 0.  1.
<mgrwt>
<rscale>  0 0.25860788E+04</rscale>
<asrwt>0</asrwt>
<pdfrwt beam="1">  1        2 0.27227503E+00 0.25860788E+04</pdfrwt>
<pdfrwt beam="2">  1       -2 0.14534128E+00 0.25860788E+04</pdfrwt>
<totfact> 0.25868952E+00</totfact>
</mgrwt>
</event>
<event>
 6    1  0.9988873E-007  0.4146190E+04  0.7818608E-02  0.7975688E-01
          2   -1    0    0  501    0  0.00000000000E+00  0.00000000000E+00  0.39997623289E+04  0.39997623289E+04  0.00000000000E+00 0. -1.
         -2   -1    0    0    0  501 -0.00000000000E+00 -0.00000000000E+00 -0.10744943215E+04  0.10744943215E+04  0.00000000000E+00 0.  1.
         23    2    1    2    0    0 -0.17050457944E+04 -0.17077855227E+03  0.37554209505E+02  0.17163946143E+04  0.90849758744E+02 0.  0.
         11    1    3    3    0    0 -0.12527903483E+04 -0.14084190369E+03  0.64661302522E+02  0.12623395671E+04  0.00000000000E+00 0.  1.
        -11    1    3    3    0    0 -0.45225544611E+03 -0.29936648574E+02 -0.27107093017E+02  0.45405504728E+03  0.00000000000E+00 0. -1.
         22    1    1    2    0    0  0.17050457944E+04  0.17077855227E+03  0.28877137979E+04  0.33578620361E+04  0.00000000000E+00 0. -1.
<mgrwt>
<rscale>  0 0.41461895E+04</rscale>
<asrwt>0</asrwt>
<pdfrwt beam="1">  1        2 0.61534804E+00 0.41461895E+04</pdfrwt>
<pdfrwt beam="2">  1       -2 0.16530682E+00 0.41461895E+04</pdfrwt>
<totfact> 0.61228871E-02</totfact>
</mgrwt>
</event>
<event>
 6    1  0.9988873E-007  0.1502242E+04  0.7818608E-02  0.8882963E-01
          2   -1    0    0  501    0  0.00000000000E+00  0.00000000000E+00  0.80218704862E+03  0.80218704862E+03  0.00000000000E+00 0. -1.
         -2   -1    0    0    0  501 -0.00000000000E+00 -0.00000000000E+00 -0.70330600705E+03  0.70330600705E+03  0.00000000000E+00 0.  1.
         23    2    1    2    0    0  0.46298060129E+03 -0.32165846825E+03  0.54290565771E+03  0.78787681623E+03  0.90488214747E+02 0.  0.
         13    1    3    3    0    0  0.16875884770E+03 -0.13472304534E+03  0.26649988270E+03  0.34300442432E+03  0.00000000000E+00 0. -1.
        -13    1    3    3    0    0  0.29422175359E+03 -0.18693542292E+03  0.27640577501E+03  0.44487239191E+03  0.00000000000E+00 0.  1.
         22    1    1    2    0    0 -0.46298060129E+03  0.32165846825E+03 -0.44402461614E+03  0.71761623944E+03  0.00000000000E+00 0.  1.
<mgrwt>
<rscale>  0 0.15022423E+04</rscale>
<asrwt>0</asrwt>
<pdfrwt beam="1">  1        2 0.12341339E+00 0.15022423E+04</pdfrwt>
<pdfrwt beam="2">  1       -2 0.10820092E+00 0.15022423E+04</pdfrwt>
<totfact> 0.22673167E+01</totfact>
</mgrwt>
</event>
<event>
 6    1  0.9988873E-007  0.1218014E+04  0.7818608E-02  0.9097234E-01
          1   -1    0    0  501    0  0.00000000000E+00  0.00000000000E+00  0.44087195983E+03  0.44087195983E+03  0.00000000000E+00 0. -1.
         -1   -1    0    0    0  501 -0.00000000000E+00 -0.00000000000E+00 -0.84126323967E+03  0.84126323967E+03  0.00000000000E+00 0.  1.
         23    2    1    2    0    0  0.53012373642E+03  0.10448950168E+03  0.86375442150E+02  0.55488622321E+03  0.92134531118E+02 0.  0.
         11    1    3    3    0    0  0.16406343010E+03  0.74762373742E+02  0.40278880751E+02  0.18473930242E+03  0.00000000000E+00 0.  1.
        -11    1    3    3    0    0  0.36606030631E+03  0.29727127938E+02  0.46096561399E+02  0.37014692079E+03  0.00000000000E+00 0. -1.
         22    1    1    2    0    0 -0.53012373642E+03 -0.10448950168E+03 -0.48676672199E+03  0.72724897629E+03  0.00000000000E+00 0.  1.
<mgrwt>
<rscale>  0 0.12180137E+04</rscale>
<asrwt>0</asrwt>
<pdfrwt beam="1">  1        1 0.67826456E-01 0.12180137E+04</pdfrwt>
<pdfrwt beam="2">  1       -1 0.12942511E+00 0.12180137E+04</pdfrwt>
<totfact> 0.26695531E+01</totfact>
</mgrwt>
</event>
<event>
 6    1  0.9988873E-007  0.1800527E+04  0.7818608E-02  0.8706019E-01
          2   -1    0    0  501    0  0.00000000000E+00  0.00000000000E+00  0.16195524162E+04  0.16195524162E+04  0.00000000000E+00 0. -1.
         -2   -1    0    0    0  501 -0.00000000000E+00 -0.00000000000E+00 -0.50043109793E+03  0.50043109793E+03  0.00000000000E+00 0.  1.
         23    2    1    2    0    0  0.73457759428E+03 -0.41759268534E+03  0.20391743138E+03  0.87435674522E+03  0.94496064530E+02 0.  0.
         13    1    3    3    0    0  0.43376772923E+03 -0.19625761998E+03  0.96895405595E+02  0.48586028439E+03  0.00000000000E+00 0. -1.
        -13    1    3    3    0    0  0.30080986505E+03 -0.22133506536E+03  0.10702202579E+03  0.38849646083E+03  0.00000000000E+00 0.  1.
         22    1    1    2    0    0 -0.73457759428E+03  0.41759268534E+03  0.91520388694E+03  0.12456267690E+04  0.00000000000E+00 0. -1.
<mgrwt>
<rscale>  0 0.18005270E+04</rscale>
<asrwt>0</asrwt>
<pdfrwt beam="1">  1        2 0.24916191E+00 0.18005270E+04</pdfrwt>
<pdfrwt beam="2">  1       -2 0.76989401E-01 0.18005270E+04</pdfrwt>
<totfact> 0.15463614E+01</totfact>
</mgrwt>
</event>
<event>
 6    1  0.9988873E-007  0.3938956E+04  0.7818608E-02  0.8016976E-01
          2   -1    0    0  501    0  0.00000000000E+00  0.00000000000E+00  0.17125094444E+04  0.17125094444E+04  0.00000000000E+00 0. -1.
         -2   -1    0    0    0  501 -0.00000000000E+00 -0.00000000000E+00 -0.22650052244E+04  0.22650052244E+04  0.00000000000E+00 0.  1.
         23    2    1    2    0    0  0.13362911935E+04  0.24488028664E+03  0.11620487987E+04  0.17899809843E+04  0.89632612469E+02 0.  0.
         13    1    3    3    0    0  0.29455075251E+03  0.85272434534E+02  0.23433827570E+03  0.38593517766E+03  0.00000000000E+00 0. -1.
        -13    1    3    3    0    0  0.10417404410E+04  0.15960785211E+03  0.92771052297E+03  0.14040458067E+04  0.00000000000E+00 0.  1.
         22    1    1    2    0    0 -0.13362911935E+04 -0.24488028664E+03 -0.17145445786E+04  0.21875336845E+04  0.00000000000E+00 0.  1.
<mgrwt>
<rscale>  0 0.39389556E+04</rscale>
<asrwt>0</asrwt>
<pdfrwt beam="1">  1        2 0.26346299E+00 0.39389556E+04</pdfrwt>
<pdfrwt beam="2">  1       -2 0.34846234E+00 0.39389556E+04</pdfrwt>
<totfact> 0.12168939E-01</totfact>
</mgrwt>
</event>
<event>
 6    1  0.9988873E-007  0.3031454E+04  0.7818608E-02  0.8234806E-01
          2   -1    0    0  501    0  0.00000000000E+00  0.00000000000E+00  0.27445685124E+04  0.27445685124E+04  0.00000000000E+00 0. -1.
         -2   -1    0    0    0  501 -0.00000000000E+00 -0.00000000000E+00 -0.83708182049E+03  0.83708182049E+03  0.00000000000E+00 0.  1.
         23    2    1    2    0    0 -0.72556363831E+03  0.11729762741E+04  0.21589997092E+03  0.13990414427E+04  0.91587271346E+02 0.  0.
         13    1    3    3    0    0 -0.40691948991E+03  0.58802694120E+03  0.13940784400E+03  0.72855590164E+03  0.00000000000E+00 0. -1.
        -13    1    3    3    0    0 -0.31864414840E+03  0.58494933288E+03  0.76492126928E+02  0.67048554110E+03  0.00000000000E+00 0.  1.
         22    1    1    2    0    0  0.72556363831E+03 -0.11729762741E+04  0.16915867210E+04  0.21826088902E+04  0.00000000000E+00 0. -1.
<mgrwt>
<rscale>  0 0.30314540E+04</rscale>
<asrwt>0</asrwt>
<pdfrwt beam="1">  1        2 0.42224131E+00 0.30314540E+04</pdfrwt>
<pdfrwt beam="2">  1       -2 0.12878182E+00 0.30314540E+04</pdfrwt>
<totfact> 0.94800907E-01</totfact>
</mgrwt>
</event>
<event>
 6    1  0.9988873E-007  0.2488734E+04  0.7818608E-02  0.8407010E-01
          1   -1    0    0  501    0  0.00000000000E+00  0.00000000000E+00  0.82547730068E+03  0.82547730068E+03  0.00000000000E+00 0. -1.
         -1   -1    0    0    0  501 -0.00000000000E+00 -0.00000000000E+00 -0.18758230581E+04  0.18758230581E+04  0.00000000000E+00 0.  1.
         23    2    1    2    0    0 -0.12415500443E+04  0.52676863983E+02 -0.51627865409E+03  0.13487290907E+04  0.91132579688E+02 0.  0.
         13    1    3    3    0    0 -0.26809323307E+03 -0.25152017689E+02 -0.10243990687E+03  0.28809814322E+03  0.00000000000E+00 0. -1.
        -13    1    3    3    0    0 -0.97345681119E+03  0.77828881672E+02 -0.41383874722E+03  0.10606309475E+04  0.00000000000E+00 0.  1.
         22    1    1    2    0    0  0.12415500443E+04 -0.52676863983E+02 -0.53406710337E+03  0.13525712681E+04  0.00000000000E+00 0. -1.
<mgrwt>
<rscale>  0 0.24887341E+04</rscale>
<asrwt>0</asrwt>
<pdfrwt beam="1">  1        1 0.12699651E+00 0.24887341E+04</pdfrwt>
<pdfrwt beam="2">  1       -1 0.28858816E+00 0.24887341E+04</pdfrwt>
<totfact> 0.73178079E-01</totfact>
</mgrwt>
</event>
<event>
 6    1  0.9988873E-007  0.1627930E+04  0.7818608E-02  0.8803571E-01
         -4   -1    0    0    0  501 -0.00000000000E+00  0.00000000000E+00  0.77287101484E+03  0.77287101484E+03  0.00000000000E+00 0.  1.
          4   -1    0    0  501    0  0.00000000000E+00 -0.00000000000E+00 -0.85724363113E+03  0.85724363113E+03  0.00000000000E+00 0. -1.
         23    2    1    2    0    0 -0.41122679765E+03  0.17753147337E+03  0.63508030971E+03  0.78262575762E+03  0.92472555743E+02 0.  0.
         13    1    3    3    0    0 -0.26057925992E+03  0.14617310706E+03  0.36401787872E+03  0.47093220739E+03  0.00000000000E+00 0.  1.
        -13    1    3    3    0    0 -0.15064753773E+03  0.31358366311E+02  0.27106243099E+03  0.31169355023E+03  0.00000000000E+00 0. -1.
         22    1    1    2    0    0  0.41122679765E+03 -0.17753147337E+03 -0.71945292600E+03  0.84748888835E+03  0.00000000000E+00 0. -1.
<mgrwt>
<rscale>  0 0.16279297E+04</rscale>
<asrwt>0</asrwt>
<pdfrwt beam="1">  1        4 0.13188364E+00 0.16279297E+04</pdfrwt>
<pdfrwt beam="2">  1       -4 0.11890323E+00 0.16279297E+04</pdfrwt>
<totfact> 0.43238443E-01</totfact>
</mgrwt>
</event>
<event>
 6    1  0.9988873E-007  0.1579458E+04  0.7818608E-02  0.8833268E-01
         -2   -1    0    0    0  501 -0.00000000000E+00  0.00000000000E+00  0.10189171108E+04  0.10189171108E+04  0.00000000000E+00 0.  1.
          2   -1    0    0  501    0  0.00000000000E+00 -0.00000000000E+00 -0.61209321503E+03  0.61209321503E+03  0.00000000000E+00 0. -1.
         23    2    1    2    0    0 -0.29273607856E+03 -0.65671238242E+03 -0.12659308001E+03  0.73574542932E+03  0.91268636137E+02 0.  0.
         11    1    3    3    0    0 -0.72309886322E+02 -0.98090172201E+02 -0.43958728318E+02  0.12954833591E+03  0.00000000000E+00 0.  1.
        -11    1    3    3    0    0 -0.22042619224E+03 -0.55862221022E+03 -0.82634351689E+02  0.60619709340E+03  0.00000000000E+00 0. -1.
         22    1    1    2    0    0  0.29273607856E+03  0.65671238242E+03  0.53341697581E+03  0.89526489655E+03  0.00000000000E+00 0.  1.
<mgrwt>
<rscale>  0 0.15794585E+04</rscale>
<asrwt>0</asrwt>
<pdfrwt beam="1">  1        2 0.94168187E-01 0.15794585E+04</pdfrwt>
<pdfrwt beam="2">  1       -2 0.15675648E+00 0.15794585E+04</pdfrwt>
<totfact> 0.12371254E+01</totfact>
</mgrwt>
</event>
<event>
 6    1  0.9988873E-007  0.2147533E+04  0.7818608E-02  0.8540589E-01
          1   -1    0    0  501    0  0.00000000000E+00  0.00000000000E+00  0.11293093831E+04  0.11293093831E+04  0.00000000000E+00 0. -1.
         -1   -1    0    0    0  501 -0.00000000000E+00 -0.00000000000E+00 -0.10209553603E+04  0.10209553603E+04  0.00000000000E+00 0.  1.
         23    2    1    2    0    0 -0.15503844407E+03 -0.95151009571E+03 -0.41460668451E+03  0.10534984589E+04  0.92476584275E+02 0.  0.
         11    1    3    3    0    0 -0.75463301284E+02 -0.71068391117E+03 -0.31469766166E+03  0.78089752829E+03  0.00000000000E+00 0. -1.
        -11    1    3    3    0    0 -0.79575142789E+02 -0.24082618454E+03 -0.99909022846E+02  0.27260093059E+03  0.00000000000E+00 0.  1.
         22    1    1    2    0    0  0.15503844407E+03  0.95151009571E+03  0.52296070730E+03  0.10967662845E+04  0.00000000000E+00 0. -1.
<mgrwt>
<rscale>  0 0.21475330E+04</rscale>
<asrwt>0</asrwt>
<pdfrwt beam="1">  1        1 0.17373990E+00 0.21475330E+04</pdfrwt>
<pdfrwt beam="2">  1       -1 0.15707006E+00 0.21475330E+04</pdfrwt>
<totfact> 0.33964088E+00</totfact>
</mgrwt>
</event>
<event>
 6    1  0.9988873E-007  0.1200861E+04  0.7818608E-02  0.9112103E-01
          2   -1    0    0  501    0  0.00000000000E+00  0.00000000000E+00  0.10689672434E+04  0.10689672434E+04  0.00000000000E+00 0. -1.
         -2   -1    0    0    0  501 -0.00000000000E+00 -0.00000000000E+00 -0.33725707664E+03  0.33725707664E+03  0.00000000000E+00 0.  1.
         23    2    1    2    0    0  0.15500129085E+03 -0.44811630127E+03  0.79269529237E+03  0.92815235354E+03  0.90924942760E+02 0.  0.
         13    1    3    3    0    0  0.12173494959E+03 -0.28295295991E+03  0.43789823960E+03  0.53538457554E+03  0.00000000000E+00 0.  1.
        -13    1    3    3    0    0  0.33266341257E+02 -0.16516334136E+03  0.35479705276E+03  0.39276777800E+03  0.00000000000E+00 0. -1.
         22    1    1    2    0    0 -0.15500129085E+03  0.44811630127E+03 -0.60985125595E+02  0.47807196652E+03  0.00000000000E+00 0.  1.
<mgrwt>
<rscale>  0 0.12008610E+04</rscale>
<asrwt>0</asrwt>
<pdfrwt beam="1">  1        2 0.16445650E+00 0.12008610E+04</pdfrwt>
<pdfrwt beam="2">  1       -2 0.51885704E-01 0.12008610E+04</pdfrwt>
<totfact> 0.78812418E+01</totfact>
</mgrwt>
</event>
<event>
 6    1  0.9988873E-007  0.1682433E+04  0.7818608E-02  0.8771447E-01
          1   -1    0    0  501    0  0.00000000000E+00  0.00000000000E+00  0.14614391906E+04  0.14614391906E+04  0.00000000000E+00 0. -1.
         -1   -1    0    0    0  501 -0.00000000000E+00 -0.00000000000E+00 -0.48421120715E+03  0.48421120715E+03  0.00000000000E+00 0.  1.
         23    2    1    2    0    0  0.10631757680E+02  0.53232427611E+03  0.12396407753E+04  0.13520658272E+04  0.88828936706E+02 0.  0.
         13    1    3    3    0    0 -0.16810750487E+02  0.22327320464E+03  0.61770818541E+03  0.65703647355E+03  0.00000000000E+00 0. -1.
        -13    1    3    3    0    0  0.27442508167E+02  0.30905107147E+03  0.62193258987E+03  0.69502935361E+03  0.00000000000E+00 0.  1.
         22    1    1    2    0    0 -0.10631757680E+02 -0.53232427611E+03 -0.26241279179E+03  0.59358457064E+03  0.00000000000E+00 0.  1.
<mgrwt>
<rscale>  0 0.16824330E+04</rscale>
<asrwt>0</asrwt>
<pdfrwt beam="1">  1        1 0.22483680E+00 0.16824330E+04</pdfrwt>
<pdfrwt beam="2">  1       -1 0.74494033E-01 0.16824330E+04</pdfrwt>
<totfact> 0.12025149E+01</totfact>
</mgrwt>
</event>
<event>
 6    1  0.9988873E-007  0.2729656E+04  0.7818608E-02  0.8325446E-01
          2   -1    0    0  501    0  0.00000000000E+00  0.00000000000E+00  0.25662710623E+04  0.25662710623E+04  0.00000000000E+00 0. -1.
         -2   -1    0    0    0  501 -0.00000000000E+00 -0.00000000000E+00 -0.72586102002E+03  0.72586102002E+03  0.00000000000E+00 0.  1.
         23    2    1    2    0    0  0.92926483517E+03 -0.57824837394E+03 -0.59176132879E+02  0.10997972647E+04  0.90265679242E+02 0.  0.
         11    1    3    3    0    0  0.14330489518E+03 -0.52589863419E+02 -0.10010776115E+02  0.15297778386E+03  0.00000000000E+00 0. -1.
        -11    1    3    3    0    0  0.78595993999E+03 -0.52565851052E+03 -0.49165356764E+02  0.94681948082E+03  0.00000000000E+00 0.  1.
         22    1    1    2    0    0 -0.92926483517E+03  0.57824837394E+03  0.18995861752E+04  0.21923348177E+04  0.00000000000E+00 0. -1.
<mgrwt>
<rscale>  0 0.27296565E+04</rscale>
<asrwt>0</asrwt>
<pdfrwt beam="1">  1        2 0.39481093E+00 0.27296565E+04</pdfrwt>
<pdfrwt beam="2">  1       -2 0.11167093E+00 0.27296565E+04</pdfrwt>
<totfact> 0.17651232E+00</totfact>
</mgrwt>
</event>
<event>
 6    1  0.9988873E-007  0.2746942E+04  0.7818608E-02  0.8319933E-01
         -2   -1    0    0    0  501 -0.00000000000E+00  0.00000000000E+00  0.12233433466E+04  0.12233433466E+04  0.00000000000E+00 0.  1.
          2   -1    0    0  501    0  0.00000000000E+00 -0.00000000000E+00 -0.15420216939E+04  0.15420216939E+04  0.00000000000E+00 0. -1.
         23    2    1    2    0    0  0.95714044383E+03  0.58511884138E+03  0.63540254472E+03  0.12926966337E+04  0.94054798219E+02 0.  0.
         13    1    3    3    0    0  0.24388200610E+03  0.10729144916E+03  0.17141552790E+03  0.31681725201E+03  0.00000000000E+00 0.  1.
        -13    1    3    3    0    0  0.71325843773E+03  0.47782739222E+03  0.46398701681E+03  0.97587938164E+03  0.00000000000E+00 0. -1.
         22    1    1    2    0    0 -0.95714044383E+03 -0.58511884138E+03 -0.95408089202E+03  0.14726684068E+04  0.00000000000E+00 0. -1.
<mgrwt>
<rscale>  0 0.27469416E+04</rscale>
<asrwt>0</asrwt>
<pdfrwt beam="1">  1        2 0.23723411E+00 0.27469416E+04</pdfrwt>
<pdfrwt beam="2">  1       -2 0.18820667E+00 0.27469416E+04</pdfrwt>
<totfact> 0.16743278E+00</totfact>
</mgrwt>
</event>
<event>
 6    1  0.9988873E-007  0.2553829E+04  0.7818608E-02  0.8384056E-01
          2   -1    0    0  501    0  0.00000000000E+00  0.00000000000E+00  0.31945707649E+04  0.31945707649E+04  0.00000000000E+00 0. -1.
         -2   -1    0    0    0  501 -0.00000000000E+00 -0.00000000000E+00 -0.51040038804E+03  0.51040038804E+03  0.00000000000E+00 0.  1.
         23    2    1    2    0    0 -0.60222868584E+01 -0.53114959900E+03  0.30258276625E+04  0.30733970360E+04  0.89331588801E+02 0.  0.
         11    1    3    3    0    0 -0.95461839989E+01 -0.93325035557E+02  0.74907689974E+03  0.75492840297E+03  0.00000000000E+00 0. -1.
        -11    1    3    3    0    0  0.35238971404E+01 -0.43782456344E+03  0.22767507628E+04  0.23184686330E+04  0.00000000000E+00 0.  1.
         22    1    1    2    0    0  0.60222868584E+01  0.53114959900E+03 -0.34165728565E+03  0.63157411702E+03  0.00000000000E+00 0.  1.
<mgrwt>
<rscale>  0 0.25538286E+04</rscale>
<asrwt>0</asrwt>
<pdfrwt beam="1">  1        2 0.49147241E+00 0.25538286E+04</pdfrwt>
<pdfrwt beam="2">  1       -2 0.78523138E-01 0.25538286E+04</pdfrwt>
<totfact> 0.16737760E+00</totfact>
</mgrwt>
</event>
<event>
 6    1  0.9988873E-007  0.2903595E+04  0.7818608E-02  0.8271809E-01
          1   -1    0    0  501    0  0.00000000000E+00  0.00000000000E+00  0.16212583145E+04  0.16212583145E+04  0.00000000000E+00 0. -1.
         -1   -1    0    0    0  501 -0.00000000000E+00 -0.00000000000E+00 -0.13000491513E+04  0.13000491513E+04  0.00000000000E+00 0.  1.
         23    2    1    2    0    0  0.56540788309E+03 -0.19934424650E+03  0.14894907390E+04  0.16081791236E+04  0.90737142044E+02 0.  0.
         11    1    3    3    0    0  0.19818645212E+03 -0.11269283934E+03  0.60762488941E+03  0.64898809856E+03  0.00000000000E+00 0.  1.
        -11    1    3    3    0    0  0.36722143097E+03 -0.86651407157E+02  0.88186584964E+03  0.95919102502E+03  0.00000000000E+00 0. -1.
         22    1    1    2    0    0 -0.56540788309E+03  0.19934424650E+03 -0.11682815758E+04  0.13131283423E+04  0.00000000000E+00 0.  1.
<mgrwt>
<rscale>  0 0.29035947E+04</rscale>
<asrwt>0</asrwt>
<pdfrwt beam="1">  1        1 0.24942436E+00 0.29035947E+04</pdfrwt>
<pdfrwt beam="2">  1       -1 0.20000756E+00 0.29035947E+04</pdfrwt>
<totfact> 0.69678679E-01</totfact>
</mgrwt>
</event>
<event>
 6    1  0.9988873E-007  0.3267337E+04  0.7818608E-02  0.8171257E-01
          1   -1    0    0  501    0  0.00000000000E+00  0.00000000000E+00  0.84374849963E+03  0.84374849963E+03  0.00000000000E+00 0. -1.
         -1   -1    0    0    0  501 -0.00000000000E+00 -0.00000000000E+00 -0.31631140990E+04  0.31631140990E+04  0.00000000000E+00 0.  1.
         23    2    1    2    0    0 -0.11728422607E+04  0.83180233049E+03 -0.21291623261E+03  0.14564541960E+04  0.92040304240E+02 0.  0.
         13    1    3    3    0    0 -0.10274744645E+04  0.75743170487E+03 -0.20619414253E+03  0.12930284556E+04  0.00000000000E+00 0.  1.
        -13    1    3    3    0    0 -0.14536779621E+03  0.74370625614E+02 -0.67220900871E+01  0.16342574039E+03  0.00000000000E+00 0. -1.
         22    1    1    2    0    0  0.11728422607E+04 -0.83180233049E+03 -0.21064493668E+04  0.25504084026E+04  0.00000000000E+00 0.  1.
<mgrwt>
<rscale>  0 0.32673370E+04</rscale>
<asrwt>0</asrwt>
<pdfrwt beam="1">  1        1 0.12980746E+00 0.32673370E+04</pdfrwt>
<pdfrwt beam="2">  1       -1 0.48663294E+00 0.32673370E+04</pdfrwt>
<totfact> 0.30709463E-02</totfact>
</mgrwt>
</event>
<event>
 6    1  0.9988873E-007  0.3300020E+04  0.7818608E-02  0.8162890E-01
          2   -1    0    0  501    0  0.00000000000E+00  0.00000000000E+00  0.23502749087E+04  0.23502749087E+04  0.00000000000E+00 0. -1.
         -2   -1    0    0    0  501 -0.00000000000E+00 -0.00000000000E+00 -0.11583889981E+04  0.11583889981E+04  0.00000000000E+00 0.  1.
         23    2    1    2    0    0  0.10348412816E+04 -0.11197728359E+04 -0.70627979968E+02  0.15290859200E+04  0.91256545694E+02 0.  0.
         13    1    3    3    0    0  0.14542350161E+03 -0.11565509937E+03  0.64526054007E+00  0.18580773179E+03  0.00000000000E+00 0.  1.
        -13    1    3    3    0    0  0.88941777996E+03 -0.10041177365E+04 -0.71273240509E+02  0.13432781882E+04  0.00000000000E+00 0. -1.
         22    1    1    2    0    0 -0.10348412816E+04  0.11197728359E+04  0.12625138906E+04  0.19795779868E+04  0.00000000000E+00 0. -1.
<mgrwt>
<rscale>  0 0.33000198E+04</rscale>
<asrwt>0</asrwt>
<pdfrwt beam="1">  1        2 0.36158075E+00 0.33000198E+04</pdfrwt>
<pdfrwt beam="2">  1       -2 0.17821369E+00 0.33000198E+04</pdfrwt>
<totfact> 0.66137913E-01</totfact>
</mgrwt>
</event>
<event>
 6    1  0.9988873E-007  0.2226935E+04  0.7818608E-02  0.8507300E-01
         -2   -1    0    0    0  501 -0.00000000000E+00  0.00000000000E+00  0.17074562799E+04  0.17074562799E+04  0.00000000000E+00 0.  1.
          2   -1    0    0  501    0  0.00000000000E+00 -0.00000000000E+00 -0.72611494337E+03  0.72611494337E+03  0.00000000000E+00 0. -1.
         23    2    1    2    0    0 -0.25713258498E+03  0.37059023954E+03 -0.61803628239E+03  0.77180617977E+03  0.10129975756E+03 0.  0.
         13    1    3    3    0    0 -0.13690381831E+03  0.27948000793E+03 -0.40466339499E+03  0.51049406808E+03  0.00000000000E+00 0. -1.
        -13    1    3    3    0    0 -0.12022876667E+03  0.91110231612E+02 -0.21337288740E+03  0.26131211169E+03  0.00000000000E+00 0.  1.
         22    1    1    2    0    0  0.25713258498E+03 -0.37059023954E+03  0.15993776189E+04  0.16617650435E+04  0.00000000000E+00 0.  1.
<mgrwt>
<rscale>  0 0.22269347E+04</rscale>
<asrwt>0</asrwt>
<pdfrwt beam="1">  1        2 0.11170999E+00 0.22269347E+04</pdfrwt>
<pdfrwt beam="2">  1       -2 0.26268558E+00 0.22269347E+04</pdfrwt>
<totfact> 0.19156636E+00</totfact>
</mgrwt>
</event>
<event>
 6    1  0.9988873E-007  0.2046293E+04  0.7818608E-02  0.8585278E-01
         -1   -1    0    0    0  501 -0.00000000000E+00  0.00000000000E+00  0.93022432849E+03  0.93022432849E+03  0.00000000000E+00 0.  1.
          1   -1    0    0  501    0  0.00000000000E+00 -0.00000000000E+00 -0.11253511103E+04  0.11253511103E+04  0.00000000000E+00 0. -1.
         23    2    1    2    0    0  0.26651848869E+03  0.78447336079E+03  0.50171290581E+03  0.97297851062E+03  0.92416360333E+02 0.  0.
         13    1    3    3    0    0  0.17840187385E+03  0.46427825774E+03  0.25267203305E+03  0.55787515224E+03  0.00000000000E+00 0.  1.
        -13    1    3    3    0    0  0.88116614847E+02  0.32019510306E+03  0.24904087275E+03  0.41510335838E+03  0.00000000000E+00 0. -1.
         22    1    1    2    0    0 -0.26651848869E+03 -0.78447336079E+03 -0.69683968757E+03  0.10825969281E+04  0.00000000000E+00 0. -1.
<mgrwt>
<rscale>  0 0.20462932E+04</rscale>
<asrwt>0</asrwt>
<pdfrwt beam="1">  1        1 0.17313094E+00 0.20462932E+04</pdfrwt>
<pdfrwt beam="2">  1       -1 0.14311144E+00 0.20462932E+04</pdfrwt>
<totfact> 0.44359217E+00</totfact>
</mgrwt>
</event>
<event>
 6    1  0.9988873E-007  0.2216988E+04  0.7818608E-02  0.8511390E-01
         -2   -1    0    0    0  501 -0.00000000000E+00  0.00000000000E+00  0.14440698443E+04  0.14440698443E+04  0.00000000000E+00 0.  1.
          2   -1    0    0  501    0  0.00000000000E+00 -0.00000000000E+00 -0.85089993184E+03  0.85089993184E+03  0.00000000000E+00 0. -1.
         23    2    1    2    0    0 -0.92441057173E+03 -0.15468608704E+03  0.90627907513E+03  0.13067896112E+04  0.88851760415E+02 0.  0.
         13    1    3    3    0    0 -0.24733939994E+03 -0.24408292864E+02  0.29093973340E+03  0.38264666730E+03  0.00000000000E+00 0. -1.
        -13    1    3    3    0    0 -0.67707117179E+03 -0.13027779418E+03  0.61533934173E+03  0.92414294392E+03  0.00000000000E+00 0.  1.
         22    1    1    2    0    0  0.92441057173E+03  0.15468608704E+03 -0.31310916265E+03  0.98818016494E+03  0.00000000000E+00 0. -1.
<mgrwt>
<rscale>  0 0.22169880E+04</rscale>
<asrwt>0</asrwt>
<pdfrwt beam="1">  1        2 0.13090768E+00 0.22169880E+04</pdfrwt>
<pdfrwt beam="2">  1       -2 0.22216459E+00 0.22169880E+04</pdfrwt>
<totfact> 0.27693838E+00</totfact>
</mgrwt>
</event>
<event>
 6    1  0.9988873E-007  0.1818537E+04  0.7818608E-02  0.8696503E-01
         -2   -1    0    0    0  501 -0.00000000000E+00  0.00000000000E+00  0.28887784589E+03  0.28887784589E+03  0.00000000000E+00 0.  1.
          2   -1    0    0  501    0  0.00000000000E+00 -0.00000000000E+00 -0.28620034704E+04  0.28620034704E+04  0.00000000000E+00 0. -1.
         23    2    1    2    0    0  0.85411757102E+03  0.20262743514E+03 -0.89317758940E+03  0.12554130092E+04  0.87868736206E+02 0.  0.
         13    1    3    3    0    0  0.18382935223E+03  0.26544770239E+02 -0.23612463957E+03  0.30042087308E+03  0.00000000000E+00 0.  1.
        -13    1    3    3    0    0  0.67028821879E+03  0.17608266490E+03 -0.65705294983E+03  0.95499213610E+03  0.00000000000E+00 0. -1.
         22    1    1    2    0    0 -0.85411757102E+03 -0.20262743514E+03 -0.16799480351E+04  0.18954683071E+04  0.00000000000E+00 0. -1.
<mgrwt>
<rscale>  0 0.18185372E+04</rscale>
<asrwt>0</asrwt>
<pdfrwt beam="1">  1        2 0.44030822E+00 0.18185372E+04</pdfrwt>
<pdfrwt beam="2">  1       -2 0.44442746E-01 0.18185372E+04</pdfrwt>
<totfact> 0.96222391E+00</totfact>
</mgrwt>
</event>
<event>
 6    1  0.9988873E-007  0.2151222E+04  0.7818608E-02  0.8539009E-01
         -1   -1    0    0    0  501 -0.00000000000E+00  0.00000000000E+00  0.33694344291E+03  0.33694344291E+03  0.00000000000E+00 0.  1.
          1   -1    0    0  501    0  0.00000000000E+00 -0.00000000000E+00 -0.34336288273E+04  0.34336288273E+04  0.00000000000E+00 0. -1.
         23    2    1    2    0    0  0.91043065881E+03  0.25888174011E+03 -0.66303201375E+03  0.11593326281E+04  0.92395625119E+02 0.  0.
         13    1    3    3    0    0  0.59786879812E+03  0.12539885860E+03 -0.43923231892E+03  0.75239418093E+03  0.00000000000E+00 0. -1.
        -13    1    3    3    0    0  0.31256186069E+03  0.13348288151E+03 -0.22379969483E+03  0.40693844721E+03  0.00000000000E+00 0.  1.
         22    1    1    2    0    0 -0.91043065881E+03 -0.25888174011E+03 -0.24336533706E+04  0.26112396420E+04  0.00000000000E+00 0. -1.
<mgrwt>
<rscale>  0 0.21512217E+04</rscale>
<asrwt>0</asrwt>
<pdfrwt beam="1">  1        1 0.52825059E+00 0.21512217E+04</pdfrwt>
<pdfrwt beam="2">  1       -1 0.51837453E-01 0.21512217E+04</pdfrwt>
<totfact> 0.96894539E-01</totfact>
</mgrwt>
</event>
<event>
 6    1  0.1126260E-006  0.3580504E+04  0.7818608E-02  0.8094972E-01
          1   -1    0    0  501    0  0.00000000000E+00  0.00000000000E+00  0.18631739076E+04  0.18631739076E+04  0.00000000000E+00 0. -1.
         -1   -1    0    0    0  501 -0.00000000000E+00 -0.00000000000E+00 -0.17201845137E+04  0.17201845137E+04  0.00000000000E+00 0.  1.
         23    2    1    2    0    0  0.13632626291E+04  0.25161626118E+03 -0.10603065525E+04  0.17476795623E+04  0.91313352717E+02 0.  0.
         13    1    3    3    0    0  0.61108525736E+03  0.75789635646E+02 -0.43632178511E+03  0.75468268882E+03  0.00000000000E+00 0. -1.
        -13    1    3    3    0    0  0.75217737178E+03  0.17582662553E+03 -0.62398476735E+03  0.99299687349E+03  0.00000000000E+00 0.  1.
         22    1    1    2    0    0 -0.13632626291E+04 -0.25161626118E+03  0.12032959464E+04  0.18356788590E+04  0.00000000000E+00 0. -1.
<mgrwt>
<rscale>  0 0.35805044E+04</rscale>
<asrwt>0</asrwt>
<pdfrwt beam="1">  1        1 0.28664214E+00 0.35805044E+04</pdfrwt>
<pdfrwt beam="2">  1       -1 0.26464377E+00 0.35805044E+04</pdfrwt>
<totfact> 0.16741413E-01</totfact>
</mgrwt>
</event>
<event>
 6    1  0.9988873E-007  0.2203176E+04  0.7818608E-02  0.8517108E-01
          1   -1    0    0  501    0  0.00000000000E+00  0.00000000000E+00  0.12161123547E+04  0.12161123547E+04  0.00000000000E+00 0. -1.
         -1   -1    0    0    0  501 -0.00000000000E+00 -0.00000000000E+00 -0.99784833529E+03  0.99784833529E+03  0.00000000000E+00 0.  1.
         23    2    1    2    0    0 -0.48102206303E+02  0.25296359309E+03 -0.96518915943E+03  0.10028183250E+04  0.88034526598E+02 0.  0.
         13    1    3    3    0    0 -0.16891263328E+02  0.17715738426E+03 -0.78402968288E+03  0.80397300777E+03  0.00000000000E+00 0. -1.
        -13    1    3    3    0    0 -0.31210942975E+02  0.75806208834E+02 -0.18115947655E+03  0.19884531728E+03  0.00000000000E+00 0.  1.
         22    1    1    2    0    0  0.48102206303E+02 -0.25296359309E+03  0.11834531788E+04  0.12111423649E+04  0.00000000000E+00 0. -1.
<mgrwt>
<rscale>  0 0.22031756E+04</rscale>
<asrwt>0</asrwt>
<pdfrwt beam="1">  1        1 0.18709421E+00 0.22031756E+04</pdfrwt>
<pdfrwt beam="2">  1       -1 0.15351513E+00 0.22031756E+04</pdfrwt>
<totfact> 0.31059952E+00</totfact>
</mgrwt>
</event>
<event>
 6    1  0.9988873E-007  0.2020136E+04  0.7818608E-02  0.8597264E-01
          1   -1    0    0  501    0  0.00000000000E+00  0.00000000000E+00  0.13380101758E+04  0.13380101758E+04  0.00000000000E+00 0. -1.
         -1   -1    0    0    0  501 -0.00000000000E+00 -0.00000000000E+00 -0.76250310667E+03  0.76250310667E+03  0.00000000000E+00 0.  1.
         23    2    1    2    0    0 -0.23458792304E+03  0.62006632954E+03 -0.50116827088E+03  0.83609897755E+03  0.91532059230E+02 0.  0.
         13    1    3    3    0    0 -0.15617481961E+03  0.28707636178E+03 -0.25821159566E+03  0.41650526996E+03  0.00000000000E+00 0. -1.
        -13    1    3    3    0    0 -0.78413103435E+02  0.33298996776E+03 -0.24295667522E+03  0.41959370759E+03  0.00000000000E+00 0.  1.
         22    1    1    2    0    0  0.23458792304E+03 -0.62006632954E+03  0.10766753400E+04  0.12644143049E+04  0.00000000000E+00 0. -1.
<mgrwt>
<rscale>  0 0.20201356E+04</rscale>
<asrwt>0</asrwt>
<pdfrwt beam="1">  1        1 0.20584772E+00 0.20201356E+04</pdfrwt>
<pdfrwt beam="2">  1       -1 0.11730817E+00 0.20201356E+04</pdfrwt>
<totfact> 0.51494130E+00</totfact>
</mgrwt>
</event>
<event>
 6    1  0.9988873E-007  0.1130223E+04  0.7818608E-02  0.9176225E-01
         -2   -1    0    0    0  501 -0.00000000000E+00  0.00000000000E+00  0.22792583090E+03  0.22792583090E+03  0.00000000000E+00 0.  1.
          2   -1    0    0  501    0  0.00000000000E+00 -0.00000000000E+00 -0.14011190034E+04  0.14011190034E+04  0.00000000000E+00 0. -1.
         23    2    1    2    0    0 -0.53501021839E+03 -0.14792915960E+03 -0.71310894212E+03  0.90807571632E+03  0.89208593778E+02 0.  0.
         13    1    3    3    0    0 -0.16995325062E+03 -0.90767848048E+02 -0.24880818603E+03  0.31468781843E+03  0.00000000000E+00 0. -1.
        -13    1    3    3    0    0 -0.36505696777E+03 -0.57161311550E+02 -0.46430075610E+03  0.59338789789E+03  0.00000000000E+00 0.  1.
         22    1    1    2    0    0  0.53501021839E+03  0.14792915960E+03 -0.46008423037E+03  0.72096911798E+03  0.00000000000E+00 0. -1.
<mgrwt>
<rscale>  0 0.11302234E+04</rscale>
<asrwt>0</asrwt>
<pdfrwt beam="1">  1        2 0.21555678E+00 0.11302234E+04</pdfrwt>
<pdfrwt beam="2">  1       -2 0.35065512E-01 0.11302234E+04</pdfrwt>
<totfact> 0.10922251E+02</totfact>
</mgrwt>
</event>
<event>
 6    1  0.9988873E-007  0.2019080E+04  0.7818608E-02  0.8597752E-01
         -2   -1    0    0    0  501 -0.00000000000E+00  0.00000000000E+00  0.35311282334E+03  0.35311282334E+03  0.00000000000E+00 0.  1.
          2   -1    0    0  501    0  0.00000000000E+00 -0.00000000000E+00 -0.28862463899E+04  0.28862463899E+04  0.00000000000E+00 0. -1.
         23    2    1    2    0    0 -0.57002950518E+03 -0.68849473089E+03 -0.52329675093E+03  0.10397222758E+04  0.90687871179E+02 0.  0.
         13    1    3    3    0    0 -0.25080315474E+03 -0.25611580441E+03 -0.24775113281E+03  0.43575010213E+03  0.00000000000E+00 0. -1.
        -13    1    3    3    0    0 -0.31922635043E+03 -0.43237892648E+03 -0.27554561812E+03  0.60397217365E+03  0.00000000000E+00 0.  1.
         22    1    1    2    0    0  0.57002950518E+03  0.68849473089E+03 -0.20098368156E+04  0.21996369375E+04  0.00000000000E+00 0. -1.
<mgrwt>
<rscale>  0 0.20190796E+04</rscale>
<asrwt>0</asrwt>
<pdfrwt beam="1">  1        2 0.44403791E+00 0.20190796E+04</pdfrwt>
<pdfrwt beam="2">  1       -2 0.54325049E-01 0.20190796E+04</pdfrwt>
<totfact> 0.60724100E+00</totfact>
</mgrwt>
</event>
<event>
 6    1  0.9988873E-007  0.8173874E+03  0.7818608E-02  0.9535185E-01
          2   -1    0    0  501    0  0.00000000000E+00  0.00000000000E+00  0.92308811501E+03  0.92308811501E+03  0.00000000000E+00 0. -1.
         -2   -1    0    0    0  501 -0.00000000000E+00 -0.00000000000E+00 -0.18094756852E+03  0.18094756852E+03  0.00000000000E+00 0.  1.
         23    2    1    2    0    0 -0.10241176079E+03  0.27500327503E+03  0.74999954651E+03  0.81047694340E+03  0.90876762732E+02 0.  0.
         11    1    3    3    0    0 -0.53138509820E+02  0.97346872013E+02  0.18020646663E+03  0.21159982356E+03  0.00000000000E+00 0.  1.
        -11    1    3    3    0    0 -0.49273250974E+02  0.17765640302E+03  0.56979307988E+03  0.59887711984E+03  0.00000000000E+00 0. -1.
         22    1    1    2    0    0  0.10241176079E+03 -0.27500327503E+03 -0.78590000185E+01  0.29355874013E+03  0.00000000000E+00 0.  1.
<mgrwt>
<rscale>  0 0.81738742E+03</rscale>
<asrwt>0</asrwt>
<pdfrwt beam="1">  1        2 0.14201355E+00 0.81738742E+03</pdfrwt>
<pdfrwt beam="2">  1       -2 0.27838088E-01 0.81738742E+03</pdfrwt>
<totfact> 0.33452337E+02</totfact>
</mgrwt>
</event>
<event>
 6    1  0.9988873E-007  0.1732339E+04  0.7818608E-02  0.8743132E-01
         -1   -1    0    0    0  501 -0.00000000000E+00  0.00000000000E+00  0.50913987197E+03  0.50913987197E+03  0.00000000000E+00 0.  1.
          1   -1    0    0  501    0  0.00000000000E+00 -0.00000000000E+00 -0.14735625029E+04  0.14735625029E+04  0.00000000000E+00 0. -1.
         23    2    1    2    0    0 -0.51857406065E+03 -0.62450418041E+03 -0.82126284612E+03  0.11584334553E+04  0.92579048949E+02 0.  0.
         13    1    3    3    0    0 -0.26606335772E+03 -0.27478175346E+03 -0.33533174479E+03  0.50866698480E+03  0.00000000000E+00 0.  1.
        -13    1    3    3    0    0 -0.25251070293E+03 -0.34972242695E+03 -0.48593110132E+03  0.64976647054E+03  0.00000000000E+00 0. -1.
         22    1    1    2    0    0  0.51857406065E+03  0.62450418041E+03 -0.14315978483E+03  0.82426891954E+03  0.00000000000E+00 0. -1.
<mgrwt>
<rscale>  0 0.17323388E+04</rscale>
<asrwt>0</asrwt>
<pdfrwt beam="1">  1        1 0.22670192E+00 0.17323388E+04</pdfrwt>
<pdfrwt beam="2">  1       -1 0.78329213E-01 0.17323388E+04</pdfrwt>
<totfact> 0.10566200E+01</totfact>
</mgrwt>
</event>
<event>
 6    1  0.9988873E-007  0.2902573E+04  0.7818608E-02  0.8272112E-01
          2   -1    0    0  501    0  0.00000000000E+00  0.00000000000E+00  0.10254573074E+04  0.10254573074E+04  0.00000000000E+00 0. -1.
         -2   -1    0    0    0  501 -0.00000000000E+00 -0.00000000000E+00 -0.20539441965E+04  0.20539441965E+04  0.00000000000E+00 0.  1.
         23    2    1    2    0    0 -0.67828135115E+03  0.10738237707E+04  0.22704265162E+03  0.12934794705E+04  0.91529739080E+02 0.  0.
         11    1    3    3    0    0 -0.17340880542E+03  0.32323504289E+03  0.32839409207E+02  0.36827969473E+03  0.00000000000E+00 0. -1.
        -11    1    3    3    0    0 -0.50487254572E+03  0.75058872778E+03  0.19420324241E+03  0.92519977576E+03  0.00000000000E+00 0.  1.
         22    1    1    2    0    0  0.67828135115E+03 -0.10738237707E+04 -0.12555295407E+04  0.17859220334E+04  0.00000000000E+00 0.  1.
<mgrwt>
<rscale>  0 0.29025727E+04</rscale>
<asrwt>0</asrwt>
<pdfrwt beam="1">  1        2 0.15776266E+00 0.29025727E+04</pdfrwt>
<pdfrwt beam="2">  1       -2 0.31599141E+00 0.29025727E+04</pdfrwt>
<totfact> 0.53060723E-01</totfact>
</mgrwt>
</event>
<event>
 6    1  0.9988873E-007  0.2383476E+04  0.7818608E-02  0.8445716E-01
         -1   -1    0    0    0  501 -0.00000000000E+00  0.00000000000E+00  0.12395863401E+04  0.12395863401E+04  0.00000000000E+00 0.  1.
          1   -1    0    0  501    0  0.00000000000E+00 -0.00000000000E+00 -0.11457362964E+04  0.11457362964E+04  0.00000000000E+00 0. -1.
         23    2    1    2    0    0 -0.69528583783E+03 -0.80750239151E+03  0.57713075010E+03  0.12152616339E+04  0.91095704693E+02 0.  0.
         11    1    3    3    0    0 -0.12002827864E+03 -0.19660882375E+03  0.12199524402E+03  0.26066195889E+03  0.00000000000E+00 0. -1.
        -11    1    3    3    0    0 -0.57525755919E+03 -0.61089356777E+03  0.45513550608E+03  0.95459967496E+03  0.00000000000E+00 0.  1.
         22    1    1    2    0    0  0.69528583783E+03  0.80750239151E+03 -0.48328070643E+03  0.11700610026E+04  0.00000000000E+00 0. -1.
<mgrwt>
<rscale>  0 0.23834757E+04</rscale>
<asrwt>0</asrwt>
<pdfrwt beam="1">  1        1 0.17626712E+00 0.23834757E+04</pdfrwt>
<pdfrwt beam="2">  1       -1 0.19070559E+00 0.23834757E+04</pdfrwt>
<totfact> 0.18370136E+00</totfact>
</mgrwt>
</event>
<event>
 6    1  0.9988873E-007  0.1602634E+04  0.7818608E-02  0.8818932E-01
          1   -1    0    0  501    0  0.00000000000E+00  0.00000000000E+00  0.13864531301E+04  0.13864531301E+04  0.00000000000E+00 0. -1.
         -1   -1    0    0    0  501 -0.00000000000E+00 -0.00000000000E+00 -0.46313044620E+03  0.46313044620E+03  0.00000000000E+00 0.  1.
         23    2    1    2    0    0  0.30649335332E+03 -0.69318962922E+03  0.17242517979E+03  0.78267350539E+03  0.91636977961E+02 0.  0.
         11    1    3    3    0    0  0.16011713657E+03 -0.25168683484E+03  0.65646899426E+02  0.30543947953E+03  0.00000000000E+00 0. -1.
        -11    1    3    3    0    0  0.14637621674E+03 -0.44150279439E+03  0.10677828037E+03  0.47723402586E+03  0.00000000000E+00 0.  1.
         22    1    1    2    0    0 -0.30649335332E+03  0.69318962922E+03  0.75089750407E+03  0.10669100709E+04  0.00000000000E+00 0. -1.
<mgrwt>
<rscale>  0 0.16026337E+04</rscale>
<asrwt>0</asrwt>
<pdfrwt beam="1">  1        1 0.21330048E+00 0.16026337E+04</pdfrwt>
<pdfrwt beam="2">  1       -1 0.71250838E-01 0.16026337E+04</pdfrwt>
<totfact> 0.14986602E+01</totfact>
</mgrwt>
</event>
<event>
 6    1  0.9988873E-007  0.3413872E+04  0.7818608E-02  0.8134510E-01
          1   -1    0    0  501    0  0.00000000000E+00  0.00000000000E+00  0.27086090060E+04  0.27086090060E+04  0.00000000000E+00 0. -1.
         -1   -1    0    0    0  501 -0.00000000000E+00 -0.00000000000E+00 -0.10756928487E+04  0.10756928487E+04  0.00000000000E+00 0.  1.
         23    2    1    2    0    0 -0.91085337981E+03 -0.95087980688E+03  0.20190019760E+04  0.24121179946E+04  0.90099688513E+02 0.  0.
         11    1    3    3    0    0 -0.67429968179E+03 -0.75832709515E+03  0.15433898123E+04  0.18471037212E+04  0.00000000000E+00 0. -1.
        -11    1    3    3    0    0 -0.23655369802E+03 -0.19255271173E+03  0.47561216369E+03  0.56501427335E+03  0.00000000000E+00 0.  1.
         22    1    1    2    0    0  0.91085337981E+03  0.95087980688E+03 -0.38608581871E+03  0.13721838601E+04  0.00000000000E+00 0.  1.
<mgrwt>
<rscale>  0 0.34138725E+04</rscale>
<asrwt>0</asrwt>
<pdfrwt beam="1">  1        1 0.41670908E+00 0.34138725E+04</pdfrwt>
<pdfrwt beam="2">  1       -1 0.16549121E+00 0.34138725E+04</pdfrwt>
<totfact> 0.21122694E-01</totfact>
</mgrwt>
</event>
<event>
 6    1  0.9988873E-007  0.5187844E+04  0.7818608E-02  0.7800166E-01
          1   -1    0    0  501    0  0.00000000000E+00  0.00000000000E+00  0.27493079541E+04  0.27493079541E+04  0.00000000000E+00 0. -1.
         -1   -1    0    0    0  501 -0.00000000000E+00 -0.00000000000E+00 -0.24473182141E+04  0.24473182141E+04  0.00000000000E+00 0.  1.
         23    2    1    2    0    0  0.15576250077E+04 -0.20100215681E+04 -0.35767835216E+03  0.25695471133E+04  0.90863606184E+02 0.  0.
         11    1    3    3    0    0  0.71358674149E+03 -0.98788305264E+03 -0.19085395588E+03  0.12335088957E+04  0.00000000000E+00 0. -1.
        -11    1    3    3    0    0  0.84403826624E+03 -0.10221385155E+04 -0.16682439628E+03  0.13360382176E+04  0.00000000000E+00 0.  1.
         22    1    1    2    0    0 -0.15576250077E+04  0.20100215681E+04  0.65966809214E+03  0.26270790549E+04  0.00000000000E+00 0. -1.
<mgrwt>
<rscale>  0 0.51878440E+04</rscale>
<asrwt>0</asrwt>
<pdfrwt beam="1">  1        1 0.42297046E+00 0.51878440E+04</pdfrwt>
<pdfrwt beam="2">  1       -1 0.37651049E+00 0.51878440E+04</pdfrwt>
<totfact> 0.66560992E-03</totfact>
</mgrwt>
</event>
<event>
 6    1  0.9988873E-007  0.2673581E+04  0.7818608E-02  0.8343628E-01
         -1   -1    0    0    0  501 -0.00000000000E+00  0.00000000000E+00  0.98326121606E+03  0.98326121606E+03  0.00000000000E+00 0.  1.
          1   -1    0    0  501    0  0.00000000000E+00 -0.00000000000E+00 -0.18174305732E+04  0.18174305732E+04  0.00000000000E+00 0. -1.
         23    2    1    2    0    0 -0.21350915250E+03  0.48950073627E+03  0.86431074415E+03  0.10202334821E+04  0.92984765221E+02 0.  0.
         11    1    3    3    0    0 -0.65744469593E+02  0.68954699541E+02  0.12908767624E+03  0.16043912873E+03  0.00000000000E+00 0. -1.
        -11    1    3    3    0    0 -0.14776468291E+03  0.42054603673E+03  0.73522306791E+03  0.85979435338E+03  0.00000000000E+00 0.  1.
         22    1    1    2    0    0  0.21350915250E+03 -0.48950073627E+03 -0.16984801013E+04  0.17804583071E+04  0.00000000000E+00 0. -1.
<mgrwt>
<rscale>  0 0.26735811E+04</rscale>
<asrwt>0</asrwt>
<pdfrwt beam="1">  1        1 0.27960470E+00 0.26735811E+04</pdfrwt>
<pdfrwt beam="2">  1       -1 0.15127096E+00 0.26735811E+04</pdfrwt>
<totfact> 0.11831039E+00</totfact>
</mgrwt>
</event>
<event>
 6    1  0.9988873E-007  0.3399134E+04  0.7818608E-02  0.8138119E-01
         -1   -1    0    0    0  501 -0.00000000000E+00  0.00000000000E+00  0.21472909642E+04  0.21472909642E+04  0.00000000000E+00 0.  1.
          1   -1    0    0  501    0  0.00000000000E+00 -0.00000000000E+00 -0.13451961674E+04  0.13451961674E+04  0.00000000000E+00 0. -1.
         23    2    1    2    0    0 -0.97297924489E+03  0.58361187777E+03  0.16998344097E+04  0.20456879584E+04  0.90059801253E+02 0.  0.
         13    1    3    3    0    0 -0.24262746148E+03  0.18000985872E+03  0.40511252101E+03  0.50535906936E+03  0.00000000000E+00 0. -1.
        -13    1    3    3    0    0 -0.73035178341E+03  0.40360201905E+03  0.12947218887E+04  0.15403288890E+04  0.00000000000E+00 0.  1.
         22    1    1    2    0    0  0.97297924489E+03 -0.58361187777E+03 -0.89773961291E+03  0.14467991732E+04  0.00000000000E+00 0. -1.
<mgrwt>
<rscale>  0 0.33991338E+04</rscale>
<asrwt>0</asrwt>
<pdfrwt beam="1">  1        1 0.20695326E+00 0.33991338E+04</pdfrwt>
<pdfrwt beam="2">  1       -1 0.33035246E+00 0.33991338E+04</pdfrwt>
<totfact> 0.14465619E-01</totfact>
</mgrwt>
</event>
<event>
 6    1  0.9988873E-007  0.2459383E+04  0.7818608E-02  0.8417600E-01
         -2   -1    0    0    0  501 -0.00000000000E+00  0.00000000000E+00  0.12591007785E+04  0.12591007785E+04  0.00000000000E+00 0.  1.
          2   -1    0    0  501    0  0.00000000000E+00 -0.00000000000E+00 -0.12009693984E+04  0.12009693984E+04  0.00000000000E+00 0. -1.
         23    2    1    2    0    0  0.79123482520E+03  0.41493310850E+03 -0.81368710326E+03  0.12117555127E+04  0.89681030882E+02 0.  0.
         11    1    3    3    0    0  0.40208162872E+03  0.16894286716E+03 -0.42978244493E+03  0.61231060622E+03  0.00000000000E+00 0.  1.
        -11    1    3    3    0    0  0.38915319648E+03  0.24599024134E+03 -0.38390465833E+03  0.59944490643E+03  0.00000000000E+00 0. -1.
         22    1    1    2    0    0 -0.79123482520E+03 -0.41493310850E+03  0.87181848334E+03  0.12483146643E+04  0.00000000000E+00 0.  1.
<mgrwt>
<rscale>  0 0.24593833E+04</rscale>
<asrwt>0</asrwt>
<pdfrwt beam="1">  1        2 0.18476452E+00 0.24593833E+04</pdfrwt>
<pdfrwt beam="2">  1       -2 0.19370781E+00 0.24593833E+04</pdfrwt>
<totfact> 0.24778768E+00</totfact>
</mgrwt>
</event>
<event>
 6    1  0.9988873E-007  0.1792423E+04  0.7818608E-02  0.8710339E-01
         -4   -1    0    0    0  501 -0.00000000000E+00  0.00000000000E+00  0.62857212899E+03  0.62857212899E+03  0.00000000000E+00 0.  1.
          4   -1    0    0  501    0  0.00000000000E+00 -0.00000000000E+00 -0.12778089326E+04  0.12778089326E+04  0.00000000000E+00 0. -1.
         23    2    1    2    0    0  0.32459304992E+03  0.81792430584E+03 -0.15875629274E+03  0.89894275098E+03  0.92377978466E+02 0.  0.
         11    1    3    3    0    0  0.32060717759E+03  0.76100602755E+03 -0.13333880021E+03  0.83647974986E+03  0.00000000000E+00 0.  1.
        -11    1    3    3    0    0  0.39858723381E+01  0.56918278289E+02 -0.25417492529E+02  0.62463001114E+02  0.00000000000E+00 0. -1.
         22    1    1    2    0    0 -0.32459304992E+03 -0.81792430584E+03 -0.49048051088E+03  0.10074383106E+04  0.00000000000E+00 0. -1.
<mgrwt>
<rscale>  0 0.17924230E+04</rscale>
<asrwt>0</asrwt>
<pdfrwt beam="1">  1        4 0.19658599E+00 0.17924230E+04</pdfrwt>
<pdfrwt beam="2">  1       -4 0.96703407E-01 0.17924230E+04</pdfrwt>
<totfact> 0.23427366E-01</totfact>
</mgrwt>
</event>
<event>
 6    1  0.9988873E-007  0.4120167E+04  0.7818608E-02  0.7980734E-01
          2   -1    0    0  501    0  0.00000000000E+00  0.00000000000E+00  0.16037046689E+04  0.16037046689E+04  0.00000000000E+00 0. -1.
         -2   -1    0    0    0  501 -0.00000000000E+00 -0.00000000000E+00 -0.26463377162E+04  0.26463377162E+04  0.00000000000E+00 0.  1.
         23    2    1    2    0    0  0.91574523858E+03 -0.30514364495E+03  0.13540832788E+04  0.16662561838E+04  0.10567004236E+03 0.  0.
         13    1    3    3    0    0  0.80213992913E+03 -0.29509654369E+03  0.12290441563E+04  0.14970170253E+04  0.00000000000E+00 0. -1.
        -13    1    3    3    0    0  0.11360530946E+03 -0.10047101259E+02  0.12503912252E+03  0.16923915842E+03  0.00000000000E+00 0.  1.
         22    1    1    2    0    0 -0.91574523858E+03  0.30514364495E+03 -0.23967163262E+04  0.25837862013E+04  0.00000000000E+00 0.  1.
<mgrwt>
<rscale>  0 0.41201671E+04</rscale>
<asrwt>0</asrwt>
<pdfrwt beam="1">  1        2 0.24672380E+00 0.41201671E+04</pdfrwt>
<pdfrwt beam="2">  1       -2 0.40712887E+00 0.41201671E+04</pdfrwt>
<totfact> 0.57776823E-02</totfact>
</mgrwt>
</event>
<event>
 6    1  0.9988873E-007  0.1572447E+04  0.7818608E-02  0.8837656E-01
          2   -1    0    0  501    0  0.00000000000E+00  0.00000000000E+00  0.13172237856E+04  0.13172237856E+04  0.00000000000E+00 0. -1.
         -2   -1    0    0    0  501 -0.00000000000E+00 -0.00000000000E+00 -0.46928040394E+03  0.46928040394E+03  0.00000000000E+00 0.  1.
         23    2    1    2    0    0  0.22902438587E+03  0.13854725755E+03  0.12619956960E+04  0.12934658229E+04  0.93665289498E+02 0.  0.
         13    1    3    3    0    0  0.55167448930E+02  0.79091105628E+02  0.53422986872E+03  0.54286315315E+03  0.00000000000E+00 0.  1.
        -13    1    3    3    0    0  0.17385693694E+03  0.59456151919E+02  0.72776582726E+03  0.75060266976E+03  0.00000000000E+00 0. -1.
         22    1    1    2    0    0 -0.22902438587E+03 -0.13854725755E+03 -0.41405231437E+03  0.49303836659E+03  0.00000000000E+00 0.  1.
<mgrwt>
<rscale>  0 0.15724469E+04</rscale>
<asrwt>0</asrwt>
<pdfrwt beam="1">  1        2 0.20264981E+00 0.15724469E+04</pdfrwt>
<pdfrwt beam="2">  1       -2 0.72196986E-01 0.15724469E+04</pdfrwt>
<totfact> 0.26964801E+01</totfact>
</mgrwt>
</event>
<event>
 6    1  0.9988873E-007  0.1651988E+04  0.7818608E-02  0.8789231E-01
         -2   -1    0    0    0  501 -0.00000000000E+00  0.00000000000E+00  0.46178616280E+03  0.46178616280E+03  0.00000000000E+00 0.  1.
          2   -1    0    0  501    0  0.00000000000E+00 -0.00000000000E+00 -0.14774502349E+04  0.14774502349E+04  0.00000000000E+00 0. -1.
         23    2    1    2    0    0  0.15677093620E+03  0.78785880572E+03 -0.72192918785E+03  0.10839125956E+04  0.91575861972E+02 0.  0.
         11    1    3    3    0    0  0.14334213563E+03  0.53112036383E+03 -0.52015823777E+03  0.75709999408E+03  0.00000000000E+00 0.  1.
        -11    1    3    3    0    0  0.13428800566E+02  0.25673844189E+03 -0.20177095007E+03  0.32681260154E+03  0.00000000000E+00 0. -1.
         22    1    1    2    0    0 -0.15677093620E+03 -0.78785880572E+03 -0.29373488424E+03  0.85532380208E+03  0.00000000000E+00 0.  1.
<mgrwt>
<rscale>  0 0.16519880E+04</rscale>
<asrwt>0</asrwt>
<pdfrwt beam="1">  1        2 0.22730004E+00 0.16519880E+04</pdfrwt>
<pdfrwt beam="2">  1       -2 0.71044025E-01 0.16519880E+04</pdfrwt>
<totfact> 0.22468048E+01</totfact>
</mgrwt>
</event>
<event>
 6    1  0.9988873E-007  0.1089468E+04  0.7818608E-02  0.9215518E-01
          1   -1    0    0  501    0  0.00000000000E+00  0.00000000000E+00  0.11592652196E+04  0.11592652196E+04  0.00000000000E+00 0. -1.
         -1   -1    0    0    0  501 -0.00000000000E+00 -0.00000000000E+00 -0.25596850468E+03  0.25596850468E+03  0.00000000000E+00 0.  1.
         23    2    1    2    0    0  0.28692164283E+03 -0.42747737578E+03  0.67013017646E+03  0.85005448671E+03  0.91963259192E+02 0.  0.
         13    1    3    3    0    0  0.13637163290E+03 -0.22550258753E+03  0.27047231542E+03  0.37762933235E+03  0.00000000000E+00 0. -1.
        -13    1    3    3    0    0  0.15055000993E+03 -0.20197478825E+03  0.39965786104E+03  0.47242515435E+03  0.00000000000E+00 0.  1.
         22    1    1    2    0    0 -0.28692164283E+03  0.42747737578E+03  0.23316653847E+03  0.56517923758E+03  0.00000000000E+00 0. -1.
<mgrwt>
<rscale>  0 0.10894685E+04</rscale>
<asrwt>0</asrwt>
<pdfrwt beam="1">  1        1 0.17834849E+00 0.10894685E+04</pdfrwt>
<pdfrwt beam="2">  1       -1 0.39379771E-01 0.10894685E+04</pdfrwt>
<totfact> 0.71506397E+01</totfact>
</mgrwt>
</event>
<event>
 6    1  0.9988873E-007  0.3749162E+04  0.7818608E-02  0.8057153E-01
         -3   -1    0    0    0  501 -0.00000000000E+00  0.00000000000E+00  0.22768513384E+04  0.22768513384E+04  0.00000000000E+00 0.  1.
          3   -1    0    0  501    0  0.00000000000E+00 -0.00000000000E+00 -0.15433834174E+04  0.15433834174E+04  0.00000000000E+00 0. -1.
         23    2    1    2    0    0 -0.13826250970E+04  0.79911521474E+03  0.13646050197E+04  0.21030943065E+04  0.10306074304E+03 0.  0.
         13    1    3    3    0    0 -0.66973555100E+03  0.36028950790E+03  0.71006654853E+03  0.10404560256E+04  0.00000000000E+00 0.  1.
        -13    1    3    3    0    0 -0.71288954602E+03  0.43882570684E+03  0.65453847116E+03  0.10626382809E+04  0.00000000000E+00 0. -1.
         22    1    1    2    0    0  0.13826250970E+04 -0.79911521474E+03 -0.63113709872E+03  0.17171404493E+04  0.00000000000E+00 0. -1.
<mgrwt>
<rscale>  0 0.37491624E+04</rscale>
<asrwt>0</asrwt>
<pdfrwt beam="1">  1        3 0.23744360E+00 0.37491624E+04</pdfrwt>
<pdfrwt beam="2">  1       -3 0.35028482E+00 0.37491624E+04</pdfrwt>
<totfact> 0.36154166E-03</totfact>
</mgrwt>
</event>
<event>
 6    1  0.9988873E-007  0.5126124E+03  0.7818608E-02  0.1010538E+00
          2   -1    0    0  501    0  0.00000000000E+00  0.00000000000E+00  0.48735699045E+03  0.48735699045E+03  0.00000000000E+00 0. -1.
         -2   -1    0    0    0  501 -0.00000000000E+00 -0.00000000000E+00 -0.13479414574E+03  0.13479414574E+03  0.00000000000E+00 0.  1.
         23    2    1    2    0    0 -0.15735986937E+02  0.66974237970E+02  0.47155733845E+03  0.48469983799E+03  0.88512370137E+02 0.  0.
         11    1    3    3    0    0  0.54909774346E+01  0.44941881026E+02  0.43355502996E+03  0.43591270630E+03  0.00000000000E+00 0. -1.
        -11    1    3    3    0    0 -0.21226964371E+02  0.22032356944E+02  0.38002308488E+02  0.48787131698E+02  0.00000000000E+00 0.  1.
         22    1    1    2    0    0  0.15735986937E+02 -0.66974237970E+02 -0.11899449374E+03  0.13745129820E+03  0.00000000000E+00 0.  1.
<mgrwt>
<rscale>  0 0.51261240E+03</rscale>
<asrwt>0</asrwt>
<pdfrwt beam="1">  1        2 0.74977998E-01 0.51261240E+03</pdfrwt>
<pdfrwt beam="2">  1       -2 0.20737561E-01 0.51261240E+03</pdfrwt>
<totfact> 0.12707022E+03</totfact>
</mgrwt>
</event>
<event>
 6    1  0.9988873E-007  0.1790452E+04  0.7818608E-02  0.8711394E-01
          2   -1    0    0  501    0  0.00000000000E+00  0.00000000000E+00  0.25990909764E+04  0.25990909764E+04  0.00000000000E+00 0. -1.
         -2   -1    0    0    0  501 -0.00000000000E+00 -0.00000000000E+00 -0.30834984799E+03  0.30834984799E+03  0.00000000000E+00 0.  1.
         23    2    1    2    0    0  0.71350207234E+03 -0.13425209929E+03  0.30364871725E+03  0.79186877790E+03  0.88004457452E+02 0.  0.
         11    1    3    3    0    0  0.55387437721E+03 -0.13911358678E+03  0.22437768848E+03  0.61357539296E+03  0.00000000000E+00 0. -1.
        -11    1    3    3    0    0  0.15962769513E+03  0.48614874831E+01  0.79271028763E+02  0.17829338494E+03  0.00000000000E+00 0.  1.
         22    1    1    2    0    0 -0.71350207234E+03  0.13425209929E+03  0.19870924112E+04  0.21155720465E+04  0.00000000000E+00 0. -1.
<mgrwt>
<rscale>  0 0.17904517E+04</rscale>
<asrwt>0</asrwt>
<pdfrwt beam="1">  1        2 0.39986014E+00 0.17904517E+04</pdfrwt>
<pdfrwt beam="2">  1       -2 0.47438440E-01 0.17904517E+04</pdfrwt>
<totfact> 0.12143012E+01</totfact>
</mgrwt>
</event>
<event>
 6    1  0.9988873E-007  0.3667227E+04  0.7818608E-02  0.8075264E-01
          2   -1    0    0  501    0  0.00000000000E+00  0.00000000000E+00  0.30811104943E+04  0.30811104943E+04  0.00000000000E+00 0. -1.
         -2   -1    0    0    0  501 -0.00000000000E+00 -0.00000000000E+00 -0.10912097334E+04  0.10912097334E+04  0.00000000000E+00 0.  1.
         23    2    1    2    0    0  0.69088031991E+03  0.15582188661E+04  0.23015228942E+03  0.17224066916E+04  0.91395206793E+02 0.  0.
         11    1    3    3    0    0  0.49872386688E+02  0.17603194038E+03  0.13055668368E+02  0.18342559654E+03  0.00000000000E+00 0.  1.
        -11    1    3    3    0    0  0.64100793322E+03  0.13821869257E+04  0.21709662105E+03  0.15389810951E+04  0.00000000000E+00 0. -1.
         22    1    1    2    0    0 -0.69088031991E+03 -0.15582188661E+04  0.17597484715E+04  0.24499135360E+04  0.00000000000E+00 0. -1.
<mgrwt>
<rscale>  0 0.36672266E+04</rscale>
<asrwt>0</asrwt>
<pdfrwt beam="1">  1        2 0.47401699E+00 0.36672266E+04</pdfrwt>
<pdfrwt beam="2">  1       -2 0.16787842E+00 0.36672266E+04</pdfrwt>
<totfact> 0.27656940E-01</totfact>
</mgrwt>
</event>
<event>
 6    1  0.9988873E-007  0.5697062E+03  0.7818608E-02  0.9970329E-01
         -2   -1    0    0    0  501 -0.00000000000E+00  0.00000000000E+00  0.13515149501E+03  0.13515149501E+03  0.00000000000E+00 0.  1.
          2   -1    0    0  501    0  0.00000000000E+00 -0.00000000000E+00 -0.60037276404E+03  0.60037276404E+03  0.00000000000E+00 0. -1.
         23    2    1    2    0    0  0.99652419319E+02 -0.17465350340E+03  0.84106698311E+01  0.22097429603E+03  0.91238419606E+02 0.  0.
         13    1    3    3    0    0  0.21201351671E+02 -0.61744450727E+02  0.44280803814E+02  0.78883864603E+02  0.00000000000E+00 0.  1.
        -13    1    3    3    0    0  0.78451067648E+02 -0.11290905268E+03 -0.35870133983E+02  0.14209043143E+03  0.00000000000E+00 0. -1.
         22    1    1    2    0    0 -0.99652419319E+02  0.17465350340E+03 -0.47363193887E+03  0.51454996302E+03  0.00000000000E+00 0. -1.
<mgrwt>
<rscale>  0 0.56970616E+03</rscale>
<asrwt>0</asrwt>
<pdfrwt beam="1">  1        2 0.92365042E-01 0.56970616E+03</pdfrwt>
<pdfrwt beam="2">  1       -2 0.20792537E-01 0.56970616E+03</pdfrwt>
<totfact> 0.99116031E+02</totfact>
</mgrwt>
</event>
<event>
 6    1  0.9988873E-007  0.1081137E+04  0.7818608E-02  0.9223775E-01
          1   -1    0    0  501    0  0.00000000000E+00  0.00000000000E+00  0.78537701277E+03  0.78537701277E+03  0.00000000000E+00 0. -1.
         -1   -1    0    0    0  501 -0.00000000000E+00 -0.00000000000E+00 -0.37206856634E+03  0.37206856634E+03  0.00000000000E+00 0.  1.
         23    2    1    2    0    0 -0.53334135888E+03 -0.56916823910E+02  0.22783384353E+03  0.58991288555E+03  0.91631994120E+02 0.  0.
         11    1    3    3    0    0 -0.42441032544E+03 -0.81937972116E+02  0.17588018455E+03  0.46666025644E+03  0.00000000000E+00 0. -1.
        -11    1    3    3    0    0 -0.10893103344E+03  0.25021148206E+02  0.51953658979E+02  0.12325262912E+03  0.00000000000E+00 0.  1.
         22    1    1    2    0    0  0.53334135888E+03  0.56916823910E+02  0.18547460289E+03  0.56753269356E+03  0.00000000000E+00 0. -1.
<mgrwt>
<rscale>  0 0.10811366E+04</rscale>
<asrwt>0</asrwt>
<pdfrwt beam="1">  1        1 0.12082723E+00 0.10811366E+04</pdfrwt>
<pdfrwt beam="2">  1       -1 0.57241318E-01 0.10811366E+04</pdfrwt>
<totfact> 0.70216004E+01</totfact>
</mgrwt>
</event>
<event>
 6    1  0.9988873E-007  0.1277881E+04  0.7818608E-02  0.9047292E-01
         -1   -1    0    0    0  501 -0.00000000000E+00  0.00000000000E+00  0.75648132121E+03  0.75648132121E+03  0.00000000000E+00 0.  1.
          1   -1    0    0  501    0  0.00000000000E+00 -0.00000000000E+00 -0.53966274495E+03  0.53966274495E+03  0.00000000000E+00 0. -1.
         23    2    1    2    0    0  0.46920012182E+03  0.41803980339E+03  0.20523909604E+03  0.66762189798E+03  0.93219529010E+02 0.  0.
         11    1    3    3    0    0  0.23930620486E+03  0.15194341467E+03  0.83872852265E+02  0.29561616379E+03  0.00000000000E+00 0. -1.
        -11    1    3    3    0    0  0.22989391696E+03  0.26609638872E+03  0.12136624378E+03  0.37200573419E+03  0.00000000000E+00 0.  1.
         22    1    1    2    0    0 -0.46920012182E+03 -0.41803980339E+03  0.11579480214E+02  0.62852216818E+03  0.00000000000E+00 0. -1.
<mgrwt>
<rscale>  0 0.12778807E+04</rscale>
<asrwt>0</asrwt>
<pdfrwt beam="1">  1        1 0.83025038E-01 0.12778807E+04</pdfrwt>
<pdfrwt beam="2">  1       -1 0.11638174E+00 0.12778807E+04</pdfrwt>
<totfact> 0.26163459E+01</totfact>
</mgrwt>
</event>
<event>
 6    1  0.9988873E-007  0.2181917E+04  0.7818608E-02  0.8525992E-01
          1   -1    0    0  501    0  0.00000000000E+00  0.00000000000E+00  0.19774686610E+04  0.19774686610E+04  0.00000000000E+00 0. -1.
         -1   -1    0    0    0  501 -0.00000000000E+00 -0.00000000000E+00 -0.60187600175E+03  0.60187600175E+03  0.00000000000E+00 0.  1.
         23    2    1    2    0    0 -0.28143052151E+03  0.82598686915E+03  0.14592132780E+04  0.17027319465E+04  0.92386387795E+02 0.  0.
         13    1    3    3    0    0 -0.24797129252E+03  0.64670293436E+03  0.11004091953E+04  0.13002364571E+04  0.00000000000E+00 0. -1.
        -13    1    3    3    0    0 -0.33459228990E+02  0.17928393480E+03  0.35880408265E+03  0.40249548942E+03  0.00000000000E+00 0.  1.
         22    1    1    2    0    0  0.28143052151E+03 -0.82598686915E+03 -0.83620618688E+02  0.87661271627E+03  0.00000000000E+00 0.  1.
<mgrwt>
<rscale>  0 0.21819174E+04</rscale>
<asrwt>0</asrwt>
<pdfrwt beam="1">  1        1 0.30422595E+00 0.21819174E+04</pdfrwt>
<pdfrwt beam="2">  1       -1 0.92596309E-01 0.21819174E+04</pdfrwt>
<totfact> 0.31960032E+00</totfact>
</mgrwt>
</event>
<event>
 6    1  0.9988873E-007  0.2438461E+04  0.7818608E-02  0.8425243E-01
          2   -1    0    0  501    0  0.00000000000E+00  0.00000000000E+00  0.12593933242E+04  0.12593933242E+04  0.00000000000E+00 0. -1.
         -2   -1    0    0    0  501 -0.00000000000E+00 -0.00000000000E+00 -0.11803488606E+04  0.11803488606E+04  0.00000000000E+00 0.  1.
         23    2    1    2    0    0  0.63971217904E+03 -0.95147478952E+01  0.10758867651E+04  0.12552520934E+04  0.93825819225E+02 0.  0.
         11    1    3    3    0    0  0.94217563917E+02 -0.17538637476E+02  0.10956537876E+03  0.14556484939E+03  0.00000000000E+00 0. -1.
        -11    1    3    3    0    0  0.54549461513E+03  0.80238895806E+01  0.96632138634E+03  0.11096872441E+04  0.00000000000E+00 0.  1.
         22    1    1    2    0    0 -0.63971217904E+03  0.95147478952E+01 -0.99684230149E+03  0.11844900913E+04  0.00000000000E+00 0.  1.
<mgrwt>
<rscale>  0 0.24384614E+04</rscale>
<asrwt>0</asrwt>
<pdfrwt beam="1">  1        2 0.19375282E+00 0.24384614E+04</pdfrwt>
<pdfrwt beam="2">  1       -2 0.18159213E+00 0.24384614E+04</pdfrwt>
<totfact> 0.27677613E+00</totfact>
</mgrwt>
</event>
<event>
 6    1  0.9988873E-007  0.1616729E+04  0.7818608E-02  0.8810336E-01
         -2   -1    0    0    0  501 -0.00000000000E+00  0.00000000000E+00  0.31239976069E+03  0.31239976069E+03  0.00000000000E+00 0.  1.
          2   -1    0    0  501    0  0.00000000000E+00 -0.00000000000E+00 -0.20917202891E+04  0.20917202891E+04  0.00000000000E+00 0. -1.
         23    2    1    2    0    0 -0.35417538580E+02  0.22340459030E+03 -0.20426010991E+04  0.20570167916E+04  0.89077593362E+02 0.  0.
         13    1    3    3    0    0 -0.45657381600E+01 -0.81371545006E+01 -0.95319927105E+02  0.95775507055E+02  0.00000000000E+00 0.  1.
        -13    1    3    3    0    0 -0.30851800420E+02  0.23154174480E+03 -0.19472811720E+04  0.19612412845E+04  0.00000000000E+00 0. -1.
         22    1    1    2    0    0  0.35417538580E+02 -0.22340459030E+03  0.26328057067E+03  0.34710325826E+03  0.00000000000E+00 0.  1.
<mgrwt>
<rscale>  0 0.16167287E+04</rscale>
<asrwt>0</asrwt>
<pdfrwt beam="1">  1        2 0.32180312E+00 0.16167287E+04</pdfrwt>
<pdfrwt beam="2">  1       -2 0.48061502E-01 0.16167287E+04</pdfrwt>
<totfact> 0.23337010E+01</totfact>
</mgrwt>
</event>
<event>
 6    1  0.9988873E-007  0.2976852E+04  0.7818608E-02  0.8250372E-01
         -1   -1    0    0    0  501 -0.00000000000E+00  0.00000000000E+00  0.19257682869E+04  0.19257682869E+04  0.00000000000E+00 0.  1.
          1   -1    0    0  501    0  0.00000000000E+00 -0.00000000000E+00 -0.11504038619E+04  0.11504038619E+04  0.00000000000E+00 0. -1.
         23    2    1    2    0    0 -0.61585496167E+03  0.10421769897E+03 -0.10063436144E+04  0.11881514392E+04  0.94009093677E+02 0.  0.
         11    1    3    3    0    0 -0.26662580977E+02  0.39801174712E+01 -0.91487084088E+02  0.95376208324E+02  0.00000000000E+00 0. -1.
        -11    1    3    3    0    0 -0.58919238069E+03  0.10023758150E+03 -0.91485653027E+03  0.10927752309E+04  0.00000000000E+00 0.  1.
         22    1    1    2    0    0  0.61585496167E+03 -0.10421769897E+03  0.17817080393E+04  0.18880207096E+04  0.00000000000E+00 0.  1.
<mgrwt>
<rscale>  0 0.29768515E+04</rscale>
<asrwt>0</asrwt>
<pdfrwt beam="1">  1        1 0.17698521E+00 0.29768515E+04</pdfrwt>
<pdfrwt beam="2">  1       -1 0.29627204E+00 0.29768515E+04</pdfrwt>
<totfact> 0.34605841E-01</totfact>
</mgrwt>
</event>
<event>
 6    1  0.9988873E-007  0.1207152E+04  0.7818608E-02  0.9106620E-01
          1   -1    0    0  501    0  0.00000000000E+00  0.00000000000E+00  0.91236414292E+03  0.91236414292E+03  0.00000000000E+00 0. -1.
         -1   -1    0    0    0  501 -0.00000000000E+00 -0.00000000000E+00 -0.39929637860E+03  0.39929637860E+03  0.00000000000E+00 0.  1.
         23    2    1    2    0    0  0.80251224428E+02  0.21660490183E+03 -0.34733834943E+03  0.42078644338E+03  0.55311476509E+02 0.  0.
         11    1    3    3    0    0  0.78404844704E+02  0.19385402714E+03 -0.27852132407E+03  0.34828268902E+03  0.00000000000E+00 0.  1.
        -11    1    3    3    0    0  0.18463797232E+01  0.22750874690E+02 -0.68817025362E+02  0.72503754364E+02  0.00000000000E+00 0. -1.
         22    1    1    2    0    0 -0.80251224428E+02 -0.21660490183E+03  0.86040611375E+03  0.89087407814E+03  0.00000000000E+00 0. -1.
<mgrwt>
<rscale>  0 0.12071515E+04</rscale>
<asrwt>0</asrwt>
<pdfrwt beam="1">  1        1 0.14036371E+00 0.12071515E+04</pdfrwt>
<pdfrwt beam="2">  1       -1 0.61430212E-01 0.12071515E+04</pdfrwt>
<totfact> 0.47267895E+01</totfact>
</mgrwt>
</event>
<event>
 6    1  0.9988873E-007  0.5802097E+03  0.7818608E-02  0.9947337E-01
         -1   -1    0    0    0  501 -0.00000000000E+00  0.00000000000E+00  0.22909544310E+03  0.22909544310E+03  0.00000000000E+00 0.  1.
          1   -1    0    0  501    0  0.00000000000E+00 -0.00000000000E+00 -0.36736135523E+03  0.36736135523E+03  0.00000000000E+00 0. -1.
         23    2    1    2    0    0  0.11534262742E+03 -0.63541236219E+02 -0.32565065295E+03  0.36742743014E+03  0.10776436447E+03 0.  0.
         13    1    3    3    0    0  0.95862722168E+02 -0.22781718350E+02 -0.11253064106E+03  0.14957210090E+03  0.00000000000E+00 0. -1.
        -13    1    3    3    0    0  0.19479905250E+02 -0.40759517869E+02 -0.21312001189E+03  0.21785532923E+03  0.00000000000E+00 0.  1.
         22    1    1    2    0    0 -0.11534262742E+03  0.63541236219E+02  0.18738474082E+03  0.22902936819E+03  0.00000000000E+00 0.  1.
<mgrwt>
<rscale>  0 0.58020966E+03</rscale>
<asrwt>0</asrwt>
<pdfrwt beam="1">  1        1 0.56517131E-01 0.58020966E+03</pdfrwt>
<pdfrwt beam="2">  1       -1 0.35245453E-01 0.58020966E+03</pdfrwt>
<totfact> 0.52027483E+02</totfact>
</mgrwt>
</event>
<event>
 6    1  0.9988873E-007  0.2322711E+04  0.7818608E-02  0.8469020E-01
         -2   -1    0    0    0  501 -0.00000000000E+00  0.00000000000E+00  0.62210282785E+03  0.62210282785E+03  0.00000000000E+00 0.  1.
          2   -1    0    0  501    0  0.00000000000E+00 -0.00000000000E+00 -0.21680442153E+04  0.21680442153E+04  0.00000000000E+00 0. -1.
         23    2    1    2    0    0 -0.12733607614E+03  0.75877938153E+03  0.26796174687E+03  0.81981580023E+03  0.91289771617E+02 0.  0.
         13    1    3    3    0    0 -0.11773444280E+03  0.43010404874E+03  0.14990525907E+03  0.47044923048E+03  0.00000000000E+00 0.  1.
        -13    1    3    3    0    0 -0.96016333410E+01  0.32867533279E+03  0.11805648779E+03  0.34936656975E+03  0.00000000000E+00 0. -1.
         22    1    1    2    0    0  0.12733607614E+03 -0.75877938153E+03 -0.18139031344E+04  0.19703312430E+04  0.00000000000E+00 0. -1.
<mgrwt>
<rscale>  0 0.23227109E+04</rscale>
<asrwt>0</asrwt>
<pdfrwt beam="1">  1        2 0.33354526E+00 0.23227109E+04</pdfrwt>
<pdfrwt beam="2">  1       -2 0.95708127E-01 0.23227109E+04</pdfrwt>
<totfact> 0.44603842E+00</totfact>
</mgrwt>
</event>
<event>
 6    1  0.9988873E-007  0.2351294E+04  0.7818608E-02  0.8457967E-01
          2   -1    0    0  501    0  0.00000000000E+00  0.00000000000E+00  0.14147520654E+04  0.14147520654E+04  0.00000000000E+00 0. -1.
         -2   -1    0    0    0  501 -0.00000000000E+00 -0.00000000000E+00 -0.97695270355E+03  0.97695270355E+03  0.00000000000E+00 0.  1.
         23    2    1    2    0    0  0.11557202032E+04 -0.10133499364E+03  0.40194625751E+03  0.12309966169E+04  0.88509367231E+02 0.  0.
         13    1    3    3    0    0  0.62572089436E+03 -0.48318392993E+02  0.26347735144E+03  0.68064794091E+03  0.00000000000E+00 0. -1.
        -13    1    3    3    0    0  0.52999930880E+03 -0.53016600649E+02  0.13846890607E+03  0.55034867604E+03  0.00000000000E+00 0.  1.
         22    1    1    2    0    0 -0.11557202032E+04  0.10133499364E+03  0.35853104302E+02  0.11607081520E+04  0.00000000000E+00 0. -1.
<mgrwt>
<rscale>  0 0.23512940E+04</rscale>
<asrwt>0</asrwt>
<pdfrwt beam="1">  1        2 0.21765417E+00 0.23512940E+04</pdfrwt>
<pdfrwt beam="2">  1       -2 0.15030042E+00 0.23512940E+04</pdfrwt>
<totfact> 0.38192428E+00</totfact>
</mgrwt>
</event>
<event>
 6    1  0.9988873E-007  0.5372952E+03  0.7818608E-02  0.1004478E+00
         -2   -1    0    0    0  501 -0.00000000000E+00  0.00000000000E+00  0.37355271347E+02  0.37355271347E+02  0.00000000000E+00 0.  1.
          2   -1    0    0  501    0  0.00000000000E+00 -0.00000000000E+00 -0.19320306699E+04  0.19320306699E+04  0.00000000000E+00 0. -1.
         23    2    1    2    0    0  0.10274358894E+03 -0.39540226305E+02 -0.18414827452E+04  0.18471192944E+04  0.93119881516E+02 0.  0.
         13    1    3    3    0    0  0.67734726522E+02 -0.18580348776E+02 -0.48871838374E+03  0.49373968966E+03  0.00000000000E+00 0. -1.
        -13    1    3    3    0    0  0.35008862423E+02 -0.20959877529E+02 -0.13527643614E+04  0.13533796047E+04  0.00000000000E+00 0.  1.
         22    1    1    2    0    0 -0.10274358894E+03  0.39540226305E+02 -0.53192653403E+02  0.12226664689E+03  0.00000000000E+00 0.  1.
<mgrwt>
<rscale>  0 0.53729519E+03</rscale>
<asrwt>0</asrwt>
<pdfrwt beam="1">  1        2 0.29723554E+00 0.53729519E+03</pdfrwt>
<pdfrwt beam="2">  1       -2 0.57469638E-02 0.53729519E+03</pdfrwt>
<totfact> 0.12512804E+03</totfact>
</mgrwt>
</event>
<event>
 6    1  0.9988873E-007  0.1977982E+04  0.7818608E-02  0.8616984E-01
          1   -1    0    0  501    0  0.00000000000E+00  0.00000000000E+00  0.91642159795E+03  0.91642159795E+03  0.00000000000E+00 0. -1.
         -1   -1    0    0    0  501 -0.00000000000E+00 -0.00000000000E+00 -0.10673075320E+04  0.10673075320E+04  0.00000000000E+00 0.  1.
         23    2    1    2    0    0  0.97929289265E+03 -0.11157702448E+03 -0.12590833346E+03  0.99778395781E+03  0.90862071521E+02 0.  0.
         11    1    3    3    0    0  0.60739094627E+03 -0.68922876243E+02 -0.12242568058E+03  0.62342775984E+03  0.00000000000E+00 0.  1.
        -11    1    3    3    0    0  0.37190194638E+03 -0.42654148238E+02 -0.34826528770E+01  0.37435619796E+03  0.00000000000E+00 0. -1.
         22    1    1    2    0    0 -0.97929289265E+03  0.11157702448E+03 -0.24977600615E+02  0.98594517216E+03  0.00000000000E+00 0.  1.
<mgrwt>
<rscale>  0 0.19779825E+04</rscale>
<asrwt>0</asrwt>
<pdfrwt beam="1">  1        1 0.14098794E+00 0.19779825E+04</pdfrwt>
<pdfrwt beam="2">  1       -1 0.16420116E+00 0.19779825E+04</pdfrwt>
<totfact> 0.44551458E+00</totfact>
</mgrwt>
</event>
<event>
 6    1  0.9988873E-007  0.1961249E+04  0.7818608E-02  0.8624956E-01
         -2   -1    0    0    0  501 -0.00000000000E+00  0.00000000000E+00  0.70262104177E+03  0.70262104177E+03  0.00000000000E+00 0.  1.
          2   -1    0    0  501    0  0.00000000000E+00 -0.00000000000E+00 -0.13686239483E+04  0.13686239483E+04  0.00000000000E+00 0. -1.
         23    2    1    2    0    0  0.50468191364E+03  0.24537008518E+03 -0.11812870036E+04  0.13093867268E+04  0.64376259881E+02 0.  0.
         13    1    3    3    0    0  0.37018633455E+03  0.18343263792E+03 -0.93152667727E+03  0.10190325831E+04  0.00000000000E+00 0. -1.
        -13    1    3    3    0    0  0.13449557909E+03  0.61937447253E+02 -0.24976032628E+03  0.29035414368E+03  0.00000000000E+00 0.  1.
         22    1    1    2    0    0 -0.50468191364E+03 -0.24537008518E+03  0.51528409704E+03  0.76185826328E+03  0.00000000000E+00 0.  1.
<mgrwt>
<rscale>  0 0.19612486E+04</rscale>
<asrwt>0</asrwt>
<pdfrwt beam="1">  1        2 0.21055753E+00 0.19612486E+04</pdfrwt>
<pdfrwt beam="2">  1       -2 0.10809555E+00 0.19612486E+04</pdfrwt>
<totfact> 0.96365613E+00</totfact>
</mgrwt>
</event>
<event>
 6    1  0.9988873E-007  0.1174929E+04  0.7818608E-02  0.9135089E-01
          2   -1    0    0  501    0  0.00000000000E+00  0.00000000000E+00  0.28059648292E+04  0.28059648292E+04  0.00000000000E+00 0. -1.
         -2   -1    0    0    0  501 -0.00000000000E+00 -0.00000000000E+00 -0.12299309975E+03  0.12299309975E+03  0.00000000000E+00 0.  1.
         23    2    1    2    0    0 -0.28902422558E+03  0.17742107262E+03  0.25357806362E+04  0.25592574314E+04  0.67837490935E+02 0.  0.
         11    1    3    3    0    0 -0.13847338388E+03  0.81341909895E+02  0.14527610732E+04  0.14616107964E+04  0.00000000000E+00 0. -1.
        -11    1    3    3    0    0 -0.15055084170E+03  0.96079162724E+02  0.10830195630E+04  0.10976466350E+04  0.00000000000E+00 0.  1.
         22    1    1    2    0    0  0.28902422558E+03 -0.17742107262E+03  0.14719109327E+03  0.36970049759E+03  0.00000000000E+00 0.  1.
<mgrwt>
<rscale>  0 0.11749286E+04</rscale>
<asrwt>0</asrwt>
<pdfrwt beam="1">  1        2 0.43168685E+00 0.11749286E+04</pdfrwt>
<pdfrwt beam="2">  1       -2 0.18922017E-01 0.11749286E+04</pdfrwt>
<totfact> 0.54020076E+01</totfact>
</mgrwt>
</event>
<event>
 6    1  0.9988873E-007  0.9637302E+03  0.7818608E-02  0.9349245E-01
          1   -1    0    0  501    0  0.00000000000E+00  0.00000000000E+00  0.32941639822E+04  0.32941639822E+04  0.00000000000E+00 0. -1.
         -1   -1    0    0    0  501 -0.00000000000E+00 -0.00000000000E+00 -0.70486458869E+02  0.70486458869E+02  0.00000000000E+00 0.  1.
         23    2    1    2    0    0 -0.73520137662E+02 -0.39422919262E+02  0.32680079006E+04  0.32701805540E+04  0.85122500727E+02 0.  0.
         13    1    3    3    0    0  0.15849981292E+02 -0.22639646514E+02  0.62995813100E+03  0.63056405092E+03  0.00000000000E+00 0. -1.
        -13    1    3    3    0    0 -0.89370118954E+02 -0.16783272748E+02  0.26380497696E+04  0.26396165031E+04  0.00000000000E+00 0.  1.
         22    1    1    2    0    0  0.73520137662E+02  0.39422919262E+02 -0.44330377306E+02  0.94469887038E+02  0.00000000000E+00 0.  1.
<mgrwt>
<rscale>  0 0.96373016E+03</rscale>
<asrwt>0</asrwt>
<pdfrwt beam="1">  1        1 0.50679434E+00 0.96373016E+03</pdfrwt>
<pdfrwt beam="2">  1       -1 0.10844073E-01 0.96373016E+03</pdfrwt>
<totfact> 0.20776767E+01</totfact>
</mgrwt>
</event>
<event>
 6    1  0.9988873E-007  0.1953555E+04  0.7818608E-02  0.8628649E-01
         -2   -1    0    0    0  501 -0.00000000000E+00  0.00000000000E+00  0.34080263547E+03  0.34080263547E+03  0.00000000000E+00 0.  1.
          2   -1    0    0  501    0  0.00000000000E+00 -0.00000000000E+00 -0.27995497889E+04  0.27995497889E+04  0.00000000000E+00 0. -1.
         23    2    1    2    0    0 -0.88562973983E+03  0.27766390441E+03 -0.75415237752E+03  0.11994555621E+04  0.92252680511E+02 0.  0.
         11    1    3    3    0    0 -0.32430432504E+03  0.14740151584E+03 -0.30129754798E+03  0.46656265875E+03  0.00000000000E+00 0. -1.
        -11    1    3    3    0    0 -0.56132541479E+03  0.13026238857E+03 -0.45285482953E+03  0.73289290336E+03  0.00000000000E+00 0.  1.
         22    1    1    2    0    0  0.88562973983E+03 -0.27766390441E+03 -0.17045947759E+04  0.19408968623E+04  0.00000000000E+00 0. -1.
<mgrwt>
<rscale>  0 0.19535547E+04</rscale>
<asrwt>0</asrwt>
<pdfrwt beam="1">  1        2 0.43069997E+00 0.19535547E+04</pdfrwt>
<pdfrwt beam="2">  1       -2 0.52431175E-01 0.19535547E+04</pdfrwt>
<totfact> 0.74201916E+00</totfact>
</mgrwt>
</event>
<event>
 6    1  0.9988873E-007  0.1317390E+04  0.7818608E-02  0.9015888E-01
          2   -1    0    0  501    0  0.00000000000E+00  0.00000000000E+00  0.74258920650E+03  0.74258920650E+03  0.00000000000E+00 0. -1.
         -2   -1    0    0    0  501 -0.00000000000E+00 -0.00000000000E+00 -0.58427831988E+03  0.58427831988E+03  0.00000000000E+00 0.  1.
         23    2    1    2    0    0 -0.37982563578E+03  0.11975792240E+03  0.60372670969E+03  0.72936879917E+03  0.94251958249E+02 0.  0.
         13    1    3    3    0    0 -0.23491632654E+03  0.28408683524E+02  0.32087000651E+03  0.39868570937E+03  0.00000000000E+00 0.  1.
        -13    1    3    3    0    0 -0.14490930924E+03  0.91349238880E+02  0.28285670318E+03  0.33068308980E+03  0.00000000000E+00 0. -1.
         22    1    1    2    0    0  0.37982563578E+03 -0.11975792240E+03 -0.44541582308E+03  0.59749872721E+03  0.00000000000E+00 0.  1.
<mgrwt>
<rscale>  0 0.13173895E+04</rscale>
<asrwt>0</asrwt>
<pdfrwt beam="1">  1        2 0.11424449E+00 0.13173895E+04</pdfrwt>
<pdfrwt beam="2">  1       -2 0.89888972E-01 0.13173895E+04</pdfrwt>
<totfact> 0.39428066E+01</totfact>
</mgrwt>
</event>
<event>
 6    1  0.9988873E-007  0.1284732E+04  0.7818608E-02  0.9041761E-01
         -2   -1    0    0    0  501 -0.00000000000E+00  0.00000000000E+00  0.27265550174E+03  0.27265550174E+03  0.00000000000E+00 0.  1.
          2   -1    0    0  501    0  0.00000000000E+00 -0.00000000000E+00 -0.15133905312E+04  0.15133905312E+04  0.00000000000E+00 0. -1.
         23    2    1    2    0    0 -0.59008569391E+02 -0.24118441891E+03  0.19510737792E+03  0.32889286528E+03  0.91933088294E+02 0.  0.
         11    1    3    3    0    0 -0.15755298637E+02  0.24866109193E+01  0.20696527294E+02  0.26129655777E+02  0.00000000000E+00 0. -1.
        -11    1    3    3    0    0 -0.43253270754E+02 -0.24367102983E+03  0.17441085063E+03  0.30276320950E+03  0.00000000000E+00 0.  1.
         22    1    1    2    0    0  0.59008569391E+02  0.24118441891E+03 -0.14358424074E+04  0.14571531676E+04  0.00000000000E+00 0. -1.
<mgrwt>
<rscale>  0 0.12847323E+04</rscale>
<asrwt>0</asrwt>
<pdfrwt beam="1">  1        2 0.23282931E+00 0.12847323E+04</pdfrwt>
<pdfrwt beam="2">  1       -2 0.41947000E-01 0.12847323E+04</pdfrwt>
<totfact> 0.65898012E+01</totfact>
</mgrwt>
</event>
<event>
 6    1  0.9988873E-007  0.2680772E+04  0.7818608E-02  0.8341271E-01
          2   -1    0    0  501    0  0.00000000000E+00  0.00000000000E+00  0.24519735686E+04  0.24519735686E+04  0.00000000000E+00 0. -1.
         -2   -1    0    0    0  501 -0.00000000000E+00 -0.00000000000E+00 -0.73272977674E+03  0.73272977674E+03  0.00000000000E+00 0.  1.
         23    2    1    2    0    0 -0.11468613006E+04 -0.46483599258E+02  0.16793769084E+04  0.20362082708E+04  0.91573760892E+02 0.  0.
         13    1    3    3    0    0 -0.86730025432E+03 -0.62098596413E+02  0.13195239641E+04  0.15802561370E+04  0.00000000000E+00 0. -1.
        -13    1    3    3    0    0 -0.27956104628E+03  0.15614997156E+02  0.35985294429E+03  0.45595213372E+03  0.00000000000E+00 0.  1.
         22    1    1    2    0    0  0.11468613006E+04  0.46483599258E+02  0.39866883423E+02  0.11484950745E+04  0.00000000000E+00 0.  1.
<mgrwt>
<rscale>  0 0.26807716E+04</rscale>
<asrwt>0</asrwt>
<pdfrwt beam="1">  1        2 0.37722670E+00 0.26807716E+04</pdfrwt>
<pdfrwt beam="2">  1       -2 0.11272766E+00 0.26807716E+04</pdfrwt>
<totfact> 0.20182198E+00</totfact>
</mgrwt>
</event>
<event>
 6    1  0.9988873E-007  0.3132444E+04  0.7818608E-02  0.8206890E-01
         -2   -1    0    0    0  501 -0.00000000000E+00  0.00000000000E+00  0.85019312015E+03  0.85019312015E+03  0.00000000000E+00 0.  1.
          2   -1    0    0  501    0  0.00000000000E+00 -0.00000000000E+00 -0.28852881238E+04  0.28852881238E+04  0.00000000000E+00 0. -1.
         23    2    1    2    0    0 -0.42051021654E+03 -0.11217842313E+04  0.18201830525E+03  0.12153978865E+04  0.93982206780E+02 0.  0.
         11    1    3    3    0    0 -0.29117204411E+03 -0.86897785763E+03  0.16249398238E+03  0.93075666564E+03  0.00000000000E+00 0. -1.
        -11    1    3    3    0    0 -0.12933817243E+03 -0.25280637371E+03  0.19524322872E+02  0.28464122088E+03  0.00000000000E+00 0.  1.
         22    1    1    2    0    0  0.42051021654E+03  0.11217842313E+04 -0.22171133089E+04  0.25200833574E+04  0.00000000000E+00 0. -1.
<mgrwt>
<rscale>  0 0.31324445E+04</rscale>
<asrwt>0</asrwt>
<pdfrwt beam="1">  1        2 0.44389049E+00 0.31324445E+04</pdfrwt>
<pdfrwt beam="2">  1       -2 0.13079894E+00 0.31324445E+04</pdfrwt>
<totfact> 0.74233393E-01</totfact>
</mgrwt>
</event>
<event>
 6    1  0.9988873E-007  0.1436901E+04  0.7818608E-02  0.8927532E-01
         -2   -1    0    0    0  501 -0.00000000000E+00  0.00000000000E+00  0.36931967000E+03  0.36931967000E+03  0.00000000000E+00 0.  1.
          2   -1    0    0  501    0  0.00000000000E+00 -0.00000000000E+00 -0.13976269183E+04  0.13976269183E+04  0.00000000000E+00 0. -1.
         23    2    1    2    0    0 -0.58298624831E+03  0.29525188963E+03 -0.15772474508E+03  0.67838766066E+03  0.91027901608E+02 0.  0.
         11    1    3    3    0    0 -0.17606922577E+03  0.53429979833E+02 -0.70655999269E+02  0.19709745113E+03  0.00000000000E+00 0. -1.
        -11    1    3    3    0    0 -0.40691702254E+03  0.24182190980E+03 -0.87068745806E+02  0.48129020953E+03  0.00000000000E+00 0.  1.
         22    1    1    2    0    0  0.58298624831E+03 -0.29525188963E+03 -0.87058250327E+03  0.10885589277E+04  0.00000000000E+00 0. -1.
<mgrwt>
<rscale>  0 0.14369010E+04</rscale>
<asrwt>0</asrwt>
<pdfrwt beam="1">  1        2 0.21501952E+00 0.14369010E+04</pdfrwt>
<pdfrwt beam="2">  1       -2 0.56818412E-01 0.14369010E+04</pdfrwt>
<totfact> 0.40925243E+01</totfact>
</mgrwt>
</event>
<event>
 6    1  0.9988873E-007  0.1785370E+04  0.7818608E-02  0.8714119E-01
         -1   -1    0    0    0  501 -0.00000000000E+00  0.00000000000E+00  0.56504955469E+03  0.56504955469E+03  0.00000000000E+00 0.  1.
          1   -1    0    0  501    0  0.00000000000E+00 -0.00000000000E+00 -0.14102942223E+04  0.14102942223E+04  0.00000000000E+00 0. -1.
         23    2    1    2    0    0 -0.31891932435E+03 -0.66173293953E+03  0.13184212957E+03  0.75292869694E+03  0.99595466018E+02 0.  0.
         13    1    3    3    0    0 -0.23620914545E+03 -0.53848004229E+03  0.70124910577E+02  0.59217651036E+03  0.00000000000E+00 0. -1.
        -13    1    3    3    0    0 -0.82710178901E+02 -0.12325289724E+03  0.61717218990E+02  0.16075218658E+03  0.00000000000E+00 0.  1.
         22    1    1    2    0    0  0.31891932435E+03  0.66173293953E+03 -0.97708679719E+03  0.12224150801E+04  0.00000000000E+00 0. -1.
<mgrwt>
<rscale>  0 0.17853696E+04</rscale>
<asrwt>0</asrwt>
<pdfrwt beam="1">  1        1 0.21696834E+00 0.17853696E+04</pdfrwt>
<pdfrwt beam="2">  1       -1 0.86930702E-01 0.17853696E+04</pdfrwt>
<totfact> 0.93066706E+00</totfact>
</mgrwt>
</event>
<event>
 6    1  0.9988873E-007  0.3411324E+04  0.7818608E-02  0.8135133E-01
          2   -1    0    0  501    0  0.00000000000E+00  0.00000000000E+00  0.15320785470E+04  0.15320785470E+04  0.00000000000E+00 0. -1.
         -2   -1    0    0    0  501 -0.00000000000E+00 -0.00000000000E+00 -0.18989119570E+04  0.18989119570E+04  0.00000000000E+00 0.  1.
         23    2    1    2    0    0  0.12553750407E+04 -0.10449358062E+04  0.30625956095E+03  0.16643803377E+04  0.92247806898E+02 0.  0.
         11    1    3    3    0    0  0.52501021213E+03 -0.45668626547E+03  0.17429635978E+03  0.71734042751E+03  0.00000000000E+00 0. -1.
        -11    1    3    3    0    0  0.73036482859E+03 -0.58824954077E+03  0.13196320117E+03  0.94703991021E+03  0.00000000000E+00 0.  1.
         22    1    1    2    0    0 -0.12553750407E+04  0.10449358062E+04 -0.67309297101E+03  0.17666101663E+04  0.00000000000E+00 0.  1.
<mgrwt>
<rscale>  0 0.34113237E+04</rscale>
<asrwt>0</asrwt>
<pdfrwt beam="1">  1        2 0.23570439E+00 0.34113237E+04</pdfrwt>
<pdfrwt beam="2">  1       -2 0.29214030E+00 0.34113237E+04</pdfrwt>
<totfact> 0.35776564E-01</totfact>
</mgrwt>
</event>
<event>
 6    1  0.9988873E-007  0.9971653E+03  0.7818608E-02  0.9311659E-01
         -1   -1    0    0    0  501 -0.00000000000E+00  0.00000000000E+00  0.21390570610E+03  0.21390570610E+03  0.00000000000E+00 0.  1.
          1   -1    0    0  501    0  0.00000000000E+00 -0.00000000000E+00 -0.11621226424E+04  0.11621226424E+04  0.00000000000E+00 0. -1.
         23    2    1    2    0    0 -0.72927964538E+02 -0.48882485548E+03 -0.45512913006E+03  0.67788523137E+03  0.90097916360E+02 0.  0.
         11    1    3    3    0    0 -0.87254555297E+02 -0.33195288558E+03 -0.33673292432E+03  0.48082755535E+03  0.00000000000E+00 0. -1.
        -11    1    3    3    0    0  0.14326590759E+02 -0.15687196990E+03 -0.11839620573E+03  0.19705767601E+03  0.00000000000E+00 0.  1.
         22    1    1    2    0    0  0.72927964538E+02  0.48882485548E+03 -0.49308780628E+03  0.69814311717E+03  0.00000000000E+00 0. -1.
<mgrwt>
<rscale>  0 0.99716531E+03</rscale>
<asrwt>0</asrwt>
<pdfrwt beam="1">  1        1 0.17878810E+00 0.99716531E+03</pdfrwt>
<pdfrwt beam="2">  1       -1 0.32908571E-01 0.99716531E+03</pdfrwt>
<totfact> 0.98874083E+01</totfact>
</mgrwt>
</event>
<event>
 6    1  0.9988873E-007  0.1425881E+04  0.7818608E-02  0.8935295E-01
          2   -1    0    0  501    0  0.00000000000E+00  0.00000000000E+00  0.31162377114E+04  0.31162377114E+04  0.00000000000E+00 0. -1.
         -2   -1    0    0    0  501 -0.00000000000E+00 -0.00000000000E+00 -0.16310816107E+03  0.16310816107E+03  0.00000000000E+00 0.  1.
         23    2    1    2    0    0  0.67022320750E+02 -0.70692386256E+03  0.14672057209E+04  0.16324691419E+04  0.89607660052E+02 0.  0.
         13    1    3    3    0    0  0.36160288573E+02 -0.11590413625E+03  0.20188265180E+03  0.23558000842E+03  0.00000000000E+00 0. -1.
        -13    1    3    3    0    0  0.30862032176E+02 -0.59101972631E+03  0.12653230691E+04  0.13968891335E+04  0.00000000000E+00 0.  1.
         22    1    1    2    0    0 -0.67022320750E+02  0.70692386256E+03  0.14859238294E+04  0.16468767306E+04  0.00000000000E+00 0.  1.
<mgrwt>
<rscale>  0 0.14258805E+04</rscale>
<asrwt>0</asrwt>
<pdfrwt beam="1">  1        2 0.47942114E+00 0.14258805E+04</pdfrwt>
<pdfrwt beam="2">  1       -2 0.25093566E-01 0.14258805E+04</pdfrwt>
<totfact> 0.20547114E+01</totfact>
</mgrwt>
</event>
<event>
 6    1  0.9988873E-007  0.3193763E+04  0.7818608E-02  0.8190466E-01
          1   -1    0    0  501    0  0.00000000000E+00  0.00000000000E+00  0.28755730487E+04  0.28755730487E+04  0.00000000000E+00 0. -1.
         -1   -1    0    0    0  501 -0.00000000000E+00 -0.00000000000E+00 -0.88679047605E+03  0.88679047605E+03  0.00000000000E+00 0.  1.
         23    2    1    2    0    0 -0.38475851432E+03 -0.19756555664E+03  0.28044824760E+04  0.28390880536E+04  0.90706970591E+02 0.  0.
         11    1    3    3    0    0 -0.77037603835E+02 -0.72692014275E+02  0.85290485319E+03  0.85945657828E+03  0.00000000000E+00 0. -1.
        -11    1    3    3    0    0 -0.30772091049E+03 -0.12487354236E+03  0.19515776228E+04  0.19796314753E+04  0.00000000000E+00 0.  1.
         22    1    1    2    0    0  0.38475851432E+03  0.19756555664E+03 -0.81569990328E+03  0.92327547120E+03  0.00000000000E+00 0.  1.
<mgrwt>
<rscale>  0 0.31937632E+04</rscale>
<asrwt>0</asrwt>
<pdfrwt beam="1">  1        1 0.44239585E+00 0.31937632E+04</pdfrwt>
<pdfrwt beam="2">  1       -1 0.13642931E+00 0.31937632E+04</pdfrwt>
<totfact> 0.27591015E-01</totfact>
</mgrwt>
</event>
<event>
 6    1  0.9988873E-007  0.6773460E+03  0.7818608E-02  0.9756778E-01
         -2   -1    0    0    0  501 -0.00000000000E+00  0.00000000000E+00  0.55374728923E+03  0.55374728923E+03  0.00000000000E+00 0.  1.
          2   -1    0    0  501    0  0.00000000000E+00 -0.00000000000E+00 -0.20713311349E+03  0.20713311349E+03  0.00000000000E+00 0. -1.
         23    2    1    2    0    0 -0.94268721575E+02  0.18771911324E+03 -0.11288086068E+03  0.25564704491E+03  0.92131783444E+02 0.  0.
         11    1    3    3    0    0  0.54001018658E+01  0.20315206637E+02  0.12025812152E+02  0.24217532467E+02  0.00000000000E+00 0. -1.
        -11    1    3    3    0    0 -0.99668823441E+02  0.16740390660E+03 -0.12490667283E+03  0.23142951244E+03  0.00000000000E+00 0.  1.
         22    1    1    2    0    0  0.94268721575E+02 -0.18771911324E+03  0.45949503642E+03  0.50523335781E+03  0.00000000000E+00 0.  1.
<mgrwt>
<rscale>  0 0.67734600E+03</rscale>
<asrwt>0</asrwt>
<pdfrwt beam="1">  1        2 0.31866633E-01 0.67734600E+03</pdfrwt>
<pdfrwt beam="2">  1       -2 0.85191890E-01 0.67734600E+03</pdfrwt>
<totfact> 0.20134743E+02</totfact>
</mgrwt>
</event>
<event>
 6    1  0.9988873E-007  0.2959481E+04  0.7818608E-02  0.8255397E-01
          2   -1    0    0  501    0  0.00000000000E+00  0.00000000000E+00  0.30984908182E+04  0.30984908182E+04  0.00000000000E+00 0. -1.
         -2   -1    0    0    0  501 -0.00000000000E+00 -0.00000000000E+00 -0.70667692516E+03  0.70667692516E+03  0.00000000000E+00 0.  1.
         23    2    1    2    0    0 -0.13861850496E+04  0.26380371044E+03  0.17640835738E+04  0.22607757132E+04  0.89524189850E+02 0.  0.
         13    1    3    3    0    0 -0.66168034183E+03  0.13470572730E+03  0.77410679618E+03  0.10272330990E+04  0.00000000000E+00 0. -1.
        -13    1    3    3    0    0 -0.72450470772E+03  0.12909798314E+03  0.98997677764E+03  0.12335426142E+04  0.00000000000E+00 0.  1.
         22    1    1    2    0    0  0.13861850496E+04 -0.26380371044E+03  0.62773031921E+03  0.15443920302E+04  0.00000000000E+00 0. -1.
<mgrwt>
<rscale>  0 0.29594810E+04</rscale>
<asrwt>0</asrwt>
<pdfrwt beam="1">  1        2 0.47669089E+00 0.29594810E+04</pdfrwt>
<pdfrwt beam="2">  1       -2 0.10871953E+00 0.29594810E+04</pdfrwt>
<totfact> 0.87499025E-01</totfact>
</mgrwt>
</event>
<event>
 6    1  0.9988873E-007  0.4117711E+04  0.7818608E-02  0.7981212E-01
          2   -1    0    0  501    0  0.00000000000E+00  0.00000000000E+00  0.20909079837E+04  0.20909079837E+04  0.00000000000E+00 0. -1.
         -2   -1    0    0    0  501 -0.00000000000E+00 -0.00000000000E+00 -0.20272947386E+04  0.20272947386E+04  0.00000000000E+00 0.  1.
         23    2    1    2    0    0  0.40720085216E+03 -0.15797389722E+04  0.12864479941E+04  0.20794009718E+04  0.87018423780E+02 0.  0.
         11    1    3    3    0    0  0.18443130085E+03 -0.66246992215E+03  0.59448834690E+03  0.90900918427E+03  0.00000000000E+00 0.  1.
        -11    1    3    3    0    0  0.22276955131E+03 -0.91726905002E+03  0.69195964716E+03  0.11703917876E+04  0.00000000000E+00 0. -1.
         22    1    1    2    0    0 -0.40720085216E+03  0.15797389722E+04 -0.12228347490E+04  0.20388017504E+04  0.00000000000E+00 0.  1.
<mgrwt>
<rscale>  0 0.41177114E+04</rscale>
<asrwt>0</asrwt>
<pdfrwt beam="1">  1        2 0.32167815E+00 0.41177114E+04</pdfrwt>
<pdfrwt beam="2">  1       -2 0.31189150E+00 0.41177114E+04</pdfrwt>
<totfact> 0.12480799E-01</totfact>
</mgrwt>
</event>
<event>
 6    1  0.9988873E-007  0.3239095E+04  0.7818608E-02  0.8178568E-01
          2   -1    0    0  501    0  0.00000000000E+00  0.00000000000E+00  0.16585182206E+04  0.16585182206E+04  0.00000000000E+00 0. -1.
         -2   -1    0    0    0  501 -0.00000000000E+00 -0.00000000000E+00 -0.15814922716E+04  0.15814922716E+04  0.00000000000E+00 0.  1.
         23    2    1    2    0    0 -0.13317013732E+04 -0.59174323431E+03  0.74239288461E+03  0.16380424021E+04  0.91908177438E+02 0.  0.
         11    1    3    3    0    0 -0.12102173970E+04 -0.52094630076E+03  0.69513109241E+03  0.14897041424E+04  0.00000000000E+00 0. -1.
        -11    1    3    3    0    0 -0.12148397620E+03 -0.70796933547E+02  0.47261792207E+02  0.14833825965E+03  0.00000000000E+00 0.  1.
         22    1    1    2    0    0  0.13317013732E+04  0.59174323431E+03 -0.66536693555E+03  0.16019680901E+04  0.00000000000E+00 0.  1.
<mgrwt>
<rscale>  0 0.32390948E+04</rscale>
<asrwt>0</asrwt>
<pdfrwt beam="1">  1        2 0.25515665E+00 0.32390948E+04</pdfrwt>
<pdfrwt beam="2">  1       -2 0.24330650E+00 0.32390948E+04</pdfrwt>
<totfact> 0.61352822E-01</totfact>
</mgrwt>
</event>
<event>
 6    1  0.9988873E-007  0.1665452E+04  0.7818608E-02  0.8781317E-01
         -1   -1    0    0    0  501 -0.00000000000E+00  0.00000000000E+00  0.54720930172E+03  0.54720930172E+03  0.00000000000E+00 0.  1.
          1   -1    0    0  501    0  0.00000000000E+00 -0.00000000000E+00 -0.12672169395E+04  0.12672169395E+04  0.00000000000E+00 0. -1.
         23    2    1    2    0    0 -0.40898864971E+03 -0.71619548695E+03 -0.25788916327E+03  0.86903681055E+03  0.92252189346E+02 0.  0.
         11    1    3    3    0    0 -0.70921254156E+02 -0.16713618768E+03 -0.24019609457E+02  0.18314276170E+03  0.00000000000E+00 0. -1.
        -11    1    3    3    0    0 -0.33806739555E+03 -0.54905929927E+03 -0.23386955382E+03  0.68589404885E+03  0.00000000000E+00 0.  1.
         22    1    1    2    0    0  0.40898864971E+03  0.71619548695E+03 -0.46211847449E+03  0.94538943065E+03  0.00000000000E+00 0.  1.
<mgrwt>
<rscale>  0 0.16654524E+04</rscale>
<asrwt>0</asrwt>
<pdfrwt beam="1">  1        1 0.19495645E+00 0.16654524E+04</pdfrwt>
<pdfrwt beam="2">  1       -1 0.84186047E-01 0.16654524E+04</pdfrwt>
<totfact> 0.12741349E+01</totfact>
</mgrwt>
</event>
<event>
 6    1  0.9988873E-007  0.3142042E+04  0.7818608E-02  0.8204294E-01
         -2   -1    0    0    0  501 -0.00000000000E+00  0.00000000000E+00  0.99253557873E+03  0.99253557873E+03  0.00000000000E+00 0.  1.
          2   -1    0    0  501    0  0.00000000000E+00 -0.00000000000E+00 -0.24866684083E+04  0.24866684083E+04  0.00000000000E+00 0. -1.
         23    2    1    2    0    0  0.64319600744E+03 -0.10636200316E+04  0.31375855084E+03  0.12852441153E+04  0.91756918048E+02 0.  0.
         11    1    3    3    0    0  0.52116920077E+03 -0.79437288319E+03  0.22125016617E+03  0.97549846202E+03  0.00000000000E+00 0.  1.
        -11    1    3    3    0    0  0.12202680667E+03 -0.26924714839E+03  0.92508384675E+02  0.30974565323E+03  0.00000000000E+00 0. -1.
         22    1    1    2    0    0 -0.64319600744E+03  0.10636200316E+04 -0.18078913804E+04  0.21939598718E+04  0.00000000000E+00 0. -1.
<mgrwt>
<rscale>  0 0.31420419E+04</rscale>
<asrwt>0</asrwt>
<pdfrwt beam="1">  1        2 0.38256437E+00 0.31420419E+04</pdfrwt>
<pdfrwt beam="2">  1       -2 0.15269778E+00 0.31420419E+04</pdfrwt>
<totfact> 0.85653786E-01</totfact>
</mgrwt>
</event>
<event>
 6    1  0.9988873E-007  0.2211637E+04  0.7818608E-02  0.8513600E-01
         -1   -1    0    0    0  501 -0.00000000000E+00  0.00000000000E+00  0.11696349230E+04  0.11696349230E+04  0.00000000000E+00 0.  1.
          1   -1    0    0  501    0  0.00000000000E+00 -0.00000000000E+00 -0.10454840280E+04  0.10454840280E+04  0.00000000000E+00 0. -1.
         23    2    1    2    0    0 -0.57373160195E+03  0.38005483026E+03 -0.80260249933E+03  0.10607873354E+04  0.86541168525E+02 0.  0.
         11    1    3    3    0    0 -0.22374623660E+03  0.10927701410E+03 -0.32931756543E+03  0.41286063399E+03  0.00000000000E+00 0. -1.
        -11    1    3    3    0    0 -0.34998536535E+03  0.27077781616E+03 -0.47328493391E+03  0.64792670136E+03  0.00000000000E+00 0.  1.
         22    1    1    2    0    0  0.57373160195E+03 -0.38005483026E+03  0.92675339436E+03  0.11543316157E+04  0.00000000000E+00 0.  1.
<mgrwt>
<rscale>  0 0.22116371E+04</rscale>
<asrwt>0</asrwt>
<pdfrwt beam="1">  1        1 0.16084370E+00 0.22116371E+04</pdfrwt>
<pdfrwt beam="2">  1       -1 0.17994383E+00 0.22116371E+04</pdfrwt>
<totfact> 0.26467419E+00</totfact>
</mgrwt>
</event>
<event>
 6    1  0.9988873E-007  0.1846004E+04  0.7818608E-02  0.8682210E-01
         -2   -1    0    0    0  501 -0.00000000000E+00  0.00000000000E+00  0.78914864626E+03  0.78914864626E+03  0.00000000000E+00 0.  1.
          2   -1    0    0  501    0  0.00000000000E+00 -0.00000000000E+00 -0.10795597701E+04  0.10795597701E+04  0.00000000000E+00 0. -1.
         23    2    1    2    0    0  0.37334155745E+03 -0.83556281530E+03 -0.24844804581E+03  0.95256976049E+03  0.90075414523E+02 0.  0.
         11    1    3    3    0    0  0.17017383423E+03 -0.46841754349E+03 -0.16297745870E+03  0.52434319005E+03  0.00000000000E+00 0.  1.
        -11    1    3    3    0    0  0.20316772322E+03 -0.36714527181E+03 -0.85470587107E+02  0.42822657044E+03  0.00000000000E+00 0. -1.
         22    1    1    2    0    0 -0.37334155745E+03  0.83556281530E+03 -0.41963078023E+02  0.91613865586E+03  0.00000000000E+00 0.  1.
<mgrwt>
<rscale>  0 0.18460045E+04</rscale>
<asrwt>0</asrwt>
<pdfrwt beam="1">  1        2 0.16608612E+00 0.18460045E+04</pdfrwt>
<pdfrwt beam="2">  1       -2 0.12140748E+00 0.18460045E+04</pdfrwt>
<totfact> 0.10884098E+01</totfact>
</mgrwt>
</event>
<event>
 6    1  0.9988873E-007  0.3037649E+04  0.7818608E-02  0.8233061E-01
         -1   -1    0    0    0  501 -0.00000000000E+00  0.00000000000E+00  0.16814287801E+04  0.16814287801E+04  0.00000000000E+00 0.  1.
          1   -1    0    0  501    0  0.00000000000E+00 -0.00000000000E+00 -0.13719448784E+04  0.13719448784E+04  0.00000000000E+00 0. -1.
         23    2    1    2    0    0  0.55074079980E+03  0.33587533728E+03 -0.12258295899E+04  0.13880463068E+04  0.88807069266E+02 0.  0.
         13    1    3    3    0    0  0.32332135269E+02  0.18575140811E+00 -0.81726048449E+02  0.87889410452E+02  0.00000000000E+00 0.  1.
        -13    1    3    3    0    0  0.51840866453E+03  0.33568958587E+03 -0.11441035415E+04  0.13001568963E+04  0.00000000000E+00 0. -1.
         22    1    1    2    0    0 -0.55074079980E+03 -0.33587533728E+03  0.15353134916E+04  0.16653273517E+04  0.00000000000E+00 0.  1.
<mgrwt>
<rscale>  0 0.30376488E+04</rscale>
<asrwt>0</asrwt>
<pdfrwt beam="1">  1        1 0.21106844E+00 0.30376488E+04</pdfrwt>
<pdfrwt beam="2">  1       -1 0.25868135E+00 0.30376488E+04</pdfrwt>
<totfact> 0.41742950E-01</totfact>
</mgrwt>
</event>
<event>
 6    1  0.9988873E-007  0.1200884E+04  0.7818608E-02  0.9112083E-01
         -1   -1    0    0    0  501 -0.00000000000E+00  0.00000000000E+00  0.53971163417E+03  0.53971163417E+03  0.00000000000E+00 0.  1.
          1   -1    0    0  501    0  0.00000000000E+00 -0.00000000000E+00 -0.66800598224E+03  0.66800598224E+03  0.00000000000E+00 0. -1.
         23    2    1    2    0    0 -0.17671306278E+03  0.33672891238E+03 -0.52766706159E+03  0.65625371796E+03  0.87307201679E+02 0.  0.
         11    1    3    3    0    0 -0.89966240270E+02  0.18302796923E+03 -0.20925581287E+03  0.29220054265E+03  0.00000000000E+00 0. -1.
        -11    1    3    3    0    0 -0.86746822507E+02  0.15370094315E+03 -0.31841124872E+03  0.36405317530E+03  0.00000000000E+00 0.  1.
         22    1    1    2    0    0  0.17671306278E+03 -0.33672891238E+03  0.39937271352E+03  0.55146389845E+03  0.00000000000E+00 0.  1.
<mgrwt>
<rscale>  0 0.12008840E+04</rscale>
<asrwt>0</asrwt>
<pdfrwt beam="1">  1        1 0.10277015E+00 0.12008840E+04</pdfrwt>
<pdfrwt beam="2">  1       -1 0.83032559E-01 0.12008840E+04</pdfrwt>
<totfact> 0.41699342E+01</totfact>
</mgrwt>
</event>
<event>
 6    1  0.9988873E-007  0.2357036E+04  0.7818608E-02  0.8455766E-01
         -2   -1    0    0    0  501 -0.00000000000E+00  0.00000000000E+00  0.12794098847E+04  0.12794098847E+04  0.00000000000E+00 0.  1.
          2   -1    0    0  501    0  0.00000000000E+00 -0.00000000000E+00 -0.10855818713E+04  0.10855818713E+04  0.00000000000E+00 0. -1.
         23    2    1    2    0    0 -0.83466909339E+03  0.66799811476E+01 -0.73528810904E+03  0.11160026101E+04  0.89978358044E+02 0.  0.
         11    1    3    3    0    0 -0.15005820860E+03 -0.31245163681E+02 -0.15090231149E+03  0.21509354670E+03  0.00000000000E+00 0. -1.
        -11    1    3    3    0    0 -0.68461088480E+03  0.37925144829E+02 -0.58438579755E+03  0.90090906343E+03  0.00000000000E+00 0.  1.
         22    1    1    2    0    0  0.83466909339E+03 -0.66799811476E+01  0.92911612247E+03  0.12489891459E+04  0.00000000000E+00 0.  1.
<mgrwt>
<rscale>  0 0.23570356E+04</rscale>
<asrwt>0</asrwt>
<pdfrwt beam="1">  1        2 0.16701260E+00 0.23570356E+04</pdfrwt>
<pdfrwt beam="2">  1       -2 0.19683229E+00 0.23570356E+04</pdfrwt>
<totfact> 0.28002950E+00</totfact>
</mgrwt>
</event>
<event>
 6    1  0.9988873E-007  0.5310481E+04  0.7818608E-02  0.7782319E-01
          2   -1    0    0  501    0  0.00000000000E+00  0.00000000000E+00  0.16825361346E+04  0.16825361346E+04  0.00000000000E+00 0. -1.
         -2   -1    0    0    0  501 -0.00000000000E+00 -0.00000000000E+00 -0.41902825179E+04  0.41902825179E+04  0.00000000000E+00 0.  1.
         23    2    1    2    0    0 -0.13265799924E+04 -0.20662276522E+04 -0.13895197597E+03  0.24610305391E+04  0.90843137315E+02 0.  0.
         11    1    3    3    0    0 -0.77986615180E+03 -0.12867247070E+04 -0.10620118576E+03  0.15083535323E+04  0.00000000000E+00 0.  1.
        -11    1    3    3    0    0 -0.54671384061E+03 -0.77950294516E+03 -0.32750790206E+02  0.95267700680E+03  0.00000000000E+00 0. -1.
         22    1    1    2    0    0  0.13265799924E+04  0.20662276522E+04 -0.23687944074E+04  0.34117881135E+04  0.00000000000E+00 0.  1.
<mgrwt>
<rscale>  0 0.53104809E+04</rscale>
<asrwt>0</asrwt>
<pdfrwt beam="1">  1        2 0.25885171E+00 0.53104809E+04</pdfrwt>
<pdfrwt beam="2">  1       -2 0.64465885E+00 0.53104809E+04</pdfrwt>
<totfact> 0.25293239E-03</totfact>
</mgrwt>
</event>
<event>
 6    1  0.9988873E-007  0.2826546E+04  0.7818608E-02  0.8295074E-01
         -2   -1    0    0    0  501 -0.00000000000E+00  0.00000000000E+00  0.89896952133E+03  0.89896952133E+03  0.00000000000E+00 0.  1.
          2   -1    0    0  501    0  0.00000000000E+00 -0.00000000000E+00 -0.22218106239E+04  0.22218106239E+04  0.00000000000E+00 0. -1.
         23    2    1    2    0    0  0.14006493032E+04 -0.14755139940E+03 -0.77078155823E+03  0.16080476420E+04  0.90128366846E+02 0.  0.
         11    1    3    3    0    0  0.13359646422E+03 -0.47156232196E+00 -0.99914093685E+02  0.16682644796E+03  0.00000000000E+00 0.  1.
        -11    1    3    3    0    0  0.12670528389E+04 -0.14707983708E+03 -0.67086746454E+03  0.14412211940E+04  0.00000000000E+00 0. -1.
         22    1    1    2    0    0 -0.14006493032E+04  0.14755139940E+03 -0.55205954438E+03  0.15127325033E+04  0.00000000000E+00 0.  1.
<mgrwt>
<rscale>  0 0.28265456E+04</rscale>
<asrwt>0</asrwt>
<pdfrwt beam="1">  1        2 0.34181701E+00 0.28265456E+04</pdfrwt>
<pdfrwt beam="2">  1       -2 0.13830301E+00 0.28265456E+04</pdfrwt>
<totfact> 0.16156706E+00</totfact>
</mgrwt>
</event>
<event>
 6    1  0.9988873E-007  0.3329459E+04  0.7818608E-02  0.8155440E-01
          2   -1    0    0  501    0  0.00000000000E+00  0.00000000000E+00  0.19220783884E+04  0.19220783884E+04  0.00000000000E+00 0. -1.
         -2   -1    0    0    0  501 -0.00000000000E+00 -0.00000000000E+00 -0.14418369930E+04  0.14418369930E+04  0.00000000000E+00 0.  1.
         23    2    1    2    0    0  0.11583211870E+04 -0.97873735787E+03  0.93114358527E+03  0.17818447215E+04  0.91145199088E+02 0.  0.
         13    1    3    3    0    0  0.61323317597E+03 -0.50554647317E+03  0.43570233927E+03  0.90634910112E+03  0.00000000000E+00 0.  1.
        -13    1    3    3    0    0  0.54508801103E+03 -0.47319088470E+03  0.49544124600E+03  0.87549562042E+03  0.00000000000E+00 0. -1.
         22    1    1    2    0    0 -0.11583211870E+04  0.97873735787E+03 -0.45090218982E+03  0.15820706598E+04  0.00000000000E+00 0.  1.
<mgrwt>
<rscale>  0 0.33294586E+04</rscale>
<asrwt>0</asrwt>
<pdfrwt beam="1">  1        2 0.29570437E+00 0.33294586E+04</pdfrwt>
<pdfrwt beam="2">  1       -2 0.22182108E+00 0.33294586E+04</pdfrwt>
<totfact> 0.59203562E-01</totfact>
</mgrwt>
</event>
<event>
 6    1  0.9988873E-007  0.3592655E+03  0.7818608E-02  0.1058875E+00
         -2   -1    0    0    0  501 -0.00000000000E+00  0.00000000000E+00  0.86639320234E+02  0.86639320234E+02  0.00000000000E+00 0.  1.
          2   -1    0    0  501    0  0.00000000000E+00 -0.00000000000E+00 -0.37243975004E+03  0.37243975004E+03  0.00000000000E+00 0. -1.
         23    2    1    2    0    0  0.88384327658E+02  0.96203414089E+02 -0.17318014819E+02  0.16049961114E+03  0.91615093088E+02 0.  0.
         11    1    3    3    0    0  0.82258340476E+02  0.31610082803E+02  0.12656832175E+02  0.89027115607E+02  0.00000000000E+00 0.  1.
        -11    1    3    3    0    0  0.61259871815E+01  0.64593331287E+02 -0.29974846994E+02  0.71472495535E+02  0.00000000000E+00 0. -1.
         22    1    1    2    0    0 -0.88384327658E+02 -0.96203414089E+02 -0.26848241499E+03  0.29857945913E+03  0.00000000000E+00 0. -1.
<mgrwt>
<rscale>  0 0.35926551E+03</rscale>
<asrwt>0</asrwt>
<pdfrwt beam="1">  1        2 0.57298423E-01 0.35926551E+03</pdfrwt>
<pdfrwt beam="2">  1       -2 0.13329126E-01 0.35926551E+03</pdfrwt>
<totfact> 0.36091589E+03</totfact>
</mgrwt>
</event>
<event>
 6    1  0.9988873E-007  0.1805831E+04  0.7818608E-02  0.8703205E-01
          2   -1    0    0  501    0  0.00000000000E+00  0.00000000000E+00  0.82057836275E+03  0.82057836275E+03  0.00000000000E+00 0. -1.
         -2   -1    0    0    0  501 -0.00000000000E+00 -0.00000000000E+00 -0.99351470937E+03  0.99351470937E+03  0.00000000000E+00 0.  1.
         23    2    1    2    0    0  0.25658077321E+03 -0.48822835349E+03  0.62864476866E+03  0.84109106662E+03  0.89662248792E+02 0.  0.
         13    1    3    3    0    0  0.13161403626E+03 -0.17164147970E+03  0.28058560873E+03  0.35427579076E+03  0.00000000000E+00 0.  1.
        -13    1    3    3    0    0  0.12496673695E+03 -0.31658687380E+03  0.34805915993E+03  0.48681527586E+03  0.00000000000E+00 0. -1.
         22    1    1    2    0    0 -0.25658077321E+03  0.48822835349E+03 -0.80158111527E+03  0.97300200550E+03  0.00000000000E+00 0.  1.
<mgrwt>
<rscale>  0 0.18058313E+04</rscale>
<asrwt>0</asrwt>
<pdfrwt beam="1">  1        2 0.12624282E+00 0.18058313E+04</pdfrwt>
<pdfrwt beam="2">  1       -2 0.15284842E+00 0.18058313E+04</pdfrwt>
<totfact> 0.89499415E+00</totfact>
</mgrwt>
</event>
<event>
 6    1  0.9988873E-007  0.1596142E+04  0.7818608E-02  0.8822922E-01
         -2   -1    0    0    0  501 -0.00000000000E+00  0.00000000000E+00  0.26424006967E+03  0.26424006967E+03  0.00000000000E+00 0.  1.
          2   -1    0    0  501    0  0.00000000000E+00 -0.00000000000E+00 -0.24103732343E+04  0.24103732343E+04  0.00000000000E+00 0. -1.
         23    2    1    2    0    0  0.29478259388E+03 -0.73379346715E+03 -0.94532250792E+03  0.12368039065E+04  0.10343901156E+03 0.  0.
         13    1    3    3    0    0  0.10687300620E+03 -0.17172674829E+03 -0.19843153200E+03  0.28334958695E+03  0.00000000000E+00 0. -1.
        -13    1    3    3    0    0  0.18790958768E+03 -0.56206671887E+03 -0.74689097593E+03  0.95345431958E+03  0.00000000000E+00 0.  1.
         22    1    1    2    0    0 -0.29478259388E+03  0.73379346715E+03 -0.12008106567E+04  0.14378093974E+04  0.00000000000E+00 0. -1.
<mgrwt>
<rscale>  0 0.15961418E+04</rscale>
<asrwt>0</asrwt>
<pdfrwt beam="1">  1        2 0.37082666E+00 0.15961418E+04</pdfrwt>
<pdfrwt beam="2">  1       -2 0.40652318E-01 0.15961418E+04</pdfrwt>
<totfact> 0.21587092E+01</totfact>
</mgrwt>
</event>
<event>
 6    1  0.9988873E-007  0.1142405E+04  0.7818608E-02  0.9164819E-01
          1   -1    0    0  501    0  0.00000000000E+00  0.00000000000E+00  0.13348715436E+04  0.13348715436E+04  0.00000000000E+00 0. -1.
         -1   -1    0    0    0  501 -0.00000000000E+00 -0.00000000000E+00 -0.24442204359E+03  0.24442204359E+03  0.00000000000E+00 0.  1.
         23    2    1    2    0    0  0.16494019335E+02  0.30045126378E+03  0.12140285184E+04  0.12540017361E+04  0.90067174991E+02 0.  0.
         11    1    3    3    0    0  0.32572108221E+02  0.37898929090E+02  0.23476798976E+03  0.24002766523E+03  0.00000000000E+00 0. -1.
        -11    1    3    3    0    0 -0.16078088886E+02  0.26255233469E+03  0.97926052867E+03  0.10139740709E+04  0.00000000000E+00 0.  1.
         22    1    1    2    0    0 -0.16494019335E+02 -0.30045126378E+03 -0.12357901842E+03  0.32529185107E+03  0.00000000000E+00 0.  1.
<mgrwt>
<rscale>  0 0.11424045E+04</rscale>
<asrwt>0</asrwt>
<pdfrwt beam="1">  1        1 0.20536485E+00 0.11424045E+04</pdfrwt>
<pdfrwt beam="2">  1       -1 0.37603392E-01 0.11424045E+04</pdfrwt>
<totfact> 0.57835270E+01</totfact>
</mgrwt>
</event>
<event>
 6    1  0.9988873E-007  0.2767139E+04  0.7818608E-02  0.8313544E-01
         -2   -1    0    0    0  501 -0.00000000000E+00  0.00000000000E+00  0.94398092936E+03  0.94398092936E+03  0.00000000000E+00 0.  1.
          2   -1    0    0  501    0  0.00000000000E+00 -0.00000000000E+00 -0.20278632921E+04  0.20278632921E+04  0.00000000000E+00 0. -1.
         23    2    1    2    0    0 -0.40608920817E+03 -0.18133827006E+03  0.86227871188E+03  0.97551385262E+03  0.10154155070E+03 0.  0.
         11    1    3    3    0    0 -0.30187712162E+03 -0.16173471815E+03  0.57466791152E+03  0.66897767089E+03  0.00000000000E+00 0. -1.
        -11    1    3    3    0    0 -0.10421208655E+03 -0.19603551908E+02  0.28761080036E+03  0.30653618173E+03  0.00000000000E+00 0.  1.
         22    1    1    2    0    0  0.40608920817E+03  0.18133827006E+03 -0.19461610746E+04  0.19963303689E+04  0.00000000000E+00 0. -1.
<mgrwt>
<rscale>  0 0.27671388E+04</rscale>
<asrwt>0</asrwt>
<pdfrwt beam="1">  1        2 0.31197896E+00 0.27671388E+04</pdfrwt>
<pdfrwt beam="2">  1       -2 0.14522784E+00 0.27671388E+04</pdfrwt>
<totfact> 0.18356024E+00</totfact>
</mgrwt>
</event>
<event>
 6    1  0.9988873E-007  0.5309536E+04  0.7818608E-02  0.7782455E-01
         -2   -1    0    0    0  501 -0.00000000000E+00  0.00000000000E+00  0.31894791491E+04  0.31894791491E+04  0.00000000000E+00 0.  1.
          2   -1    0    0  501    0  0.00000000000E+00 -0.00000000000E+00 -0.22097003898E+04  0.22097003898E+04  0.00000000000E+00 0. -1.
         23    2    1    2    0    0  0.10730076686E+04  0.13324261788E+04  0.25532119765E+04  0.30748738215E+04  0.96190658165E+02 0.  0.
         13    1    3    3    0    0  0.80505517429E+03  0.93353780461E+03  0.18153834355E+04  0.21943617943E+04  0.00000000000E+00 0.  1.
        -13    1    3    3    0    0  0.26795249430E+03  0.39888837415E+03  0.73782854102E+03  0.88051202728E+03  0.00000000000E+00 0. -1.
         22    1    1    2    0    0 -0.10730076686E+04 -0.13324261788E+04 -0.15734332173E+04  0.23243057174E+04  0.00000000000E+00 0. -1.
<mgrwt>
<rscale>  0 0.53095361E+04</rscale>
<asrwt>0</asrwt>
<pdfrwt beam="1">  1        2 0.33995391E+00 0.53095361E+04</pdfrwt>
<pdfrwt beam="2">  1       -2 0.49068910E+00 0.53095361E+04</pdfrwt>
<totfact> 0.68858712E-03</totfact>
</mgrwt>
</event>
<event>
 6    1  0.9988873E-007  0.2190624E+04  0.7818608E-02  0.8522341E-01
         -1   -1    0    0    0  501 -0.00000000000E+00  0.00000000000E+00  0.15842830273E+04  0.15842830273E+04  0.00000000000E+00 0.  1.
          1   -1    0    0  501    0  0.00000000000E+00 -0.00000000000E+00 -0.75725613153E+03  0.75725613153E+03  0.00000000000E+00 0. -1.
         23    2    1    2    0    0  0.11830779657E+02  0.76948637841E+03  0.12443397848E+04  0.14660968128E+04  0.93856861717E+02 0.  0.
         13    1    3    3    0    0  0.47824785599E+02  0.60176748245E+03  0.97749390502E+03  0.11488714669E+04  0.00000000000E+00 0. -1.
        -13    1    3    3    0    0 -0.35994005942E+02  0.16771889596E+03  0.26684587979E+03  0.31722534591E+03  0.00000000000E+00 0.  1.
         22    1    1    2    0    0 -0.11830779657E+02 -0.76948637841E+03 -0.41731288904E+03  0.87544234605E+03  0.00000000000E+00 0. -1.
<mgrwt>
<rscale>  0 0.21906237E+04</rscale>
<asrwt>0</asrwt>
<pdfrwt beam="1">  1        1 0.11650094E+00 0.21906237E+04</pdfrwt>
<pdfrwt beam="2">  1       -1 0.24373585E+00 0.21906237E+04</pdfrwt>
<totfact> 0.16866516E+00</totfact>
</mgrwt>
</event>
<event>
 6    1  0.9988873E-007  0.3310758E+04  0.7818608E-02  0.8160163E-01
          1   -1    0    0  501    0  0.00000000000E+00  0.00000000000E+00  0.16311523062E+04  0.16311523062E+04  0.00000000000E+00 0. -1.
         -1   -1    0    0    0  501 -0.00000000000E+00 -0.00000000000E+00 -0.16799658251E+04  0.16799658251E+04  0.00000000000E+00 0.  1.
         23    2    1    2    0    0 -0.14643829189E+04  0.10052170484E+02  0.74479869738E+03  0.16454834988E+04  0.91501179726E+02 0.  0.
         13    1    3    3    0    0 -0.11615450942E+04 -0.17377841330E+02  0.55944999865E+03  0.12893693405E+04  0.00000000000E+00 0.  1.
        -13    1    3    3    0    0 -0.30283782468E+03  0.27430011814E+02  0.18534869874E+03  0.35611415828E+03  0.00000000000E+00 0. -1.
         22    1    1    2    0    0  0.14643829189E+04 -0.10052170484E+02 -0.79361221627E+03  0.16656346325E+04  0.00000000000E+00 0.  1.
<mgrwt>
<rscale>  0 0.33107583E+04</rscale>
<asrwt>0</asrwt>
<pdfrwt beam="1">  1        1 0.25094651E+00 0.33107583E+04</pdfrwt>
<pdfrwt beam="2">  1       -1 0.25845628E+00 0.33107583E+04</pdfrwt>
<totfact> 0.27036451E-01</totfact>
</mgrwt>
</event>
<event>
 6    1  0.9988873E-007  0.1655543E+04  0.7818608E-02  0.8787134E-01
         -2   -1    0    0    0  501 -0.00000000000E+00  0.00000000000E+00  0.58065715056E+03  0.58065715056E+03  0.00000000000E+00 0.  1.
          2   -1    0    0  501    0  0.00000000000E+00 -0.00000000000E+00 -0.11800525665E+04  0.11800525665E+04  0.00000000000E+00 0. -1.
         23    2    1    2    0    0 -0.47764410692E+03  0.56153762078E+03 -0.69516446487E+03  0.10173120420E+04  0.90563597700E+02 0.  0.
         11    1    3    3    0    0 -0.32454735133E+03  0.42926469567E+03 -0.46875236524E+03  0.71367215311E+03  0.00000000000E+00 0.  1.
        -11    1    3    3    0    0 -0.15309675558E+03  0.13227292511E+03 -0.22641209963E+03  0.30363988893E+03  0.00000000000E+00 0. -1.
         22    1    1    2    0    0  0.47764410692E+03 -0.56153762078E+03  0.95769048980E+02  0.74339767498E+03  0.00000000000E+00 0.  1.
<mgrwt>
<rscale>  0 0.16555434E+04</rscale>
<asrwt>0</asrwt>
<pdfrwt beam="1">  1        2 0.18154655E+00 0.16555434E+04</pdfrwt>
<pdfrwt beam="2">  1       -2 0.89331870E-01 0.16555434E+04</pdfrwt>
<totfact> 0.19991379E+01</totfact>
</mgrwt>
</event>
<event>
 6    1  0.9988873E-007  0.2822293E+04  0.7818608E-02  0.8296381E-01
          1   -1    0    0  501    0  0.00000000000E+00  0.00000000000E+00  0.32415114352E+04  0.32415114352E+04  0.00000000000E+00 0. -1.
         -1   -1    0    0    0  501 -0.00000000000E+00 -0.00000000000E+00 -0.61432279727E+03  0.61432279727E+03  0.00000000000E+00 0.  1.
         23    2    1    2    0    0 -0.12017552908E+04 -0.31522088224E+03  0.22250700694E+04  0.25499707915E+04  0.88511242221E+02 0.  0.
         11    1    3    3    0    0 -0.86262006854E+03 -0.25431718767E+03  0.15483080430E+04  0.17905441660E+04  0.00000000000E+00 0.  1.
        -11    1    3    3    0    0 -0.33913522224E+03 -0.60903694566E+02  0.67676202643E+03  0.75942662541E+03  0.00000000000E+00 0. -1.
         22    1    1    2    0    0  0.12017552908E+04  0.31522088224E+03  0.40211856856E+03  0.13058634411E+04  0.00000000000E+00 0.  1.
<mgrwt>
<rscale>  0 0.28222929E+04</rscale>
<asrwt>0</asrwt>
<pdfrwt beam="1">  1        1 0.49869406E+00 0.28222929E+04</pdfrwt>
<pdfrwt beam="2">  1       -1 0.94511202E-01 0.28222929E+04</pdfrwt>
<totfact> 0.37003561E-01</totfact>
</mgrwt>
</event>
<event>
 6    1  0.9988873E-007  0.3157923E+04  0.7818608E-02  0.8200019E-01
          1   -1    0    0  501    0  0.00000000000E+00  0.00000000000E+00  0.35642444186E+04  0.35642444186E+04  0.00000000000E+00 0. -1.
         -1   -1    0    0    0  501 -0.00000000000E+00 -0.00000000000E+00 -0.69948061822E+03  0.69948061822E+03  0.00000000000E+00 0.  1.
         23    2    1    2    0    0 -0.13728203166E+04 -0.11514025166E+03  0.39505285438E+03  0.14357637471E+04  0.86359020900E+02 0.  0.
         11    1    3    3    0    0 -0.10283730902E+04 -0.80514684846E+02  0.25688040475E+03  0.10630246326E+04  0.00000000000E+00 0.  1.
        -11    1    3    3    0    0 -0.34444722639E+03 -0.34625566813E+02  0.13817244963E+03  0.37273911450E+03  0.00000000000E+00 0. -1.
         22    1    1    2    0    0  0.13728203166E+04  0.11514025166E+03  0.24697109460E+04  0.28279612897E+04  0.00000000000E+00 0. -1.
<mgrwt>
<rscale>  0 0.31579233E+04</rscale>
<asrwt>0</asrwt>
<pdfrwt beam="1">  1        1 0.54834528E+00 0.31579233E+04</pdfrwt>
<pdfrwt beam="2">  1       -1 0.10761240E+00 0.31579233E+04</pdfrwt>
<totfact> 0.14977460E-01</totfact>
</mgrwt>
</event>
<event>
 6    1  0.9988873E-007  0.1459029E+04  0.7818608E-02  0.8912165E-01
         -2   -1    0    0    0  501 -0.00000000000E+00  0.00000000000E+00  0.24271642545E+03  0.24271642545E+03  0.00000000000E+00 0.  1.
          2   -1    0    0  501    0  0.00000000000E+00 -0.00000000000E+00 -0.21926459455E+04  0.21926459455E+04  0.00000000000E+00 0. -1.
         23    2    1    2    0    0 -0.15787812633E+03 -0.24503465159E+03 -0.20898666207E+04  0.21120206394E+04  0.90117733642E+02 0.  0.
         11    1    3    3    0    0 -0.12496092643E+02 -0.31989202936E+02 -0.51767446982E+03  0.51881241132E+03  0.00000000000E+00 0. -1.
        -11    1    3    3    0    0 -0.14538203369E+03 -0.21304544865E+03 -0.15721921508E+04  0.15932082281E+04  0.00000000000E+00 0.  1.
         22    1    1    2    0    0  0.15787812633E+03  0.24503465159E+03  0.13993710059E+03  0.32334173157E+03  0.00000000000E+00 0.  1.
<mgrwt>
<rscale>  0 0.14590287E+04</rscale>
<asrwt>0</asrwt>
<pdfrwt beam="1">  1        2 0.33733014E+00 0.14590287E+04</pdfrwt>
<pdfrwt beam="2">  1       -2 0.37340990E-01 0.14590287E+04</pdfrwt>
<totfact> 0.34208990E+01</totfact>
</mgrwt>
</event>
<event>
 6    1  0.9988873E-007  0.3521484E+04  0.7818608E-02  0.8108717E-01
          1   -1    0    0  501    0  0.00000000000E+00  0.00000000000E+00  0.15226743456E+04  0.15226743456E+04  0.00000000000E+00 0. -1.
         -1   -1    0    0    0  501 -0.00000000000E+00 -0.00000000000E+00 -0.20360307494E+04  0.20360307494E+04  0.00000000000E+00 0.  1.
         23    2    1    2    0    0 -0.97724336046E+03  0.12251499082E+04 -0.10653964409E+04  0.18971560931E+04  0.90193027680E+02 0.  0.
         11    1    3    3    0    0 -0.64655961043E+03  0.86506566442E+03 -0.76253968417E+03  0.13220607791E+04  0.00000000000E+00 0. -1.
        -11    1    3    3    0    0 -0.33068375003E+03  0.36008424377E+03 -0.30285675675E+03  0.57509531406E+03  0.00000000000E+00 0.  1.
         22    1    1    2    0    0  0.97724336046E+03 -0.12251499082E+04  0.55204003718E+03  0.16615490019E+04  0.00000000000E+00 0.  1.
<mgrwt>
<rscale>  0 0.35214837E+04</rscale>
<asrwt>0</asrwt>
<pdfrwt beam="1">  1        1 0.23425759E+00 0.35214837E+04</pdfrwt>
<pdfrwt beam="2">  1       -1 0.31323550E+00 0.35214837E+04</pdfrwt>
<totfact> 0.13916582E-01</totfact>
</mgrwt>
</event>
<event>
 6    1  0.9988873E-007  0.1855793E+04  0.7818608E-02  0.8677179E-01
          1   -1    0    0  501    0  0.00000000000E+00  0.00000000000E+00  0.61536874804E+03  0.61536874804E+03  0.00000000000E+00 0. -1.
         -1   -1    0    0    0  501 -0.00000000000E+00 -0.00000000000E+00 -0.13991486368E+04  0.13991486368E+04  0.00000000000E+00 0.  1.
         23    2    1    2    0    0 -0.30088782219E+03  0.42050698701E+03  0.44067190574E+03  0.68536660155E+03  0.90421470563E+02 0.  0.
         13    1    3    3    0    0 -0.27010293126E+03  0.31471829912E+03  0.34692167023E+03  0.54070125444E+03  0.00000000000E+00 0. -1.
        -13    1    3    3    0    0 -0.30784890929E+02  0.10578868789E+03  0.93750235511E+02  0.14466534711E+03  0.00000000000E+00 0.  1.
         22    1    1    2    0    0  0.30088782219E+03 -0.42050698701E+03 -0.12244517945E+04  0.13291507833E+04  0.00000000000E+00 0.  1.
<mgrwt>
<rscale>  0 0.18557935E+04</rscale>
<asrwt>0</asrwt>
<pdfrwt beam="1">  1        1 0.94672116E-01 0.18557935E+04</pdfrwt>
<pdfrwt beam="2">  1       -1 0.21525364E+00 0.18557935E+04</pdfrwt>
<totfact> 0.36715131E+00</totfact>
</mgrwt>
</event>
<event>
 6    1  0.9988873E-007  0.2952965E+04  0.7818608E-02  0.8257291E-01
          2   -1    0    0  501    0  0.00000000000E+00  0.00000000000E+00  0.28856464491E+04  0.28856464491E+04  0.00000000000E+00 0. -1.
         -2   -1    0    0    0  501 -0.00000000000E+00 -0.00000000000E+00 -0.75546325415E+03  0.75546325415E+03  0.00000000000E+00 0.  1.
         23    2    1    2    0    0 -0.69347202950E+03  0.11272074033E+04  0.18693331753E+04  0.22922054374E+04  0.91100280925E+02 0.  0.
         13    1    3    3    0    0 -0.58450047894E+02  0.12846252078E+03  0.16326491603E+03  0.21581116781E+03  0.00000000000E+00 0. -1.
        -13    1    3    3    0    0 -0.63502198160E+03  0.99874488253E+03  0.17060682592E+04  0.20763942696E+04  0.00000000000E+00 0.  1.
         22    1    1    2    0    0  0.69347202950E+03 -0.11272074033E+04  0.26085001970E+03  0.13489042659E+04  0.00000000000E+00 0.  1.
<mgrwt>
<rscale>  0 0.29529645E+04</rscale>
<asrwt>0</asrwt>
<pdfrwt beam="1">  1        2 0.44394560E+00 0.29529645E+04</pdfrwt>
<pdfrwt beam="2">  1       -2 0.11622512E+00 0.29529645E+04</pdfrwt>
<totfact> 0.10118193E+00</totfact>
</mgrwt>
</event>
<event>
 6    1  0.9988873E-007  0.1098749E+04  0.7818608E-02  0.9206412E-01
         -2   -1    0    0    0  501 -0.00000000000E+00  0.00000000000E+00  0.36619929734E+03  0.36619929734E+03  0.00000000000E+00 0.  1.
          2   -1    0    0  501    0  0.00000000000E+00 -0.00000000000E+00 -0.82417529469E+03  0.82417529469E+03  0.00000000000E+00 0. -1.
         23    2    1    2    0    0  0.20840798839E+03 -0.25705878849E+03  0.23907143611E+03  0.41876054676E+03  0.93231612628E+02 0.  0.
         11    1    3    3    0    0  0.12010985301E+03 -0.17874675847E+03  0.20144703679E+03  0.29488589164E+03  0.00000000000E+00 0.  1.
        -11    1    3    3    0    0  0.88298135383E+02 -0.78312030018E+02  0.37624399317E+02  0.12387465512E+03  0.00000000000E+00 0. -1.
         22    1    1    2    0    0 -0.20840798839E+03  0.25705878849E+03 -0.69704743346E+03  0.77161404527E+03  0.00000000000E+00 0. -1.
<mgrwt>
<rscale>  0 0.10987491E+04</rscale>
<asrwt>0</asrwt>
<pdfrwt beam="1">  1        2 0.12679620E+00 0.10987491E+04</pdfrwt>
<pdfrwt beam="2">  1       -2 0.56338354E-01 0.10987491E+04</pdfrwt>
<totfact> 0.97194790E+01</totfact>
</mgrwt>
</event>
<event>
 6    1  0.9988873E-007  0.1834811E+04  0.7818608E-02  0.8688003E-01
          1   -1    0    0  501    0  0.00000000000E+00  0.00000000000E+00  0.99844320428E+03  0.99844320428E+03  0.00000000000E+00 0. -1.
         -1   -1    0    0    0  501 -0.00000000000E+00 -0.00000000000E+00 -0.84294537043E+03  0.84294537043E+03  0.00000000000E+00 0.  1.
         23    2    1    2    0    0 -0.90223491790E+03 -0.63800941562E+02 -0.59103195975E+02  0.91179080726E+03  0.98847767849E+02 0.  0.
         13    1    3    3    0    0 -0.57871215932E+02  0.95917122811E+01 -0.24400858545E+02  0.63533302100E+02  0.00000000000E+00 0. -1.
        -13    1    3    3    0    0 -0.84436370197E+03 -0.73392653844E+02 -0.34702337429E+02  0.84825750516E+03  0.00000000000E+00 0.  1.
         22    1    1    2    0    0  0.90223491790E+03  0.63800941562E+02  0.21460102982E+03  0.92959776744E+03  0.00000000000E+00 0. -1.
<mgrwt>
<rscale>  0 0.18348112E+04</rscale>
<asrwt>0</asrwt>
<pdfrwt beam="1">  1        1 0.15360665E+00 0.18348112E+04</pdfrwt>
<pdfrwt beam="2">  1       -1 0.12968390E+00 0.18348112E+04</pdfrwt>
<totfact> 0.72854739E+00</totfact>
</mgrwt>
</event>
<event>
 6    1  0.9988873E-007  0.4346318E+04  0.7818608E-02  0.7938109E-01
         -2   -1    0    0    0  501 -0.00000000000E+00  0.00000000000E+00  0.14487175367E+04  0.14487175367E+04  0.00000000000E+00 0.  1.
          2   -1    0    0  501    0  0.00000000000E+00 -0.00000000000E+00 -0.32598626561E+04  0.32598626561E+04  0.00000000000E+00 0. -1.
         23    2    1    2    0    0 -0.45947837480E+03 -0.21137340011E+04 -0.11213166673E+04  0.24381495953E+04  0.90722526007E+02 0.  0.
         13    1    3    3    0    0 -0.32851277352E+03 -0.13145917500E+04 -0.71702415926E+03  0.15330348191E+04  0.00000000000E+00 0. -1.
        -13    1    3    3    0    0 -0.13096560128E+03 -0.79914225106E+03 -0.40429250805E+03  0.90511477626E+03  0.00000000000E+00 0.  1.
         22    1    1    2    0    0  0.45947837480E+03  0.21137340011E+04 -0.68982845213E+03  0.22704305974E+04  0.00000000000E+00 0.  1.
<mgrwt>
<rscale>  0 0.43463181E+04</rscale>
<asrwt>0</asrwt>
<pdfrwt beam="1">  1        2 0.50151732E+00 0.43463181E+04</pdfrwt>
<pdfrwt beam="2">  1       -2 0.22287962E+00 0.43463181E+04</pdfrwt>
<totfact> 0.86019048E-02</totfact>
</mgrwt>
</event>
<event>
 6    1  0.9988873E-007  0.2749954E+04  0.7818608E-02  0.8318976E-01
         -2   -1    0    0    0  501 -0.00000000000E+00  0.00000000000E+00  0.12395875648E+04  0.12395875648E+04  0.00000000000E+00 0.  1.
          2   -1    0    0  501    0  0.00000000000E+00 -0.00000000000E+00 -0.15251539926E+04  0.15251539926E+04  0.00000000000E+00 0. -1.
         23    2    1    2    0    0 -0.12688823544E+04  0.20002938071E+01 -0.67170456977E+03  0.14384048372E+04  0.88062569364E+02 0.  0.
         11    1    3    3    0    0 -0.94142968690E+03  0.37699311532E+02 -0.48264015524E+03  0.10586088101E+04  0.00000000000E+00 0. -1.
        -11    1    3    3    0    0 -0.32745266754E+03 -0.35699017725E+02 -0.18906441452E+03  0.37979602708E+03  0.00000000000E+00 0.  1.
         22    1    1    2    0    0  0.12688823544E+04 -0.20002938071E+01  0.38613814192E+03  0.13263367201E+04  0.00000000000E+00 0.  1.
<mgrwt>
<rscale>  0 0.27499541E+04</rscale>
<asrwt>0</asrwt>
<pdfrwt beam="1">  1        2 0.23463907E+00 0.27499541E+04</pdfrwt>
<pdfrwt beam="2">  1       -2 0.19070578E+00 0.27499541E+04</pdfrwt>
<totfact> 0.16459675E+00</totfact>
</mgrwt>
</event>
<event>
 6    1  0.9988873E-007  0.6797838E+04  0.7818608E-02  0.7598651E-01
          2   -1    0    0  501    0  0.00000000000E+00  0.00000000000E+00  0.39625045783E+04  0.39625045783E+04  0.00000000000E+00 0. -1.
         -2   -1    0    0    0  501 -0.00000000000E+00 -0.00000000000E+00 -0.29154921034E+04  0.29154921034E+04  0.00000000000E+00 0.  1.
         23    2    1    2    0    0  0.88490185861E+03 -0.32149467001E+04  0.11868978394E+04  0.35405573191E+04  0.88803519829E+02 0.  0.
         11    1    3    3    0    0  0.53126412553E+03 -0.20643917101E+04  0.73364411636E+03  0.22543709529E+04  0.00000000000E+00 0.  1.
        -11    1    3    3    0    0  0.35363773308E+03 -0.11505549900E+04  0.45325372304E+03  0.12861863662E+04  0.00000000000E+00 0. -1.
         22    1    1    2    0    0 -0.88490185861E+03  0.32149467001E+04 -0.13988536448E+03  0.33374393626E+04  0.00000000000E+00 0. -1.
<mgrwt>
<rscale>  0 0.67978381E+04</rscale>
<asrwt>0</asrwt>
<pdfrwt beam="1">  1        2 0.60961609E+00 0.67978381E+04</pdfrwt>
<pdfrwt beam="2">  1       -2 0.44853725E+00 0.67978381E+04</pdfrwt>
<totfact> 0.82441056E-04</totfact>
</mgrwt>
</event>
<event>
 6    1  0.9988873E-007  0.3332265E+04  0.7818608E-02  0.8154734E-01
         -2   -1    0    0    0  501 -0.00000000000E+00  0.00000000000E+00  0.22476164060E+04  0.22476164060E+04  0.00000000000E+00 0.  1.
          2   -1    0    0  501    0  0.00000000000E+00 -0.00000000000E+00 -0.12350847746E+04  0.12350847746E+04  0.00000000000E+00 0. -1.
         23    2    1    2    0    0 -0.28401696419E+03 -0.10610398812E+04 -0.80090739657E+03  0.13625520410E+04  0.92866254212E+02 0.  0.
         11    1    3    3    0    0 -0.21703307733E+03 -0.71647820750E+03 -0.50032696160E+03  0.90042847966E+03  0.00000000000E+00 0.  1.
        -11    1    3    3    0    0 -0.66983886854E+02 -0.34456167372E+03 -0.30058043496E+03  0.46212356138E+03  0.00000000000E+00 0. -1.
         22    1    1    2    0    0  0.28401696419E+03  0.10610398812E+04  0.18134390280E+04  0.21201491395E+04  0.00000000000E+00 0.  1.
<mgrwt>
<rscale>  0 0.33322646E+04</rscale>
<asrwt>0</asrwt>
<pdfrwt beam="1">  1        2 0.19001304E+00 0.33322646E+04</pdfrwt>
<pdfrwt beam="2">  1       -2 0.34578714E+00 0.33322646E+04</pdfrwt>
<totfact> 0.24858392E-01</totfact>
</mgrwt>
</event>
<event>
 6    1  0.9988873E-007  0.3224267E+04  0.7818608E-02  0.8182438E-01
         -1   -1    0    0    0  501 -0.00000000000E+00  0.00000000000E+00  0.23413056841E+04  0.23413056841E+04  0.00000000000E+00 0.  1.
          1   -1    0    0  501    0  0.00000000000E+00 -0.00000000000E+00 -0.11100534138E+04  0.11100534138E+04  0.00000000000E+00 0. -1.
         23    2    1    2    0    0 -0.32475136772E+03  0.14325926953E+04  0.13241778508E+04  0.19794825932E+04  0.84374610194E+02 0.  0.
         11    1    3    3    0    0 -0.58239607828E+02  0.32245151058E+03  0.33936310873E+03  0.47173525220E+03  0.00000000000E+00 0.  1.
        -11    1    3    3    0    0 -0.26651175990E+03  0.11101411847E+04  0.98481474209E+03  0.15077473410E+04  0.00000000000E+00 0. -1.
         22    1    1    2    0    0  0.32475136772E+03 -0.14325926953E+04 -0.92925580573E+02  0.14718765047E+04  0.00000000000E+00 0. -1.
<mgrwt>
<rscale>  0 0.32242670E+04</rscale>
<asrwt>0</asrwt>
<pdfrwt beam="1">  1        1 0.17077745E+00 0.32242670E+04</pdfrwt>
<pdfrwt beam="2">  1       -1 0.36020087E+00 0.32242670E+04</pdfrwt>
<totfact> 0.13818376E-01</totfact>
</mgrwt>
</event>
<event>
 6    1  0.9988873E-007  0.2894771E+04  0.7818608E-02  0.8274435E-01
          2   -1    0    0  501    0  0.00000000000E+00  0.00000000000E+00  0.27810910072E+04  0.27810910072E+04  0.00000000000E+00 0. -1.
         -2   -1    0    0    0  501 -0.00000000000E+00 -0.00000000000E+00 -0.75327444508E+03  0.75327444508E+03  0.00000000000E+00 0.  1.
         23    2    1    2    0    0 -0.98367835818E+03  0.86130734325E+03  0.26087365715E+03  0.13362843161E+04  0.90151297799E+02 0.  0.
         11    1    3    3    0    0 -0.51847737396E+03  0.39829419603E+03  0.14714427835E+03  0.67015557339E+03  0.00000000000E+00 0.  1.
        -11    1    3    3    0    0 -0.46520098422E+03  0.46301314723E+03  0.11372937879E+03  0.66612874268E+03  0.00000000000E+00 0. -1.
         22    1    1    2    0    0  0.98367835818E+03 -0.86130734325E+03  0.17669429050E+04  0.21980811362E+04  0.00000000000E+00 0. -1.
<mgrwt>
<rscale>  0 0.28947710E+04</rscale>
<asrwt>0</asrwt>
<pdfrwt beam="1">  1        2 0.42786015E+00 0.28947710E+04</pdfrwt>
<pdfrwt beam="2">  1       -2 0.11588838E+00 0.28947710E+04</pdfrwt>
<totfact> 0.11856935E+00</totfact>
</mgrwt>
</event>
<event>
 6    1  0.9988873E-007  0.2591458E+04  0.7818608E-02  0.8371108E-01
         -1   -1    0    0    0  501 -0.00000000000E+00  0.00000000000E+00  0.19625398639E+04  0.19625398639E+04  0.00000000000E+00 0.  1.
          1   -1    0    0  501    0  0.00000000000E+00 -0.00000000000E+00 -0.85548027131E+03  0.85548027131E+03  0.00000000000E+00 0. -1.
         23    2    1    2    0    0  0.10580176945E+04 -0.20427810431E+03  0.13335938798E+04  0.17169076209E+04  0.90377855385E+02 0.  0.
         11    1    3    3    0    0  0.91446181863E+02 -0.21598084199E+01  0.83559157123E+02  0.12389189517E+03  0.00000000000E+00 0.  1.
        -11    1    3    3    0    0  0.96657151263E+03 -0.20211829589E+03  0.12500347227E+04  0.15930157257E+04  0.00000000000E+00 0. -1.
         22    1    1    2    0    0 -0.10580176945E+04  0.20427810431E+03 -0.22653428726E+03  0.11011125143E+04  0.00000000000E+00 0.  1.
<mgrwt>
<rscale>  0 0.25914584E+04</rscale>
<asrwt>0</asrwt>
<pdfrwt beam="1">  1        1 0.13161235E+00 0.25914584E+04</pdfrwt>
<pdfrwt beam="2">  1       -1 0.30192921E+00 0.25914584E+04</pdfrwt>
<totfact> 0.56043728E-01</totfact>
</mgrwt>
</event>
<event>
 6    1  0.9988873E-007  0.1601869E+04  0.7818608E-02  0.8819400E-01
         -2   -1    0    0    0  501 -0.00000000000E+00  0.00000000000E+00  0.32484229875E+03  0.32484229875E+03  0.00000000000E+00 0.  1.
          2   -1    0    0  501    0  0.00000000000E+00 -0.00000000000E+00 -0.19747934072E+04  0.19747934072E+04  0.00000000000E+00 0. -1.
         23    2    1    2    0    0  0.15631635892E+03 -0.30262368417E+03 -0.18642041926E+04  0.18972425122E+04  0.90862423413E+02 0.  0.
         13    1    3    3    0    0  0.14785906219E+03 -0.19735210598E+03 -0.12678469832E+04  0.12916060269E+04  0.00000000000E+00 0.  1.
        -13    1    3    3    0    0  0.84572967253E+01 -0.10527157820E+03 -0.59635720940E+03  0.60563648523E+03  0.00000000000E+00 0. -1.
         22    1    1    2    0    0 -0.15631635892E+03  0.30262368417E+03  0.21425308419E+03  0.40239319374E+03  0.00000000000E+00 0.  1.
<mgrwt>
<rscale>  0 0.16018694E+04</rscale>
<asrwt>0</asrwt>
<pdfrwt beam="1">  1        2 0.30381437E+00 0.16018694E+04</pdfrwt>
<pdfrwt beam="2">  1       -2 0.49975739E-01 0.16018694E+04</pdfrwt>
<totfact> 0.25066412E+01</totfact>
</mgrwt>
</event>
<event>
 6    1  0.9988873E-007  0.3468282E+04  0.7818608E-02  0.8121348E-01
          1   -1    0    0  501    0  0.00000000000E+00  0.00000000000E+00  0.29901960017E+04  0.29901960017E+04  0.00000000000E+00 0. -1.
         -1   -1    0    0    0  501 -0.00000000000E+00 -0.00000000000E+00 -0.10057013695E+04  0.10057013695E+04  0.00000000000E+00 0.  1.
         23    2    1    2    0    0  0.73232157148E+03 -0.13316217147E+04  0.33415541814E+02  0.15227979208E+04  0.91025458940E+02 0.  0.
         13    1    3    3    0    0  0.45527201854E+03 -0.79759157350E+03 -0.21892759946E+02  0.91864259749E+03  0.00000000000E+00 0. -1.
        -13    1    3    3    0    0  0.27704955294E+03 -0.53403014115E+03  0.55308301759E+02  0.60415532331E+03  0.00000000000E+00 0.  1.
         22    1    1    2    0    0 -0.73232157148E+03  0.13316217147E+04  0.19510790903E+04  0.24730994504E+04  0.00000000000E+00 0. -1.
<mgrwt>
<rscale>  0 0.34682815E+04</rscale>
<asrwt>0</asrwt>
<pdfrwt beam="1">  1        1 0.46003015E+00 0.34682815E+04</pdfrwt>
<pdfrwt beam="2">  1       -1 0.15472329E+00 0.34682815E+04</pdfrwt>
<totfact> 0.15929002E-01</totfact>
</mgrwt>
</event>
<event>
 6    1  0.9988873E-007  0.4176674E+04  0.7818608E-02  0.7969824E-01
         -2   -1    0    0    0  501 -0.00000000000E+00  0.00000000000E+00  0.10531617927E+04  0.10531617927E+04  0.00000000000E+00 0.  1.
          2   -1    0    0  501    0  0.00000000000E+00 -0.00000000000E+00 -0.41410079413E+04  0.41410079413E+04  0.00000000000E+00 0. -1.
         23    2    1    2    0    0  0.13908698562E+04  0.52133055156E+03  0.27913371487E+03  0.15141075197E+04  0.91112289692E+02 0.  0.
         13    1    3    3    0    0  0.53818234131E+03  0.19348221465E+03  0.63160568359E+02  0.57538235746E+03  0.00000000000E+00 0. -1.
        -13    1    3    3    0    0  0.85268751493E+03  0.32784833691E+03  0.21597314652E+03  0.93872516220E+03  0.00000000000E+00 0.  1.
         22    1    1    2    0    0 -0.13908698562E+04 -0.52133055156E+03 -0.33669798634E+04  0.36800622144E+04  0.00000000000E+00 0. -1.
<mgrwt>
<rscale>  0 0.41766740E+04</rscale>
<asrwt>0</asrwt>
<pdfrwt beam="1">  1        2 0.63707814E+00 0.41766740E+04</pdfrwt>
<pdfrwt beam="2">  1       -2 0.16202489E+00 0.41766740E+04</pdfrwt>
<totfact> 0.49230162E-02</totfact>
</mgrwt>
</event>
<event>
 6    1  0.9988873E-007  0.1345564E+04  0.7818608E-02  0.8994193E-01
          2   -1    0    0  501    0  0.00000000000E+00  0.00000000000E+00  0.36178915813E+04  0.36178915813E+04  0.00000000000E+00 0. -1.
         -2   -1    0    0    0  501 -0.00000000000E+00 -0.00000000000E+00 -0.12511032715E+03  0.12511032715E+03  0.00000000000E+00 0.  1.
         23    2    1    2    0    0 -0.34683469428E+03 -0.17220922689E+03  0.32743465692E+04  0.32984076726E+04  0.90539473539E+02 0.  0.
         13    1    3    3    0    0 -0.11682374868E+03 -0.96646710029E+02  0.10424646470E+04  0.10534329191E+04  0.00000000000E+00 0. -1.
        -13    1    3    3    0    0 -0.23001094560E+03 -0.75562516863E+02  0.22318819221E+04  0.22449747534E+04  0.00000000000E+00 0.  1.
         22    1    1    2    0    0  0.34683469428E+03  0.17220922689E+03  0.21843468493E+03  0.44459423586E+03  0.00000000000E+00 0.  1.
<mgrwt>
<rscale>  0 0.13455640E+04</rscale>
<asrwt>0</asrwt>
<pdfrwt beam="1">  1        2 0.55659862E+00 0.13455640E+04</pdfrwt>
<pdfrwt beam="2">  1       -2 0.19247745E-01 0.13455640E+04</pdfrwt>
<totfact> 0.15298554E+01</totfact>
</mgrwt>
</event>
<event>
 6    1  0.9988873E-007  0.2322078E+04  0.7818608E-02  0.8469267E-01
         -2   -1    0    0    0  501 -0.00000000000E+00  0.00000000000E+00  0.20533070267E+04  0.20533070267E+04  0.00000000000E+00 0.  1.
          2   -1    0    0  501    0  0.00000000000E+00 -0.00000000000E+00 -0.65650749542E+03  0.65650749542E+03  0.00000000000E+00 0. -1.
         23    2    1    2    0    0 -0.56406836943E+03  0.95281968625E+03  0.10999591982E+04  0.15634495439E+04  0.91791932130E+02 0.  0.
         13    1    3    3    0    0 -0.41521639375E+03  0.65264187481E+03  0.81448941358E+03  0.11232715946E+04  0.00000000000E+00 0.  1.
        -13    1    3    3    0    0 -0.14885197568E+03  0.30017781143E+03  0.28546978459E+03  0.44017794930E+03  0.00000000000E+00 0. -1.
         22    1    1    2    0    0  0.56406836943E+03 -0.95281968625E+03  0.29684033310E+03  0.11463649782E+04  0.00000000000E+00 0. -1.
<mgrwt>
<rscale>  0 0.23220779E+04</rscale>
<asrwt>0</asrwt>
<pdfrwt beam="1">  1        2 0.10100115E+00 0.23220779E+04</pdfrwt>
<pdfrwt beam="2">  1       -2 0.31589339E+00 0.23220779E+04</pdfrwt>
<totfact> 0.10207512E+00</totfact>
</mgrwt>
</event>
<event>
 6    1  0.9988873E-007  0.1749797E+04  0.7818608E-02  0.8733462E-01
          1   -1    0    0  501    0  0.00000000000E+00  0.00000000000E+00  0.14503071909E+04  0.14503071909E+04  0.00000000000E+00 0. -1.
         -1   -1    0    0    0  501 -0.00000000000E+00 -0.00000000000E+00 -0.52778309467E+03  0.52778309467E+03  0.00000000000E+00 0.  1.
         23    2    1    2    0    0  0.46052562633E+03 -0.57843121230E+03 -0.61299917975E+02  0.74740908769E+03  0.90532560707E+02 0.  0.
         11    1    3    3    0    0  0.17852869491E+03 -0.27570561337E+03 -0.58792830371E+02  0.33368050146E+03  0.00000000000E+00 0.  1.
        -11    1    3    3    0    0  0.28199693142E+03 -0.30272559893E+03 -0.25070876041E+01  0.41372858623E+03  0.00000000000E+00 0. -1.
         22    1    1    2    0    0 -0.46052562633E+03  0.57843121230E+03  0.98382401417E+03  0.12306811978E+04  0.00000000000E+00 0. -1.
<mgrwt>
<rscale>  0 0.17497973E+04</rscale>
<asrwt>0</asrwt>
<pdfrwt beam="1">  1        1 0.22312418E+00 0.17497973E+04</pdfrwt>
<pdfrwt beam="2">  1       -1 0.81197400E-01 0.17497973E+04</pdfrwt>
<totfact> 0.10144019E+01</totfact>
</mgrwt>
</event>
<event>
 6    1  0.1073292E-006  0.2218800E+04  0.7818608E-02  0.8510644E-01
         -2   -1    0    0    0  501 -0.00000000000E+00  0.00000000000E+00  0.87847348793E+03  0.87847348793E+03  0.00000000000E+00 0.  1.
          2   -1    0    0  501    0  0.00000000000E+00 -0.00000000000E+00 -0.14010303229E+04  0.14010303229E+04  0.00000000000E+00 0. -1.
         23    2    1    2    0    0  0.36645971552E+03  0.72560081722E+03  0.51123206983E+03  0.96439591839E+03  0.88949362789E+02 0.  0.
         11    1    3    3    0    0  0.23072205470E+03  0.35827083751E+03  0.26652602910E+03  0.50261991974E+03  0.00000000000E+00 0. -1.
        -11    1    3    3    0    0  0.13573766082E+03  0.36732997971E+03  0.24470604072E+03  0.46177599865E+03  0.00000000000E+00 0.  1.
         22    1    1    2    0    0 -0.36645971552E+03 -0.72560081722E+03 -0.10337889048E+04  0.13151078924E+04  0.00000000000E+00 0. -1.
<mgrwt>
<rscale>  0 0.22187997E+04</rscale>
<asrwt>0</asrwt>
<pdfrwt beam="1">  1        2 0.21554313E+00 0.22187997E+04</pdfrwt>
<pdfrwt beam="2">  1       -2 0.13514977E+00 0.22187997E+04</pdfrwt>
<totfact> 0.51892112E+00</totfact>
</mgrwt>
</event>
<event>
 6    1  0.9988873E-007  0.2042207E+04  0.7818608E-02  0.8587138E-01
         -1   -1    0    0    0  501 -0.00000000000E+00  0.00000000000E+00  0.48724015092E+03  0.48724015092E+03  0.00000000000E+00 0.  1.
          1   -1    0    0  501    0  0.00000000000E+00 -0.00000000000E+00 -0.21399150137E+04  0.21399150137E+04  0.00000000000E+00 0. -1.
         23    2    1    2    0    0  0.28722705417E+03  0.97783270417E+03 -0.82814814145E+03  0.13162392664E+04  0.89444308019E+02 0.  0.
         11    1    3    3    0    0  0.22562172627E+03  0.64909102746E+03 -0.58908647041E+03  0.90512275129E+03  0.00000000000E+00 0. -1.
        -11    1    3    3    0    0  0.61605327905E+02  0.32874167671E+03 -0.23906167104E+03  0.41111651511E+03  0.00000000000E+00 0.  1.
         22    1    1    2    0    0 -0.28722705417E+03 -0.97783270417E+03 -0.82452672129E+03  0.13109158982E+04  0.00000000000E+00 0. -1.
<mgrwt>
<rscale>  0 0.20422072E+04</rscale>
<asrwt>0</asrwt>
<pdfrwt beam="1">  1        1 0.32921770E+00 0.20422072E+04</pdfrwt>
<pdfrwt beam="2">  1       -1 0.74960023E-01 0.20422072E+04</pdfrwt>
<totfact> 0.39603893E+00</totfact>
</mgrwt>
</event>
<event>
 6    1  0.9988873E-007  0.1202376E+04  0.7818608E-02  0.9110780E-01
          2   -1    0    0  501    0  0.00000000000E+00  0.00000000000E+00  0.20969169674E+04  0.20969169674E+04  0.00000000000E+00 0. -1.
         -2   -1    0    0    0  501 -0.00000000000E+00 -0.00000000000E+00 -0.17236103031E+03  0.17236103031E+03  0.00000000000E+00 0.  1.
         23    2    1    2    0    0 -0.47356726758E+03  0.24070166892E+03  0.14847267507E+04  0.15796020133E+04  0.92334964527E+02 0.  0.
         13    1    3    3    0    0 -0.10868414370E+03  0.73215092469E+02  0.48169207403E+03  0.49919930593E+03  0.00000000000E+00 0.  1.
        -13    1    3    3    0    0 -0.36488312388E+03  0.16748657646E+03  0.10030346767E+04  0.10804027073E+04  0.00000000000E+00 0. -1.
         22    1    1    2    0    0  0.47356726758E+03 -0.24070166892E+03  0.43982918641E+03  0.68967598448E+03  0.00000000000E+00 0.  1.
<mgrwt>
<rscale>  0 0.12023756E+04</rscale>
<asrwt>0</asrwt>
<pdfrwt beam="1">  1        2 0.32260259E+00 0.12023756E+04</pdfrwt>
<pdfrwt beam="2">  1       -2 0.26517083E-01 0.12023756E+04</pdfrwt>
<totfact> 0.75145478E+01</totfact>
</mgrwt>
</event>
<event>
 6    1  0.9988873E-007  0.1922434E+04  0.7818608E-02  0.8643769E-01
          2   -1    0    0  501    0  0.00000000000E+00  0.00000000000E+00  0.65717742832E+03  0.65717742832E+03  0.00000000000E+00 0. -1.
         -2   -1    0    0    0  501 -0.00000000000E+00 -0.00000000000E+00 -0.14059192334E+04  0.14059192334E+04  0.00000000000E+00 0.  1.
         23    2    1    2    0    0 -0.10175913875E+03  0.95296835763E+03 -0.33434527575E+03  0.10189567781E+04  0.89345057520E+02 0.  0.
         13    1    3    3    0    0 -0.60586996886E+02  0.52639027668E+03 -0.13789015854E+03  0.54751365590E+03  0.00000000000E+00 0. -1.
        -13    1    3    3    0    0 -0.41172141860E+02  0.42657808095E+03 -0.19645511722E+03  0.47144312222E+03  0.00000000000E+00 0.  1.
         22    1    1    2    0    0  0.10175913875E+03 -0.95296835763E+03 -0.41439652931E+03  0.10441398836E+04  0.00000000000E+00 0.  1.
<mgrwt>
<rscale>  0 0.19224343E+04</rscale>
<asrwt>0</asrwt>
<pdfrwt beam="1">  1        2 0.10110422E+00 0.19224343E+04</pdfrwt>
<pdfrwt beam="2">  1       -2 0.21629527E+00 0.19224343E+04</pdfrwt>
<totfact> 0.43239788E+00</totfact>
</mgrwt>
</event>
<event>
 6    1  0.9988873E-007  0.1312470E+04  0.7818608E-02  0.9019734E-01
          1   -1    0    0  501    0  0.00000000000E+00  0.00000000000E+00  0.11951050615E+04  0.11951050615E+04  0.00000000000E+00 0. -1.
         -1   -1    0    0    0  501 -0.00000000000E+00 -0.00000000000E+00 -0.36034038565E+03  0.36034038565E+03  0.00000000000E+00 0.  1.
         23    2    1    2    0    0  0.27442948141E+03  0.51457570238E+03  0.76764320472E+03  0.96841479577E+03  0.91931676599E+02 0.  0.
         13    1    3    3    0    0  0.82187371013E+02  0.20901145822E+03  0.23599497139E+03  0.32578241227E+03  0.00000000000E+00 0.  1.
        -13    1    3    3    0    0  0.19224211040E+03  0.30556424416E+03  0.53164823334E+03  0.64263238350E+03  0.00000000000E+00 0. -1.
         22    1    1    2    0    0 -0.27442948141E+03 -0.51457570238E+03  0.67121471099E+02  0.58703065136E+03  0.00000000000E+00 0.  1.
<mgrwt>
<rscale>  0 0.13124704E+04</rscale>
<asrwt>0</asrwt>
<pdfrwt beam="1">  1        1 0.18386231E+00 0.13124704E+04</pdfrwt>
<pdfrwt beam="2">  1       -1 0.55436983E-01 0.13124704E+04</pdfrwt>
<totfact> 0.34791807E+01</totfact>
</mgrwt>
</event>
<event>
 6    1  0.9988873E-007  0.2614518E+04  0.7818608E-02  0.8363287E-01
         -2   -1    0    0    0  501 -0.00000000000E+00  0.00000000000E+00  0.11223674660E+04  0.11223674660E+04  0.00000000000E+00 0.  1.
          2   -1    0    0  501    0  0.00000000000E+00 -0.00000000000E+00 -0.15226080036E+04  0.15226080036E+04  0.00000000000E+00 0. -1.
         23    2    1    2    0    0  0.11660286409E+04  0.39416148323E+03 -0.64104714523E+03  0.13907929118E+04  0.91528218625E+02 0.  0.
         11    1    3    3    0    0  0.93226849853E+03  0.34433364998E+03 -0.54259494594E+03  0.11322983225E+04  0.00000000000E+00 0.  1.
        -11    1    3    3    0    0  0.23376014233E+03  0.49827833246E+02 -0.98452199296E+02  0.25849458922E+03  0.00000000000E+00 0. -1.
         22    1    1    2    0    0 -0.11660286409E+04 -0.39416148323E+03  0.24080660760E+03  0.12541825579E+04  0.00000000000E+00 0. -1.
<mgrwt>
<rscale>  0 0.26145177E+04</rscale>
<asrwt>0</asrwt>
<pdfrwt beam="1">  1        2 0.23424739E+00 0.26145177E+04</pdfrwt>
<pdfrwt beam="2">  1       -2 0.17267192E+00 0.26145177E+04</pdfrwt>
<totfact> 0.22223770E+00</totfact>
</mgrwt>
</event>
<event>
 6    1  0.9988873E-007  0.4513659E+04  0.7818608E-02  0.7908250E-01
         -2   -1    0    0    0  501 -0.00000000000E+00  0.00000000000E+00  0.13418278740E+04  0.13418278740E+04  0.00000000000E+00 0.  1.
          2   -1    0    0  501    0  0.00000000000E+00 -0.00000000000E+00 -0.37957777501E+04  0.37957777501E+04  0.00000000000E+00 0. -1.
         23    2    1    2    0    0  0.98289154709E+03 -0.19163416710E+04 -0.46308754468E+03  0.22046934167E+04  0.88214478939E+02 0.  0.
         13    1    3    3    0    0  0.59047602042E+03 -0.12277986354E+04 -0.31756478614E+03  0.13989277369E+04  0.00000000000E+00 0.  1.
        -13    1    3    3    0    0  0.39241552668E+03 -0.68854303566E+03 -0.14552275854E+03  0.80576567983E+03  0.00000000000E+00 0. -1.
         22    1    1    2    0    0 -0.98289154709E+03  0.19163416710E+04 -0.19908623314E+04  0.29329122074E+04  0.00000000000E+00 0. -1.
<mgrwt>
<rscale>  0 0.45136594E+04</rscale>
<asrwt>0</asrwt>
<pdfrwt beam="1">  1        2 0.58396580E+00 0.45136594E+04</pdfrwt>
<pdfrwt beam="2">  1       -2 0.20643506E+00 0.45136594E+04</pdfrwt>
<totfact> 0.45073228E-02</totfact>
</mgrwt>
</event>
<event>
 6    1  0.9988873E-007  0.3149857E+04  0.7818608E-02  0.8202187E-01
         -2   -1    0    0    0  501 -0.00000000000E+00  0.00000000000E+00  0.24055780139E+04  0.24055780139E+04  0.00000000000E+00 0.  1.
          2   -1    0    0  501    0  0.00000000000E+00 -0.00000000000E+00 -0.10311037017E+04  0.10311037017E+04  0.00000000000E+00 0. -1.
         23    2    1    2    0    0  0.12501560106E+04  0.13131310063E+03 -0.34500895558E+03  0.13067155446E+04  0.91329918260E+02 0.  0.
         13    1    3    3    0    0  0.32188833356E+03  0.64188626747E+02 -0.62813266898E+02  0.33418226402E+03  0.00000000000E+00 0. -1.
        -13    1    3    3    0    0  0.92826767702E+03  0.67124473888E+02 -0.28219568868E+03  0.97253328061E+03  0.00000000000E+00 0.  1.
         22    1    1    2    0    0 -0.12501560106E+04 -0.13131310063E+03  0.17194832678E+04  0.21299661710E+04  0.00000000000E+00 0.  1.
<mgrwt>
<rscale>  0 0.31498574E+04</rscale>
<asrwt>0</asrwt>
<pdfrwt beam="1">  1        2 0.15863134E+00 0.31498574E+04</pdfrwt>
<pdfrwt beam="2">  1       -2 0.37008892E+00 0.31498574E+04</pdfrwt>
<totfact> 0.23576605E-01</totfact>
</mgrwt>
</event>
<event>
 6    1  0.9988873E-007  0.5141586E+04  0.7818608E-02  0.7807030E-01
          2   -1    0    0  501    0  0.00000000000E+00  0.00000000000E+00  0.45490465306E+04  0.45490465306E+04  0.00000000000E+00 0. -1.
         -2   -1    0    0    0  501 -0.00000000000E+00 -0.00000000000E+00 -0.14528267826E+04  0.14528267826E+04  0.00000000000E+00 0.  1.
         23    2    1    2    0    0 -0.17363895842E+04 -0.18319852408E+04  0.21124397434E+04  0.32928067197E+04  0.94634630874E+02 0.  0.
         11    1    3    3    0    0 -0.37012351514E+03 -0.36810693151E+03  0.48331261639E+03  0.71139666477E+03  0.00000000000E+00 0.  1.
        -11    1    3    3    0    0 -0.13662660691E+04 -0.14638783093E+04  0.16291271270E+04  0.25814100550E+04  0.00000000000E+00 0. -1.
         22    1    1    2    0    0  0.17363895842E+04  0.18319852408E+04  0.98378000460E+03  0.27090665935E+04  0.00000000000E+00 0.  1.
<mgrwt>
<rscale>  0 0.51415860E+04</rscale>
<asrwt>0</asrwt>
<pdfrwt beam="1">  1        2 0.69985331E+00 0.51415860E+04</pdfrwt>
<pdfrwt beam="2">  1       -2 0.22351181E+00 0.51415860E+04</pdfrwt>
<totfact> 0.73610174E-03</totfact>
</mgrwt>
</event>
<event>
 6    1  0.1100132E-006  0.1956926E+04  0.7818608E-02  0.8627028E-01
          2   -1    0    0  501    0  0.00000000000E+00  0.00000000000E+00  0.13030020335E+04  0.13030020335E+04  0.00000000000E+00 0. -1.
         -2   -1    0    0    0  501 -0.00000000000E+00 -0.00000000000E+00 -0.73475679035E+03  0.73475679035E+03  0.00000000000E+00 0.  1.
         23    2    1    2    0    0  0.36723106804E+03 -0.88749782415E+03  0.46820310797E+03  0.10720883448E+04  0.87454123032E+02 0.  0.
         13    1    3    3    0    0  0.14456376999E+03 -0.26658473587E+03  0.11944666839E+03  0.32593498061E+03  0.00000000000E+00 0. -1.
        -13    1    3    3    0    0  0.22266729804E+03 -0.62091308828E+03  0.34875643957E+03  0.74615336423E+03  0.00000000000E+00 0.  1.
         22    1    1    2    0    0 -0.36723106804E+03  0.88749782415E+03  0.10004213518E+03  0.96567047900E+03  0.00000000000E+00 0. -1.
<mgrwt>
<rscale>  0 0.19569257E+04</rscale>
<asrwt>0</asrwt>
<pdfrwt beam="1">  1        2 0.20046185E+00 0.19569257E+04</pdfrwt>
<pdfrwt beam="2">  1       -2 0.11303951E+00 0.19569257E+04</pdfrwt>
<totfact> 0.94406511E+00</totfact>
</mgrwt>
</event>
<event>
 6    1  0.9988873E-007  0.3944900E+04  0.7818608E-02  0.8015755E-01
         -2   -1    0    0    0  501 -0.00000000000E+00  0.00000000000E+00  0.22256699391E+04  0.22256699391E+04  0.00000000000E+00 0.  1.
          2   -1    0    0  501    0  0.00000000000E+00 -0.00000000000E+00 -0.17480398854E+04  0.17480398854E+04  0.00000000000E+00 0. -1.
         23    2    1    2    0    0 -0.48307318844E+03 -0.32195011377E+03 -0.16587316800E+04  0.17598776180E+04  0.93631528159E+02 0.  0.
         11    1    3    3    0    0 -0.28580455858E+03 -0.15726651023E+03 -0.81434932082E+03  0.87725812465E+03  0.00000000000E+00 0.  1.
        -11    1    3    3    0    0 -0.19726862986E+03 -0.16468360353E+03 -0.84438235916E+03  0.88261949336E+03  0.00000000000E+00 0. -1.
         22    1    1    2    0    0  0.48307318844E+03  0.32195011377E+03  0.21363617337E+04  0.22138322064E+04  0.00000000000E+00 0.  1.
<mgrwt>
<rscale>  0 0.39449004E+04</rscale>
<asrwt>0</asrwt>
<pdfrwt beam="1">  1        2 0.26892921E+00 0.39449004E+04</pdfrwt>
<pdfrwt beam="2">  1       -2 0.34241076E+00 0.39449004E+04</pdfrwt>
<totfact> 0.12686844E-01</totfact>
</mgrwt>
</event>
<event>
 6    1  0.1149688E-006  0.3925160E+04  0.7818608E-02  0.8019817E-01
         -2   -1    0    0    0  501 -0.00000000000E+00  0.00000000000E+00  0.21212088073E+04  0.21212088073E+04  0.00000000000E+00 0.  1.
          2   -1    0    0  501    0  0.00000000000E+00 -0.00000000000E+00 -0.18158136124E+04  0.18158136124E+04  0.00000000000E+00 0. -1.
         23    2    1    2    0    0  0.14171772949E+04 -0.12133919838E+04 -0.45472521696E+03  0.19224518372E+04  0.91293217066E+02 0.  0.
         13    1    3    3    0    0  0.95050342251E+03 -0.75702307559E+03 -0.28993649668E+03  0.12492413159E+04  0.00000000000E+00 0.  1.
        -13    1    3    3    0    0  0.46667387244E+03 -0.45636890825E+03 -0.16478872029E+03  0.67321052128E+03  0.00000000000E+00 0. -1.
         22    1    1    2    0    0 -0.14171772949E+04  0.12133919838E+04  0.76012041180E+03  0.20145705826E+04  0.00000000000E+00 0.  1.
<mgrwt>
<rscale>  0 0.39251598E+04</rscale>
<asrwt>0</asrwt>
<pdfrwt beam="1">  1        2 0.27935594E+00 0.39251598E+04</pdfrwt>
<pdfrwt beam="2">  1       -2 0.32633982E+00 0.39251598E+04</pdfrwt>
<totfact> 0.14678545E-01</totfact>
</mgrwt>
</event>
<event>
 6    1  0.9988873E-007  0.1617297E+04  0.7818608E-02  0.8809992E-01
         -2   -1    0    0    0  501 -0.00000000000E+00  0.00000000000E+00  0.47378217727E+03  0.47378217727E+03  0.00000000000E+00 0.  1.
          2   -1    0    0  501    0  0.00000000000E+00 -0.00000000000E+00 -0.13801960679E+04  0.13801960679E+04  0.00000000000E+00 0. -1.
         23    2    1    2    0    0  0.48259228377E+03  0.60560888197E+02 -0.11914930161E+04  0.12902114127E+04  0.91798413188E+02 0.  0.
         13    1    3    3    0    0  0.90958066851E+02 -0.15070209935E+02 -0.29294729844E+03  0.30711333546E+03  0.00000000000E+00 0.  1.
        -13    1    3    3    0    0  0.39163421692E+03  0.75631098131E+02 -0.89854571762E+03  0.98309807726E+03  0.00000000000E+00 0. -1.
         22    1    1    2    0    0 -0.48259228377E+03 -0.60560888197E+02  0.28507912547E+03  0.56376683240E+03  0.00000000000E+00 0.  1.
<mgrwt>
<rscale>  0 0.16172969E+04</rscale>
<asrwt>0</asrwt>
<pdfrwt beam="1">  1        2 0.21233785E+00 0.16172969E+04</pdfrwt>
<pdfrwt beam="2">  1       -2 0.72889568E-01 0.16172969E+04</pdfrwt>
<totfact> 0.24196233E+01</totfact>
</mgrwt>
</event>
<event>
 6    1  0.9988873E-007  0.1938011E+04  0.7818608E-02  0.8636164E-01
         -2   -1    0    0    0  501 -0.00000000000E+00  0.00000000000E+00  0.12850167972E+04  0.12850167972E+04  0.00000000000E+00 0.  1.
          2   -1    0    0  501    0  0.00000000000E+00 -0.00000000000E+00 -0.73070774235E+03  0.73070774235E+03  0.00000000000E+00 0. -1.
         23    2    1    2    0    0  0.70592805690E+03 -0.45964738784E+03 -0.21577985349E+03  0.87438888803E+03  0.91568770199E+02 0.  0.
         13    1    3    3    0    0  0.35108300460E+03 -0.28297923942E+03 -0.11146259119E+03  0.46450019946E+03  0.00000000000E+00 0. -1.
        -13    1    3    3    0    0  0.35484505230E+03 -0.17666814842E+03 -0.10431726230E+03  0.40988868857E+03  0.00000000000E+00 0.  1.
         22    1    1    2    0    0 -0.70592805690E+03  0.45964738784E+03  0.77008890838E+03  0.11413356515E+04  0.00000000000E+00 0. -1.
<mgrwt>
<rscale>  0 0.19380111E+04</rscale>
<asrwt>0</asrwt>
<pdfrwt beam="1">  1        2 0.11241658E+00 0.19380111E+04</pdfrwt>
<pdfrwt beam="2">  1       -2 0.19769489E+00 0.19380111E+04</pdfrwt>
<totfact> 0.49848366E+00</totfact>
</mgrwt>
</event>
<event>
 6    1  0.1658044E-006  0.4734352E+04  0.7818608E-02  0.7870846E-01
          1   -1    0    0  501    0  0.00000000000E+00  0.00000000000E+00  0.24945208159E+04  0.24945208159E+04  0.00000000000E+00 0. -1.
         -1   -1    0    0    0  501 -0.00000000000E+00 -0.00000000000E+00 -0.22463316573E+04  0.22463316573E+04  0.00000000000E+00 0.  1.
         23    2    1    2    0    0 -0.20194590365E+04 -0.11037767211E+04  0.67530560351E+03  0.24001332872E+04  0.89801379225E+02 0.  0.
         11    1    3    3    0    0 -0.88662371615E+03 -0.45857150377E+03  0.25308830849E+03  0.10297781946E+04  0.00000000000E+00 0.  1.
        -11    1    3    3    0    0 -0.11328353204E+04 -0.64520521732E+03  0.42221729501E+03  0.13703550926E+04  0.00000000000E+00 0. -1.
         22    1    1    2    0    0  0.20194590365E+04  0.11037767211E+04 -0.42711644490E+03  0.23407191860E+04  0.00000000000E+00 0.  1.
<mgrwt>
<rscale>  0 0.47343515E+04</rscale>
<asrwt>0</asrwt>
<pdfrwt beam="1">  1        1 0.38377243E+00 0.47343515E+04</pdfrwt>
<pdfrwt beam="2">  1       -1 0.34558949E+00 0.47343515E+04</pdfrwt>
<totfact> 0.16747265E-02</totfact>
</mgrwt>
</event>
<event>
 6    1  0.9988873E-007  0.2617557E+04  0.7818608E-02  0.8362262E-01
         -1   -1    0    0    0  501 -0.00000000000E+00  0.00000000000E+00  0.69661212348E+03  0.69661212348E+03  0.00000000000E+00 0.  1.
          1   -1    0    0  501    0  0.00000000000E+00 -0.00000000000E+00 -0.24589022535E+04  0.24589022535E+04  0.00000000000E+00 0. -1.
         23    2    1    2    0    0 -0.58445095736E+03 -0.10908888911E+04 -0.13896243321E+04  0.18630356378E+04  0.90689079258E+02 0.  0.
         11    1    3    3    0    0 -0.13940238441E+03 -0.19011639276E+03 -0.24496600933E+03  0.33997884243E+03  0.00000000000E+00 0. -1.
        -11    1    3    3    0    0 -0.44504857294E+03 -0.90077249832E+03 -0.11446583228E+04  0.15230567954E+04  0.00000000000E+00 0.  1.
         22    1    1    2    0    0  0.58445095736E+03  0.10908888911E+04 -0.37266579786E+03  0.12924787391E+04  0.00000000000E+00 0.  1.
<mgrwt>
<rscale>  0 0.26175570E+04</rscale>
<asrwt>0</asrwt>
<pdfrwt beam="1">  1        1 0.37829265E+00 0.26175570E+04</pdfrwt>
<pdfrwt beam="2">  1       -1 0.10717110E+00 0.26175570E+04</pdfrwt>
<totfact> 0.10319857E+00</totfact>
</mgrwt>
</event>
<event>
 6    1  0.9988873E-007  0.2581816E+04  0.7818608E-02  0.8374404E-01
         -1   -1    0    0    0  501 -0.00000000000E+00  0.00000000000E+00  0.83584497677E+03  0.83584497677E+03  0.00000000000E+00 0.  1.
          1   -1    0    0  501    0  0.00000000000E+00 -0.00000000000E+00 -0.19937238705E+04  0.19937238705E+04  0.00000000000E+00 0. -1.
         23    2    1    2    0    0 -0.99549585658E+03 -0.29384247100E+01  0.31831634511E+03  0.10490708782E+04  0.90574704103E+02 0.  0.
         11    1    3    3    0    0 -0.24950920427E+03  0.28956848937E+02  0.10742821224E+03  0.27319253815E+03  0.00000000000E+00 0.  1.
        -11    1    3    3    0    0 -0.74598665231E+03 -0.31895273647E+02  0.21088813288E+03  0.77587834001E+03  0.00000000000E+00 0. -1.
         22    1    1    2    0    0  0.99549585658E+03  0.29384247100E+01 -0.14761952389E+04  0.17804979691E+04  0.00000000000E+00 0. -1.
<mgrwt>
<rscale>  0 0.25818165E+04</rscale>
<asrwt>0</asrwt>
<pdfrwt beam="1">  1        1 0.30672675E+00 0.25818165E+04</pdfrwt>
<pdfrwt beam="2">  1       -1 0.12859154E+00 0.25818165E+04</pdfrwt>
<totfact> 0.13836114E+00</totfact>
</mgrwt>
</event>
<event>
 6    1  0.9988873E-007  0.3646909E+04  0.7818608E-02  0.8079830E-01
          2   -1    0    0  501    0  0.00000000000E+00  0.00000000000E+00  0.33972694111E+04  0.33972694111E+04  0.00000000000E+00 0. -1.
         -2   -1    0    0    0  501 -0.00000000000E+00 -0.00000000000E+00 -0.97872321646E+03  0.97872321646E+03  0.00000000000E+00 0.  1.
         23    2    1    2    0    0 -0.67930504052E+03 -0.89204445321E+03  0.29337618923E+04  0.31420372558E+04  0.90777923046E+02 0.  0.
         11    1    3    3    0    0 -0.35260760785E+03 -0.38833712533E+03  0.13725772651E+04  0.14693897361E+04  0.00000000000E+00 0. -1.
        -11    1    3    3    0    0 -0.32669743267E+03 -0.50370732789E+03  0.15611846272E+04  0.16726475196E+04  0.00000000000E+00 0.  1.
         22    1    1    2    0    0  0.67930504052E+03  0.89204445321E+03 -0.51521569764E+03  0.12339553718E+04  0.00000000000E+00 0.  1.
<mgrwt>
<rscale>  0 0.36469091E+04</rscale>
<asrwt>0</asrwt>
<pdfrwt beam="1">  1        2 0.52265682E+00 0.36469091E+04</pdfrwt>
<pdfrwt beam="2">  1       -2 0.15057280E+00 0.36469091E+04</pdfrwt>
<totfact> 0.23024365E-01</totfact>
</mgrwt>
</event>
<event>
 6    1  0.9988873E-007  0.4949313E+04  0.7818608E-02  0.7836374E-01
         -1   -1    0    0    0  501 -0.00000000000E+00  0.00000000000E+00  0.24373019925E+04  0.24373019925E+04  0.00000000000E+00 0.  1.
          1   -1    0    0  501    0  0.00000000000E+00 -0.00000000000E+00 -0.25125836018E+04  0.25125836018E+04  0.00000000000E+00 0. -1.
         23    2    1    2    0    0 -0.20082416276E+04 -0.55192982432E+03  0.12974589807E+04  0.24554763069E+04  0.91121464608E+02 0.  0.
         11    1    3    3    0    0 -0.15610259478E+04 -0.46373356841E+03  0.99323913035E+03  0.19074524377E+04  0.00000000000E+00 0. -1.
        -11    1    3    3    0    0 -0.44721567976E+03 -0.88196255909E+02  0.30421985036E+03  0.54802386913E+03  0.00000000000E+00 0.  1.
         22    1    1    2    0    0  0.20082416276E+04  0.55192982432E+03 -0.13727405900E+04  0.24944092874E+04  0.00000000000E+00 0. -1.
<mgrwt>
<rscale>  0 0.49493131E+04</rscale>
<asrwt>0</asrwt>
<pdfrwt beam="1">  1        1 0.38655132E+00 0.49493131E+04</pdfrwt>
<pdfrwt beam="2">  1       -1 0.37496954E+00 0.49493131E+04</pdfrwt>
<totfact> 0.10184226E-02</totfact>
</mgrwt>
</event>
<event>
 6    1  0.9988873E-007  0.4072381E+04  0.7818608E-02  0.7990102E-01
          2   -1    0    0  501    0  0.00000000000E+00  0.00000000000E+00  0.24240985452E+04  0.24240985452E+04  0.00000000000E+00 0. -1.
         -2   -1    0    0    0  501 -0.00000000000E+00 -0.00000000000E+00 -0.17103562174E+04  0.17103562174E+04  0.00000000000E+00 0.  1.
         23    2    1    2    0    0  0.62196812360E+03 -0.19190619385E+04  0.84479052284E+02  0.20212545022E+04  0.93220070634E+02 0.  0.
         13    1    3    3    0    0  0.37034953402E+03 -0.99600517334E+03  0.55460724643E+02  0.10640775229E+04  0.00000000000E+00 0. -1.
        -13    1    3    3    0    0  0.25161858958E+03 -0.92305676518E+03  0.29018327641E+02  0.95717697930E+03  0.00000000000E+00 0.  1.
         22    1    1    2    0    0 -0.62196812360E+03  0.19190619385E+04  0.62926327549E+03  0.21132002604E+04  0.00000000000E+00 0. -1.
<mgrwt>
<rscale>  0 0.40723811E+04</rscale>
<asrwt>0</asrwt>
<pdfrwt beam="1">  1        2 0.37293824E+00 0.40723811E+04</pdfrwt>
<pdfrwt beam="2">  1       -2 0.26313173E+00 0.40723811E+04</pdfrwt>
<totfact> 0.16123910E-01</totfact>
</mgrwt>
</event>
<event>
 6    1  0.9988873E-007  0.2312828E+04  0.7818608E-02  0.8472880E-01
          2   -1    0    0  501    0  0.00000000000E+00  0.00000000000E+00  0.29708181156E+04  0.29708181156E+04  0.00000000000E+00 0. -1.
         -2   -1    0    0    0  501 -0.00000000000E+00 -0.00000000000E+00 -0.45014301032E+03  0.45014301032E+03  0.00000000000E+00 0.  1.
         23    2    1    2    0    0 -0.91854775126E+03  0.31447007967E+03  0.33686984572E+03  0.10310601208E+04  0.83560023341E+02 0.  0.
         13    1    3    3    0    0 -0.54893745869E+03  0.18675997467E+03  0.15759313613E+03  0.60087204815E+03  0.00000000000E+00 0.  1.
        -13    1    3    3    0    0 -0.36961029257E+03  0.12771010500E+03  0.17927670959E+03  0.43018807270E+03  0.00000000000E+00 0. -1.
         22    1    1    2    0    0  0.91854775126E+03 -0.31447007967E+03  0.21838052595E+04  0.23899010050E+04  0.00000000000E+00 0. -1.
<mgrwt>
<rscale>  0 0.23128277E+04</rscale>
<asrwt>0</asrwt>
<pdfrwt beam="1">  1        2 0.45704893E+00 0.23128277E+04</pdfrwt>
<pdfrwt beam="2">  1       -2 0.69252773E-01 0.23128277E+04</pdfrwt>
<totfact> 0.31318536E+00</totfact>
</mgrwt>
</event>
<event>
 6    1  0.9988873E-007  0.8989127E+03  0.7818608E-02  0.9426942E-01
         -1   -1    0    0    0  501 -0.00000000000E+00  0.00000000000E+00  0.43660350545E+03  0.43660350545E+03  0.00000000000E+00 0.  1.
          1   -1    0    0  501    0  0.00000000000E+00 -0.00000000000E+00 -0.46268755373E+03  0.46268755373E+03  0.00000000000E+00 0. -1.
         23    2    1    2    0    0  0.34942856957E+03 -0.27326533937E+03  0.17344495484E+02  0.45357780007E+03  0.93046860562E+02 0.  0.
         11    1    3    3    0    0  0.34476064510E+03 -0.24125471194E+03  0.18647219700E+02  0.42120239463E+03  0.00000000000E+00 0.  1.
        -11    1    3    3    0    0  0.46679244792E+01 -0.32010627424E+02 -0.13027242165E+01  0.32375405440E+02  0.00000000000E+00 0. -1.
         22    1    1    2    0    0 -0.34942856957E+03  0.27326533937E+03 -0.43428543770E+02  0.44571325911E+03  0.00000000000E+00 0.  1.
<mgrwt>
<rscale>  0 0.89891269E+03</rscale>
<asrwt>0</asrwt>
<pdfrwt beam="1">  1        1 0.71182701E-01 0.89891269E+03</pdfrwt>
<pdfrwt beam="2">  1       -1 0.67169770E-01 0.89891269E+03</pdfrwt>
<totfact> 0.11161739E+02</totfact>
</mgrwt>
</event>
<event>
 6    1  0.9988873E-007  0.2118773E+04  0.7818608E-02  0.8553018E-01
          2   -1    0    0  501    0  0.00000000000E+00  0.00000000000E+00  0.33616909032E+04  0.33616909032E+04  0.00000000000E+00 0. -1.
         -2   -1    0    0    0  501 -0.00000000000E+00 -0.00000000000E+00 -0.33384991303E+03  0.33384991303E+03  0.00000000000E+00 0.  1.
         23    2    1    2    0    0 -0.77753828978E+03 -0.67571471124E+03  0.19330771665E+04  0.21923229369E+04  0.91303696164E+02 0.  0.
         13    1    3    3    0    0 -0.52790371801E+03 -0.51286067020E+03  0.13893298468E+04  0.15722422923E+04  0.00000000000E+00 0. -1.
        -13    1    3    3    0    0 -0.24963457177E+03 -0.16285404104E+03  0.54374731975E+03  0.62008064463E+03  0.00000000000E+00 0.  1.
         22    1    1    2    0    0  0.77753828978E+03  0.67571471124E+03  0.10947638236E+04  0.15032178793E+04  0.00000000000E+00 0.  1.
<mgrwt>
<rscale>  0 0.21187734E+04</rscale>
<asrwt>0</asrwt>
<pdfrwt beam="1">  1        2 0.51718319E+00 0.21187734E+04</pdfrwt>
<pdfrwt beam="2">  1       -2 0.51361527E-01 0.21187734E+04</pdfrwt>
<totfact> 0.33479562E+00</totfact>
</mgrwt>
</event>
<event>
 6    1  0.9988873E-007  0.2706244E+04  0.7818608E-02  0.8332982E-01
         -1   -1    0    0    0  501 -0.00000000000E+00  0.00000000000E+00  0.65010582812E+03  0.65010582812E+03  0.00000000000E+00 0.  1.
          1   -1    0    0  501    0  0.00000000000E+00 -0.00000000000E+00 -0.28163705942E+04  0.28163705942E+04  0.00000000000E+00 0. -1.
         23    2    1    2    0    0 -0.88330600797E+03  0.98858168737E+03 -0.14213563353E+04  0.19458147813E+04  0.91750067053E+02 0.  0.
         11    1    3    3    0    0 -0.36063660420E+03  0.45548398651E+03 -0.66557769928E+03  0.88346935206E+03  0.00000000000E+00 0.  1.
        -11    1    3    3    0    0 -0.52266940377E+03  0.53309770086E+03 -0.75577863604E+03  0.10623454292E+04  0.00000000000E+00 0. -1.
         22    1    1    2    0    0  0.88330600797E+03 -0.98858168737E+03 -0.74490843078E+03  0.15206616411E+04  0.00000000000E+00 0. -1.
<mgrwt>
<rscale>  0 0.27062438E+04</rscale>
<asrwt>0</asrwt>
<pdfrwt beam="1">  1        1 0.43328778E+00 0.27062438E+04</pdfrwt>
<pdfrwt beam="2">  1       -1 0.10001628E+00 0.27062438E+04</pdfrwt>
<totfact> 0.67420158E-01</totfact>
</mgrwt>
</event>
<event>
 6    1  0.9988873E-007  0.2745170E+04  0.7818608E-02  0.8320496E-01
          1   -1    0    0  501    0  0.00000000000E+00  0.00000000000E+00  0.10863459669E+04  0.10863459669E+04  0.00000000000E+00 0. -1.
         -1   -1    0    0    0  501 -0.00000000000E+00 -0.00000000000E+00 -0.17342443787E+04  0.17342443787E+04  0.00000000000E+00 0.  1.
         23    2    1    2    0    0  0.29918250917E+03  0.46496596928E+03  0.96471731088E+03  0.11158226208E+04  0.93150978204E+02 0.  0.
         11    1    3    3    0    0  0.71540218514E+02  0.92091080953E+02  0.28359982559E+03  0.30663925243E+03  0.00000000000E+00 0. -1.
        -11    1    3    3    0    0  0.22764229065E+03  0.37287488832E+03  0.68111748530E+03  0.80918336835E+03  0.00000000000E+00 0.  1.
         22    1    1    2    0    0 -0.29918250917E+03 -0.46496596928E+03 -0.16126157227E+04  0.17047677248E+04  0.00000000000E+00 0.  1.
<mgrwt>
<rscale>  0 0.27451699E+04</rscale>
<asrwt>0</asrwt>
<pdfrwt beam="1">  1        1 0.16713015E+00 0.27451699E+04</pdfrwt>
<pdfrwt beam="2">  1       -1 0.26680683E+00 0.27451699E+04</pdfrwt>
<totfact> 0.61198449E-01</totfact>
</mgrwt>
</event>
<event>
 6    1  0.9988873E-007  0.1248056E+04  0.7818608E-02  0.9071803E-01
         -2   -1    0    0    0  501 -0.00000000000E+00  0.00000000000E+00  0.21964008364E+03  0.21964008364E+03  0.00000000000E+00 0.  1.
          2   -1    0    0  501    0  0.00000000000E+00 -0.00000000000E+00 -0.17729499851E+04  0.17729499851E+04  0.00000000000E+00 0. -1.
         23    2    1    2    0    0  0.46174961905E+02 -0.57024773708E+03 -0.39693902198E+03  0.70243185376E+03  0.92386759087E+02 0.  0.
         13    1    3    3    0    0  0.28169375814E+02 -0.54479038235E+03 -0.38971769176E+03  0.67042520366E+03  0.00000000000E+00 0. -1.
        -13    1    3    3    0    0  0.18005586090E+02 -0.25457354730E+02 -0.72213302186E+01  0.32006650097E+02  0.00000000000E+00 0.  1.
         22    1    1    2    0    0 -0.46174961905E+02  0.57024773708E+03 -0.11563708795E+04  0.12901582150E+04  0.00000000000E+00 0. -1.
<mgrwt>
<rscale>  0 0.12480559E+04</rscale>
<asrwt>0</asrwt>
<pdfrwt beam="1">  1        2 0.27276154E+00 0.12480559E+04</pdfrwt>
<pdfrwt beam="2">  1       -2 0.33790782E-01 0.12480559E+04</pdfrwt>
<totfact> 0.71988735E+01</totfact>
</mgrwt>
</event>
<event>
 6    1  0.9988873E-007  0.2193054E+04  0.7818608E-02  0.8521325E-01
          2   -1    0    0  501    0  0.00000000000E+00  0.00000000000E+00  0.12955004430E+04  0.12955004430E+04  0.00000000000E+00 0. -1.
         -2   -1    0    0    0  501 -0.00000000000E+00 -0.00000000000E+00 -0.92811377904E+03  0.92811377904E+03  0.00000000000E+00 0.  1.
         23    2    1    2    0    0 -0.62205700268E+03 -0.32356480503E+03 -0.66869319064E+03  0.97257043273E+03  0.84223309038E+02 0.  0.
         13    1    3    3    0    0 -0.36210512569E+03 -0.22157793415E+03 -0.44253356547E+03  0.61323148934E+03  0.00000000000E+00 0.  1.
        -13    1    3    3    0    0 -0.25995187699E+03 -0.10198687088E+03 -0.22615962517E+03  0.35933894340E+03  0.00000000000E+00 0. -1.
         22    1    1    2    0    0  0.62205700268E+03  0.32356480503E+03  0.10360798546E+04  0.12510437893E+04  0.00000000000E+00 0. -1.
<mgrwt>
<rscale>  0 0.21930543E+04</rscale>
<asrwt>0</asrwt>
<pdfrwt beam="1">  1        2 0.19930776E+00 0.21930543E+04</pdfrwt>
<pdfrwt beam="2">  1       -2 0.14278674E+00 0.21930543E+04</pdfrwt>
<totfact> 0.51901112E+00</totfact>
</mgrwt>
</event>
<event>
 6    1  0.9988873E-007  0.2679732E+04  0.7818608E-02  0.8341611E-01
         -2   -1    0    0    0  501 -0.00000000000E+00  0.00000000000E+00  0.93626278963E+03  0.93626278963E+03  0.00000000000E+00 0.  1.
          2   -1    0    0  501    0  0.00000000000E+00 -0.00000000000E+00 -0.19174539064E+04  0.19174539064E+04  0.00000000000E+00 0. -1.
         23    2    1    2    0    0 -0.94777384987E+03 -0.71213949511E+03 -0.11524856143E+04  0.16559021295E+04  0.91492297321E+02 0.  0.
         11    1    3    3    0    0 -0.76698478697E+03 -0.58016233709E+03 -0.88300912861E+03  0.13055876539E+04  0.00000000000E+00 0.  1.
        -11    1    3    3    0    0 -0.18078906290E+03 -0.13197715802E+03 -0.26947648567E+03  0.35031447562E+03  0.00000000000E+00 0. -1.
         22    1    1    2    0    0  0.94777384987E+03  0.71213949511E+03  0.17129449746E+03  0.11978145666E+04  0.00000000000E+00 0.  1.
<mgrwt>
<rscale>  0 0.26797319E+04</rscale>
<asrwt>0</asrwt>
<pdfrwt beam="1">  1        2 0.29499290E+00 0.26797319E+04</pdfrwt>
<pdfrwt beam="2">  1       -2 0.14404043E+00 0.26797319E+04</pdfrwt>
<totfact> 0.21760604E+00</totfact>
</mgrwt>
</event>
<event>
 6    1  0.9988873E-007  0.2290761E+04  0.7818608E-02  0.8481573E-01
         -2   -1    0    0    0  501 -0.00000000000E+00  0.00000000000E+00  0.11814033187E+04  0.11814033187E+04  0.00000000000E+00 0.  1.
          2   -1    0    0  501    0  0.00000000000E+00 -0.00000000000E+00 -0.11104564009E+04  0.11104564009E+04  0.00000000000E+00 0. -1.
         23    2    1    2    0    0 -0.50900163835E+03 -0.70244837380E+03 -0.70989193465E+03  0.11247154702E+04  0.92314377353E+02 0.  0.
         13    1    3    3    0    0 -0.75015713079E+02 -0.92914288711E+02 -0.60025025390E+02  0.13365412799E+03  0.00000000000E+00 0. -1.
        -13    1    3    3    0    0 -0.43398592527E+03 -0.60953408509E+03 -0.64986690926E+03  0.99106134218E+03  0.00000000000E+00 0.  1.
         22    1    1    2    0    0  0.50900163835E+03  0.70244837380E+03  0.78083885244E+03  0.11671442495E+04  0.00000000000E+00 0.  1.
<mgrwt>
<rscale>  0 0.22907613E+04</rscale>
<asrwt>0</asrwt>
<pdfrwt beam="1">  1        2 0.17083945E+00 0.22907613E+04</pdfrwt>
<pdfrwt beam="2">  1       -2 0.18175436E+00 0.22907613E+04</pdfrwt>
<totfact> 0.34340707E+00</totfact>
</mgrwt>
</event>
<event>
 6    1  0.9988873E-007  0.1539687E+04  0.7818608E-02  0.8858482E-01
          1   -1    0    0  501    0  0.00000000000E+00  0.00000000000E+00  0.21293372669E+04  0.21293372669E+04  0.00000000000E+00 0. -1.
         -1   -1    0    0    0  501 -0.00000000000E+00 -0.00000000000E+00 -0.27833043169E+03  0.27833043169E+03  0.00000000000E+00 0.  1.
         23    2    1    2    0    0  0.65936996487E+03 -0.28624409285E+02  0.31726297590E+03  0.73794965852E+03  0.91245795825E+02 0.  0.
         13    1    3    3    0    0  0.24718402392E+03  0.50311959046E+01  0.16507064161E+03  0.29727692701E+03  0.00000000000E+00 0. -1.
        -13    1    3    3    0    0  0.41218594095E+03 -0.33655605190E+02  0.15219233429E+03  0.44067273150E+03  0.00000000000E+00 0.  1.
         22    1    1    2    0    0 -0.65936996487E+03  0.28624409285E+02  0.15337438593E+04  0.16697180400E+04  0.00000000000E+00 0. -1.
<mgrwt>
<rscale>  0 0.15396874E+04</rscale>
<asrwt>0</asrwt>
<pdfrwt beam="1">  1        1 0.32759034E+00 0.15396874E+04</pdfrwt>
<pdfrwt beam="2">  1       -1 0.42820068E-01 0.15396874E+04</pdfrwt>
<totfact> 0.12618807E+01</totfact>
</mgrwt>
</event>
<event>
 6    1  0.9988873E-007  0.3210360E+04  0.7818608E-02  0.8186086E-01
         -2   -1    0    0    0  501 -0.00000000000E+00  0.00000000000E+00  0.11040299820E+04  0.11040299820E+04  0.00000000000E+00 0.  1.
          2   -1    0    0  501    0  0.00000000000E+00 -0.00000000000E+00 -0.23338166131E+04  0.23338166131E+04  0.00000000000E+00 0. -1.
         23    2    1    2    0    0  0.12586094966E+04  0.22325540001E+03 -0.16528268220E+04  0.20914054185E+04  0.90549887996E+02 0.  0.
         11    1    3    3    0    0  0.74569710516E+03  0.87439726561E+02 -0.95807346281E+03  0.12172159375E+04  0.00000000000E+00 0.  1.
        -11    1    3    3    0    0  0.51291239149E+03  0.13581567345E+03 -0.69475335923E+03  0.87418948098E+03  0.00000000000E+00 0. -1.
         22    1    1    2    0    0 -0.12586094966E+04 -0.22325540001E+03  0.42304019092E+03  0.13464411765E+04  0.00000000000E+00 0.  1.
<mgrwt>
<rscale>  0 0.32103604E+04</rscale>
<asrwt>0</asrwt>
<pdfrwt beam="1">  1        2 0.35904870E+00 0.32103604E+04</pdfrwt>
<pdfrwt beam="2">  1       -2 0.16985077E+00 0.32103604E+04</pdfrwt>
<totfact> 0.77959763E-01</totfact>
</mgrwt>
</event>
<event>
 6    1  0.9988873E-007  0.8510738E+03  0.7818608E-02  0.9488897E-01
         -1   -1    0    0    0  501 -0.00000000000E+00  0.00000000000E+00  0.41820471130E+03  0.41820471130E+03  0.00000000000E+00 0.  1.
          1   -1    0    0  501    0  0.00000000000E+00 -0.00000000000E+00 -0.43299762966E+03  0.43299762966E+03  0.00000000000E+00 0. -1.
         23    2    1    2    0    0 -0.32041933774E+03  0.22332848775E+03 -0.16379369898E+03  0.43317674598E+03  0.90937077133E+02 0.  0.
         13    1    3    3    0    0 -0.12296203538E+03  0.41098018782E+02 -0.77101182651E+02  0.15084197579E+03  0.00000000000E+00 0.  1.
        -13    1    3    3    0    0 -0.19745730235E+03  0.18223046897E+03 -0.86692516328E+02  0.28233477019E+03  0.00000000000E+00 0. -1.
         22    1    1    2    0    0  0.32041933774E+03 -0.22332848775E+03  0.14900078062E+03  0.41802559498E+03  0.00000000000E+00 0.  1.
<mgrwt>
<rscale>  0 0.85107379E+03</rscale>
<asrwt>0</asrwt>
<pdfrwt beam="1">  1        1 0.66615020E-01 0.85107379E+03</pdfrwt>
<pdfrwt beam="2">  1       -1 0.64339187E-01 0.85107379E+03</pdfrwt>
<totfact> 0.13351681E+02</totfact>
</mgrwt>
</event>
<event>
 6    1  0.9988873E-007  0.8591687E+03  0.7818608E-02  0.9478113E-01
          1   -1    0    0  501    0  0.00000000000E+00  0.00000000000E+00  0.91565002661E+03  0.91565002661E+03  0.00000000000E+00 0. -1.
         -1   -1    0    0    0  501 -0.00000000000E+00 -0.00000000000E+00 -0.20154285355E+03  0.20154285355E+03  0.00000000000E+00 0.  1.
         23    2    1    2    0    0  0.28998084378E+03 -0.20687029214E+03  0.55087925038E+02  0.36806633759E+03  0.74524773424E+02 0.  0.
         11    1    3    3    0    0  0.17726679191E+03 -0.14889864884E+03  0.43658205837E+01  0.23154564028E+03  0.00000000000E+00 0. -1.
        -11    1    3    3    0    0  0.11271405187E+03 -0.57971643298E+02  0.50722104454E+02  0.13652069731E+03  0.00000000000E+00 0.  1.
         22    1    1    2    0    0 -0.28998084378E+03  0.20687029214E+03  0.65901924802E+03  0.74912654258E+03  0.00000000000E+00 0. -1.
<mgrwt>
<rscale>  0 0.85916871E+03</rscale>
<asrwt>0</asrwt>
<pdfrwt beam="1">  1        1 0.14086923E+00 0.85916871E+03</pdfrwt>
<pdfrwt beam="2">  1       -1 0.31006593E-01 0.85916871E+03</pdfrwt>
<totfact> 0.17142951E+02</totfact>
</mgrwt>
</event>
<event>
 6    1  0.9988873E-007  0.7275258E+03  0.7818608E-02  0.9671284E-01
          2   -1    0    0  501    0  0.00000000000E+00  0.00000000000E+00  0.54121025072E+02  0.54121025072E+02  0.00000000000E+00 0. -1.
         -2   -1    0    0    0  501 -0.00000000000E+00 -0.00000000000E+00 -0.24449543158E+04  0.24449543158E+04  0.00000000000E+00 0.  1.
         23    2    1    2    0    0  0.63495294879E+02 -0.38646190563E+02 -0.24172879297E+04  0.24201764915E+04  0.91913731821E+02 0.  0.
         11    1    3    3    0    0  0.90433887319E+01 -0.20596097303E+02 -0.18202410149E+04  0.18203799972E+04  0.00000000000E+00 0. -1.
        -11    1    3    3    0    0  0.54451906147E+02 -0.18050093260E+02 -0.59704691486E+03  0.59979649423E+03  0.00000000000E+00 0.  1.
         22    1    1    2    0    0 -0.63495294879E+02  0.38646190563E+02  0.26454638986E+02  0.78898849425E+02  0.00000000000E+00 0. -1.
<mgrwt>
<rscale>  0 0.72752576E+03</rscale>
<asrwt>0</asrwt>
<pdfrwt beam="1">  1        2 0.83263104E-02 0.72752576E+03</pdfrwt>
<pdfrwt beam="2">  1       -2 0.37614687E+00 0.72752576E+03</pdfrwt>
<totfact> 0.94809028E+00</totfact>
</mgrwt>
</event>
<event>
 6    1  0.9988873E-007  0.1631471E+04  0.7818608E-02  0.8801444E-01
          2   -1    0    0  501    0  0.00000000000E+00  0.00000000000E+00  0.14412972494E+04  0.14412972494E+04  0.00000000000E+00 0. -1.
         -2   -1    0    0    0  501 -0.00000000000E+00 -0.00000000000E+00 -0.46168460239E+03  0.46168460239E+03  0.00000000000E+00 0.  1.
         23    2    1    2    0    0  0.51744162455E+03  0.62447370254E+03  0.42280575264E+03  0.91924044388E+03  0.92331193037E+02 0.  0.
         13    1    3    3    0    0  0.32622685243E+03  0.44193536462E+03  0.31918350200E+03  0.63530223807E+03  0.00000000000E+00 0.  1.
        -13    1    3    3    0    0  0.19121477212E+03  0.18253833793E+03  0.10362225064E+03  0.28393820581E+03  0.00000000000E+00 0. -1.
         22    1    1    2    0    0 -0.51744162455E+03 -0.62447370254E+03  0.55680689434E+03  0.98374140788E+03  0.00000000000E+00 0. -1.
<mgrwt>
<rscale>  0 0.16314714E+04</rscale>
<asrwt>0</asrwt>
<pdfrwt beam="1">  1        2 0.22173804E+00 0.16314714E+04</pdfrwt>
<pdfrwt beam="2">  1       -2 0.71028401E-01 0.16314714E+04</pdfrwt>
<totfact> 0.23605237E+01</totfact>
</mgrwt>
</event>
<event>
 6    1  0.9988873E-007  0.1415114E+04  0.7818608E-02  0.8942950E-01
         -2   -1    0    0    0  501 -0.00000000000E+00  0.00000000000E+00  0.28081386627E+03  0.28081386627E+03  0.00000000000E+00 0.  1.
          2   -1    0    0  501    0  0.00000000000E+00 -0.00000000000E+00 -0.17828068429E+04  0.17828068429E+04  0.00000000000E+00 0. -1.
         23    2    1    2    0    0  0.57359533997E+03  0.24701665332E+03 -0.12290287502E+04  0.13820502359E+04  0.97582502325E+02 0.  0.
         11    1    3    3    0    0  0.36322552193E+03  0.16978280049E+03 -0.88335813533E+03  0.97009307511E+03  0.00000000000E+00 0. -1.
        -11    1    3    3    0    0  0.21036981804E+03  0.77233852828E+02 -0.34567061487E+03  0.41195716082E+03  0.00000000000E+00 0.  1.
         22    1    1    2    0    0 -0.57359533997E+03 -0.24701665332E+03 -0.27296422641E+03  0.68157047321E+03  0.00000000000E+00 0.  1.
<mgrwt>
<rscale>  0 0.14151140E+04</rscale>
<asrwt>0</asrwt>
<pdfrwt beam="1">  1        2 0.27427798E+00 0.14151140E+04</pdfrwt>
<pdfrwt beam="2">  1       -2 0.43202133E-01 0.14151140E+04</pdfrwt>
<totfact> 0.43565800E+01</totfact>
</mgrwt>
</event>
<event>
 6    1  0.9988873E-007  0.4476265E+04  0.7818608E-02  0.7914805E-01
         -2   -1    0    0    0  501 -0.00000000000E+00  0.00000000000E+00  0.25504895046E+04  0.25504895046E+04  0.00000000000E+00 0.  1.
          2   -1    0    0  501    0  0.00000000000E+00 -0.00000000000E+00 -0.19640299780E+04  0.19640299780E+04  0.00000000000E+00 0. -1.
         23    2    1    2    0    0 -0.70733904710E+03  0.47902579182E+03  0.23788163571E+04  0.25289875023E+04  0.84948745261E+02 0.  0.
         11    1    3    3    0    0 -0.57829857686E+03  0.42705171339E+03  0.19607245422E+04  0.20883589587E+04  0.00000000000E+00 0. -1.
        -11    1    3    3    0    0 -0.12904047023E+03  0.51974078432E+02  0.41809181493E+03  0.44062854368E+03  0.00000000000E+00 0.  1.
         22    1    1    2    0    0  0.70733904710E+03 -0.47902579182E+03 -0.17923568305E+04  0.19855319803E+04  0.00000000000E+00 0. -1.
<mgrwt>
<rscale>  0 0.44762653E+04</rscale>
<asrwt>0</asrwt>
<pdfrwt beam="1">  1        2 0.30215846E+00 0.44762653E+04</pdfrwt>
<pdfrwt beam="2">  1       -2 0.39238300E+00 0.44762653E+04</pdfrwt>
<totfact> 0.44205237E-02</totfact>
</mgrwt>
</event>
<event>
 6    1  0.9988873E-007  0.1524700E+04  0.7818608E-02  0.8868192E-01
         -1   -1    0    0    0  501 -0.00000000000E+00  0.00000000000E+00  0.42355991250E+03  0.42355991250E+03  0.00000000000E+00 0.  1.
          1   -1    0    0  501    0  0.00000000000E+00 -0.00000000000E+00 -0.13721266024E+04  0.13721266024E+04  0.00000000000E+00 0. -1.
         23    2    1    2    0    0 -0.61978616509E+03 -0.14075797826E+03  0.99147624574E+01  0.64562808447E+03  0.11309121124E+03 0.  0.
         13    1    3    3    0    0 -0.22469085775E+03 -0.93867969937E+02 -0.31806397578E+02  0.24557855009E+03  0.00000000000E+00 0. -1.
        -13    1    3    3    0    0 -0.39509530735E+03 -0.46890008318E+02  0.41721160035E+02  0.40004953439E+03  0.00000000000E+00 0.  1.
         22    1    1    2    0    0  0.61978616509E+03  0.14075797826E+03 -0.95848145240E+03  0.11500584305E+04  0.00000000000E+00 0. -1.
<mgrwt>
<rscale>  0 0.15247004E+04</rscale>
<asrwt>0</asrwt>
<pdfrwt beam="1">  1        1 0.21109640E+00 0.15247004E+04</pdfrwt>
<pdfrwt beam="2">  1       -1 0.65163062E-01 0.15247004E+04</pdfrwt>
<totfact> 0.18527628E+01</totfact>
</mgrwt>
</event>
<event>
 6    1  0.9988873E-007  0.1934063E+04  0.7818608E-02  0.8638084E-01
         -1   -1    0    0    0  501 -0.00000000000E+00  0.00000000000E+00  0.15331541346E+04  0.15331541346E+04  0.00000000000E+00 0.  1.
          1   -1    0    0  501    0  0.00000000000E+00 -0.00000000000E+00 -0.60995172710E+03  0.60995172710E+03  0.00000000000E+00 0. -1.
         23    2    1    2    0    0  0.53461127736E+03  0.37809374126E+03 -0.32264321384E+03  0.73566300059E+03  0.91308882023E+02 0.  0.
         13    1    3    3    0    0  0.12978627090E+03  0.14241396934E+03 -0.91242844745E+02  0.21319350716E+03  0.00000000000E+00 0. -1.
        -13    1    3    3    0    0  0.40482500646E+03  0.23567977192E+03 -0.23140036910E+03  0.52246949343E+03  0.00000000000E+00 0.  1.
         22    1    1    2    0    0 -0.53461127736E+03 -0.37809374126E+03  0.12458456213E+04  0.14074428611E+04  0.00000000000E+00 0.  1.
<mgrwt>
<rscale>  0 0.19340631E+04</rscale>
<asrwt>0</asrwt>
<pdfrwt beam="1">  1        1 0.93838727E-01 0.19340631E+04</pdfrwt>
<pdfrwt beam="2">  1       -1 0.23586987E+00 0.19340631E+04</pdfrwt>
<totfact> 0.26924948E+00</totfact>
</mgrwt>
</event>
<event>
 6    1  0.9988873E-007  0.1096706E+04  0.7818608E-02  0.9208408E-01
          1   -1    0    0  501    0  0.00000000000E+00  0.00000000000E+00  0.13326855558E+04  0.13326855558E+04  0.00000000000E+00 0. -1.
         -1   -1    0    0    0  501 -0.00000000000E+00 -0.00000000000E+00 -0.22562803864E+03  0.22562803864E+03  0.00000000000E+00 0.  1.
         23    2    1    2    0    0 -0.40100779276E+03  0.32545007368E+03  0.80397275852E+03  0.95949361212E+03  0.86780152993E+02 0.  0.
         13    1    3    3    0    0 -0.28806871541E+03  0.22422395745E+03  0.63490012204E+03  0.73236475397E+03  0.00000000000E+00 0. -1.
        -13    1    3    3    0    0 -0.11293907735E+03  0.10122611623E+03  0.16907263648E+03  0.22712885815E+03  0.00000000000E+00 0.  1.
         22    1    1    2    0    0  0.40100779276E+03 -0.32545007368E+03  0.30308475868E+03  0.59881998235E+03  0.00000000000E+00 0.  1.
<mgrwt>
<rscale>  0 0.10967064E+04</rscale>
<asrwt>0</asrwt>
<pdfrwt beam="1">  1        1 0.20502854E+00 0.10967064E+04</pdfrwt>
<pdfrwt beam="2">  1       -1 0.34712007E-01 0.10967064E+04</pdfrwt>
<totfact> 0.67249498E+01</totfact>
</mgrwt>
</event>
<event>
 6    1  0.9988873E-007  0.2509520E+04  0.7818608E-02  0.8399602E-01
          1   -1    0    0  501    0  0.00000000000E+00  0.00000000000E+00  0.14103610233E+04  0.14103610233E+04  0.00000000000E+00 0. -1.
         -1   -1    0    0    0  501 -0.00000000000E+00 -0.00000000000E+00 -0.11163262074E+04  0.11163262074E+04  0.00000000000E+00 0.  1.
         23    2    1    2    0    0  0.14741410390E+03 -0.70967277070E+03 -0.88199099895E+03  0.11452376019E+04  0.91075150397E+02 0.  0.
         11    1    3    3    0    0  0.65847414211E+02 -0.48972141330E+03 -0.63488135935E+03  0.80451058728E+03  0.00000000000E+00 0.  1.
        -11    1    3    3    0    0  0.81566689694E+02 -0.21995135740E+03 -0.24710963961E+03  0.34072701460E+03  0.00000000000E+00 0. -1.
         22    1    1    2    0    0 -0.14741410390E+03  0.70967277070E+03  0.11760258149E+04  0.13814496288E+04  0.00000000000E+00 0. -1.
<mgrwt>
<rscale>  0 0.25095203E+04</rscale>
<asrwt>0</asrwt>
<pdfrwt beam="1">  1        1 0.21697862E+00 0.25095203E+04</pdfrwt>
<pdfrwt beam="2">  1       -1 0.17174249E+00 0.25095203E+04</pdfrwt>
<totfact> 0.16024182E+00</totfact>
</mgrwt>
</event>
<event>
 6    1  0.9988873E-007  0.1022612E+04  0.7818608E-02  0.9284086E-01
          2   -1    0    0  501    0  0.00000000000E+00  0.00000000000E+00  0.26639350296E+04  0.26639350296E+04  0.00000000000E+00 0. -1.
         -2   -1    0    0    0  501 -0.00000000000E+00 -0.00000000000E+00 -0.98138267517E+02  0.98138267517E+02  0.00000000000E+00 0.  1.
         23    2    1    2    0    0 -0.56708007836E+02 -0.37523431193E+03  0.22015478630E+04  0.22360563321E+04  0.95490000263E+02 0.  0.
         11    1    3    3    0    0 -0.57927188135E+02 -0.11849135590E+03  0.62805133971E+03  0.64175092197E+03  0.00000000000E+00 0.  1.
        -11    1    3    3    0    0  0.12191802990E+01 -0.25674295602E+03  0.15734965233E+04  0.15943054102E+04  0.00000000000E+00 0. -1.
         22    1    1    2    0    0  0.56708007836E+02  0.37523431193E+03  0.36424889900E+03  0.52601696496E+03  0.00000000000E+00 0.  1.
<mgrwt>
<rscale>  0 0.10226123E+04</rscale>
<asrwt>0</asrwt>
<pdfrwt beam="1">  1        2 0.40983610E+00 0.10226123E+04</pdfrwt>
<pdfrwt beam="2">  1       -2 0.15098197E-01 0.10226123E+04</pdfrwt>
<totfact> 0.98065213E+01</totfact>
</mgrwt>
</event>
<event>
 6    1  0.9988873E-007  0.1581781E+04  0.7818608E-02  0.8831820E-01
         -2   -1    0    0    0  501 -0.00000000000E+00  0.00000000000E+00  0.10657514708E+04  0.10657514708E+04  0.00000000000E+00 0.  1.
          2   -1    0    0  501    0  0.00000000000E+00 -0.00000000000E+00 -0.58691694192E+03  0.58691694192E+03  0.00000000000E+00 0. -1.
         23    2    1    2    0    0 -0.30051623051E+03 -0.23279774903E+03  0.96176366509E+03  0.10380747687E+04  0.90028224229E+02 0.  0.
         13    1    3    3    0    0 -0.25763178065E+03 -0.22878031062E+03  0.89015129978E+03  0.95450715107E+03  0.00000000000E+00 0.  1.
        -13    1    3    3    0    0 -0.42884449862E+02 -0.40174384051E+01  0.71612365312E+02  0.83567617633E+02  0.00000000000E+00 0. -1.
         22    1    1    2    0    0  0.30051623051E+03  0.23279774903E+03 -0.48292913618E+03  0.61459364406E+03  0.00000000000E+00 0. -1.
<mgrwt>
<rscale>  0 0.15817808E+04</rscale>
<asrwt>0</asrwt>
<pdfrwt beam="1">  1        2 0.90294914E-01 0.15817808E+04</pdfrwt>
<pdfrwt beam="2">  1       -2 0.16396176E+00 0.15817808E+04</pdfrwt>
<totfact> 0.11512291E+01</totfact>
</mgrwt>
</event>
<event>
 6    1  0.9988873E-007  0.1676093E+04  0.7818608E-02  0.8775118E-01
          2   -1    0    0  501    0  0.00000000000E+00  0.00000000000E+00  0.11193529155E+04  0.11193529155E+04  0.00000000000E+00 0. -1.
         -2   -1    0    0    0  501 -0.00000000000E+00 -0.00000000000E+00 -0.62743563812E+03  0.62743563812E+03  0.00000000000E+00 0.  1.
         23    2    1    2    0    0 -0.89092185102E+02  0.40477426291E+03  0.10027668445E+04  0.10889535427E+04  0.92189219958E+02 0.  0.
         13    1    3    3    0    0 -0.26530950960E+02  0.12296495347E+03  0.42280478614E+03  0.44112147797E+03  0.00000000000E+00 0. -1.
        -13    1    3    3    0    0 -0.62561234142E+02  0.28180930944E+03  0.57996205838E+03  0.64783206471E+03  0.00000000000E+00 0.  1.
         22    1    1    2    0    0  0.89092185102E+02 -0.40477426291E+03 -0.51084956715E+03  0.65783501094E+03  0.00000000000E+00 0.  1.
<mgrwt>
<rscale>  0 0.16760930E+04</rscale>
<asrwt>0</asrwt>
<pdfrwt beam="1">  1        2 0.17220814E+00 0.16760930E+04</pdfrwt>
<pdfrwt beam="2">  1       -2 0.96528560E-01 0.16760930E+04</pdfrwt>
<totfact> 0.18144968E+01</totfact>
</mgrwt>
</event>
<event>
 6    1  0.9988873E-007  0.2952709E+04  0.7818608E-02  0.8257365E-01
         -2   -1    0    0    0  501 -0.00000000000E+00  0.00000000000E+00  0.13722554819E+04  0.13722554819E+04  0.00000000000E+00 0.  1.
          2   -1    0    0  501    0  0.00000000000E+00 -0.00000000000E+00 -0.15883507564E+04  0.15883507564E+04  0.00000000000E+00 0. -1.
         23    2    1    2    0    0 -0.11897729542E+04  0.81593147376E+02 -0.97833639014E+03  0.15452516388E+04  0.91888032906E+02 0.  0.
         13    1    3    3    0    0 -0.26908420134E+03  0.15882648999E+02 -0.27230551179E+03  0.38315644025E+03  0.00000000000E+00 0. -1.
        -13    1    3    3    0    0 -0.92068875286E+03  0.65710498377E+02 -0.70603087835E+03  0.11620951985E+04  0.00000000000E+00 0.  1.
         22    1    1    2    0    0  0.11897729542E+04 -0.81593147376E+02  0.76224111564E+03  0.14153545996E+04  0.00000000000E+00 0.  1.
<mgrwt>
<rscale>  0 0.29527093E+04</rscale>
<asrwt>0</asrwt>
<pdfrwt beam="1">  1        2 0.24436166E+00 0.29527093E+04</pdfrwt>
<pdfrwt beam="2">  1       -2 0.21111623E+00 0.29527093E+04</pdfrwt>
<totfact> 0.10958125E+00</totfact>
</mgrwt>
</event>
<event>
 6    1  0.9988873E-007  0.2072694E+04  0.7818608E-02  0.8573368E-01
         -2   -1    0    0    0  501 -0.00000000000E+00  0.00000000000E+00  0.72157241267E+03  0.72157241267E+03  0.00000000000E+00 0.  1.
          2   -1    0    0  501    0  0.00000000000E+00 -0.00000000000E+00 -0.14884368907E+04  0.14884368907E+04  0.00000000000E+00 0. -1.
         23    2    1    2    0    0  0.42451300095E+03  0.44239092217E+03  0.50339539285E+03  0.79951961693E+03  0.99517236338E+02 0.  0.
         13    1    3    3    0    0  0.30372772244E+03  0.31285661551E+03  0.29714241000E+03  0.52765841514E+03  0.00000000000E+00 0. -1.
        -13    1    3    3    0    0  0.12078527851E+03  0.12953430665E+03  0.20625298286E+03  0.27186120180E+03  0.00000000000E+00 0.  1.
         22    1    1    2    0    0 -0.42451300095E+03 -0.44239092217E+03 -0.12702598709E+04  0.14104896865E+04  0.00000000000E+00 0. -1.
<mgrwt>
<rscale>  0 0.20726939E+04</rscale>
<asrwt>0</asrwt>
<pdfrwt beam="1">  1        2 0.22899029E+00 0.20726939E+04</pdfrwt>
<pdfrwt beam="2">  1       -2 0.11101114E+00 0.20726939E+04</pdfrwt>
<totfact> 0.76492506E+00</totfact>
</mgrwt>
</event>
<event>
 6    1  0.9988873E-007  0.2495035E+04  0.7818608E-02  0.8404756E-01
          2   -1    0    0  501    0  0.00000000000E+00  0.00000000000E+00  0.10243069593E+04  0.10243069593E+04  0.00000000000E+00 0. -1.
         -2   -1    0    0    0  501 -0.00000000000E+00 -0.00000000000E+00 -0.15193690465E+04  0.15193690465E+04  0.00000000000E+00 0.  1.
         23    2    1    2    0    0 -0.81368562623E+03 -0.42812556668E+03  0.60931273268E+03  0.11066584199E+04  0.89749946995E+02 0.  0.
         13    1    3    3    0    0 -0.35994067699E+03 -0.21682004280E+03  0.32321811031E+03  0.53013033185E+03  0.00000000000E+00 0. -1.
        -13    1    3    3    0    0 -0.45374494923E+03 -0.21130552388E+03  0.28609462237E+03  0.57652808806E+03  0.00000000000E+00 0.  1.
         22    1    1    2    0    0  0.81368562623E+03  0.42812556668E+03 -0.11043748199E+04  0.14370175859E+04  0.00000000000E+00 0.  1.
<mgrwt>
<rscale>  0 0.24950353E+04</rscale>
<asrwt>0</asrwt>
<pdfrwt beam="1">  1        2 0.15758569E+00 0.24950353E+04</pdfrwt>
<pdfrwt beam="2">  1       -2 0.23374908E+00 0.24950353E+04</pdfrwt>
<totfact> 0.17562713E+00</totfact>
</mgrwt>
</event>
<event>
 6    1  0.9988873E-007  0.1551701E+04  0.7818608E-02  0.8850782E-01
         -1   -1    0    0    0  501 -0.00000000000E+00  0.00000000000E+00  0.16031231203E+03  0.16031231203E+03  0.00000000000E+00 0.  1.
          1   -1    0    0  501    0  0.00000000000E+00 -0.00000000000E+00 -0.37548194953E+04  0.37548194953E+04  0.00000000000E+00 0. -1.
         23    2    1    2    0    0 -0.58915810621E+03 -0.28837217057E+03 -0.28359522330E+04  0.29123001188E+04  0.92742285118E+02 0.  0.
         13    1    3    3    0    0 -0.38295393524E+03 -0.22644136808E+03 -0.20207937671E+04  0.20691874876E+04  0.00000000000E+00 0. -1.
        -13    1    3    3    0    0 -0.20620417097E+03 -0.61930802496E+02 -0.81515846592E+03  0.84311263126E+03  0.00000000000E+00 0.  1.
         22    1    1    2    0    0  0.58915810621E+03  0.28837217057E+03 -0.75855495030E+03  0.10028316885E+04  0.00000000000E+00 0.  1.
<mgrwt>
<rscale>  0 0.15517007E+04</rscale>
<asrwt>0</asrwt>
<pdfrwt beam="1">  1        1 0.57766456E+00 0.15517007E+04</pdfrwt>
<pdfrwt beam="2">  1       -1 0.24663432E-01 0.15517007E+04</pdfrwt>
<totfact> 0.21771764E+00</totfact>
</mgrwt>
</event>
<event>
 6    1  0.9988873E-007  0.1264956E+04  0.7818608E-02  0.9057826E-01
         -1   -1    0    0    0  501 -0.00000000000E+00  0.00000000000E+00  0.17531675284E+04  0.17531675284E+04  0.00000000000E+00 0.  1.
          1   -1    0    0  501    0  0.00000000000E+00 -0.00000000000E+00 -0.22817483322E+03  0.22817483322E+03  0.00000000000E+00 0. -1.
         23    2    1    2    0    0  0.57849356232E+03  0.31394546458E+02  0.11506242940E+04  0.12915654999E+04  0.92545963122E+02 0.  0.
         13    1    3    3    0    0  0.52821777122E+03  0.16336111669E+02  0.10901733708E+04  0.12115109825E+04  0.00000000000E+00 0.  1.
        -13    1    3    3    0    0  0.50275791103E+02  0.15058434789E+02  0.60450923167E+02  0.80054517305E+02  0.00000000000E+00 0. -1.
         22    1    1    2    0    0 -0.57849356232E+03 -0.31394546458E+02  0.37436840116E+03  0.68977686173E+03  0.00000000000E+00 0. -1.
<mgrwt>
<rscale>  0 0.12649565E+04</rscale>
<asrwt>0</asrwt>
<pdfrwt beam="1">  1        1 0.35103822E-01 0.12649565E+04</pdfrwt>
<pdfrwt beam="2">  1       -1 0.26971807E+00 0.12649565E+04</pdfrwt>
<totfact> 0.64222191E+00</totfact>
</mgrwt>
</event>
<event>
 6    1  0.9988873E-007  0.1876937E+04  0.7818608E-02  0.8666422E-01
         -2   -1    0    0    0  501 -0.00000000000E+00  0.00000000000E+00  0.58945883882E+03  0.58945883882E+03  0.00000000000E+00 0.  1.
          2   -1    0    0  501    0  0.00000000000E+00 -0.00000000000E+00 -0.14941214095E+04  0.14941214095E+04  0.00000000000E+00 0. -1.
         23    2    1    2    0    0 -0.83452790748E+03 -0.40976867624E+03 -0.57596408404E+03  0.10974819309E+04  0.91568369227E+02 0.  0.
         13    1    3    3    0    0 -0.51881690187E+03 -0.25470508328E+03 -0.30519999199E+03  0.65359979515E+03  0.00000000000E+00 0. -1.
        -13    1    3    3    0    0 -0.31571100561E+03 -0.15506359296E+03 -0.27076409205E+03  0.44388213578E+03  0.00000000000E+00 0.  1.
         22    1    1    2    0    0  0.83452790748E+03  0.40976867624E+03 -0.32869848659E+03  0.98609831734E+03  0.00000000000E+00 0. -1.
<mgrwt>
<rscale>  0 0.18769369E+04</rscale>
<asrwt>0</asrwt>
<pdfrwt beam="1">  1        2 0.22986483E+00 0.18769369E+04</pdfrwt>
<pdfrwt beam="2">  1       -2 0.90685977E-01 0.18769369E+04</pdfrwt>
<totfact> 0.12463863E+01</totfact>
</mgrwt>
</event>
<event>
 6    1  0.9988873E-007  0.8054787E+03  0.7818608E-02  0.9552121E-01
          1   -1    0    0  501    0  0.00000000000E+00  0.00000000000E+00  0.14075423737E+04  0.14075423737E+04  0.00000000000E+00 0. -1.
         -1   -1    0    0    0  501 -0.00000000000E+00 -0.00000000000E+00 -0.11523560420E+03  0.11523560420E+03  0.00000000000E+00 0.  1.
         23    2    1    2    0    0  0.19293452641E+03  0.16440727328E+02  0.13109256360E+04  0.13282511386E+04  0.90725052606E+02 0.  0.
         13    1    3    3    0    0  0.11494109124E+03 -0.26563721602E+02  0.90587459469E+03  0.91352387328E+03  0.00000000000E+00 0. -1.
        -13    1    3    3    0    0  0.77993435172E+02  0.43004448930E+02  0.40505104130E+03  0.41472726534E+03  0.00000000000E+00 0.  1.
         22    1    1    2    0    0 -0.19293452641E+03 -0.16440727328E+02 -0.18618866519E+02  0.19452683924E+03  0.00000000000E+00 0.  1.
<mgrwt>
<rscale>  0 0.80547873E+03</rscale>
<asrwt>0</asrwt>
<pdfrwt beam="1">  1        1 0.21654497E+00 0.80547873E+03</pdfrwt>
<pdfrwt beam="2">  1       -1 0.17728555E-01 0.80547873E+03</pdfrwt>
<totfact> 0.19228688E+02</totfact>
</mgrwt>
</event>
<event>
 6    1  0.9988873E-007  0.6817274E+03  0.7818608E-02  0.9749001E-01
          1   -1    0    0  501    0  0.00000000000E+00  0.00000000000E+00  0.11149814032E+04  0.11149814032E+04  0.00000000000E+00 0. -1.
         -1   -1    0    0    0  501 -0.00000000000E+00 -0.00000000000E+00 -0.10420626397E+03  0.10420626397E+03  0.00000000000E+00 0.  1.
         23    2    1    2    0    0 -0.24319549515E+03  0.16855834983E+03  0.79698099556E+03  0.85413438061E+03  0.82527975244E+02 0.  0.
         11    1    3    3    0    0 -0.23114034500E+03  0.12700533578E+03  0.67383856998E+03  0.72361221161E+03  0.00000000000E+00 0.  1.
        -11    1    3    3    0    0 -0.12055150150E+02  0.41553014054E+02  0.12314242558E+03  0.13052216900E+03  0.00000000000E+00 0. -1.
         22    1    1    2    0    0  0.24319549515E+03 -0.16855834983E+03  0.21379414367E+03  0.36505328656E+03  0.00000000000E+00 0. -1.
<mgrwt>
<rscale>  0 0.68172735E+03</rscale>
<asrwt>0</asrwt>
<pdfrwt beam="1">  1        1 0.17153559E+00 0.68172735E+03</pdfrwt>
<pdfrwt beam="2">  1       -1 0.16031734E-01 0.68172735E+03</pdfrwt>
<totfact> 0.36987947E+02</totfact>
</mgrwt>
</event>
<event>
 6    1  0.9988873E-007  0.1588221E+04  0.7818608E-02  0.8827817E-01
          2   -1    0    0  501    0  0.00000000000E+00  0.00000000000E+00  0.20272752570E+04  0.20272752570E+04  0.00000000000E+00 0. -1.
         -2   -1    0    0    0  501 -0.00000000000E+00 -0.00000000000E+00 -0.31106349271E+03  0.31106349271E+03  0.00000000000E+00 0.  1.
         23    2    1    2    0    0  0.16212361507E+03 -0.63398738829E+03  0.20543810254E+03  0.69193019405E+03  0.91315411567E+02 0.  0.
         13    1    3    3    0    0  0.83243478493E+02 -0.16355577204E+03  0.49315279857E+02  0.19003148189E+03  0.00000000000E+00 0.  1.
        -13    1    3    3    0    0  0.78880136581E+02 -0.47043161624E+03  0.15612282268E+03  0.50189871216E+03  0.00000000000E+00 0. -1.
         22    1    1    2    0    0 -0.16212361507E+03  0.63398738829E+03  0.15107736617E+04  0.16464085556E+04  0.00000000000E+00 0. -1.
<mgrwt>
<rscale>  0 0.15882208E+04</rscale>
<asrwt>0</asrwt>
<pdfrwt beam="1">  1        2 0.31188849E+00 0.15882208E+04</pdfrwt>
<pdfrwt beam="2">  1       -2 0.47855923E-01 0.15882208E+04</pdfrwt>
<totfact> 0.25626080E+01</totfact>
</mgrwt>
</event>
<event>
 6    1  0.9988873E-007  0.4048467E+04  0.7818608E-02  0.7994840E-01
          2   -1    0    0  501    0  0.00000000000E+00  0.00000000000E+00  0.26782561094E+04  0.26782561094E+04  0.00000000000E+00 0. -1.
         -2   -1    0    0    0  501 -0.00000000000E+00 -0.00000000000E+00 -0.15299216849E+04  0.15299216849E+04  0.00000000000E+00 0.  1.
         23    2    1    2    0    0  0.14526803897E+04  0.44589060733E+03  0.19629032873E+04  0.24840486865E+04  0.91705033185E+02 0.  0.
         11    1    3    3    0    0  0.11953053997E+04  0.39760184297E+03  0.16542891037E+04  0.20793062936E+04  0.00000000000E+00 0. -1.
        -11    1    3    3    0    0  0.25737499005E+03  0.48288764363E+02  0.30861418359E+03  0.40474239286E+03  0.00000000000E+00 0.  1.
         22    1    1    2    0    0 -0.14526803897E+04 -0.44589060733E+03 -0.81456886277E+03  0.17241291078E+04  0.00000000000E+00 0.  1.
<mgrwt>
<rscale>  0 0.40484674E+04</rscale>
<asrwt>0</asrwt>
<pdfrwt beam="1">  1        2 0.41203940E+00 0.40484674E+04</pdfrwt>
<pdfrwt beam="2">  1       -2 0.23537257E+00 0.40484674E+04</pdfrwt>
<totfact> 0.17012211E-01</totfact>
</mgrwt>
</event>
<event>
 6    1  0.9988873E-007  0.2899939E+04  0.7818608E-02  0.8272896E-01
          2   -1    0    0  501    0  0.00000000000E+00  0.00000000000E+00  0.34388079317E+04  0.34388079317E+04  0.00000000000E+00 0. -1.
         -2   -1    0    0    0  501 -0.00000000000E+00 -0.00000000000E+00 -0.61137818126E+03  0.61137818126E+03  0.00000000000E+00 0.  1.
         23    2    1    2    0    0 -0.96865735318E+03  0.10278599465E+04  0.18642086060E+04  0.23406282430E+04  0.92052745501E+02 0.  0.
         11    1    3    3    0    0 -0.19536334722E+03  0.24354179184E+03  0.36504207215E+03  0.48034899422E+03  0.00000000000E+00 0. -1.
        -11    1    3    3    0    0 -0.77329400596E+03  0.78431815469E+03  0.14991665338E+04  0.18602792488E+04  0.00000000000E+00 0.  1.
         22    1    1    2    0    0  0.96865735318E+03 -0.10278599465E+04  0.96322114450E+03  0.17095578700E+04  0.00000000000E+00 0.  1.
<mgrwt>
<rscale>  0 0.28999394E+04</rscale>
<asrwt>0</asrwt>
<pdfrwt beam="1">  1        2 0.52904737E+00 0.28999394E+04</pdfrwt>
<pdfrwt beam="2">  1       -2 0.94058183E-01 0.28999394E+04</pdfrwt>
<totfact> 0.73785289E-01</totfact>
</mgrwt>
</event>
<event>
 6    1  0.9988873E-007  0.1440226E+04  0.7818608E-02  0.8925205E-01
          2   -1    0    0  501    0  0.00000000000E+00  0.00000000000E+00  0.23950429377E+04  0.23950429377E+04  0.00000000000E+00 0. -1.
         -2   -1    0    0    0  501 -0.00000000000E+00 -0.00000000000E+00 -0.21651502079E+03  0.21651502079E+03  0.00000000000E+00 0.  1.
         23    2    1    2    0    0  0.46094285641E+02 -0.53913588951E+03  0.19478314560E+04  0.20233292210E+04  0.83794779690E+02 0.  0.
         11    1    3    3    0    0 -0.58247710157E+01 -0.28438851459E+03  0.11249191264E+04  0.11603248667E+04  0.00000000000E+00 0.  1.
        -11    1    3    3    0    0  0.51919056657E+02 -0.25474737492E+03  0.82291232958E+03  0.86300435436E+03  0.00000000000E+00 0. -1.
         22    1    1    2    0    0 -0.46094285641E+02  0.53913588951E+03  0.23069646091E+03  0.58822873748E+03  0.00000000000E+00 0.  1.
<mgrwt>
<rscale>  0 0.14402261E+04</rscale>
<asrwt>0</asrwt>
<pdfrwt beam="1">  1        2 0.36846812E+00 0.14402261E+04</pdfrwt>
<pdfrwt beam="2">  1       -2 0.33310005E-01 0.14402261E+04</pdfrwt>
<totfact> 0.32778769E+01</totfact>
</mgrwt>
</event>
<event>
 6    1  0.9988873E-007  0.1940648E+04  0.7818608E-02  0.8634884E-01
          1   -1    0    0  501    0  0.00000000000E+00  0.00000000000E+00  0.24616211575E+04  0.24616211575E+04  0.00000000000E+00 0. -1.
         -1   -1    0    0    0  501 -0.00000000000E+00 -0.00000000000E+00 -0.38248330271E+03  0.38248330271E+03  0.00000000000E+00 0.  1.
         23    2    1    2    0    0 -0.94305900881E+03  0.88443244398E+02  0.74629927649E+03  0.12089771938E+04  0.86491291210E+02 0.  0.
         13    1    3    3    0    0 -0.71493892558E+03  0.10136398179E+03  0.54890415908E+03  0.90703257933E+03  0.00000000000E+00 0. -1.
        -13    1    3    3    0    0 -0.22812008323E+03 -0.12920737390E+02  0.19739511741E+03  0.30194461446E+03  0.00000000000E+00 0.  1.
         22    1    1    2    0    0  0.94305900881E+03 -0.88443244398E+02  0.13328385783E+04  0.16351272664E+04  0.00000000000E+00 0. -1.
<mgrwt>
<rscale>  0 0.19406483E+04</rscale>
<asrwt>0</asrwt>
<pdfrwt beam="1">  1        1 0.37871094E+00 0.19406483E+04</pdfrwt>
<pdfrwt beam="2">  1       -1 0.58843587E-01 0.19406483E+04</pdfrwt>
<totfact> 0.39331161E+00</totfact>
</mgrwt>
</event>
<event>
 6    1  0.9988873E-007  0.3982910E+04  0.7818608E-02  0.8008003E-01
          2   -1    0    0  501    0  0.00000000000E+00  0.00000000000E+00  0.16430174666E+04  0.16430174666E+04  0.00000000000E+00 0. -1.
         -2   -1    0    0    0  501 -0.00000000000E+00 -0.00000000000E+00 -0.24137864222E+04  0.24137864222E+04  0.00000000000E+00 0.  1.
         23    2    1    2    0    0 -0.17919169638E+04  0.41595688762E+03  0.38851349405E+03  0.18824252798E+04  0.92712789573E+02 0.  0.
         11    1    3    3    0    0 -0.94665703330E+03  0.17260335334E+03  0.19687060608E+03  0.98219625932E+03  0.00000000000E+00 0. -1.
        -11    1    3    3    0    0 -0.84525993050E+03  0.24335353428E+03  0.19164288798E+03  0.90022902045E+03  0.00000000000E+00 0.  1.
         22    1    1    2    0    0  0.17919169638E+04 -0.41595688762E+03 -0.11592824496E+04  0.21743786090E+04  0.00000000000E+00 0.  1.
<mgrwt>
<rscale>  0 0.39829101E+04</rscale>
<asrwt>0</asrwt>
<pdfrwt beam="1">  1        2 0.25277192E+00 0.39829101E+04</pdfrwt>
<pdfrwt beam="2">  1       -2 0.37135176E+00 0.39829101E+04</pdfrwt>
<totfact> 0.94820602E-02</totfact>
</mgrwt>
</event>
<event>
 6    1  0.9988873E-007  0.1681743E+04  0.7818608E-02  0.8771846E-01
         -2   -1    0    0    0  501 -0.00000000000E+00  0.00000000000E+00  0.11044455651E+04  0.11044455651E+04  0.00000000000E+00 0.  1.
          2   -1    0    0  501    0  0.00000000000E+00 -0.00000000000E+00 -0.64019902130E+03  0.64019902130E+03  0.00000000000E+00 0. -1.
         23    2    1    2    0    0 -0.56897518802E+03 -0.32812304438E+03  0.77336677746E+03  0.10187294290E+04  0.91191996798E+02 0.  0.
         11    1    3    3    0    0 -0.48876000845E+03 -0.29201084960E+03  0.71114278775E+03  0.91097790682E+03  0.00000000000E+00 0.  1.
        -11    1    3    3    0    0 -0.80215179580E+02 -0.36112194786E+02  0.62223989711E+02  0.10775152223E+03  0.00000000000E+00 0. -1.
         22    1    1    2    0    0  0.56897518802E+03  0.32812304438E+03 -0.30912023365E+03  0.72591515737E+03  0.00000000000E+00 0. -1.
<mgrwt>
<rscale>  0 0.16817431E+04</rscale>
<asrwt>0</asrwt>
<pdfrwt beam="1">  1        2 0.98492157E-01 0.16817431E+04</pdfrwt>
<pdfrwt beam="2">  1       -2 0.16991470E+00 0.16817431E+04</pdfrwt>
<totfact> 0.93103240E+00</totfact>
</mgrwt>
</event>
<event>
 6    1  0.9988873E-007  0.9115352E+03  0.7818608E-02  0.9411276E-01
          1   -1    0    0  501    0  0.00000000000E+00  0.00000000000E+00  0.48217025189E+03  0.48217025189E+03  0.00000000000E+00 0. -1.
         -1   -1    0    0    0  501 -0.00000000000E+00 -0.00000000000E+00 -0.43081069222E+03  0.43081069222E+03  0.00000000000E+00 0.  1.
         23    2    1    2    0    0  0.21455872703E+03  0.28354095200E+03  0.30413200433E+03  0.47671860608E+03  0.91287647152E+02 0.  0.
         13    1    3    3    0    0  0.18920472243E+03  0.24616088298E+03  0.21768737163E+03  0.37918517781E+03  0.00000000000E+00 0. -1.
        -13    1    3    3    0    0  0.25354004603E+02  0.37380069013E+02  0.86444632698E+02  0.97533428275E+02  0.00000000000E+00 0.  1.
         22    1    1    2    0    0 -0.21455872703E+03 -0.28354095200E+03 -0.25277244466E+03  0.43626233803E+03  0.00000000000E+00 0.  1.
<mgrwt>
<rscale>  0 0.91153519E+03</rscale>
<asrwt>0</asrwt>
<pdfrwt beam="1">  1        1 0.74180039E-01 0.91153519E+03</pdfrwt>
<pdfrwt beam="2">  1       -1 0.66278568E-01 0.91153519E+03</pdfrwt>
<totfact> 0.10832713E+02</totfact>
</mgrwt>
</event>
<event>
 6    1  0.9988873E-007  0.5581420E+03  0.7818608E-02  0.9996268E-01
          2   -1    0    0  501    0  0.00000000000E+00  0.00000000000E+00  0.10205951829E+03  0.10205951829E+03  0.00000000000E+00 0. -1.
         -2   -1    0    0    0  501 -0.00000000000E+00 -0.00000000000E+00 -0.76309015184E+03  0.76309015184E+03  0.00000000000E+00 0.  1.
         23    2    1    2    0    0  0.22583389895E+03  0.90577218585E+02 -0.52848575449E+03  0.58806966831E+03  0.85577798843E+02 0.  0.
         13    1    3    3    0    0  0.22745727502E+03  0.95483823983E+02 -0.48356633700E+03  0.54285391670E+03  0.00000000000E+00 0. -1.
        -13    1    3    3    0    0 -0.16233760682E+01 -0.49066053984E+01 -0.44919417486E+02  0.45215751610E+02  0.00000000000E+00 0.  1.
         22    1    1    2    0    0 -0.22583389895E+03 -0.90577218585E+02 -0.13254487907E+03  0.27708000182E+03  0.00000000000E+00 0.  1.
<mgrwt>
<rscale>  0 0.55814197E+03</rscale>
<asrwt>0</asrwt>
<pdfrwt beam="1">  1        2 0.15701464E-01 0.55814197E+03</pdfrwt>
<pdfrwt beam="2">  1       -2 0.11739849E+00 0.55814197E+03</pdfrwt>
<totfact> 0.21557265E+02</totfact>
</mgrwt>
</event>
<event>
 6    1  0.9988873E-007  0.3324479E+04  0.7818608E-02  0.8156695E-01
         -2   -1    0    0    0  501 -0.00000000000E+00  0.00000000000E+00  0.10420854280E+04  0.10420854280E+04  0.00000000000E+00 0.  1.
          2   -1    0    0  501    0  0.00000000000E+00 -0.00000000000E+00 -0.26514518546E+04  0.26514518546E+04  0.00000000000E+00 0. -1.
         23    2    1    2    0    0 -0.12940468700E+04 -0.77929262034E+03 -0.37935247240E+02  0.15138010046E+04  0.91104931700E+02 0.  0.
         11    1    3    3    0    0 -0.69487024258E+03 -0.36553330261E+03 -0.15638409515E+02  0.78530491479E+03  0.00000000000E+00 0.  1.
        -11    1    3    3    0    0 -0.59917662746E+03 -0.41375931773E+03 -0.22296837725E+02  0.72849608982E+03  0.00000000000E+00 0. -1.
         22    1    1    2    0    0  0.12940468700E+04  0.77929262034E+03 -0.15714311794E+04  0.21797362780E+04  0.00000000000E+00 0.  1.
<mgrwt>
<rscale>  0 0.33244785E+04</rscale>
<asrwt>0</asrwt>
<pdfrwt beam="1">  1        2 0.40791567E+00 0.33244785E+04</pdfrwt>
<pdfrwt beam="2">  1       -2 0.16032083E+00 0.33244785E+04</pdfrwt>
<totfact> 0.59241791E-01</totfact>
</mgrwt>
</event>
<event>
 6    1  0.9988873E-007  0.2216533E+04  0.7818608E-02  0.8511578E-01
          1   -1    0    0  501    0  0.00000000000E+00  0.00000000000E+00  0.11688459009E+04  0.11688459009E+04  0.00000000000E+00 0. -1.
         -1   -1    0    0    0  501 -0.00000000000E+00 -0.00000000000E+00 -0.10508271697E+04  0.10508271697E+04  0.00000000000E+00 0.  1.
         23    2    1    2    0    0 -0.34674435225E+02  0.86158038579E+03 -0.63400261096E+03  0.10755318307E+04  0.10623714295E+03 0.  0.
         13    1    3    3    0    0  0.17803243629E+02  0.46105459368E+03 -0.38565511212E+03  0.60134695421E+03  0.00000000000E+00 0.  1.
        -13    1    3    3    0    0 -0.52477678854E+02  0.40052579212E+03 -0.24834749884E+03  0.47418487651E+03  0.00000000000E+00 0. -1.
         22    1    1    2    0    0  0.34674435225E+02 -0.86158038579E+03  0.75202134220E+03  0.11441412399E+04  0.00000000000E+00 0. -1.
<mgrwt>
<rscale>  0 0.22165334E+04</rscale>
<asrwt>0</asrwt>
<pdfrwt beam="1">  1        1 0.17982245E+00 0.22165334E+04</pdfrwt>
<pdfrwt beam="2">  1       -1 0.16166572E+00 0.22165334E+04</pdfrwt>
<totfact> 0.29115178E+00</totfact>
</mgrwt>
</event>
<event>
 6    1  0.9988873E-007  0.1845418E+04  0.7818608E-02  0.8682513E-01
         -2   -1    0    0    0  501 -0.00000000000E+00  0.00000000000E+00  0.52831950157E+03  0.52831950157E+03  0.00000000000E+00 0.  1.
          2   -1    0    0  501    0  0.00000000000E+00 -0.00000000000E+00 -0.16115091817E+04  0.16115091817E+04  0.00000000000E+00 0. -1.
         23    2    1    2    0    0 -0.30095579198E+03 -0.86785844095E+02  0.45858408435E+03  0.56656058397E+03  0.11218449725E+03 0.  0.
         13    1    3    3    0    0 -0.22466140171E+03 -0.68824877775E+02  0.24692097880E+03  0.34085125640E+03  0.00000000000E+00 0. -1.
        -13    1    3    3    0    0 -0.76294390266E+02 -0.17960966320E+02  0.21166310555E+03  0.22570932756E+03  0.00000000000E+00 0.  1.
         22    1    1    2    0    0  0.30095579198E+03  0.86785844095E+02 -0.15417737645E+04  0.15732680993E+04  0.00000000000E+00 0. -1.
<mgrwt>
<rscale>  0 0.18454178E+04</rscale>
<asrwt>0</asrwt>
<pdfrwt beam="1">  1        2 0.24792448E+00 0.18454178E+04</pdfrwt>
<pdfrwt beam="2">  1       -2 0.81279925E-01 0.18454178E+04</pdfrwt>
<totfact> 0.13783942E+01</totfact>
</mgrwt>
</event>
<event>
 6    1  0.9988873E-007  0.4654227E+04  0.7818608E-02  0.7884179E-01
          1   -1    0    0  501    0  0.00000000000E+00  0.00000000000E+00  0.39082948479E+04  0.39082948479E+04  0.00000000000E+00 0. -1.
         -1   -1    0    0    0  501 -0.00000000000E+00 -0.00000000000E+00 -0.13856316224E+04  0.13856316224E+04  0.00000000000E+00 0.  1.
         23    2    1    2    0    0 -0.13630748758E+04  0.17171873636E+03  0.33970043554E+04  0.36654508479E+04  0.91819856106E+02 0.  0.
         11    1    3    3    0    0 -0.17468768715E+03  0.52729722463E+01  0.36732416388E+03  0.40678081770E+03  0.00000000000E+00 0.  1.
        -11    1    3    3    0    0 -0.11883871886E+04  0.16644576411E+03  0.30296801916E+04  0.32586700302E+04  0.00000000000E+00 0. -1.
         22    1    1    2    0    0  0.13630748758E+04 -0.17171873636E+03 -0.87434112988E+03  0.16284756224E+04  0.00000000000E+00 0.  1.
<mgrwt>
<rscale>  0 0.46542269E+04</rscale>
<asrwt>0</asrwt>
<pdfrwt beam="1">  1        1 0.60127613E+00 0.46542269E+04</pdfrwt>
<pdfrwt beam="2">  1       -1 0.21317410E+00 0.46542269E+04</pdfrwt>
<totfact> 0.10438031E-02</totfact>
</mgrwt>
</event>
<event>
 6    1  0.9988873E-007  0.5731655E+04  0.7818608E-02  0.7724594E-01
          1   -1    0    0  501    0  0.00000000000E+00  0.00000000000E+00  0.36693116659E+04  0.36693116659E+04  0.00000000000E+00 0. -1.
         -1   -1    0    0    0  501 -0.00000000000E+00 -0.00000000000E+00 -0.22382857978E+04  0.22382857978E+04  0.00000000000E+00 0.  1.
         23    2    1    2    0    0 -0.14315438451E+04 -0.59350074401E+03 -0.17680910125E+04  0.23528949827E+04  0.91695460540E+02 0.  0.
         13    1    3    3    0    0 -0.42888332878E+03 -0.13671101872E+03 -0.48727853776E+03  0.66337861414E+03  0.00000000000E+00 0. -1.
        -13    1    3    3    0    0 -0.10026605163E+04 -0.45678972529E+03 -0.12808124747E+04  0.16895163685E+04  0.00000000000E+00 0.  1.
         22    1    1    2    0    0  0.14315438451E+04  0.59350074401E+03  0.31991168805E+04  0.35547024811E+04  0.00000000000E+00 0. -1.
<mgrwt>
<rscale>  0 0.57316553E+04</rscale>
<asrwt>0</asrwt>
<pdfrwt beam="1">  1        1 0.56450949E+00 0.57316553E+04</pdfrwt>
<pdfrwt beam="2">  1       -1 0.34435166E+00 0.57316553E+04</pdfrwt>
<totfact> 0.21070326E-03</totfact>
</mgrwt>
</event>
<event>
 6    1  0.9988873E-007  0.2114392E+04  0.7818608E-02  0.8554930E-01
         -1   -1    0    0    0  501 -0.00000000000E+00  0.00000000000E+00  0.54202991833E+03  0.54202991833E+03  0.00000000000E+00 0.  1.
          1   -1    0    0  501    0  0.00000000000E+00 -0.00000000000E+00 -0.20619953148E+04  0.20619953148E+04  0.00000000000E+00 0. -1.
         23    2    1    2    0    0 -0.93672263537E+02  0.94361417188E+03 -0.19068491540E+03  0.97118451964E+03  0.87501062231E+02 0.  0.
         11    1    3    3    0    0 -0.34947720820E+02  0.94460343323E+02 -0.11782848253E+02  0.10140480839E+03  0.00000000000E+00 0.  1.
        -11    1    3    3    0    0 -0.58724542717E+02  0.84915382856E+03 -0.17890206715E+03  0.86977971125E+03  0.00000000000E+00 0. -1.
         22    1    1    2    0    0  0.93672263537E+02 -0.94361417188E+03 -0.13292804811E+04  0.16328407135E+04  0.00000000000E+00 0. -1.
<mgrwt>
<rscale>  0 0.21143918E+04</rscale>
<asrwt>0</asrwt>
<pdfrwt beam="1">  1        1 0.31723005E+00 0.21143918E+04</pdfrwt>
<pdfrwt beam="2">  1       -1 0.83389217E-01 0.21143918E+04</pdfrwt>
<totfact> 0.35446908E+00</totfact>
</mgrwt>
</event>
<event>
 6    1  0.9988873E-007  0.9389388E+03  0.7818608E-02  0.9378174E-01
          1   -1    0    0  501    0  0.00000000000E+00  0.00000000000E+00  0.15453197796E+04  0.15453197796E+04  0.00000000000E+00 0. -1.
         -1   -1    0    0    0  501 -0.00000000000E+00 -0.00000000000E+00 -0.14262518826E+03  0.14262518826E+03  0.00000000000E+00 0.  1.
         23    2    1    2    0    0  0.22523713820E+03  0.19904192895E+03  0.69590667391E+02  0.32137424888E+03  0.89939362640E+02 0.  0.
         11    1    3    3    0    0 -0.36411918220E+01  0.17733830286E+02 -0.71564125601E+01  0.19466927215E+02  0.00000000000E+00 0.  1.
        -11    1    3    3    0    0  0.22887833002E+03  0.18130809866E+03  0.76747079951E+02  0.30190732166E+03  0.00000000000E+00 0. -1.
         22    1    1    2    0    0 -0.22523713820E+03 -0.19904192895E+03  0.13331039239E+04  0.13665707189E+04  0.00000000000E+00 0. -1.
<mgrwt>
<rscale>  0 0.93893881E+03</rscale>
<asrwt>0</asrwt>
<pdfrwt beam="1">  1        1 0.23774149E+00 0.93893881E+03</pdfrwt>
<pdfrwt beam="2">  1       -1 0.21942338E-01 0.93893881E+03</pdfrwt>
<totfact> 0.10720735E+02</totfact>
</mgrwt>
</event>
<event>
 6    1  0.9988873E-007  0.1029226E+04  0.7818608E-02  0.9277059E-01
          1   -1    0    0  501    0  0.00000000000E+00  0.00000000000E+00  0.81221653198E+03  0.81221653198E+03  0.00000000000E+00 0. -1.
         -1   -1    0    0    0  501 -0.00000000000E+00 -0.00000000000E+00 -0.32605409572E+03  0.32605409572E+03  0.00000000000E+00 0.  1.
         23    2    1    2    0    0  0.34218499431E+03  0.14360192909E+03 -0.14317478687E+03  0.40766989900E+03  0.89351231560E+02 0.  0.
         11    1    3    3    0    0  0.15292481707E+03  0.18936533020E+02 -0.72341320091E+02  0.17022884172E+03  0.00000000000E+00 0.  1.
        -11    1    3    3    0    0  0.18926017724E+03  0.12466539607E+03 -0.70833466780E+02  0.23744105728E+03  0.00000000000E+00 0. -1.
         22    1    1    2    0    0 -0.34218499431E+03 -0.14360192909E+03  0.62933722312E+03  0.73060072870E+03  0.00000000000E+00 0. -1.
<mgrwt>
<rscale>  0 0.10292260E+04</rscale>
<asrwt>0</asrwt>
<pdfrwt beam="1">  1        1 0.12495639E+00 0.10292260E+04</pdfrwt>
<pdfrwt beam="2">  1       -1 0.50162169E-01 0.10292260E+04</pdfrwt>
<totfact> 0.86114626E+01</totfact>
</mgrwt>
</event>
<event>
 6    1  0.9988873E-007  0.3739804E+04  0.7818608E-02  0.8059198E-01
         -1   -1    0    0    0  501 -0.00000000000E+00  0.00000000000E+00  0.18824552070E+04  0.18824552070E+04  0.00000000000E+00 0.  1.
          1   -1    0    0  501    0  0.00000000000E+00 -0.00000000000E+00 -0.18574322946E+04  0.18574322946E+04  0.00000000000E+00 0. -1.
         23    2    1    2    0    0 -0.12411371199E+04 -0.12688183876E+04  0.59752770132E+03  0.18749255223E+04  0.89358319192E+02 0.  0.
         13    1    3    3    0    0 -0.23494588460E+03 -0.20047973377E+03  0.12448648514E+03  0.33299936535E+03  0.00000000000E+00 0. -1.
        -13    1    3    3    0    0 -0.10061912353E+04 -0.10683386538E+04  0.47304121618E+03  0.15419261569E+04  0.00000000000E+00 0.  1.
         22    1    1    2    0    0  0.12411371199E+04  0.12688183876E+04 -0.57250478892E+03  0.18649619794E+04  0.00000000000E+00 0.  1.
<mgrwt>
<rscale>  0 0.37398038E+04</rscale>
<asrwt>0</asrwt>
<pdfrwt beam="1">  1        1 0.28575881E+00 0.37398038E+04</pdfrwt>
<pdfrwt beam="2">  1       -1 0.28960849E+00 0.37398038E+04</pdfrwt>
<totfact> 0.11483845E-01</totfact>
</mgrwt>
</event>
<event>
 6    1  0.9988873E-007  0.5436659E+04  0.7818608E-02  0.7764465E-01
         -1   -1    0    0    0  501 -0.00000000000E+00  0.00000000000E+00  0.24279745134E+04  0.24279745134E+04  0.00000000000E+00 0.  1.
          1   -1    0    0  501    0  0.00000000000E+00 -0.00000000000E+00 -0.30434074615E+04  0.30434074615E+04  0.00000000000E+00 0. -1.
         23    2    1    2    0    0  0.13596676521E+04  0.15111031404E+04  0.15073207121E+04  0.25322984567E+04  0.91601963531E+02 0.  0.
         13    1    3    3    0    0  0.58813044478E+03  0.71895940455E+03  0.70449222636E+03  0.11658084502E+04  0.00000000000E+00 0.  1.
        -13    1    3    3    0    0  0.77153720732E+03  0.79214373583E+03  0.80282848573E+03  0.13664900066E+04  0.00000000000E+00 0. -1.
         22    1    1    2    0    0 -0.13596676521E+04 -0.15111031404E+04 -0.21227536602E+04  0.29390835182E+04  0.00000000000E+00 0. -1.
<mgrwt>
<rscale>  0 0.54366592E+04</rscale>
<asrwt>0</asrwt>
<pdfrwt beam="1">  1        1 0.46821653E+00 0.54366592E+04</pdfrwt>
<pdfrwt beam="2">  1       -1 0.37353454E+00 0.54366592E+04</pdfrwt>
<totfact> 0.41929851E-03</totfact>
</mgrwt>
</event>
<event>
 6    1  0.9988873E-007  0.2315076E+04  0.7818608E-02  0.8472000E-01
         -2   -1    0    0    0  501 -0.00000000000E+00  0.00000000000E+00  0.74947612867E+03  0.74947612867E+03  0.00000000000E+00 0.  1.
          2   -1    0    0  501    0  0.00000000000E+00 -0.00000000000E+00 -0.17877744248E+04  0.17877744248E+04  0.00000000000E+00 0. -1.
         23    2    1    2    0    0 -0.36507892535E+03 -0.90168818038E+03  0.16400750055E+03  0.99068551278E+03  0.90747609459E+02 0.  0.
         11    1    3    3    0    0 -0.10784551020E+03 -0.17419231213E+03  0.21465319524E+02  0.20599605729E+03  0.00000000000E+00 0. -1.
        -11    1    3    3    0    0 -0.25723341516E+03 -0.72749586825E+03  0.14254218102E+03  0.78468945550E+03  0.00000000000E+00 0.  1.
         22    1    1    2    0    0  0.36507892535E+03  0.90168818038E+03 -0.12023057967E+04  0.15465650407E+04  0.00000000000E+00 0. -1.
<mgrwt>
<rscale>  0 0.23150760E+04</rscale>
<asrwt>0</asrwt>
<pdfrwt beam="1">  1        2 0.27504222E+00 0.23150760E+04</pdfrwt>
<pdfrwt beam="2">  1       -2 0.11530402E+00 0.23150760E+04</pdfrwt>
<totfact> 0.46499335E+00</totfact>
</mgrwt>
</event>
<event>
 6    1  0.9988873E-007  0.1107515E+04  0.7818608E-02  0.9197898E-01
         -1   -1    0    0    0  501 -0.00000000000E+00  0.00000000000E+00  0.30700039016E+03  0.30700039016E+03  0.00000000000E+00 0.  1.
          1   -1    0    0  501    0  0.00000000000E+00 -0.00000000000E+00 -0.99885052861E+03  0.99885052861E+03  0.00000000000E+00 0. -1.
         23    2    1    2    0    0 -0.23329647214E+03 -0.65312862692E+02 -0.93068851098E+03  0.96564982803E+03  0.87209357030E+02 0.  0.
         13    1    3    3    0    0 -0.13807093594E+03  0.64394320992E+01 -0.50722574526E+03  0.52572141510E+03  0.00000000000E+00 0. -1.
        -13    1    3    3    0    0 -0.95225536202E+02 -0.71752294791E+02 -0.42346276571E+03  0.43992841293E+03  0.00000000000E+00 0.  1.
         22    1    1    2    0    0  0.23329647214E+03  0.65312862692E+02  0.23883837253E+03  0.34020109074E+03  0.00000000000E+00 0.  1.
<mgrwt>
<rscale>  0 0.11075152E+04</rscale>
<asrwt>0</asrwt>
<pdfrwt beam="1">  1        1 0.15366931E+00 0.11075152E+04</pdfrwt>
<pdfrwt beam="2">  1       -1 0.47230829E-01 0.11075152E+04</pdfrwt>
<totfact> 0.67502518E+01</totfact>
</mgrwt>
</event>
<event>
 6    1  0.9988873E-007  0.1291501E+04  0.7818608E-02  0.9036332E-01
          2   -1    0    0  501    0  0.00000000000E+00  0.00000000000E+00  0.86694510885E+03  0.86694510885E+03  0.00000000000E+00 0. -1.
         -2   -1    0    0    0  501 -0.00000000000E+00 -0.00000000000E+00 -0.48099200749E+03  0.48099200749E+03  0.00000000000E+00 0.  1.
         23    2    1    2    0    0  0.42919727481E+02 -0.60969301230E+03  0.40119722779E+03  0.73654521612E+03  0.89285875418E+02 0.  0.
         11    1    3    3    0    0  0.24262176047E+02 -0.24273717418E+03  0.10945135669E+03  0.26737536984E+03  0.00000000000E+00 0. -1.
        -11    1    3    3    0    0  0.18657551433E+02 -0.36695583812E+03  0.29174587110E+03  0.46916984628E+03  0.00000000000E+00 0.  1.
         22    1    1    2    0    0 -0.42919727481E+02  0.60969301230E+03 -0.15244126442E+02  0.61139190021E+03  0.00000000000E+00 0.  1.
<mgrwt>
<rscale>  0 0.12915009E+04</rscale>
<asrwt>0</asrwt>
<pdfrwt beam="1">  1        2 0.13337617E+00 0.12915009E+04</pdfrwt>
<pdfrwt beam="2">  1       -2 0.73998770E-01 0.12915009E+04</pdfrwt>
<totfact> 0.49856188E+01</totfact>
</mgrwt>
</event>
<event>
 6    1  0.9988873E-007  0.1028939E+04  0.7818608E-02  0.9277362E-01
          2   -1    0    0  501    0  0.00000000000E+00  0.00000000000E+00  0.77070746072E+03  0.77070746072E+03  0.00000000000E+00 0. -1.
         -2   -1    0    0    0  501 -0.00000000000E+00 -0.00000000000E+00 -0.34342353025E+03  0.34342353025E+03  0.00000000000E+00 0.  1.
         23    2    1    2    0    0  0.10060413633E+03  0.27321036911E+03  0.66932290523E+03  0.73551778024E+03  0.90709181201E+02 0.  0.
         13    1    3    3    0    0  0.78679729664E+02  0.21613662263E+03  0.42054028410E+03  0.47933252556E+03  0.00000000000E+00 0. -1.
        -13    1    3    3    0    0  0.21924406671E+02  0.57073746475E+02  0.24878262112E+03  0.25618525468E+03  0.00000000000E+00 0.  1.
         22    1    1    2    0    0 -0.10060413633E+03 -0.27321036911E+03 -0.24203897476E+03  0.37861321073E+03  0.00000000000E+00 0.  1.
<mgrwt>
<rscale>  0 0.10289394E+04</rscale>
<asrwt>0</asrwt>
<pdfrwt beam="1">  1        2 0.11857038E+00 0.10289394E+04</pdfrwt>
<pdfrwt beam="2">  1       -2 0.52834389E-01 0.10289394E+04</pdfrwt>
<totfact> 0.12191982E+02</totfact>
</mgrwt>
</event>
<event>
 6    1  0.9988873E-007  0.4168972E+04  0.7818608E-02  0.7971301E-01
          2   -1    0    0  501    0  0.00000000000E+00  0.00000000000E+00  0.31217630189E+04  0.31217630189E+04  0.00000000000E+00 0. -1.
         -2   -1    0    0    0  501 -0.00000000000E+00 -0.00000000000E+00 -0.13918676708E+04  0.13918676708E+04  0.00000000000E+00 0.  1.
         23    2    1    2    0    0 -0.18260325611E+02  0.18695712677E+04 -0.13002459866E+03  0.18764101125E+04  0.91533325620E+02 0.  0.
         13    1    3    3    0    0 -0.55472799093E+02  0.10145549497E+04 -0.68738967604E+02  0.10183928628E+04  0.00000000000E+00 0. -1.
        -13    1    3    3    0    0  0.37212473482E+02  0.85501631802E+03 -0.61285631055E+02  0.85801724973E+03  0.00000000000E+00 0.  1.
         22    1    1    2    0    0  0.18260325611E+02 -0.18695712677E+04  0.18599199468E+04  0.26372205772E+04  0.00000000000E+00 0. -1.
<mgrwt>
<rscale>  0 0.41689716E+04</rscale>
<asrwt>0</asrwt>
<pdfrwt beam="1">  1        2 0.48027123E+00 0.41689716E+04</pdfrwt>
<pdfrwt beam="2">  1       -2 0.21413349E+00 0.41689716E+04</pdfrwt>
<totfact> 0.12205837E-01</totfact>
</mgrwt>
</event>
<event>
 6    1  0.9988873E-007  0.1434031E+04  0.7818608E-02  0.8929547E-01
          2   -1    0    0  501    0  0.00000000000E+00  0.00000000000E+00  0.16989957197E+04  0.16989957197E+04  0.00000000000E+00 0. -1.
         -2   -1    0    0    0  501 -0.00000000000E+00 -0.00000000000E+00 -0.30259732002E+03  0.30259732002E+03  0.00000000000E+00 0.  1.
         23    2    1    2    0    0 -0.43507248374E+03 -0.31418916325E+03  0.13585753769E+04  0.14636028192E+04  0.91669302516E+02 0.  0.
         11    1    3    3    0    0 -0.19517284556E+03 -0.98463580773E+02  0.47249621961E+03  0.52061520716E+03  0.00000000000E+00 0. -1.
        -11    1    3    3    0    0 -0.23989963818E+03 -0.21572558247E+03  0.88607915733E+03  0.94298761200E+03  0.00000000000E+00 0.  1.
         22    1    1    2    0    0  0.43507248374E+03  0.31418916325E+03  0.37823022781E+02  0.53799022060E+03  0.00000000000E+00 0.  1.
<mgrwt>
<rscale>  0 0.14340315E+04</rscale>
<asrwt>0</asrwt>
<pdfrwt beam="1">  1        2 0.26138395E+00 0.14340315E+04</pdfrwt>
<pdfrwt beam="2">  1       -2 0.46553435E-01 0.14340315E+04</pdfrwt>
<totfact> 0.41700676E+01</totfact>
</mgrwt>
</event>
<event>
 6    1  0.9988873E-007  0.8215832E+03  0.7818608E-02  0.9529291E-01
         -2   -1    0    0    0  501 -0.00000000000E+00  0.00000000000E+00  0.68904606732E+03  0.68904606732E+03  0.00000000000E+00 0.  1.
          2   -1    0    0  501    0  0.00000000000E+00 -0.00000000000E+00 -0.24490341864E+03  0.24490341864E+03  0.00000000000E+00 0. -1.
         23    2    1    2    0    0 -0.68282095308E+02  0.37710662342E+03  0.73125976241E+02  0.40054042980E+03  0.90627686388E+02 0.  0.
         11    1    3    3    0    0 -0.64576567671E+02  0.12303823589E+03  0.14016059541E+02  0.13966026818E+03  0.00000000000E+00 0.  1.
        -11    1    3    3    0    0 -0.37055276375E+01  0.25406838753E+03  0.59109916700E+02  0.26088016162E+03  0.00000000000E+00 0. -1.
         22    1    1    2    0    0  0.68282095308E+02 -0.37710662342E+03  0.37101667244E+03  0.53340905616E+03  0.00000000000E+00 0. -1.
<mgrwt>
<rscale>  0 0.82158320E+03</rscale>
<asrwt>0</asrwt>
<pdfrwt beam="1">  1        2 0.37677449E-01 0.82158320E+03</pdfrwt>
<pdfrwt beam="2">  1       -2 0.10600709E+00 0.82158320E+03</pdfrwt>
<totfact> 0.99565890E+01</totfact>
</mgrwt>
</event>
<event>
 6    1  0.1113929E-006  0.3725465E+04  0.7818608E-02  0.8062342E-01
         -1   -1    0    0    0  501 -0.00000000000E+00  0.00000000000E+00  0.17588123432E+04  0.17588123432E+04  0.00000000000E+00 0.  1.
          1   -1    0    0  501    0  0.00000000000E+00 -0.00000000000E+00 -0.19727927745E+04  0.19727927745E+04  0.00000000000E+00 0. -1.
         23    2    1    2    0    0  0.93921799600E+03  0.13699191077E+04 -0.94923944417E+03  0.19151760324E+04  0.89637644194E+02 0.  0.
         11    1    3    3    0    0  0.55177182029E+03  0.75033318656E+03 -0.49485178411E+03  0.10546707167E+04  0.00000000000E+00 0.  1.
        -11    1    3    3    0    0  0.38744617571E+03  0.61958592112E+03 -0.45438766005E+03  0.86050531569E+03  0.00000000000E+00 0. -1.
         22    1    1    2    0    0 -0.93921799600E+03 -0.13699191077E+04  0.73525901286E+03  0.18164290852E+04  0.00000000000E+00 0.  1.
<mgrwt>
<rscale>  0 0.37254650E+04</rscale>
<asrwt>0</asrwt>
<pdfrwt beam="1">  1        1 0.30350658E+00 0.37254650E+04</pdfrwt>
<pdfrwt beam="2">  1       -1 0.27058652E+00 0.37254650E+04</pdfrwt>
<totfact> 0.12751407E-01</totfact>
</mgrwt>
</event>
<event>
 6    1  0.9988873E-007  0.1180829E+04  0.7818608E-02  0.9129804E-01
         -2   -1    0    0    0  501 -0.00000000000E+00  0.00000000000E+00  0.67668114472E+03  0.67668114472E+03  0.00000000000E+00 0.  1.
          2   -1    0    0  501    0  0.00000000000E+00 -0.00000000000E+00 -0.51514577069E+03  0.51514577069E+03  0.00000000000E+00 0. -1.
         23    2    1    2    0    0  0.43999926646E+03  0.38718880461E+03  0.51584902369E+02  0.59550181019E+03  0.91906903342E+02 0.  0.
         11    1    3    3    0    0  0.20819223004E+03  0.23383623535E+03  0.15394552174E+01  0.31309065706E+03  0.00000000000E+00 0.  1.
        -11    1    3    3    0    0  0.23180703642E+03  0.15335256925E+03  0.50045447152E+02  0.28241115313E+03  0.00000000000E+00 0. -1.
         22    1    1    2    0    0 -0.43999926646E+03 -0.38718880461E+03  0.10995047165E+03  0.59632510522E+03  0.00000000000E+00 0.  1.
<mgrwt>
<rscale>  0 0.11808293E+04</rscale>
<asrwt>0</asrwt>
<pdfrwt beam="1">  1        2 0.79253196E-01 0.11808293E+04</pdfrwt>
<pdfrwt beam="2">  1       -2 0.10410479E+00 0.11808293E+04</pdfrwt>
<totfact> 0.44091940E+01</totfact>
</mgrwt>
</event>
<event>
 6    1  0.9988873E-007  0.5017763E+03  0.7818608E-02  0.1013316E+00
         -2   -1    0    0    0  501 -0.00000000000E+00  0.00000000000E+00  0.64776491643E+02  0.64776491643E+02  0.00000000000E+00 0.  1.
          2   -1    0    0  501    0  0.00000000000E+00 -0.00000000000E+00 -0.97172375605E+03  0.97172375605E+03  0.00000000000E+00 0. -1.
         23    2    1    2    0    0  0.22146746165E+03 -0.11869437566E+02 -0.67169671923E+03  0.71318687166E+03  0.90941251188E+02 0.  0.
         11    1    3    3    0    0  0.30369028543E+02 -0.14626064449E+02 -0.22227065075E+03  0.22481201445E+03  0.00000000000E+00 0.  1.
        -11    1    3    3    0    0  0.19109843310E+03  0.27566268829E+01 -0.44942606848E+03  0.48837485721E+03  0.00000000000E+00 0. -1.
         22    1    1    2    0    0 -0.22146746165E+03  0.11869437566E+02 -0.23525054518E+03  0.32331337604E+03  0.00000000000E+00 0.  1.
<mgrwt>
<rscale>  0 0.50177627E+03</rscale>
<asrwt>0</asrwt>
<pdfrwt beam="1">  1        2 0.14949596E+00 0.50177627E+03</pdfrwt>
<pdfrwt beam="2">  1       -2 0.99656140E-02 0.50177627E+03</pdfrwt>
<totfact> 0.18239809E+03</totfact>
</mgrwt>
</event>
<event>
 6    1  0.9988873E-007  0.4150462E+04  0.7818608E-02  0.7974863E-01
          2   -1    0    0  501    0  0.00000000000E+00  0.00000000000E+00  0.12654206066E+04  0.12654206066E+04  0.00000000000E+00 0. -1.
         -2   -1    0    0    0  501 -0.00000000000E+00 -0.00000000000E+00 -0.34032826404E+04  0.34032826404E+04  0.00000000000E+00 0.  1.
         23    2    1    2    0    0 -0.10802781494E+04  0.45621097970E+03  0.85510850549E+03  0.14542045323E+04  0.91492772421E+02 0.  0.
         13    1    3    3    0    0 -0.23860189712E+03  0.69054827929E+02  0.15260419775E+03  0.29152611502E+03  0.00000000000E+00 0. -1.
        -13    1    3    3    0    0 -0.84167625227E+03  0.38715615177E+03  0.70250430774E+03  0.11626784172E+04  0.00000000000E+00 0.  1.
         22    1    1    2    0    0  0.10802781494E+04 -0.45621097970E+03 -0.29929705393E+04  0.32144987148E+04  0.00000000000E+00 0.  1.
<mgrwt>
<rscale>  0 0.41504621E+04</rscale>
<asrwt>0</asrwt>
<pdfrwt beam="1">  1        2 0.19468009E+00 0.41504621E+04</pdfrwt>
<pdfrwt beam="2">  1       -2 0.52358194E+00 0.41504621E+04</pdfrwt>
<totfact> 0.16115635E-02</totfact>
</mgrwt>
</event>
<event>
 6    1  0.9988873E-007  0.4207837E+04  0.7818608E-02  0.7963883E-01
         -2   -1    0    0    0  501 -0.00000000000E+00  0.00000000000E+00  0.26022723075E+04  0.26022723075E+04  0.00000000000E+00 0.  1.
          2   -1    0    0  501    0  0.00000000000E+00 -0.00000000000E+00 -0.17010029231E+04  0.17010029231E+04  0.00000000000E+00 0. -1.
         23    2    1    2    0    0  0.38359864662E+03 -0.83308160552E+03  0.23860345874E+04  0.25580816623E+04  0.97200078421E+02 0.  0.
         11    1    3    3    0    0  0.22186536840E+03 -0.52505840187E+03  0.13581222608E+04  0.14728905738E+04  0.00000000000E+00 0. -1.
        -11    1    3    3    0    0  0.16173327822E+03 -0.30802320365E+03  0.10279123266E+04  0.10851910884E+04  0.00000000000E+00 0.  1.
         22    1    1    2    0    0 -0.38359864662E+03  0.83308160552E+03 -0.14847652030E+04  0.17451935684E+04  0.00000000000E+00 0. -1.
<mgrwt>
<rscale>  0 0.42078369E+04</rscale>
<asrwt>0</asrwt>
<pdfrwt beam="1">  1        2 0.26169276E+00 0.42078369E+04</pdfrwt>
<pdfrwt beam="2">  1       -2 0.40034959E+00 0.42078369E+04</pdfrwt>
<totfact> 0.56086906E-02</totfact>
</mgrwt>
</event>
<event>
 6    1  0.9988873E-007  0.2996733E+04  0.7818608E-02  0.8244664E-01
         -1   -1    0    0    0  501 -0.00000000000E+00  0.00000000000E+00  0.24104047483E+04  0.24104047483E+04  0.00000000000E+00 0.  1.
          1   -1    0    0  501    0  0.00000000000E+00 -0.00000000000E+00 -0.93142111019E+03  0.93142111019E+03  0.00000000000E+00 0. -1.
         23    2    1    2    0    0  0.90624202380E+03 -0.74681412852E+03  0.17755023168E+04  0.21306573009E+04  0.91028064339E+02 0.  0.
         13    1    3    3    0    0  0.28951110728E+03 -0.28950359243E+03  0.65087532026E+03  0.76893933037E+03  0.00000000000E+00 0.  1.
        -13    1    3    3    0    0  0.61673091652E+03 -0.45731053609E+03  0.11246269965E+04  0.13617179705E+04  0.00000000000E+00 0. -1.
         22    1    1    2    0    0 -0.90624202380E+03  0.74681412852E+03 -0.29651867867E+03  0.12111685577E+04  0.00000000000E+00 0. -1.
<mgrwt>
<rscale>  0 0.29967328E+04</rscale>
<asrwt>0</asrwt>
<pdfrwt beam="1">  1        1 0.14329556E+00 0.29967328E+04</pdfrwt>
<pdfrwt beam="2">  1       -1 0.37083150E+00 0.29967328E+04</pdfrwt>
<totfact> 0.16466567E-01</totfact>
</mgrwt>
</event>
<event>
 6    1  0.1242729E-006  0.4810400E+04  0.7818608E-02  0.7858439E-01
          2   -1    0    0  501    0  0.00000000000E+00  0.00000000000E+00  0.27502905280E+04  0.27502905280E+04  0.00000000000E+00 0. -1.
         -2   -1    0    0    0  501 -0.00000000000E+00 -0.00000000000E+00 -0.21034090645E+04  0.21034090645E+04  0.00000000000E+00 0.  1.
         23    2    1    2    0    0  0.21814934644E+04 -0.53101839760E+03  0.11920039571E+04  0.25432769457E+04  0.80560008867E+02 0.  0.
         13    1    3    3    0    0  0.80381023388E+03 -0.16602373073E+03  0.46512397963E+03  0.94340610963E+03  0.00000000000E+00 0. -1.
        -13    1    3    3    0    0  0.13776832305E+04 -0.36499466687E+03  0.72687997746E+03  0.15998708361E+04  0.00000000000E+00 0.  1.
         22    1    1    2    0    0 -0.21814934644E+04  0.53101839760E+03 -0.54512249353E+03  0.23104226468E+04  0.00000000000E+00 0.  1.
<mgrwt>
<rscale>  0 0.48103996E+04</rscale>
<asrwt>0</asrwt>
<pdfrwt beam="1">  1        2 0.42312162E+00 0.48103996E+04</pdfrwt>
<pdfrwt beam="2">  1       -2 0.32360139E+00 0.48103996E+04</pdfrwt>
<totfact> 0.41646792E-02</totfact>
</mgrwt>
</event>
<event>
 6    1  0.9988873E-007  0.1242312E+04  0.7818608E-02  0.9076606E-01
          1   -1    0    0  501    0  0.00000000000E+00  0.00000000000E+00  0.83880881569E+03  0.83880881569E+03  0.00000000000E+00 0. -1.
         -1   -1    0    0    0  501 -0.00000000000E+00 -0.00000000000E+00 -0.45997963196E+03  0.45997963196E+03  0.00000000000E+00 0.  1.
         23    2    1    2    0    0  0.54238028529E+03 -0.24503113838E+03  0.18640537114E+02  0.60312150594E+03  0.95872043109E+02 0.  0.
         11    1    3    3    0    0  0.33700757473E+03 -0.14205787343E+03  0.57185099735E+02  0.37016844876E+03  0.00000000000E+00 0. -1.
        -11    1    3    3    0    0  0.20537271056E+03 -0.10297326496E+03 -0.38544562621E+02  0.23295305718E+03  0.00000000000E+00 0.  1.
         22    1    1    2    0    0 -0.54238028529E+03  0.24503113838E+03  0.36018864661E+03  0.69566694172E+03  0.00000000000E+00 0. -1.
<mgrwt>
<rscale>  0 0.12423123E+04</rscale>
<asrwt>0</asrwt>
<pdfrwt beam="1">  1        1 0.12904751E+00 0.12423123E+04</pdfrwt>
<pdfrwt beam="2">  1       -1 0.70766097E-01 0.12423123E+04</pdfrwt>
<totfact> 0.40761518E+01</totfact>
</mgrwt>
</event>
<event>
 6    1  0.9988873E-007  0.3528356E+04  0.7818608E-02  0.8107103E-01
          2   -1    0    0  501    0  0.00000000000E+00  0.00000000000E+00  0.22672645981E+04  0.22672645981E+04  0.00000000000E+00 0. -1.
         -2   -1    0    0    0  501 -0.00000000000E+00 -0.00000000000E+00 -0.13727220172E+04  0.13727220172E+04  0.00000000000E+00 0.  1.
         23    2    1    2    0    0 -0.17047887501E+04  0.37000074685E+03  0.18460331017E+03  0.17565803917E+04  0.91055233077E+02 0.  0.
         13    1    3    3    0    0 -0.12165302097E+04  0.29709381230E+03  0.15774889303E+03  0.12621787503E+04  0.00000000000E+00 0.  1.
        -13    1    3    3    0    0 -0.48825854035E+03  0.72906934554E+02  0.26854417138E+02  0.49440164143E+03  0.00000000000E+00 0. -1.
         22    1    1    2    0    0  0.17047887501E+04 -0.37000074685E+03  0.70993927071E+03  0.18834062236E+04  0.00000000000E+00 0. -1.
<mgrwt>
<rscale>  0 0.35283560E+04</rscale>
<asrwt>0</asrwt>
<pdfrwt beam="1">  1        2 0.34880994E+00 0.35283560E+04</pdfrwt>
<pdfrwt beam="2">  1       -2 0.21118800E+00 0.35283560E+04</pdfrwt>
<totfact> 0.43642941E-01</totfact>
</mgrwt>
</event>
<event>
 6    1  0.9988873E-007  0.5030636E+04  0.7818608E-02  0.7823799E-01
          1   -1    0    0  501    0  0.00000000000E+00  0.00000000000E+00  0.45062300659E+04  0.45062300659E+04  0.00000000000E+00 0. -1.
         -1   -1    0    0    0  501 -0.00000000000E+00 -0.00000000000E+00 -0.14040170336E+04  0.14040170336E+04  0.00000000000E+00 0.  1.
         23    2    1    2    0    0 -0.12521810755E+04 -0.19708903269E+03 -0.99967099152E+03  0.16169669925E+04  0.91862020993E+02 0.  0.
         11    1    3    3    0    0 -0.66748979209E+03 -0.10147976793E+03 -0.47413757120E+03  0.82501345581E+03  0.00000000000E+00 0.  1.
        -11    1    3    3    0    0 -0.58469128342E+03 -0.95609264759E+02 -0.52553342032E+03  0.79195353669E+03  0.00000000000E+00 0. -1.
         22    1    1    2    0    0  0.12521810755E+04  0.19708903269E+03  0.41018840237E+04  0.42932801070E+04  0.00000000000E+00 0. -1.
<mgrwt>
<rscale>  0 0.50306357E+04</rscale>
<asrwt>0</asrwt>
<pdfrwt beam="1">  1        1 0.69326616E+00 0.50306357E+04</pdfrwt>
<pdfrwt beam="2">  1       -1 0.21600262E+00 0.50306357E+04</pdfrwt>
<totfact> 0.26559156E-03</totfact>
</mgrwt>
</event>
<event>
 6    1  0.9988873E-007  0.2083476E+04  0.7818608E-02  0.8568557E-01
          1   -1    0    0  501    0  0.00000000000E+00  0.00000000000E+00  0.11358522320E+04  0.11358522320E+04  0.00000000000E+00 0. -1.
         -1   -1    0    0    0  501 -0.00000000000E+00 -0.00000000000E+00 -0.95542205418E+03  0.95542205418E+03  0.00000000000E+00 0.  1.
         23    2    1    2    0    0  0.96439025847E+03 -0.28216135319E+03 -0.17793336664E+03  0.10244621988E+04  0.90547854153E+02 0.  0.
         11    1    3    3    0    0  0.40690190483E+03 -0.86785081685E+02 -0.10616865910E+03  0.42938630012E+03  0.00000000000E+00 0.  1.
        -11    1    3    3    0    0  0.55748835365E+03 -0.19537627151E+03 -0.71764707543E+02  0.59507589866E+03  0.00000000000E+00 0. -1.
         22    1    1    2    0    0 -0.96439025847E+03  0.28216135319E+03  0.35836354449E+03  0.10668120874E+04  0.00000000000E+00 0.  1.
<mgrwt>
<rscale>  0 0.20834762E+04</rscale>
<asrwt>0</asrwt>
<pdfrwt beam="1">  1        1 0.17474650E+00 0.20834762E+04</pdfrwt>
<pdfrwt beam="2">  1       -1 0.14698801E+00 0.20834762E+04</pdfrwt>
<totfact> 0.40445239E+00</totfact>
</mgrwt>
</event>
<event>
 6    1  0.9988873E-007  0.3292968E+04  0.7818608E-02  0.8164687E-01
         -2   -1    0    0    0  501 -0.00000000000E+00  0.00000000000E+00  0.19760311452E+04  0.19760311452E+04  0.00000000000E+00 0.  1.
          2   -1    0    0  501    0  0.00000000000E+00 -0.00000000000E+00 -0.13718964565E+04  0.13718964565E+04  0.00000000000E+00 0. -1.
         23    2    1    2    0    0 -0.13198851281E+04 -0.11301027244E+03  0.12941337231E+04  0.18542854958E+04  0.93405211498E+02 0.  0.
         13    1    3    3    0    0 -0.75986576146E+03 -0.27223019248E+02  0.70412732764E+03  0.10363070789E+04  0.00000000000E+00 0. -1.
        -13    1    3    3    0    0 -0.56001936665E+03 -0.85787253195E+02  0.59000639545E+03  0.81797841690E+03  0.00000000000E+00 0.  1.
         22    1    1    2    0    0  0.13198851281E+04  0.11301027244E+03 -0.68999903438E+03  0.14936421059E+04  0.00000000000E+00 0. -1.
<mgrwt>
<rscale>  0 0.32929683E+04</rscale>
<asrwt>0</asrwt>
<pdfrwt beam="1">  1        2 0.21106099E+00 0.32929683E+04</pdfrwt>
<pdfrwt beam="2">  1       -2 0.30400479E+00 0.32929683E+04</pdfrwt>
<totfact> 0.37694258E-01</totfact>
</mgrwt>
</event>
<event>
 6    1  0.9988873E-007  0.3107111E+04  0.7818608E-02  0.8213789E-01
         -2   -1    0    0    0  501 -0.00000000000E+00  0.00000000000E+00  0.80088433885E+03  0.80088433885E+03  0.00000000000E+00 0.  1.
          2   -1    0    0  501    0  0.00000000000E+00 -0.00000000000E+00 -0.30135868339E+04  0.30135868339E+04  0.00000000000E+00 0. -1.
         23    2    1    2    0    0  0.76403181689E+03  0.47777704862E+03 -0.26589160904E+04  0.28089255010E+04  0.90621016843E+02 0.  0.
         13    1    3    3    0    0  0.26844746092E+03  0.21605650594E+03 -0.10634184686E+04  0.11178565617E+04  0.00000000000E+00 0.  1.
        -13    1    3    3    0    0  0.49558435597E+03  0.26172054268E+03 -0.15954976218E+04  0.16910689393E+04  0.00000000000E+00 0. -1.
         22    1    1    2    0    0 -0.76403181689E+03 -0.47777704862E+03  0.44621359534E+03  0.10055456718E+04  0.00000000000E+00 0.  1.
<mgrwt>
<rscale>  0 0.31071109E+04</rscale>
<asrwt>0</asrwt>
<pdfrwt beam="1">  1        2 0.46362874E+00 0.31071109E+04</pdfrwt>
<pdfrwt beam="2">  1       -2 0.12321298E+00 0.31071109E+04</pdfrwt>
<totfact> 0.71965491E-01</totfact>
</mgrwt>
</event>
<event>
 6    1  0.9988873E-007  0.2418629E+04  0.7818608E-02  0.8432562E-01
          2   -1    0    0  501    0  0.00000000000E+00  0.00000000000E+00  0.35668677858E+04  0.35668677858E+04  0.00000000000E+00 0. -1.
         -2   -1    0    0    0  501 -0.00000000000E+00 -0.00000000000E+00 -0.41000717679E+03  0.41000717679E+03  0.00000000000E+00 0.  1.
         23    2    1    2    0    0 -0.48727803015E+03  0.83310445104E+03  0.27738952814E+04  0.29385275510E+04  0.94584516364E+02 0.  0.
         11    1    3    3    0    0 -0.44216687835E+03  0.69040785334E+03  0.23692184055E+04  0.25070641007E+04  0.00000000000E+00 0. -1.
        -11    1    3    3    0    0 -0.45111151809E+02  0.14269659770E+03  0.40467687590E+03  0.43146345025E+03  0.00000000000E+00 0.  1.
         22    1    1    2    0    0  0.48727803015E+03 -0.83310445104E+03  0.38296532760E+03  0.10383474116E+04  0.00000000000E+00 0. -1.
<mgrwt>
<rscale>  0 0.24186289E+04</rscale>
<asrwt>0</asrwt>
<pdfrwt beam="1">  1        2 0.54874887E+00 0.24186289E+04</pdfrwt>
<pdfrwt beam="2">  1       -2 0.63078030E-01 0.24186289E+04</pdfrwt>
<totfact> 0.15275636E+00</totfact>
</mgrwt>
</event>
<event>
 6    1  0.2584546E-006  0.4074446E+04  0.7818608E-02  0.7989695E-01
         -2   -1    0    0    0  501 -0.00000000000E+00  0.00000000000E+00  0.16967486818E+04  0.16967486818E+04  0.00000000000E+00 0.  1.
          2   -1    0    0  501    0  0.00000000000E+00 -0.00000000000E+00 -0.24460177623E+04  0.24460177623E+04  0.00000000000E+00 0. -1.
         23    2    1    2    0    0 -0.18444136696E+04  0.43933722796E+03  0.38007624811E+03  0.19358908573E+04  0.91304285431E+02 0.  0.
         11    1    3    3    0    0 -0.14005472164E+04  0.32927836704E+03  0.32780047791E+03  0.14756049274E+04  0.00000000000E+00 0. -1.
        -11    1    3    3    0    0 -0.44386645323E+03  0.11005886092E+03  0.52275770200E+02  0.46028592996E+03  0.00000000000E+00 0.  1.
         22    1    1    2    0    0  0.18444136696E+04 -0.43933722796E+03 -0.11293453286E+04  0.22068755868E+04  0.00000000000E+00 0. -1.
<mgrwt>
<rscale>  0 0.40744459E+04</rscale>
<asrwt>0</asrwt>
<pdfrwt beam="1">  1        2 0.37631042E+00 0.40744459E+04</pdfrwt>
<pdfrwt beam="2">  1       -2 0.26103826E+00 0.40744459E+04</pdfrwt>
<totfact> 0.16127913E-01</totfact>
</mgrwt>
</event>
<event>
 6    1  0.9988873E-007  0.8407563E+03  0.7818608E-02  0.9502828E-01
          1   -1    0    0  501    0  0.00000000000E+00  0.00000000000E+00  0.58666001846E+03  0.58666001846E+03  0.00000000000E+00 0. -1.
         -1   -1    0    0    0  501 -0.00000000000E+00 -0.00000000000E+00 -0.30122694448E+03  0.30122694448E+03  0.00000000000E+00 0.  1.
         23    2    1    2    0    0 -0.22808684209E+03  0.17037352171E+03  0.46390551549E+03  0.55187631309E+03  0.91150387890E+02 0.  0.
         11    1    3    3    0    0 -0.22906650467E+03  0.16934142725E+03  0.41736066066E+03  0.50530971059E+03  0.00000000000E+00 0. -1.
        -11    1    3    3    0    0  0.97966257570E+00  0.10320944561E+01  0.46544854829E+02  0.46566602504E+02  0.00000000000E+00 0.  1.
         22    1    1    2    0    0  0.22808684209E+03 -0.17037352171E+03 -0.17847244151E+03  0.33601064985E+03  0.00000000000E+00 0.  1.
<mgrwt>
<rscale>  0 0.84075634E+03</rscale>
<asrwt>0</asrwt>
<pdfrwt beam="1">  1        1 0.90255387E-01 0.84075634E+03</pdfrwt>
<pdfrwt beam="2">  1       -1 0.46342607E-01 0.84075634E+03</pdfrwt>
<totfact> 0.16557675E+02</totfact>
</mgrwt>
</event>
<event>
 6    1  0.9988873E-007  0.2617944E+04  0.7818608E-02  0.8362132E-01
         -1   -1    0    0    0  501 -0.00000000000E+00  0.00000000000E+00  0.17653897471E+04  0.17653897471E+04  0.00000000000E+00 0.  1.
          1   -1    0    0  501    0  0.00000000000E+00 -0.00000000000E+00 -0.97055456271E+03  0.97055456271E+03  0.00000000000E+00 0. -1.
         23    2    1    2    0    0  0.20041417397E+03  0.10126672777E+04  0.12360422261E+04  0.16133025548E+04  0.96352957175E+02 0.  0.
         11    1    3    3    0    0  0.99817409373E+02  0.62488509500E+03  0.69263839215E+03  0.93818593010E+03  0.00000000000E+00 0. -1.
        -11    1    3    3    0    0  0.10059676460E+03  0.38778218269E+03  0.54340383391E+03  0.67511662472E+03  0.00000000000E+00 0.  1.
         22    1    1    2    0    0 -0.20041417397E+03 -0.10126672777E+04 -0.44120704166E+03  0.11226417550E+04  0.00000000000E+00 0. -1.
<mgrwt>
<rscale>  0 0.26179435E+04</rscale>
<asrwt>0</asrwt>
<pdfrwt beam="1">  1        1 0.14931609E+00 0.26179435E+04</pdfrwt>
<pdfrwt beam="2">  1       -1 0.27159842E+00 0.26179435E+04</pdfrwt>
<totfact> 0.70808175E-01</totfact>
</mgrwt>
</event>
<event>
 6    1  0.9988873E-007  0.1809876E+04  0.7818608E-02  0.8701065E-01
         -1   -1    0    0    0  501 -0.00000000000E+00  0.00000000000E+00  0.53173020962E+03  0.53173020962E+03  0.00000000000E+00 0.  1.
          1   -1    0    0  501    0  0.00000000000E+00 -0.00000000000E+00 -0.15400900744E+04  0.15400900744E+04  0.00000000000E+00 0. -1.
         23    2    1    2    0    0  0.75178531984E+03 -0.44393494567E+03 -0.76787278307E+03  0.11662301783E+04  0.90580432304E+02 0.  0.
         11    1    3    3    0    0  0.62966710556E+03 -0.33712242275E+03 -0.60049826500E+03  0.93312933617E+03  0.00000000000E+00 0. -1.
        -11    1    3    3    0    0  0.12211821428E+03 -0.10681252291E+03 -0.16737451806E+03  0.23310084214E+03  0.00000000000E+00 0.  1.
         22    1    1    2    0    0 -0.75178531984E+03  0.44393494567E+03 -0.24048708173E+03  0.90559010573E+03  0.00000000000E+00 0.  1.
<mgrwt>
<rscale>  0 0.18098756E+04</rscale>
<asrwt>0</asrwt>
<pdfrwt beam="1">  1        1 0.23693694E+00 0.18098756E+04</pdfrwt>
<pdfrwt beam="2">  1       -1 0.81804647E-01 0.18098756E+04</pdfrwt>
<totfact> 0.86038783E+00</totfact>
</mgrwt>
</event>
<event>
 6    1  0.9988873E-007  0.9092192E+03  0.7818608E-02  0.9414130E-01
          2   -1    0    0  501    0  0.00000000000E+00  0.00000000000E+00  0.71457966969E+03  0.71457966969E+03  0.00000000000E+00 0. -1.
         -2   -1    0    0    0  501 -0.00000000000E+00 -0.00000000000E+00 -0.28921883175E+03  0.28921883175E+03  0.00000000000E+00 0.  1.
         23    2    1    2    0    0 -0.37385244388E+03  0.18105917487E+03  0.23446820720E+02  0.42579940815E+03  0.90594193952E+02 0.  0.
         11    1    3    3    0    0 -0.53099392964E+01  0.12610060060E+02 -0.13097129952E+02  0.18940535447E+02  0.00000000000E+00 0.  1.
        -11    1    3    3    0    0 -0.36854250458E+03  0.16844911481E+03  0.36543950671E+02  0.40685887270E+03  0.00000000000E+00 0. -1.
         22    1    1    2    0    0  0.37385244388E+03 -0.18105917487E+03  0.40191401723E+03  0.57799909329E+03  0.00000000000E+00 0.  1.
<mgrwt>
<rscale>  0 0.90921922E+03</rscale>
<asrwt>0</asrwt>
<pdfrwt beam="1">  1        2 0.10993533E+00 0.90921922E+03</pdfrwt>
<pdfrwt beam="2">  1       -2 0.44495205E-01 0.90921922E+03</pdfrwt>
<totfact> 0.19163839E+02</totfact>
</mgrwt>
</event>
<event>
 6    1  0.9988873E-007  0.2753351E+04  0.7818608E-02  0.8317899E-01
          2   -1    0    0  501    0  0.00000000000E+00  0.00000000000E+00  0.23857486777E+04  0.23857486777E+04  0.00000000000E+00 0. -1.
         -2   -1    0    0    0  501 -0.00000000000E+00 -0.00000000000E+00 -0.79439832738E+03  0.79439832738E+03  0.00000000000E+00 0.  1.
         23    2    1    2    0    0  0.60341356630E+03 -0.84337157985E+03  0.18397381660E+04  0.21138074434E+04  0.90342873518E+02 0.  0.
         13    1    3    3    0    0  0.11516993901E+03 -0.15491961713E+03  0.27554183922E+03  0.33643351168E+03  0.00000000000E+00 0. -1.
        -13    1    3    3    0    0  0.48824362730E+03 -0.68845196273E+03  0.15641963268E+04  0.17773739317E+04  0.00000000000E+00 0.  1.
         22    1    1    2    0    0 -0.60341356630E+03  0.84337157985E+03 -0.24838781569E+03  0.10663395616E+04  0.00000000000E+00 0.  1.
<mgrwt>
<rscale>  0 0.27533505E+04</rscale>
<asrwt>0</asrwt>
<pdfrwt beam="1">  1        2 0.36703825E+00 0.27533505E+04</pdfrwt>
<pdfrwt beam="2">  1       -2 0.12221513E+00 0.27533505E+04</pdfrwt>
<totfact> 0.17948399E+00</totfact>
</mgrwt>
</event>
<event>
 6    1  0.9988873E-007  0.1146010E+04  0.7818608E-02  0.9161472E-01
         -2   -1    0    0    0  501 -0.00000000000E+00  0.00000000000E+00  0.37584801799E+03  0.37584801799E+03  0.00000000000E+00 0.  1.
          2   -1    0    0  501    0  0.00000000000E+00 -0.00000000000E+00 -0.87358361152E+03  0.87358361152E+03  0.00000000000E+00 0. -1.
         23    2    1    2    0    0  0.31449578693E+02 -0.11760463035E+03 -0.85690138341E+03  0.87019556886E+03  0.90224287751E+02 0.  0.
         13    1    3    3    0    0  0.26729901153E+01 -0.58237188836E+02 -0.65928030224E+03  0.66185287789E+03  0.00000000000E+00 0. -1.
        -13    1    3    3    0    0  0.28776588577E+02 -0.59367441519E+02 -0.19762108117E+03  0.20834269098E+03  0.00000000000E+00 0.  1.
         22    1    1    2    0    0 -0.31449578693E+02  0.11760463035E+03  0.35916578988E+03  0.37923606065E+03  0.00000000000E+00 0.  1.
<mgrwt>
<rscale>  0 0.11460099E+04</rscale>
<asrwt>0</asrwt>
<pdfrwt beam="1">  1        2 0.13439748E+00 0.11460099E+04</pdfrwt>
<pdfrwt beam="2">  1       -2 0.57822772E-01 0.11460099E+04</pdfrwt>
<totfact> 0.84751955E+01</totfact>
</mgrwt>
</event>
<event>
 6    1  0.9988873E-007  0.4776047E+04  0.7818608E-02  0.7864014E-01
         -2   -1    0    0    0  501 -0.00000000000E+00  0.00000000000E+00  0.33828136900E+04  0.33828136900E+04  0.00000000000E+00 0.  1.
          2   -1    0    0  501    0  0.00000000000E+00 -0.00000000000E+00 -0.16857732672E+04  0.16857732672E+04  0.00000000000E+00 0. -1.
         23    2    1    2    0    0  0.11939816042E+04 -0.10772711863E+04 -0.10232438010E+04  0.19085155122E+04  0.96427713969E+02 0.  0.
         11    1    3    3    0    0  0.41996515380E+03 -0.43668590578E+03 -0.36308881811E+03  0.70632768638E+03  0.00000000000E+00 0.  1.
        -11    1    3    3    0    0  0.77401645035E+03 -0.64058528048E+03 -0.66015498293E+03  0.12021878258E+04  0.00000000000E+00 0. -1.
         22    1    1    2    0    0 -0.11939816042E+04  0.10772711863E+04  0.27202842238E+04  0.31600714451E+04  0.00000000000E+00 0.  1.
<mgrwt>
<rscale>  0 0.47760473E+04</rscale>
<asrwt>0</asrwt>
<pdfrwt beam="1">  1        2 0.25934973E+00 0.47760473E+04</pdfrwt>
<pdfrwt beam="2">  1       -2 0.52043287E+00 0.47760473E+04</pdfrwt>
<totfact> 0.92561348E-03</totfact>
</mgrwt>
</event>
<event>
 6    1  0.9988873E-007  0.9100135E+03  0.7818608E-02  0.9413150E-01
          2   -1    0    0  501    0  0.00000000000E+00  0.00000000000E+00  0.96369495522E+03  0.96369495522E+03  0.00000000000E+00 0. -1.
         -2   -1    0    0    0  501 -0.00000000000E+00 -0.00000000000E+00 -0.21483059252E+03  0.21483059252E+03  0.00000000000E+00 0.  1.
         23    2    1    2    0    0  0.33969142353E+03  0.27871881939E+03  0.50570578364E+03  0.67632983083E+03  0.92786081743E+02 0.  0.
         13    1    3    3    0    0  0.87219426237E+02  0.98808149980E+02  0.20979744702E+03  0.24776046414E+03  0.00000000000E+00 0.  1.
        -13    1    3    3    0    0  0.25247199729E+03  0.17991066941E+03  0.29590833662E+03  0.42856936669E+03  0.00000000000E+00 0. -1.
         22    1    1    2    0    0 -0.33969142353E+03 -0.27871881939E+03  0.24315857907E+03  0.50219571691E+03  0.00000000000E+00 0. -1.
<mgrwt>
<rscale>  0 0.91001353E+03</rscale>
<asrwt>0</asrwt>
<pdfrwt beam="1">  1        2 0.14826076E+00 0.91001353E+03</pdfrwt>
<pdfrwt beam="2">  1       -2 0.33050861E-01 0.91001353E+03</pdfrwt>
<totfact> 0.22746884E+02</totfact>
</mgrwt>
</event>
<event>
 6    1  0.9988873E-007  0.3413012E+04  0.7818608E-02  0.8134720E-01
          2   -1    0    0  501    0  0.00000000000E+00  0.00000000000E+00  0.58443729585E+03  0.58443729585E+03  0.00000000000E+00 0. -1.
         -2   -1    0    0    0  501 -0.00000000000E+00 -0.00000000000E+00 -0.49828501389E+04  0.49828501389E+04  0.00000000000E+00 0.  1.
         23    2    1    2    0    0  0.16335302101E+04 -0.27224632814E+03 -0.15371257341E+04  0.22613075603E+04  0.90649595061E+02 0.  0.
         11    1    3    3    0    0  0.47393363161E+03 -0.73368007750E+02 -0.39050835822E+03  0.61845996602E+03  0.00000000000E+00 0.  1.
        -11    1    3    3    0    0  0.11595965785E+04 -0.19887832039E+03 -0.11466173759E+04  0.16428475943E+04  0.00000000000E+00 0. -1.
         22    1    1    2    0    0 -0.16335302101E+04  0.27224632814E+03 -0.28612871089E+04  0.33059798744E+04  0.00000000000E+00 0.  1.
<mgrwt>
<rscale>  0 0.34130124E+04</rscale>
<asrwt>0</asrwt>
<pdfrwt beam="1">  1        2 0.89913433E-01 0.34130124E+04</pdfrwt>
<pdfrwt beam="2">  1       -2 0.76659230E+00 0.34130124E+04</pdfrwt>
<totfact> 0.50641728E-03</totfact>
</mgrwt>
</event>
<event>
 6    1  0.9988873E-007  0.2124224E+04  0.7818608E-02  0.8550647E-01
         -1   -1    0    0    0  501 -0.00000000000E+00  0.00000000000E+00  0.72168832366E+03  0.72168832366E+03  0.00000000000E+00 0.  1.
          1   -1    0    0  501    0  0.00000000000E+00 -0.00000000000E+00 -0.15631157509E+04  0.15631157509E+04  0.00000000000E+00 0. -1.
         23    2    1    2    0    0 -0.70086487027E+03 -0.69144973071E+03 -0.84433152471E+03  0.13002621860E+04  0.92042013971E+02 0.  0.
         13    1    3    3    0    0 -0.10275451390E+03 -0.13836299693E+03 -0.11828493951E+03  0.20903142339E+03  0.00000000000E+00 0. -1.
        -13    1    3    3    0    0 -0.59811035637E+03 -0.55308673378E+03 -0.72604658520E+03  0.10912307626E+04  0.00000000000E+00 0.  1.
         22    1    1    2    0    0  0.70086487027E+03  0.69144973071E+03  0.29040974704E+01  0.98454188852E+03  0.00000000000E+00 0.  1.
<mgrwt>
<rscale>  0 0.21242245E+04</rscale>
<asrwt>0</asrwt>
<pdfrwt beam="1">  1        1 0.24047934E+00 0.21242245E+04</pdfrwt>
<pdfrwt beam="2">  1       -1 0.11102897E+00 0.21242245E+04</pdfrwt>
<totfact> 0.40529963E+00</totfact>
</mgrwt>
</event>
<event>
 6    1  0.9988873E-007  0.2271996E+04  0.7818608E-02  0.8489045E-01
         -2   -1    0    0    0  501 -0.00000000000E+00  0.00000000000E+00  0.21429814305E+04  0.21429814305E+04  0.00000000000E+00 0.  1.
          2   -1    0    0  501    0  0.00000000000E+00 -0.00000000000E+00 -0.60219455124E+03  0.60219455124E+03  0.00000000000E+00 0. -1.
         23    2    1    2    0    0  0.79191892825E+02  0.33700841031E+03 -0.53346619230E+03  0.64223237113E+03  0.89611470764E+02 0.  0.
         13    1    3    3    0    0  0.89548012457E+02  0.18917855945E+03 -0.30468615106E+03  0.36964986750E+03  0.00000000000E+00 0.  1.
        -13    1    3    3    0    0 -0.10356119632E+02  0.14782985086E+03 -0.22878004124E+03  0.27258250364E+03  0.00000000000E+00 0. -1.
         22    1    1    2    0    0 -0.79191892825E+02 -0.33700841031E+03  0.20742530715E+04  0.21029436106E+04  0.00000000000E+00 0.  1.
<mgrwt>
<rscale>  0 0.22719963E+04</rscale>
<asrwt>0</asrwt>
<pdfrwt beam="1">  1        2 0.92645317E-01 0.22719963E+04</pdfrwt>
<pdfrwt beam="2">  1       -2 0.32968945E+00 0.22719963E+04</pdfrwt>
<totfact> 0.93638957E-01</totfact>
</mgrwt>
</event>
<event>
 6    1  0.9988873E-007  0.2252740E+04  0.7818608E-02  0.8496792E-01
         -2   -1    0    0    0  501 -0.00000000000E+00  0.00000000000E+00  0.65478264209E+03  0.65478264209E+03  0.00000000000E+00 0.  1.
          2   -1    0    0  501    0  0.00000000000E+00 -0.00000000000E+00 -0.19376045438E+04  0.19376045438E+04  0.00000000000E+00 0. -1.
         23    2    1    2    0    0 -0.16008534626E+03  0.78868645983E+03 -0.15462800338E+04  0.17455909664E+04  0.91936004179E+02 0.  0.
         11    1    3    3    0    0  0.41658980002E+01  0.64724768475E+02 -0.16832597162E+03  0.18038925434E+03  0.00000000000E+00 0. -1.
        -11    1    3    3    0    0 -0.16425124426E+03  0.72396169135E+03 -0.13779540622E+04  0.15652017120E+04  0.00000000000E+00 0.  1.
         22    1    1    2    0    0  0.16008534626E+03 -0.78868645983E+03  0.26345813212E+03  0.84679621951E+03  0.00000000000E+00 0.  1.
<mgrwt>
<rscale>  0 0.22527404E+04</rscale>
<asrwt>0</asrwt>
<pdfrwt beam="1">  1        2 0.29809301E+00 0.22527404E+04</pdfrwt>
<pdfrwt beam="2">  1       -2 0.10073579E+00 0.22527404E+04</pdfrwt>
<totfact> 0.53461628E+00</totfact>
</mgrwt>
</event>
<event>
 6    1  0.9988873E-007  0.4556986E+04  0.7818608E-02  0.7900735E-01
         -1   -1    0    0    0  501 -0.00000000000E+00  0.00000000000E+00  0.33754860685E+04  0.33754860685E+04  0.00000000000E+00 0.  1.
          1   -1    0    0  501    0  0.00000000000E+00 -0.00000000000E+00 -0.15380098882E+04  0.15380098882E+04  0.00000000000E+00 0. -1.
         23    2    1    2    0    0  0.79279929355E+02  0.22059057239E+04  0.15243726952E+04  0.26840702094E+04  0.90638873431E+02 0.  0.
         13    1    3    3    0    0  0.67286375909E+02  0.21578488070E+04  0.14792102870E+04  0.26170406958E+04  0.00000000000E+00 0. -1.
        -13    1    3    3    0    0  0.11993553446E+02  0.48056916950E+02  0.45162408179E+02  0.67029513676E+02  0.00000000000E+00 0.  1.
         22    1    1    2    0    0 -0.79279929355E+02 -0.22059057239E+04  0.31310348509E+03  0.22294257472E+04  0.00000000000E+00 0. -1.
<mgrwt>
<rscale>  0 0.45569863E+04</rscale>
<asrwt>0</asrwt>
<pdfrwt beam="1">  1        1 0.23661691E+00 0.45569863E+04</pdfrwt>
<pdfrwt beam="2">  1       -1 0.51930555E+00 0.45569863E+04</pdfrwt>
<totfact> 0.52119971E-03</totfact>
</mgrwt>
</event>
<event>
 6    1  0.9988873E-007  0.3289242E+04  0.7818608E-02  0.8165638E-01
         -2   -1    0    0    0  501 -0.00000000000E+00  0.00000000000E+00  0.17434212047E+04  0.17434212047E+04  0.00000000000E+00 0.  1.
          2   -1    0    0  501    0  0.00000000000E+00 -0.00000000000E+00 -0.15514201883E+04  0.15514201883E+04  0.00000000000E+00 0. -1.
         23    2    1    2    0    0  0.38421537215E+02  0.14509673540E+04  0.86794775621E+03  0.16936897851E+04  0.92028820344E+02 0.  0.
         13    1    3    3    0    0  0.44165230154E+02  0.89648832725E+03  0.58250450274E+03  0.10700249456E+04  0.00000000000E+00 0.  1.
        -13    1    3    3    0    0 -0.57436929386E+01  0.55447902671E+03  0.28544325347E+03  0.62366483949E+03  0.00000000000E+00 0. -1.
         22    1    1    2    0    0 -0.38421537215E+02 -0.14509673540E+04 -0.67594673981E+03  0.16011516080E+04  0.00000000000E+00 0. -1.
<mgrwt>
<rscale>  0 0.32892424E+04</rscale>
<asrwt>0</asrwt>
<pdfrwt beam="1">  1        2 0.23868003E+00 0.32892424E+04</pdfrwt>
<pdfrwt beam="2">  1       -2 0.26821865E+00 0.32892424E+04</pdfrwt>
<totfact> 0.49329634E-01</totfact>
</mgrwt>
</event>
<event>
 6    1  0.9988873E-007  0.3075663E+04  0.7818608E-02  0.8222449E-01
         -2   -1    0    0    0  501 -0.00000000000E+00  0.00000000000E+00  0.62720474754E+03  0.62720474754E+03  0.00000000000E+00 0.  1.
          2   -1    0    0  501    0  0.00000000000E+00 -0.00000000000E+00 -0.37705791969E+04  0.37705791969E+04  0.00000000000E+00 0. -1.
         23    2    1    2    0    0  0.10573756382E+04  0.81574488557E+03 -0.26593022798E+04  0.29772879663E+04  0.94191614778E+02 0.  0.
         13    1    3    3    0    0  0.44686154799E+03  0.29190052165E+03 -0.10177754845E+04  0.11492424002E+04  0.00000000000E+00 0.  1.
        -13    1    3    3    0    0  0.61051409019E+03  0.52384436391E+03 -0.16415267953E+04  0.18280455661E+04  0.00000000000E+00 0. -1.
         22    1    1    2    0    0 -0.10573756382E+04 -0.81574488557E+03 -0.48407216952E+03  0.14204959781E+04  0.00000000000E+00 0.  1.
<mgrwt>
<rscale>  0 0.30756626E+04</rscale>
<asrwt>0</asrwt>
<pdfrwt beam="1">  1        2 0.58008911E+00 0.30756626E+04</pdfrwt>
<pdfrwt beam="2">  1       -2 0.96493037E-01 0.30756626E+04</pdfrwt>
<totfact> 0.39478574E-01</totfact>
</mgrwt>
</event>
<event>
 6    1  0.9988873E-007  0.8117628E+04  0.7818608E-02  0.7472010E-01
         -2   -1    0    0    0  501 -0.00000000000E+00  0.00000000000E+00  0.36416388024E+04  0.36416388024E+04  0.00000000000E+00 0.  1.
          2   -1    0    0  501    0  0.00000000000E+00 -0.00000000000E+00 -0.45237791043E+04  0.45237791043E+04  0.00000000000E+00 0. -1.
         23    2    1    2    0    0  0.18592079491E+03 -0.33824962012E+04  0.18071683059E+04  0.38401170061E+04  0.69240460034E+02 0.  0.
         13    1    3    3    0    0  0.42498001613E+02 -0.79408478993E+03  0.45765996956E+03  0.91751260562E+03  0.00000000000E+00 0.  1.
        -13    1    3    3    0    0  0.14342279330E+03 -0.25884114113E+04  0.13495083363E+04  0.29226044005E+04  0.00000000000E+00 0. -1.
         22    1    1    2    0    0 -0.18592079491E+03  0.33824962012E+04 -0.26893086078E+04  0.43253009006E+04  0.00000000000E+00 0. -1.
<mgrwt>
<rscale>  0 0.81176276E+04</rscale>
<asrwt>0</asrwt>
<pdfrwt beam="1">  1        2 0.69596601E+00 0.81176276E+04</pdfrwt>
<pdfrwt beam="2">  1       -2 0.56025213E+00 0.81176276E+04</pdfrwt>
<totfact> 0.51646454E-05</totfact>
</mgrwt>
</event>
<event>
 6    1  0.9988873E-007  0.3896705E+04  0.7818608E-02  0.8025715E-01
          1   -1    0    0  501    0  0.00000000000E+00  0.00000000000E+00  0.17286800630E+04  0.17286800630E+04  0.00000000000E+00 0. -1.
         -1   -1    0    0    0  501 -0.00000000000E+00 -0.00000000000E+00 -0.21959401098E+04  0.21959401098E+04  0.00000000000E+00 0.  1.
         23    2    1    2    0    0 -0.14968840589E+04 -0.11453628121E+04  0.25985288984E+03  0.19044194205E+04  0.82291844532E+02 0.  0.
         13    1    3    3    0    0 -0.82567090234E+03 -0.68263476746E+03  0.15310637334E+03  0.10822034126E+04  0.00000000000E+00 0. -1.
        -13    1    3    3    0    0 -0.67121315652E+03 -0.46272804464E+03  0.10674651650E+03  0.82221600785E+03  0.00000000000E+00 0.  1.
         22    1    1    2    0    0  0.14968840589E+04  0.11453628121E+04 -0.72711293667E+03  0.20202007523E+04  0.00000000000E+00 0.  1.
<mgrwt>
<rscale>  0 0.38967052E+04</rscale>
<asrwt>0</asrwt>
<pdfrwt beam="1">  1        1 0.26595078E+00 0.38967052E+04</pdfrwt>
<pdfrwt beam="2">  1       -1 0.33783694E+00 0.38967052E+04</pdfrwt>
<totfact> 0.67216760E-02</totfact>
</mgrwt>
</event>
